 Gaussian 16, Revision B.01,
 Gaussian 16:  ES64L-G16RevB.01 20-Dec-2017

 -------------------------
 #P B3LYP/6-311+g(d) force
 -------------------------

 -----
 DPGEN
 -----
 Symbolic Z-matrix:
 Charge =  0 Multiplicity = 2

                         Standard orientation:
 ---------------------------------------------------------------------
 Center     Atomic      Atomic             Coordinates (Angstroms)
 Number     Number       Type             X           Y           Z
 ---------------------------------------------------------------------
      1         11           0        0.403617    1.783708   -0.565956
      2         11           0        0.504445   -0.885959    1.736615
      3         11           0        2.351373   -1.735891   -0.749581
      4         11           0       -2.539080   -0.246203    1.579791
      5         11           0        3.950381    1.438179    0.202641
      6         11           0       -3.530519    1.213747   -0.758553
      7         11           0       -1.140218   -1.567581   -1.444957
 ---------------------------------------------------------------------

 SCF Done:  E(UB3LYP) =  -1136.11935477     A.U. after   24 cycles

 The electronic state is 2-A.
 Alpha  occ. eigenvalues --  -38.44841 -38.44329 -38.44308 -38.44219 -38.43993
 Alpha  occ. eigenvalues --  -38.43592 -38.43498  -2.20628  -2.20252  -2.20178
 Alpha  occ. eigenvalues --   -2.20065  -2.19762  -2.19459  -2.19434  -1.14345
 Alpha  occ. eigenvalues --   -1.14317  -1.14211  -1.14077  -1.13925  -1.13879
 Alpha  occ. eigenvalues --   -1.13809  -1.13806  -1.13768  -1.13744  -1.13732
 Alpha  occ. eigenvalues --   -1.13671  -1.13440  -1.13431  -1.13394  -1.13153
 Alpha  occ. eigenvalues --   -1.13135  -1.13113  -1.13075  -1.13057  -1.13024
 Alpha  occ. eigenvalues --   -0.18480  -0.14121  -0.11378  -0.11090
 Alpha virt. eigenvalues --   -0.07055  -0.05507  -0.04500  -0.03252  -0.02776
 Alpha virt. eigenvalues --   -0.02483  -0.02309  -0.01454  -0.00794  -0.00188
 Alpha virt. eigenvalues --    0.00042   0.00227   0.00358   0.00428   0.00699

  Beta  occ. eigenvalues --  -38.44827 -38.44318 -38.44255 -38.44206 -38.44001
  Beta  occ. eigenvalues --  -38.43539 -38.43440  -2.20605  -2.20172  -2.20147
  Beta  occ. eigenvalues --   -2.20042  -2.19777  -2.19363  -2.19329  -1.14322
  Beta  occ. eigenvalues --   -1.14293  -1.14195  -1.14029  -1.13862  -1.13825
  Beta  occ. eigenvalues --   -1.13786  -1.13778  -1.13751  -1.13712  -1.13700
  Beta  occ. eigenvalues --   -1.13653  -1.13448  -1.13442  -1.13403  -1.13086
  Beta  occ. eigenvalues --   -1.13062  -1.13042  -1.12986  -1.12983  -1.12953
  Beta  occ. eigenvalues --   -0.17768  -0.14009  -0.10937
  Beta virt. eigenvalues --   -0.07254  -0.06935  -0.05410  -0.03876  -0.02960
  Beta virt. eigenvalues --   -0.02698  -0.01900  -0.01616  -0.01315  -0.00365
  Beta virt. eigenvalues --   -0.00122   0.00067   0.00239   0.00476   0.00573

 Mulliken charges and spin densities:
               1          2
     1  Na  -0.894332   0.079429
     2  Na  -0.023748   0.303657
     3  Na   0.358894   0.077814
     4  Na  -0.128168   0.018128
     5  Na   0.449844  -0.113125
     6  Na   0.586052   0.245827
     7  Na  -0.348541   0.388270
 Sum of Mulliken charges =  -0.00000   1.00000

 Dipole moment (field-independent basis, Debye):
    X=             -0.0001    Y=             -0.3494    Z=             -0.2763  Tot=              0.4455
 Quadrupole moment (field-independent basis, Debye-Ang):
   XX=            -51.2414   YY=            -75.2561   ZZ=            -70.6987
   XY=             -3.4566   XZ=              1.1401   YZ=              0.5515

 Normal termination of Gaussian 16 at Thu Dec  7 15:02:12 2023.
