 Gaussian 16, Revision B.01,
 Gaussian 16:  ES64L-G16RevB.01 20-Dec-2017

 -------------------------
 #P B3LYP/6-311+g(d) force
 -------------------------

 -----
 DPGEN
 -----
 Symbolic Z-matrix:
 Charge =  0 Multiplicity = 2

                         Standard orientation:
 ---------------------------------------------------------------------
 Center     Atomic      Atomic             Coordinates (Angstroms)
 Number     Number       Type             X           Y           Z
 ---------------------------------------------------------------------
      1         11           0        0.839089    2.888403    0.603696
      2         11           0        4.454849   -1.639353   -1.998853
      3         11           0       -4.122852   -1.421864   -1.639895
      4         11           0        0.524715   -1.177151    2.854138
      5         11           0       -2.395923    2.063381   -1.257172
      6         11           0        3.383975    0.439033    0.162646
      7         11           0       -2.683853   -1.152450    1.275440
 ---------------------------------------------------------------------

 SCF Done:  E(UB3LYP) =  -1136.10494647     A.U. after   29 cycles

 The electronic state is 2-A.
 Alpha  occ. eigenvalues --  -38.46471 -38.45401 -38.44913 -38.44503 -38.43602
 Alpha  occ. eigenvalues --  -38.43422 -38.43286  -2.22245  -2.21144  -2.20715
 Alpha  occ. eigenvalues --   -2.20294  -2.19387  -2.19232  -2.19048  -1.15892
 Alpha  occ. eigenvalues --   -1.15880  -1.15845  -1.14836  -1.14807  -1.14742
 Alpha  occ. eigenvalues --   -1.14401  -1.14380  -1.14355  -1.13956  -1.13953
 Alpha  occ. eigenvalues --   -1.13925  -1.13074  -1.13039  -1.13037  -1.12917
 Alpha  occ. eigenvalues --   -1.12905  -1.12842  -1.12732  -1.12706  -1.12690
 Alpha  occ. eigenvalues --   -0.16226  -0.13667  -0.12610  -0.11109
 Alpha virt. eigenvalues --   -0.06817  -0.06005  -0.04123  -0.03797  -0.03365
 Alpha virt. eigenvalues --   -0.02657  -0.01812  -0.01453  -0.01236  -0.00797
 Alpha virt. eigenvalues --   -0.00709  -0.00562  -0.00053   0.00244   0.00571

  Beta  occ. eigenvalues --  -38.46353 -38.45365 -38.44887 -38.44492 -38.43582
  Beta  occ. eigenvalues --  -38.43419 -38.43287  -2.22028  -2.21077  -2.20672
  Beta  occ. eigenvalues --   -2.20273  -2.19351  -2.19229  -2.19050  -1.15743
  Beta  occ. eigenvalues --   -1.15729  -1.15691  -1.14791  -1.14765  -1.14691
  Beta  occ. eigenvalues --   -1.14377  -1.14356  -1.14288  -1.13942  -1.13939
  Beta  occ. eigenvalues --   -1.13908  -1.13049  -1.13014  -1.13013  -1.12912
  Beta  occ. eigenvalues --   -1.12903  -1.12835  -1.12731  -1.12709  -1.12690
  Beta  occ. eigenvalues --   -0.15379  -0.13461  -0.10844
  Beta virt. eigenvalues --   -0.08774  -0.06478  -0.05424  -0.03914  -0.03566
  Beta virt. eigenvalues --   -0.02916  -0.02224  -0.01749  -0.01188  -0.00805
  Beta virt. eigenvalues --   -0.00603  -0.00507  -0.00368   0.00087   0.00289

 Mulliken charges and spin densities:
               1          2
     1  Na  -0.011465   0.030019
     2  Na   0.397460   0.049493
     3  Na   0.532154   0.049282
     4  Na   0.191171   0.471225
     5  Na   0.035264   0.194874
     6  Na  -0.643332   0.059501
     7  Na  -0.501253   0.145607
 Sum of Mulliken charges =  -0.00000   1.00000

 Dipole moment (field-independent basis, Debye):
    X=             -1.9129    Y=             -0.8295    Z=              0.1736  Tot=              2.0923
 Quadrupole moment (field-independent basis, Debye-Ang):
   XX=            -70.6701   YY=            -71.3578   ZZ=            -59.5706
   XY=             -0.2851   XZ=              6.9704   YZ=             -0.0878

 Normal termination of Gaussian 16 at Mon Dec  4 02:08:41 2023.
