 Gaussian 16, Revision B.01,
 Gaussian 16:  ES64L-G16RevB.01 20-Dec-2017

 -------------------------
 #P B3LYP/6-311+g(d) force
 -------------------------

 -----
 DPGEN
 -----
 Symbolic Z-matrix:
 Charge =  0 Multiplicity = 2

                         Standard orientation:
 ---------------------------------------------------------------------
 Center     Atomic      Atomic             Coordinates (Angstroms)
 Number     Number       Type             X           Y           Z
 ---------------------------------------------------------------------
      1         11           0        0.280959   -0.095708    1.905102
      2         11           0        3.003130   -1.182134   -0.040502
      3         11           0        0.002720   -0.135073   -1.761750
      4         11           0       -0.409517   -2.834038    0.136404
      5         11           0       -2.892210   -0.751067   -0.281782
      6         11           0       -1.856382    2.443412    0.334666
      7         11           0        1.871300    2.554608   -0.292138
 ---------------------------------------------------------------------

 SCF Done:  E(UB3LYP) =  -1136.13890358     A.U. after   18 cycles

 The electronic state is 2-A.
 Alpha  occ. eigenvalues --  -38.44096 -38.43974 -38.43613 -38.43508 -38.43413
 Alpha  occ. eigenvalues --  -38.43408 -38.43294  -2.19899  -2.19764  -2.19429
 Alpha  occ. eigenvalues --   -2.19387  -2.19324  -2.19298  -2.19239  -1.13579
 Alpha  occ. eigenvalues --   -1.13560  -1.13535  -1.13446  -1.13424  -1.13397
 Alpha  occ. eigenvalues --   -1.13119  -1.13102  -1.13100  -1.13072  -1.13058
 Alpha  occ. eigenvalues --   -1.13026  -1.13014  -1.12985  -1.12974  -1.12941
 Alpha  occ. eigenvalues --   -1.12924  -1.12908  -1.12901  -1.12857  -1.12852
 Alpha  occ. eigenvalues --   -0.18577  -0.12836  -0.12546  -0.10676
 Alpha virt. eigenvalues --   -0.05670  -0.05175  -0.04799  -0.03100  -0.02965
 Alpha virt. eigenvalues --   -0.02483  -0.01476  -0.01257  -0.00458  -0.00345
 Alpha virt. eigenvalues --    0.00003   0.00364   0.00818   0.00826   0.00906

  Beta  occ. eigenvalues --  -38.44094 -38.43969 -38.43607 -38.43502 -38.43400
  Beta  occ. eigenvalues --  -38.43329 -38.43221  -2.19898  -2.19758  -2.19421
  Beta  occ. eigenvalues --   -2.19378  -2.19287  -2.19169  -2.19105  -1.13562
  Beta  occ. eigenvalues --   -1.13559  -1.13533  -1.13429  -1.13418  -1.13395
  Beta  occ. eigenvalues --   -1.13114  -1.13091  -1.13077  -1.13068  -1.13035
  Beta  occ. eigenvalues --   -1.13001  -1.12989  -1.12941  -1.12904  -1.12886
  Beta  occ. eigenvalues --   -1.12837  -1.12822  -1.12819  -1.12767  -1.12755
  Beta  occ. eigenvalues --   -0.17844  -0.12593  -0.12306
  Beta virt. eigenvalues --   -0.06795  -0.05675  -0.05107  -0.04759  -0.02331
  Beta virt. eigenvalues --   -0.02199  -0.01462  -0.01383  -0.01175  -0.00493
  Beta virt. eigenvalues --   -0.00398   0.00128   0.00385   0.00819   0.00868

 Mulliken charges and spin densities:
               1          2
     1  Na  -0.267068   0.731202
     2  Na   0.043404  -0.148517
     3  Na  -0.161252   0.616203
     4  Na   0.279670  -0.065041
     5  Na   0.190161   0.010338
     6  Na  -0.006534  -0.041827
     7  Na  -0.078381  -0.102357
 Sum of Mulliken charges =  -0.00000   1.00000

 Dipole moment (field-independent basis, Debye):
    X=              0.3907    Y=              0.0626    Z=              0.0205  Tot=              0.3962
 Quadrupole moment (field-independent basis, Debye-Ang):
   XX=            -57.4291   YY=            -60.8845   ZZ=            -74.7350
   XY=             -0.2144   XZ=             -0.5920   YZ=             -0.0092

 Normal termination of Gaussian 16 at Thu Dec  7 23:09:55 2023.
