 Gaussian 16, Revision B.01,
 Gaussian 16:  ES64L-G16RevB.01 20-Dec-2017

 -------------------------
 #P B3LYP/6-311+g(d) force
 -------------------------

 -----
 DPGEN
 -----
 Symbolic Z-matrix:
 Charge =  0 Multiplicity = 2

                         Standard orientation:
 ---------------------------------------------------------------------
 Center     Atomic      Atomic             Coordinates (Angstroms)
 Number     Number       Type             X           Y           Z
 ---------------------------------------------------------------------
      1         11           0        5.975048    2.131889    0.181839
      2         11           0        0.293736   -1.303719   -0.880513
      3         11           0       -2.965353   -1.945830    0.362540
      4         11           0       -4.947410    0.874906   -0.326060
      5         11           0       -7.941658    1.139804    0.541762
      6         11           0        4.104294   -0.125069   -1.653115
      7         11           0        5.481343   -0.771981    1.773546
 ---------------------------------------------------------------------

 SCF Done:  E(UB3LYP) =  -1136.10453899     A.U. after   28 cycles

 The electronic state is 2-A.
 Alpha  occ. eigenvalues --  -38.46317 -38.46283 -38.44303 -38.43679 -38.43525
 Alpha  occ. eigenvalues --  -38.43448 -38.43325  -2.22105  -2.22069  -2.20131
 Alpha  occ. eigenvalues --   -2.19472  -2.19259  -2.19245  -2.19131  -1.15775
 Alpha  occ. eigenvalues --   -1.15763  -1.15746  -1.15737  -1.15731  -1.15664
 Alpha  occ. eigenvalues --   -1.13806  -1.13777  -1.13728  -1.13134  -1.13133
 Alpha  occ. eigenvalues --   -1.13086  -1.12958  -1.12955  -1.12945  -1.12893
 Alpha  occ. eigenvalues --   -1.12891  -1.12881  -1.12803  -1.12801  -1.12734
 Alpha  occ. eigenvalues --   -0.16224  -0.13896  -0.11877  -0.10454
 Alpha virt. eigenvalues --   -0.07640  -0.05620  -0.04426  -0.03696  -0.02805
 Alpha virt. eigenvalues --   -0.02479  -0.02257  -0.02093  -0.01492  -0.00847
 Alpha virt. eigenvalues --   -0.00777  -0.00416   0.00012   0.00056   0.00176

  Beta  occ. eigenvalues --  -38.46282 -38.46268 -38.44219 -38.43633 -38.43543
  Beta  occ. eigenvalues --  -38.43413 -38.43331  -2.22070  -2.22014  -2.19974
  Beta  occ. eigenvalues --   -2.19387  -2.19295  -2.19180  -2.19146  -1.15745
  Beta  occ. eigenvalues --   -1.15732  -1.15715  -1.15704  -1.15674  -1.15631
  Beta  occ. eigenvalues --   -1.13699  -1.13672  -1.13621  -1.13075  -1.13075
  Beta  occ. eigenvalues --   -1.13037  -1.12987  -1.12985  -1.12913  -1.12873
  Beta  occ. eigenvalues --   -1.12850  -1.12848  -1.12814  -1.12807  -1.12715
  Beta  occ. eigenvalues --   -0.15649  -0.13547  -0.11338
  Beta virt. eigenvalues --   -0.07403  -0.07187  -0.05272  -0.04170  -0.03515
  Beta virt. eigenvalues --   -0.02391  -0.02305  -0.01873  -0.01817  -0.01201
  Beta virt. eigenvalues --   -0.00733  -0.00555  -0.00080   0.00104   0.00171

 Mulliken charges and spin densities:
               1          2
     1  Na   0.324146   0.024874
     2  Na  -0.562058  -0.018316
     3  Na   0.517584   0.261684
     4  Na  -0.566465   0.030215
     5  Na   0.555470   0.122814
     6  Na  -0.424707   0.315482
     7  Na   0.156030   0.263248
 Sum of Mulliken charges =  -0.00000   1.00000

 Dipole moment (field-independent basis, Debye):
    X=              4.8548    Y=              0.8122    Z=              1.0976  Tot=              5.0432
 Quadrupole moment (field-independent basis, Debye-Ang):
   XX=            -52.6083   YY=            -62.8292   ZZ=            -72.9887
   XY=              8.1242   XZ=             -1.7124   YZ=             -6.1906

 Normal termination of Gaussian 16 at Mon Dec  4 01:21:54 2023.
