 Gaussian 16, Revision B.01,
 Gaussian 16:  ES64L-G16RevB.01 20-Dec-2017

 -------------------------
 #P B3LYP/6-311+g(d) force
 -------------------------

 -----
 DPGEN
 -----
 Symbolic Z-matrix:
 Charge =  0 Multiplicity = 2

                         Standard orientation:
 ---------------------------------------------------------------------
 Center     Atomic      Atomic             Coordinates (Angstroms)
 Number     Number       Type             X           Y           Z
 ---------------------------------------------------------------------
      1         11           0       -3.249939   -0.943636    0.471580
      2         11           0        0.198270    0.356609   -1.894378
      3         11           0        2.621182   -1.886568   -0.111927
      4         11           0       -0.524541   -2.648162   -0.269016
      5         11           0        0.283449    0.427196    2.012701
      6         11           0        2.741893    2.081503    0.219725
      7         11           0       -2.070312    2.613058   -0.428686
 ---------------------------------------------------------------------

 SCF Done:  E(UB3LYP) =  -1136.13017034     A.U. after   20 cycles

 The electronic state is 2-A.
 Alpha  occ. eigenvalues --  -38.44347 -38.44226 -38.44216 -38.44116 -38.44111
 Alpha  occ. eigenvalues --  -38.43754 -38.42887  -2.20124  -2.20016  -2.19985
 Alpha  occ. eigenvalues --   -2.19944  -2.19929  -2.19623  -2.18763  -1.13803
 Alpha  occ. eigenvalues --   -1.13780  -1.13769  -1.13693  -1.13681  -1.13663
 Alpha  occ. eigenvalues --   -1.13651  -1.13638  -1.13619  -1.13617  -1.13607
 Alpha  occ. eigenvalues --   -1.13597  -1.13582  -1.13562  -1.13555  -1.13300
 Alpha  occ. eigenvalues --   -1.13262  -1.13237  -1.12444  -1.12427  -1.12409
 Alpha  occ. eigenvalues --   -0.17874  -0.12827  -0.12208  -0.10763
 Alpha virt. eigenvalues --   -0.06206  -0.05628  -0.04365  -0.03195  -0.02956
 Alpha virt. eigenvalues --   -0.02702  -0.01767  -0.01559  -0.00730  -0.00239
 Alpha virt. eigenvalues --   -0.00081   0.00318   0.00651   0.00681   0.00734

  Beta  occ. eigenvalues --  -38.44343 -38.44216 -38.44204 -38.44113 -38.44036
  Beta  occ. eigenvalues --  -38.43677 -38.42882  -2.20121  -2.19999  -2.19965
  Beta  occ. eigenvalues --   -2.19928  -2.19804  -2.19481  -2.18758  -1.13785
  Beta  occ. eigenvalues --   -1.13777  -1.13768  -1.13684  -1.13658  -1.13643
  Beta  occ. eigenvalues --   -1.13632  -1.13625  -1.13613  -1.13607  -1.13579
  Beta  occ. eigenvalues --   -1.13560  -1.13518  -1.13487  -1.13453  -1.13205
  Beta  occ. eigenvalues --   -1.13166  -1.13129  -1.12440  -1.12424  -1.12383
  Beta  occ. eigenvalues --   -0.17178  -0.12615  -0.11933
  Beta virt. eigenvalues --   -0.07024  -0.06113  -0.05474  -0.04298  -0.02561
  Beta virt. eigenvalues --   -0.02245  -0.01790  -0.01602  -0.01415  -0.00772
  Beta virt. eigenvalues --   -0.00254   0.00063   0.00360   0.00678   0.00781

 Mulliken charges and spin densities:
               1          2
     1  Na   0.010601   0.063946
     2  Na   0.104490   0.505768
     3  Na   0.099313  -0.032834
     4  Na  -0.096426   0.035160
     5  Na  -0.180320   0.596372
     6  Na   0.077540  -0.114696
     7  Na  -0.015198  -0.053717
 Sum of Mulliken charges =  -0.00000   1.00000

 Dipole moment (field-independent basis, Debye):
    X=              0.2918    Y=              0.5009    Z=              0.1324  Tot=              0.5946
 Quadrupole moment (field-independent basis, Debye-Ang):
   XX=            -55.0156   YY=            -65.1407   ZZ=            -74.0669
   XY=             -0.3884   XZ=             -1.0535   YZ=             -0.4821

 Normal termination of Gaussian 16 at Tue Dec  5 13:10:00 2023.
