 Gaussian 16, Revision B.01,
 Gaussian 16:  ES64L-G16RevB.01 20-Dec-2017

 -------------------------
 #P B3LYP/6-311+g(d) force
 -------------------------

 -----
 DPGEN
 -----
 Symbolic Z-matrix:
 Charge =  0 Multiplicity = 2

                         Standard orientation:
 ---------------------------------------------------------------------
 Center     Atomic      Atomic             Coordinates (Angstroms)
 Number     Number       Type             X           Y           Z
 ---------------------------------------------------------------------
      1         11           0       -3.802892   -0.997616    1.030553
      2         11           0       -1.982259    2.219228   -0.042737
      3         11           0       -1.808385   -0.701631   -1.480351
      4         11           0        4.023560    0.032951    0.906356
      5         11           0        1.574054   -1.823723   -0.855263
      6         11           0        0.400022   -0.038833    1.545077
      7         11           0        1.595901    1.309625   -1.103635
 ---------------------------------------------------------------------

 SCF Done:  E(UB3LYP) =  -1136.11588941     A.U. after   31 cycles

 The electronic state is 2-A.
 Alpha  occ. eigenvalues --  -38.45603 -38.45111 -38.43880 -38.43876 -38.43636
 Alpha  occ. eigenvalues --  -38.43311 -38.42945  -2.21484  -2.20944  -2.19778
 Alpha  occ. eigenvalues --   -2.19688  -2.19564  -2.19245  -2.18786  -1.15224
 Alpha  occ. eigenvalues --   -1.15128  -1.15088  -1.14612  -1.14589  -1.14556
 Alpha  occ. eigenvalues --   -1.13479  -1.13460  -1.13424  -1.13344  -1.13330
 Alpha  occ. eigenvalues --   -1.13305  -1.13282  -1.13239  -1.13150  -1.12947
 Alpha  occ. eigenvalues --   -1.12910  -1.12833  -1.12484  -1.12455  -1.12391
 Alpha  occ. eigenvalues --   -0.18746  -0.14520  -0.11271  -0.10381
 Alpha virt. eigenvalues --   -0.07224  -0.05289  -0.04893  -0.03107  -0.02885
 Alpha virt. eigenvalues --   -0.02123  -0.02019  -0.01412  -0.00878  -0.00248
 Alpha virt. eigenvalues --   -0.00042   0.00188   0.00258   0.00589   0.00664

  Beta  occ. eigenvalues --  -38.45587 -38.45067 -38.43857 -38.43847 -38.43584
  Beta  occ. eigenvalues --  -38.43289 -38.42941  -2.21455  -2.20861  -2.19731
  Beta  occ. eigenvalues --   -2.19646  -2.19473  -2.19209  -2.18781  -1.15190
  Beta  occ. eigenvalues --   -1.15109  -1.15064  -1.14554  -1.14527  -1.14505
  Beta  occ. eigenvalues --   -1.13444  -1.13408  -1.13395  -1.13312  -1.13297
  Beta  occ. eigenvalues --   -1.13270  -1.13222  -1.13176  -1.13061  -1.12926
  Beta  occ. eigenvalues --   -1.12847  -1.12814  -1.12479  -1.12452  -1.12381
  Beta  occ. eigenvalues --   -0.18018  -0.14206  -0.10246
  Beta virt. eigenvalues --   -0.07469  -0.06961  -0.05025  -0.04407  -0.02810
  Beta virt. eigenvalues --   -0.02647  -0.01668  -0.01425  -0.01079  -0.00716
  Beta virt. eigenvalues --   -0.00124   0.00035   0.00271   0.00348   0.00658

 Mulliken charges and spin densities:
               1          2
     1  Na  -0.020794   0.245417
     2  Na  -0.069637   0.129507
     3  Na   0.227589  -0.153699
     4  Na   0.777500   0.257499
     5  Na  -0.135591   0.272546
     6  Na  -0.527371   0.093257
     7  Na  -0.251696   0.155473
 Sum of Mulliken charges =  -0.00000   1.00000

 Dipole moment (field-independent basis, Debye):
    X=              1.2593    Y=              0.3150    Z=              0.3872  Tot=              1.3546
 Quadrupole moment (field-independent basis, Debye-Ang):
   XX=            -51.5006   YY=            -79.6273   ZZ=            -65.4121
   XY=             -1.4741   XZ=             -0.4139   YZ=              0.4374

 Normal termination of Gaussian 16 at Thu Dec  7 21:59:52 2023.
