 Gaussian 16, Revision B.01,
 Gaussian 16:  ES64L-G16RevB.01 20-Dec-2017

 -------------------------
 #P B3LYP/6-311+g(d) force
 -------------------------

 -----
 DPGEN
 -----
 Symbolic Z-matrix:
 Charge =  0 Multiplicity = 2

                         Standard orientation:
 ---------------------------------------------------------------------
 Center     Atomic      Atomic             Coordinates (Angstroms)
 Number     Number       Type             X           Y           Z
 ---------------------------------------------------------------------
      1         11           0        1.504006    0.692246    1.377528
      2         11           0       -2.196833    0.189068    2.511343
      3         11           0        0.014218   -2.007026   -1.223739
      4         11           0       -1.678518    1.776887   -0.923245
      5         11           0        3.563160   -1.636442    0.418941
      6         11           0        2.203092    2.062479   -1.237725
      7         11           0       -3.409125   -1.077213   -0.923103
 ---------------------------------------------------------------------

 SCF Done:  E(UB3LYP) =  -1136.11921711     A.U. after   24 cycles

 The electronic state is 2-A.
 Alpha  occ. eigenvalues --  -38.44865 -38.44231 -38.44163 -38.44126 -38.44124
 Alpha  occ. eigenvalues --  -38.44055 -38.43837  -2.20664  -2.20047  -2.19934
 Alpha  occ. eigenvalues --   -2.19920  -2.19915  -2.19879  -2.19727  -1.14314
 Alpha  occ. eigenvalues --   -1.14298  -1.14271  -1.13737  -1.13699  -1.13692
 Alpha  occ. eigenvalues --   -1.13639  -1.13619  -1.13616  -1.13614  -1.13608
 Alpha  occ. eigenvalues --   -1.13601  -1.13567  -1.13549  -1.13548  -1.13532
 Alpha  occ. eigenvalues --   -1.13516  -1.13485  -1.13400  -1.13363  -1.13329
 Alpha  occ. eigenvalues --   -0.17465  -0.13885  -0.11516  -0.11099
 Alpha virt. eigenvalues --   -0.06315  -0.05647  -0.05174  -0.03370  -0.02698
 Alpha virt. eigenvalues --   -0.02545  -0.02107  -0.01238  -0.01140  -0.00179
 Alpha virt. eigenvalues --   -0.00014   0.00056   0.00192   0.00425   0.00454

  Beta  occ. eigenvalues --  -38.44762 -38.44220 -38.44159 -38.44115 -38.44110
  Beta  occ. eigenvalues --  -38.44026 -38.43822  -2.20472  -2.20028  -2.19913
  Beta  occ. eigenvalues --   -2.19905  -2.19900  -2.19827  -2.19701  -1.14181
  Beta  occ. eigenvalues --   -1.14167  -1.14142  -1.13721  -1.13689  -1.13669
  Beta  occ. eigenvalues --   -1.13611  -1.13608  -1.13605  -1.13598  -1.13595
  Beta  occ. eigenvalues --   -1.13569  -1.13557  -1.13541  -1.13528  -1.13506
  Beta  occ. eigenvalues --   -1.13495  -1.13446  -1.13386  -1.13325  -1.13310
  Beta  occ. eigenvalues --   -0.16886  -0.13650  -0.10895
  Beta virt. eigenvalues --   -0.07669  -0.06108  -0.05489  -0.04536  -0.03044
  Beta virt. eigenvalues --   -0.02267  -0.02000  -0.01941  -0.01145  -0.00618
  Beta virt. eigenvalues --   -0.00080   0.00107   0.00248   0.00352   0.00468

 Mulliken charges and spin densities:
               1          2
     1  Na  -0.500430   0.036695
     2  Na   0.133759   0.460658
     3  Na  -0.484610   0.045780
     4  Na  -0.321764   0.302126
     5  Na   0.465017   0.012398
     6  Na   0.262874   0.183441
     7  Na   0.445155  -0.041100
 Sum of Mulliken charges =  -0.00000   1.00000

 Dipole moment (field-independent basis, Debye):
    X=             -0.2677    Y=             -0.0414    Z=             -0.1658  Tot=              0.3176
 Quadrupole moment (field-independent basis, Debye-Ang):
   XX=            -51.9674   YY=            -76.8595   ZZ=            -68.2104
   XY=              0.3631   XZ=             -1.2092   YZ=             -2.5983

 Normal termination of Gaussian 16 at Tue Nov 28 22:44:56 2023.
