 Gaussian 16, Revision B.01,
 Gaussian 16:  ES64L-G16RevB.01 20-Dec-2017

 -------------------------
 #P B3LYP/6-311+g(d) force
 -------------------------

 -----
 DPGEN
 -----
 Symbolic Z-matrix:
 Charge =  0 Multiplicity = 2

                         Standard orientation:
 ---------------------------------------------------------------------
 Center     Atomic      Atomic             Coordinates (Angstroms)
 Number     Number       Type             X           Y           Z
 ---------------------------------------------------------------------
      1         11           0       -3.926278   -0.894144   -1.025854
      2         11           0        3.504699   -0.467072   -1.272448
      3         11           0       -1.446842    2.488719    0.138284
      4         11           0        2.012323    1.641913    0.903029
      5         11           0       -0.061831   -0.058343   -1.503269
      6         11           0        1.726386   -1.834157    1.050543
      7         11           0       -1.808456   -0.876916    1.709714
 ---------------------------------------------------------------------

 SCF Done:  E(UB3LYP) =  -1136.12385927     A.U. after   25 cycles

 The electronic state is 2-A.
 Alpha  occ. eigenvalues --  -38.44651 -38.44542 -38.44375 -38.44065 -38.43852
 Alpha  occ. eigenvalues --  -38.43655 -38.42796  -2.20524  -2.20315  -2.20243
 Alpha  occ. eigenvalues --   -2.19894  -2.19705  -2.19534  -2.18621  -1.14235
 Alpha  occ. eigenvalues --   -1.14177  -1.14144  -1.13986  -1.13971  -1.13944
 Alpha  occ. eigenvalues --   -1.13904  -1.13889  -1.13886  -1.13576  -1.13543
 Alpha  occ. eigenvalues --   -1.13520  -1.13394  -1.13376  -1.13319  -1.13209
 Alpha  occ. eigenvalues --   -1.13194  -1.13151  -1.12312  -1.12291  -1.12238
 Alpha  occ. eigenvalues --   -0.18230  -0.14067  -0.11180  -0.10803
 Alpha virt. eigenvalues --   -0.06798  -0.05402  -0.04917  -0.03152  -0.02734
 Alpha virt. eigenvalues --   -0.02322  -0.02223  -0.01318  -0.00775  -0.00325
 Alpha virt. eigenvalues --    0.00122   0.00219   0.00274   0.00434   0.00639

  Beta  occ. eigenvalues --  -38.44620 -38.44521 -38.44344 -38.44025 -38.43841
  Beta  occ. eigenvalues --  -38.43616 -38.42796  -2.20468  -2.20276  -2.20185
  Beta  occ. eigenvalues --   -2.19823  -2.19685  -2.19464  -2.18623  -1.14182
  Beta  occ. eigenvalues --   -1.14140  -1.14100  -1.13958  -1.13945  -1.13918
  Beta  occ. eigenvalues --   -1.13864  -1.13853  -1.13841  -1.13527  -1.13494
  Beta  occ. eigenvalues --   -1.13451  -1.13373  -1.13348  -1.13312  -1.13166
  Beta  occ. eigenvalues --   -1.13144  -1.13081  -1.12309  -1.12288  -1.12238
  Beta  occ. eigenvalues --   -0.17561  -0.13866  -0.10744
  Beta virt. eigenvalues --   -0.07324  -0.06546  -0.05047  -0.04521  -0.02928
  Beta virt. eigenvalues --   -0.02453  -0.01874  -0.01578  -0.00994  -0.00574
  Beta virt. eigenvalues --   -0.00235   0.00172   0.00339   0.00358   0.00569

 Mulliken charges and spin densities:
               1          2
     1  Na   0.232476   0.124984
     2  Na   0.931110   0.145960
     3  Na   0.045123   0.015866
     4  Na  -0.215552   0.175215
     5  Na  -0.693141   0.189777
     6  Na  -0.184239   0.229259
     7  Na  -0.115778   0.118939
 Sum of Mulliken charges =  -0.00000   1.00000

 Dipole moment (field-independent basis, Debye):
    X=              0.2715    Y=              0.0909    Z=             -0.2667  Tot=              0.3912
 Quadrupole moment (field-independent basis, Debye-Ang):
   XX=            -50.7909   YY=            -77.4057   ZZ=            -67.2711
   XY=             -0.4519   XZ=              0.1516   YZ=              1.1228

 Normal termination of Gaussian 16 at Thu Dec  7 10:48:05 2023.
