 Gaussian 16, Revision B.01,
 Gaussian 16:  ES64L-G16RevB.01 20-Dec-2017

 -------------------------
 #P B3LYP/6-311+g(d) force
 -------------------------

 -----
 DPGEN
 -----
 Symbolic Z-matrix:
 Charge =  0 Multiplicity = 2

                         Standard orientation:
 ---------------------------------------------------------------------
 Center     Atomic      Atomic             Coordinates (Angstroms)
 Number     Number       Type             X           Y           Z
 ---------------------------------------------------------------------
      1         11           0        1.203369    2.851089    0.148112
      2         11           0        3.081486   -0.074249   -0.380802
      3         11           0        1.251317   -2.645079    0.462484
      4         11           0       -0.024740   -0.264276   -1.599393
      5         11           0       -2.714370   -1.648340   -0.174611
      6         11           0       -0.182458    0.116444    1.620157
      7         11           0       -2.614606    1.664411   -0.075947
 ---------------------------------------------------------------------

 SCF Done:  E(UB3LYP) =  -1136.13650342     A.U. after   19 cycles

 The electronic state is 2-A.
 Alpha  occ. eigenvalues --  -38.44127 -38.44034 -38.44010 -38.43324 -38.43273
 Alpha  occ. eigenvalues --  -38.43121 -38.42838  -2.19977  -2.19884  -2.19878
 Alpha  occ. eigenvalues --   -2.19152  -2.19146  -2.19108  -2.18837  -1.13669
 Alpha  occ. eigenvalues --   -1.13648  -1.13619  -1.13562  -1.13558  -1.13539
 Alpha  occ. eigenvalues --   -1.13535  -1.13516  -1.13506  -1.12864  -1.12833
 Alpha  occ. eigenvalues --   -1.12821  -1.12812  -1.12799  -1.12787  -1.12786
 Alpha  occ. eigenvalues --   -1.12727  -1.12715  -1.12527  -1.12458  -1.12442
 Alpha  occ. eigenvalues --   -0.18859  -0.13490  -0.12270  -0.10301
 Alpha virt. eigenvalues --   -0.05728  -0.05475  -0.04604  -0.03196  -0.02575
 Alpha virt. eigenvalues --   -0.01997  -0.01738  -0.01274  -0.00475  -0.00360
 Alpha virt. eigenvalues --    0.00046   0.00345   0.00758   0.00833   0.00878

  Beta  occ. eigenvalues --  -38.44122 -38.44026 -38.43999 -38.43322 -38.43259
  Beta  occ. eigenvalues --  -38.43057 -38.42761  -2.19971  -2.19874  -2.19861
  Beta  occ. eigenvalues --   -2.19146  -2.19129  -2.18993  -2.18697  -1.13667
  Beta  occ. eigenvalues --   -1.13628  -1.13608  -1.13546  -1.13544  -1.13518
  Beta  occ. eigenvalues --   -1.13513  -1.13503  -1.13497  -1.12834  -1.12825
  Beta  occ. eigenvalues --   -1.12800  -1.12782  -1.12780  -1.12767  -1.12737
  Beta  occ. eigenvalues --   -1.12642  -1.12636  -1.12431  -1.12359  -1.12339
  Beta  occ. eigenvalues --   -0.18166  -0.13217  -0.12013
  Beta virt. eigenvalues --   -0.06457  -0.05661  -0.05468  -0.04563  -0.02417
  Beta virt. eigenvalues --   -0.01872  -0.01621  -0.01218  -0.01024  -0.00486
  Beta virt. eigenvalues --   -0.00393   0.00174   0.00385   0.00817   0.00828

 Mulliken charges and spin densities:
               1          2
     1  Na  -0.077585  -0.094111
     2  Na   0.178291   0.052592
     3  Na   0.083253   0.002549
     4  Na  -0.200426   0.509384
     5  Na   0.212206  -0.017283
     6  Na  -0.207563   0.629856
     7  Na   0.011823  -0.082988
 Sum of Mulliken charges =  -0.00000   1.00000

 Dipole moment (field-independent basis, Debye):
    X=             -0.3238    Y=             -0.0001    Z=             -0.0514  Tot=              0.3279
 Quadrupole moment (field-independent basis, Debye-Ang):
   XX=            -53.4628   YY=            -61.2981   ZZ=            -76.7018
   XY=              0.0102   XZ=              0.0712   YZ=             -0.9008

 Normal termination of Gaussian 16 at Tue Nov 28 23:48:39 2023.
