 Gaussian 16, Revision B.01,
 Gaussian 16:  ES64L-G16RevB.01 20-Dec-2017

 -------------------------
 #P B3LYP/6-311+g(d) force
 -------------------------

 -----
 DPGEN
 -----
 Symbolic Z-matrix:
 Charge =  0 Multiplicity = 2

                         Standard orientation:
 ---------------------------------------------------------------------
 Center     Atomic      Atomic             Coordinates (Angstroms)
 Number     Number       Type             X           Y           Z
 ---------------------------------------------------------------------
      1         11           0        2.627921    1.478323   -1.061156
      2         11           0       -2.894064    1.466484    1.140573
      3         11           0       -0.097894    1.488429   -0.346619
      4         11           0        1.247035   -1.385649   -1.318329
      5         11           0       -0.519608   -1.395087    1.349500
      6         11           0        2.591521   -0.608507    1.640380
      7         11           0       -2.954911   -1.043992   -1.404350
 ---------------------------------------------------------------------

 SCF Done:  E(UB3LYP) =  -1136.11945822     A.U. after   25 cycles

 The electronic state is 2-A.
 Alpha  occ. eigenvalues --  -38.45178 -38.44232 -38.44185 -38.44067 -38.43146
 Alpha  occ. eigenvalues --  -38.43003 -38.42681  -2.20971  -2.20080  -2.20077
 Alpha  occ. eigenvalues --   -2.20025  -2.19097  -2.19008  -2.18619  -1.14639
 Alpha  occ. eigenvalues --   -1.14612  -1.14595  -1.13769  -1.13764  -1.13751
 Alpha  occ. eigenvalues --   -1.13726  -1.13724  -1.13700  -1.13695  -1.13657
 Alpha  occ. eigenvalues --   -1.13626  -1.12994  -1.12740  -1.12723  -1.12670
 Alpha  occ. eigenvalues --   -1.12654  -1.12530  -1.12340  -1.12287  -1.12215
 Alpha  occ. eigenvalues --   -0.18972  -0.14210  -0.11349  -0.11161
 Alpha virt. eigenvalues --   -0.06434  -0.05439  -0.04426  -0.03197  -0.02601
 Alpha virt. eigenvalues --   -0.02243  -0.02184  -0.01126  -0.00597   0.00069
 Alpha virt. eigenvalues --    0.00199   0.00343   0.00489   0.00571   0.00710

  Beta  occ. eigenvalues --  -38.45134 -38.44196 -38.44150 -38.44027 -38.43145
  Beta  occ. eigenvalues --  -38.42986 -38.42664  -2.20889  -2.20014  -2.20012
  Beta  occ. eigenvalues --   -2.19952  -2.19097  -2.18984  -2.18592  -1.14580
  Beta  occ. eigenvalues --   -1.14551  -1.14540  -1.13725  -1.13716  -1.13694
  Beta  occ. eigenvalues --   -1.13679  -1.13675  -1.13660  -1.13654  -1.13601
  Beta  occ. eigenvalues --   -1.13566  -1.12988  -1.12731  -1.12712  -1.12662
  Beta  occ. eigenvalues --   -1.12601  -1.12521  -1.12329  -1.12231  -1.12197
  Beta  occ. eigenvalues --   -0.18316  -0.13943  -0.10911
  Beta virt. eigenvalues --   -0.07593  -0.06156  -0.04880  -0.04214  -0.02979
  Beta virt. eigenvalues --   -0.02175  -0.01886  -0.01606  -0.00603  -0.00516
  Beta virt. eigenvalues --    0.00230   0.00268   0.00445   0.00548   0.00633

 Mulliken charges and spin densities:
               1          2
     1  Na   0.785886  -0.237039
     2  Na   1.202737  -0.144299
     3  Na  -1.738413   0.452761
     4  Na  -0.137563   0.346024
     5  Na  -0.032357   0.350640
     6  Na  -0.050020   0.033432
     7  Na  -0.030269   0.198482
 Sum of Mulliken charges =  -0.00000   1.00000

 Dipole moment (field-independent basis, Debye):
    X=             -0.6457    Y=             -0.4813    Z=              0.0018  Tot=              0.8053
 Quadrupole moment (field-independent basis, Debye-Ang):
   XX=            -48.5254   YY=            -77.3504   ZZ=            -67.4073
   XY=              0.3767   XZ=              1.9543   YZ=              6.0547

 Normal termination of Gaussian 16 at Tue Dec  5 20:15:45 2023.
