 Gaussian 16, Revision B.01,
 Gaussian 16:  ES64L-G16RevB.01 20-Dec-2017

 -------------------------
 #P B3LYP/6-311+g(d) force
 -------------------------

 -----
 DPGEN
 -----
 Symbolic Z-matrix:
 Charge =  0 Multiplicity = 2

                         Standard orientation:
 ---------------------------------------------------------------------
 Center     Atomic      Atomic             Coordinates (Angstroms)
 Number     Number       Type             X           Y           Z
 ---------------------------------------------------------------------
      1         11           0       -1.135427    2.724939    0.170322
      2         11           0        2.195137   -1.863446   -0.329678
      3         11           0       -0.091808    0.234073   -1.653095
      4         11           0        3.101382    1.392592   -0.155895
      5         11           0       -1.010613   -2.457782    0.287166
      6         11           0       -3.218493   -0.120772   -0.376023
      7         11           0        0.159821    0.090397    2.057204
 ---------------------------------------------------------------------

 SCF Done:  E(UB3LYP) =  -1136.13562726     A.U. after   19 cycles

 The electronic state is 2-A.
 Alpha  occ. eigenvalues --  -38.44377 -38.44297 -38.43616 -38.43517 -38.43411
 Alpha  occ. eigenvalues --  -38.43411 -38.42712  -2.20166  -2.20141  -2.19519
 Alpha  occ. eigenvalues --   -2.19398  -2.19377  -2.19251  -2.18629  -1.13838
 Alpha  occ. eigenvalues --   -1.13829  -1.13819  -1.13806  -1.13803  -1.13774
 Alpha  occ. eigenvalues --   -1.13195  -1.13149  -1.13139  -1.13112  -1.13076
 Alpha  occ. eigenvalues --   -1.13053  -1.13033  -1.13027  -1.12986  -1.12918
 Alpha  occ. eigenvalues --   -1.12908  -1.12871  -1.12311  -1.12284  -1.12271
 Alpha  occ. eigenvalues --   -0.18737  -0.13260  -0.12143  -0.10900
 Alpha virt. eigenvalues --   -0.06092  -0.05056  -0.04233  -0.03291  -0.02859
 Alpha virt. eigenvalues --   -0.02648  -0.01864  -0.01028  -0.00412  -0.00118
 Alpha virt. eigenvalues --    0.00013   0.00328   0.00781   0.00835   0.00907

  Beta  occ. eigenvalues --  -38.44376 -38.44288 -38.43515 -38.43509 -38.43405
  Beta  occ. eigenvalues --  -38.43353 -38.42703  -2.20167  -2.20127  -2.19386
  Beta  occ. eigenvalues --   -2.19334  -2.19273  -2.19243  -2.18616  -1.13836
  Beta  occ. eigenvalues --   -1.13821  -1.13807  -1.13806  -1.13780  -1.13767
  Beta  occ. eigenvalues --   -1.13098  -1.13071  -1.13039  -1.13024  -1.13018
  Beta  occ. eigenvalues --   -1.13004  -1.12999  -1.12972  -1.12910  -1.12895
  Beta  occ. eigenvalues --   -1.12881  -1.12862  -1.12304  -1.12271  -1.12238
  Beta  occ. eigenvalues --   -0.18000  -0.13012  -0.11901
  Beta virt. eigenvalues --   -0.06974  -0.06043  -0.05031  -0.04206  -0.02553
  Beta virt. eigenvalues --   -0.02063  -0.01782  -0.01563  -0.00963  -0.00445
  Beta virt. eigenvalues --   -0.00102   0.00112   0.00361   0.00821   0.00878

 Mulliken charges and spin densities:
               1          2
     1  Na   0.027068  -0.079484
     2  Na   0.153158   0.030267
     3  Na  -0.256003   0.371247
     4  Na   0.043918  -0.081882
     5  Na   0.246407   0.083023
     6  Na   0.204441   0.019741
     7  Na  -0.418989   0.657087
 Sum of Mulliken charges =  -0.00000   1.00000

 Dipole moment (field-independent basis, Debye):
    X=              0.1200    Y=              0.3738    Z=              0.0329  Tot=              0.3940
 Quadrupole moment (field-independent basis, Debye-Ang):
   XX=            -53.8780   YY=            -65.9025   ZZ=            -73.5837
   XY=              0.7830   XZ=             -0.0298   YZ=              0.5076

 Normal termination of Gaussian 16 at Thu Dec  7 22:14:12 2023.
