 Gaussian 16, Revision B.01,
 Gaussian 16:  ES64L-G16RevB.01 20-Dec-2017

 -------------------------
 #P B3LYP/6-311+g(d) force
 -------------------------

 -----
 DPGEN
 -----
 Symbolic Z-matrix:
 Charge =  0 Multiplicity = 2

                         Standard orientation:
 ---------------------------------------------------------------------
 Center     Atomic      Atomic             Coordinates (Angstroms)
 Number     Number       Type             X           Y           Z
 ---------------------------------------------------------------------
      1         11           0        0.408664    0.373066   -1.498757
      2         11           0        0.882043    1.329976    1.087343
      3         11           0        3.067572   -0.003878   -0.333457
      4         11           0        0.794108   -1.732926    0.318543
      5         11           0       -1.246320   -0.399769    1.700743
      6         11           0       -2.086901   -1.318087   -0.839157
      7         11           0       -1.819166    1.751619   -0.435257
 ---------------------------------------------------------------------

 SCF Done:  E(UB3LYP) =  -1136.08447704     A.U. after   21 cycles

 The electronic state is 2-A.
 Alpha  occ. eigenvalues --  -38.44492 -38.44323 -38.44042 -38.43680 -38.43467
 Alpha  occ. eigenvalues --  -38.43094 -38.42852  -2.20520  -2.20503  -2.20345
 Alpha  occ. eigenvalues --   -2.19744  -2.19671  -2.19156  -2.19043  -1.14369
 Alpha  occ. eigenvalues --   -1.14343  -1.14249  -1.14177  -1.14145  -1.14129
 Alpha  occ. eigenvalues --   -1.14098  -1.14001  -1.13941  -1.13419  -1.13392
 Alpha  occ. eigenvalues --   -1.13350  -1.13342  -1.13283  -1.13226  -1.12853
 Alpha  occ. eigenvalues --   -1.12793  -1.12750  -1.12743  -1.12698  -1.12595
 Alpha  occ. eigenvalues --   -0.21426  -0.14352  -0.12542  -0.11921
 Alpha virt. eigenvalues --   -0.05782  -0.04138  -0.04019  -0.03538  -0.02806
 Alpha virt. eigenvalues --   -0.02710  -0.01519  -0.00396  -0.00286   0.00291
 Alpha virt. eigenvalues --    0.00660   0.00858   0.00936   0.01056   0.01066

  Beta  occ. eigenvalues --  -38.44487 -38.44245 -38.43973 -38.43654 -38.43419
  Beta  occ. eigenvalues --  -38.43080 -38.42830  -2.20495  -2.20380  -2.20223
  Beta  occ. eigenvalues --   -2.19701  -2.19589  -2.19135  -2.19012  -1.14337
  Beta  occ. eigenvalues --   -1.14246  -1.14155  -1.14138  -1.14129  -1.14056
  Beta  occ. eigenvalues --   -1.14014  -1.13919  -1.13855  -1.13389  -1.13342
  Beta  occ. eigenvalues --   -1.13304  -1.13293  -1.13199  -1.13160  -1.12835
  Beta  occ. eigenvalues --   -1.12762  -1.12734  -1.12713  -1.12626  -1.12568
  Beta  occ. eigenvalues --   -0.20578  -0.14090  -0.11666
  Beta virt. eigenvalues --   -0.08129  -0.05693  -0.04063  -0.03353  -0.03219
  Beta virt. eigenvalues --   -0.02011  -0.01759  -0.01432  -0.00356  -0.00052
  Beta virt. eigenvalues --    0.00326   0.00710   0.00854   0.01046   0.01073

 Mulliken charges and spin densities:
               1          2
     1  Na  -0.026532   0.434464
     2  Na  -0.564616   0.205304
     3  Na   0.957092  -0.025288
     4  Na  -0.772450   0.152209
     5  Na   0.857380   0.253734
     6  Na  -0.194079   0.015867
     7  Na  -0.256794  -0.036290
 Sum of Mulliken charges =  -0.00000   1.00000

 Dipole moment (field-independent basis, Debye):
    X=              0.2086    Y=              0.0173    Z=             -0.1196  Tot=              0.2411
 Quadrupole moment (field-independent basis, Debye-Ang):
   XX=            -54.0031   YY=            -75.1212   ZZ=            -66.4434
   XY=             -0.0688   XZ=              0.5584   YZ=              0.9076

 Normal termination of Gaussian 16 at Thu Dec  7 14:50:35 2023.
