 Gaussian 16, Revision B.01,
 Gaussian 16:  ES64L-G16RevB.01 20-Dec-2017

 -------------------------
 #P B3LYP/6-311+g(d) force
 -------------------------

 -----
 DPGEN
 -----
 Symbolic Z-matrix:
 Charge =  0 Multiplicity = 2

                         Standard orientation:
 ---------------------------------------------------------------------
 Center     Atomic      Atomic             Coordinates (Angstroms)
 Number     Number       Type             X           Y           Z
 ---------------------------------------------------------------------
      1         11           0       -3.004544    1.407942   -0.439927
      2         11           0        0.040738   -0.318628   -1.412189
      3         11           0        0.345282    2.630318    0.677259
      4         11           0       -3.127697   -2.166713   -0.242292
      5         11           0       -0.699801   -0.334210    1.713727
      6         11           0        3.137673   -2.087115    0.442108
      7         11           0        3.308348    0.868405   -0.738687
 ---------------------------------------------------------------------

 SCF Done:  E(UB3LYP) =  -1136.12255122     A.U. after   25 cycles

 The electronic state is 2-A.
 Alpha  occ. eigenvalues --  -38.44948 -38.44673 -38.44518 -38.44344 -38.43915
 Alpha  occ. eigenvalues --  -38.43205 -38.42496  -2.20767  -2.20544  -2.20299
 Alpha  occ. eigenvalues --   -2.20181  -2.19707  -2.19134  -2.18350  -1.14454
 Alpha  occ. eigenvalues --   -1.14424  -1.14380  -1.14289  -1.14184  -1.14154
 Alpha  occ. eigenvalues --   -1.14006  -1.13960  -1.13943  -1.13850  -1.13820
 Alpha  occ. eigenvalues --   -1.13795  -1.13382  -1.13370  -1.13346  -1.12840
 Alpha  occ. eigenvalues --   -1.12747  -1.12740  -1.12033  -1.12003  -1.11993
 Alpha  occ. eigenvalues --   -0.18084  -0.13937  -0.11413  -0.10161
 Alpha virt. eigenvalues --   -0.06690  -0.06185  -0.04173  -0.03275  -0.02600
 Alpha virt. eigenvalues --   -0.02395  -0.02060  -0.01547  -0.00970  -0.00341
 Alpha virt. eigenvalues --   -0.00017   0.00160   0.00466   0.00556   0.00606

  Beta  occ. eigenvalues --  -38.44925 -38.44644 -38.44518 -38.44324 -38.43916
  Beta  occ. eigenvalues --  -38.43115 -38.42485  -2.20726  -2.20495  -2.20301
  Beta  occ. eigenvalues --   -2.20145  -2.19710  -2.18969  -2.18334  -1.14415
  Beta  occ. eigenvalues --   -1.14397  -1.14348  -1.14235  -1.14148  -1.14117
  Beta  occ. eigenvalues --   -1.14006  -1.13957  -1.13938  -1.13817  -1.13797
  Beta  occ. eigenvalues --   -1.13776  -1.13385  -1.13359  -1.13347  -1.12730
  Beta  occ. eigenvalues --   -1.12629  -1.12618  -1.12017  -1.11986  -1.11970
  Beta  occ. eigenvalues --   -0.17423  -0.13701  -0.11235
  Beta virt. eigenvalues --   -0.06524  -0.06494  -0.05976  -0.03982  -0.02853
  Beta virt. eigenvalues --   -0.02403  -0.01773  -0.01624  -0.01052  -0.00935
  Beta virt. eigenvalues --   -0.00193   0.00078   0.00238   0.00571   0.00636

 Mulliken charges and spin densities:
               1          2
     1  Na   0.250010   0.158959
     2  Na  -0.323385   0.258116
     3  Na  -0.273349  -0.078172
     4  Na   0.056430  -0.049554
     5  Na  -0.067604   0.626834
     6  Na  -0.065508  -0.051905
     7  Na   0.423406   0.135723
 Sum of Mulliken charges =  -0.00000   1.00000

 Dipole moment (field-independent basis, Debye):
    X=             -0.1431    Y=             -0.0692    Z=             -0.0760  Tot=              0.1762
 Quadrupole moment (field-independent basis, Debye-Ang):
   XX=            -52.6033   YY=            -65.8113   ZZ=            -75.3090
   XY=             -0.7754   XZ=              0.9110   YZ=             -0.7602

 Normal termination of Gaussian 16 at Thu Dec  7 07:16:17 2023.
