 Gaussian 16, Revision B.01,
 Gaussian 16:  ES64L-G16RevB.01 20-Dec-2017

 -------------------------
 #P B3LYP/6-311+g(d) force
 -------------------------

 -----
 DPGEN
 -----
 Symbolic Z-matrix:
 Charge =  0 Multiplicity = 2

                         Standard orientation:
 ---------------------------------------------------------------------
 Center     Atomic      Atomic             Coordinates (Angstroms)
 Number     Number       Type             X           Y           Z
 ---------------------------------------------------------------------
      1         11           0       -2.113417    2.530404   -0.686954
      2         11           0        2.647841    2.342950    0.340128
      3         11           0       -3.154838   -0.999085    0.167381
      4         11           0       -0.014992    0.420297    2.160245
      5         11           0        0.125300    0.142038   -1.597061
      6         11           0        2.679451   -1.674645   -0.581597
      7         11           0       -0.169345   -2.761959    0.197858
 ---------------------------------------------------------------------

 SCF Done:  E(UB3LYP) =  -1136.13027143     A.U. after   20 cycles

 The electronic state is 2-A.
 Alpha  occ. eigenvalues --  -38.44278 -38.44213 -38.44212 -38.44115 -38.43827
 Alpha  occ. eigenvalues --  -38.43514 -38.43005  -2.20037  -2.20027  -2.20002
 Alpha  occ. eigenvalues --   -2.19904  -2.19678  -2.19434  -2.18892  -1.13706
 Alpha  occ. eigenvalues --   -1.13700  -1.13684  -1.13682  -1.13677  -1.13673
 Alpha  occ. eigenvalues --   -1.13664  -1.13642  -1.13634  -1.13586  -1.13550
 Alpha  occ. eigenvalues --   -1.13531  -1.13375  -1.13350  -1.13298  -1.13126
 Alpha  occ. eigenvalues --   -1.13068  -1.13058  -1.12571  -1.12558  -1.12529
 Alpha  occ. eigenvalues --   -0.17976  -0.12823  -0.12199  -0.10850
 Alpha virt. eigenvalues --   -0.06063  -0.05403  -0.04570  -0.03076  -0.03021
 Alpha virt. eigenvalues --   -0.02620  -0.01747  -0.01503  -0.00669  -0.00280
 Alpha virt. eigenvalues --   -0.00082   0.00302   0.00692   0.00700   0.00763

  Beta  occ. eigenvalues --  -38.44274 -38.44210 -38.44123 -38.44089 -38.43814
  Beta  occ. eigenvalues --  -38.43462 -38.43000  -2.20022  -2.20002  -2.19869
  Beta  occ. eigenvalues --   -2.19859  -2.19656  -2.19340  -2.18887  -1.13685
  Beta  occ. eigenvalues --   -1.13681  -1.13679  -1.13670  -1.13658  -1.13636
  Beta  occ. eigenvalues --   -1.13591  -1.13564  -1.13544  -1.13518  -1.13513
  Beta  occ. eigenvalues --   -1.13503  -1.13356  -1.13328  -1.13281  -1.13059
  Beta  occ. eigenvalues --   -1.13006  -1.12986  -1.12570  -1.12555  -1.12502
  Beta  occ. eigenvalues --   -0.17307  -0.12548  -0.11928
  Beta virt. eigenvalues --   -0.07112  -0.05910  -0.05279  -0.04477  -0.02492
  Beta virt. eigenvalues --   -0.02326  -0.01744  -0.01559  -0.01330  -0.00680
  Beta virt. eigenvalues --   -0.00300   0.00064   0.00348   0.00723   0.00793

 Mulliken charges and spin densities:
               1          2
     1  Na   0.136358   0.049224
     2  Na  -0.055385  -0.009340
     3  Na   0.012222   0.024313
     4  Na  -0.352922   0.606244
     5  Na  -0.107331   0.163625
     6  Na   0.392801   0.073111
     7  Na  -0.025743   0.092824
 Sum of Mulliken charges =  -0.00000   1.00000

 Dipole moment (field-independent basis, Debye):
    X=             -0.0542    Y=              0.3704    Z=              0.1632  Tot=              0.4084
 Quadrupole moment (field-independent basis, Debye-Ang):
   XX=            -56.1239   YY=            -63.8072   ZZ=            -73.9214
   XY=              0.3203   XZ=             -0.6679   YZ=             -0.6344

 Normal termination of Gaussian 16 at Fri Dec  8 06:10:35 2023.
