 Gaussian 16, Revision B.01,
 Gaussian 16:  ES64L-G16RevB.01 20-Dec-2017

 -------------------------
 #P B3LYP/6-311+g(d) force
 -------------------------

 -----
 DPGEN
 -----
 Symbolic Z-matrix:
 Charge =  0 Multiplicity = 2

                         Standard orientation:
 ---------------------------------------------------------------------
 Center     Atomic      Atomic             Coordinates (Angstroms)
 Number     Number       Type             X           Y           Z
 ---------------------------------------------------------------------
      1         11           0        0.239845   -0.455469    2.350906
      2         11           0        2.974483   -1.673669    0.022698
      3         11           0        0.341693    1.638077   -0.699744
      4         11           0       -2.816443    2.124234    0.310991
      5         11           0       -4.041535   -0.842602   -0.522512
      6         11           0        4.046585    1.360098   -0.567086
      7         11           0       -0.744628   -2.150668   -0.895253
 ---------------------------------------------------------------------

 SCF Done:  E(UB3LYP) =  -1136.11576448     A.U. after   23 cycles

 The electronic state is 2-A.
 Alpha  occ. eigenvalues --  -38.45106 -38.44593 -38.44565 -38.44306 -38.43892
 Alpha  occ. eigenvalues --  -38.43842 -38.43738  -2.20907  -2.20400  -2.20377
 Alpha  occ. eigenvalues --   -2.20113  -2.19702  -2.19655  -2.19520  -1.14558
 Alpha  occ. eigenvalues --   -1.14550  -1.14510  -1.14093  -1.14064  -1.14035
 Alpha  occ. eigenvalues --   -1.14029  -1.14020  -1.14006  -1.13813  -1.13790
 Alpha  occ. eigenvalues --   -1.13731  -1.13363  -1.13357  -1.13330  -1.13325
 Alpha  occ. eigenvalues --   -1.13311  -1.13306  -1.13228  -1.13189  -1.13140
 Alpha  occ. eigenvalues --   -0.17354  -0.14063  -0.11336  -0.11018
 Alpha virt. eigenvalues --   -0.07139  -0.06085  -0.03993  -0.03305  -0.02975
 Alpha virt. eigenvalues --   -0.02584  -0.02312  -0.01992  -0.00840  -0.00612
 Alpha virt. eigenvalues --   -0.00146   0.00002   0.00414   0.00518   0.00583

  Beta  occ. eigenvalues --  -38.45013 -38.44581 -38.44506 -38.44295 -38.43859
  Beta  occ. eigenvalues --  -38.43837 -38.43743  -2.20735  -2.20380  -2.20267
  Beta  occ. eigenvalues --   -2.20097  -2.19649  -2.19640  -2.19530  -1.14443
  Beta  occ. eigenvalues --   -1.14430  -1.14389  -1.14079  -1.14055  -1.13995
  Beta  occ. eigenvalues --   -1.13959  -1.13947  -1.13932  -1.13799  -1.13771
  Beta  occ. eigenvalues --   -1.13719  -1.13324  -1.13320  -1.13309  -1.13307
  Beta  occ. eigenvalues --   -1.13292  -1.13280  -1.13238  -1.13196  -1.13134
  Beta  occ. eigenvalues --   -0.16805  -0.13463  -0.11139
  Beta virt. eigenvalues --   -0.07559  -0.06812  -0.05767  -0.03555  -0.03052
  Beta virt. eigenvalues --   -0.02807  -0.02063  -0.01922  -0.01665  -0.00619
  Beta virt. eigenvalues --   -0.00352  -0.00082   0.00081   0.00493   0.00638

 Mulliken charges and spin densities:
               1          2
     1  Na   0.008656   0.319626
     2  Na   0.120288   0.142947
     3  Na  -0.923203  -0.061043
     4  Na   0.648060   0.125536
     5  Na  -0.193795   0.198245
     6  Na   0.242821   0.194459
     7  Na   0.097173   0.080230
 Sum of Mulliken charges =   0.00000   1.00000

 Dipole moment (field-independent basis, Debye):
    X=              0.0393    Y=             -0.2713    Z=              0.9766  Tot=              1.0144
 Quadrupole moment (field-independent basis, Debye-Ang):
   XX=            -58.9604   YY=            -74.9182   ZZ=            -66.9543
   XY=             -2.6792   XZ=             -0.3919   YZ=              0.9782

 Normal termination of Gaussian 16 at Thu Dec  7 02:55:06 2023.
