 Gaussian 16, Revision B.01,
 Gaussian 16:  ES64L-G16RevB.01 20-Dec-2017

 -------------------------
 #P B3LYP/6-311+g(d) force
 -------------------------

 -----
 DPGEN
 -----
 Symbolic Z-matrix:
 Charge =  0 Multiplicity = 2

                         Standard orientation:
 ---------------------------------------------------------------------
 Center     Atomic      Atomic             Coordinates (Angstroms)
 Number     Number       Type             X           Y           Z
 ---------------------------------------------------------------------
      1         11           0       -0.598078    0.892866   -1.641570
      2         11           0       -4.729668    0.266067    0.225259
      3         11           0       -3.038115   -1.875122   -0.170566
      4         11           0       -0.483172    0.888164    1.702105
      5         11           0        2.025386    2.163450   -0.171686
      6         11           0        5.026863   -1.133365    0.196313
      7         11           0        1.796783   -1.202060   -0.139855
 ---------------------------------------------------------------------

 SCF Done:  E(UB3LYP) =  -1136.10746281     A.U. after   25 cycles

 The electronic state is 2-A.
 Alpha  occ. eigenvalues --  -38.45213 -38.45078 -38.44758 -38.44709 -38.43584
 Alpha  occ. eigenvalues --  -38.43443 -38.42668  -2.21071  -2.20928  -2.20618
 Alpha  occ. eigenvalues --   -2.20571  -2.19497  -2.19333  -2.18456  -1.14813
 Alpha  occ. eigenvalues --   -1.14760  -1.14744  -1.14679  -1.14553  -1.14538
 Alpha  occ. eigenvalues --   -1.14259  -1.14255  -1.14226  -1.14215  -1.14208
 Alpha  occ. eigenvalues --   -1.14172  -1.13167  -1.13155  -1.13113  -1.13035
 Alpha  occ. eigenvalues --   -1.13006  -1.12945  -1.12118  -1.12117  -1.12098
 Alpha  occ. eigenvalues --   -0.18068  -0.14365  -0.11216  -0.10323
 Alpha virt. eigenvalues --   -0.07526  -0.05634  -0.04716  -0.03550  -0.02776
 Alpha virt. eigenvalues --   -0.02187  -0.01997  -0.01664  -0.01291  -0.00594
 Alpha virt. eigenvalues --   -0.00462   0.00149   0.00363   0.00426   0.00511

  Beta  occ. eigenvalues --  -38.45204 -38.45060 -38.44752 -38.44652 -38.43529
  Beta  occ. eigenvalues --  -38.43427 -38.42666  -2.21057  -2.20894  -2.20610
  Beta  occ. eigenvalues --   -2.20466  -2.19396  -2.19307  -2.18452  -1.14796
  Beta  occ. eigenvalues --   -1.14740  -1.14724  -1.14670  -1.14527  -1.14514
  Beta  occ. eigenvalues --   -1.14253  -1.14216  -1.14181  -1.14180  -1.14138
  Beta  occ. eigenvalues --   -1.14097  -1.13097  -1.13086  -1.13032  -1.13016
  Beta  occ. eigenvalues --   -1.12987  -1.12904  -1.12116  -1.12113  -1.12095
  Beta  occ. eigenvalues --   -0.17412  -0.14147  -0.11122
  Beta virt. eigenvalues --   -0.07305  -0.06549  -0.05452  -0.04383  -0.03136
  Beta virt. eigenvalues --   -0.02604  -0.01925  -0.01420  -0.01365  -0.01026
  Beta virt. eigenvalues --   -0.00439  -0.00250   0.00190   0.00511   0.00539

 Mulliken charges and spin densities:
               1          2
     1  Na  -0.155432   0.246022
     2  Na   0.173993   0.099721
     3  Na  -0.170440  -0.018607
     4  Na  -0.189004   0.296230
     5  Na   0.591721   0.222414
     6  Na   0.935946   0.068123
     7  Na  -1.186784   0.086097
 Sum of Mulliken charges =  -0.00000   1.00000

 Dipole moment (field-independent basis, Debye):
    X=             -1.7859    Y=              1.5131    Z=             -0.3056  Tot=              2.3606
 Quadrupole moment (field-independent basis, Debye-Ang):
   XX=            -64.9471   YY=            -65.5940   ZZ=            -73.6118
   XY=              4.8042   XZ=              0.0937   YZ=             -5.1249

 Normal termination of Gaussian 16 at Tue Dec  5 16:00:44 2023.
