 Gaussian 16, Revision B.01,
 Gaussian 16:  ES64L-G16RevB.01 20-Dec-2017

 -------------------------
 #P B3LYP/6-311+g(d) force
 -------------------------

 -----
 DPGEN
 -----
 Symbolic Z-matrix:
 Charge =  0 Multiplicity = 2

                         Standard orientation:
 ---------------------------------------------------------------------
 Center     Atomic      Atomic             Coordinates (Angstroms)
 Number     Number       Type             X           Y           Z
 ---------------------------------------------------------------------
      1         11           0       -0.578959   -2.599640   -0.497487
      2         11           0       -1.067734    2.702728   -0.059150
      3         11           0       -0.077900    0.246696    1.953737
      4         11           0        2.362099    1.719304   -0.487036
      5         11           0       -2.997791   -0.441609    0.122396
      6         11           0        2.474015   -1.611512    0.464086
      7         11           0       -0.113731   -0.015966   -1.496547
 ---------------------------------------------------------------------

 SCF Done:  E(UB3LYP) =  -1136.13480104     A.U. after   18 cycles

 The electronic state is 2-A.
 Alpha  occ. eigenvalues --  -38.43725 -38.43666 -38.43463 -38.43456 -38.43449
 Alpha  occ. eigenvalues --  -38.43307 -38.43067  -2.19598  -2.19532  -2.19406
 Alpha  occ. eigenvalues --   -2.19333  -2.19317  -2.19263  -2.19172  -1.13298
 Alpha  occ. eigenvalues --   -1.13269  -1.13252  -1.13235  -1.13190  -1.13186
 Alpha  occ. eigenvalues --   -1.13159  -1.13100  -1.13065  -1.13030  -1.13023
 Alpha  occ. eigenvalues --   -1.12991  -1.12980  -1.12966  -1.12958  -1.12943
 Alpha  occ. eigenvalues --   -1.12885  -1.12844  -1.12807  -1.12753  -1.12714
 Alpha  occ. eigenvalues --   -0.19255  -0.13000  -0.12759  -0.10952
 Alpha virt. eigenvalues --   -0.05326  -0.04986  -0.04566  -0.03165  -0.03024
 Alpha virt. eigenvalues --   -0.02514  -0.01385  -0.01086  -0.00147  -0.00029
 Alpha virt. eigenvalues --    0.00118   0.00363   0.00880   0.00916   0.00950

  Beta  occ. eigenvalues --  -38.43720 -38.43654 -38.43450 -38.43440 -38.43373
  Beta  occ. eigenvalues --  -38.43293 -38.43002  -2.19593  -2.19513  -2.19327
  Beta  occ. eigenvalues --   -2.19302  -2.19243  -2.19236  -2.19058  -1.13291
  Beta  occ. eigenvalues --   -1.13251  -1.13230  -1.13222  -1.13159  -1.13157
  Beta  occ. eigenvalues --   -1.13139  -1.13047  -1.12999  -1.12994  -1.12967
  Beta  occ. eigenvalues --   -1.12953  -1.12943  -1.12937  -1.12905  -1.12880
  Beta  occ. eigenvalues --   -1.12851  -1.12827  -1.12728  -1.12677  -1.12646
  Beta  occ. eigenvalues --   -0.18533  -0.12733  -0.12468
  Beta virt. eigenvalues --   -0.07006  -0.05318  -0.04946  -0.04539  -0.02378
  Beta virt. eigenvalues --   -0.02228  -0.01444  -0.01302  -0.01010  -0.00126
  Beta virt. eigenvalues --   -0.00048   0.00172   0.00387   0.00901   0.00930

 Mulliken charges and spin densities:
               1          2
     1  Na   0.355388   0.054160
     2  Na   0.075573  -0.062308
     3  Na  -0.426757   0.711001
     4  Na   0.097232  -0.010990
     5  Na   0.137952  -0.013837
     6  Na   0.076727   0.066263
     7  Na  -0.316114   0.255712
 Sum of Mulliken charges =  -0.00000   1.00000

 Dipole moment (field-independent basis, Debye):
    X=             -0.0579    Y=              0.2441    Z=              0.3062  Tot=              0.3959
 Quadrupole moment (field-independent basis, Debye-Ang):
   XX=            -57.2914   YY=            -62.2396   ZZ=            -73.5671
   XY=             -0.3042   XZ=             -0.2166   YZ=             -0.8196

 Normal termination of Gaussian 16 at Tue Dec  5 10:29:14 2023.
