 Gaussian 16, Revision B.01,
 Gaussian 16:  ES64L-G16RevB.01 20-Dec-2017

 -------------------------
 #P B3LYP/6-311+g(d) force
 -------------------------

 -----
 DPGEN
 -----
 Symbolic Z-matrix:
 Charge =  0 Multiplicity = 2

                         Standard orientation:
 ---------------------------------------------------------------------
 Center     Atomic      Atomic             Coordinates (Angstroms)
 Number     Number       Type             X           Y           Z
 ---------------------------------------------------------------------
      1         11           0       -1.470453    2.394310   -0.574434
      2         11           0        0.024785    0.490455   -1.337896
      3         11           0        1.888482    2.414833    0.806150
      4         11           0        2.909216   -1.310146   -0.851214
      5         11           0        0.445746   -0.974198    2.046395
      6         11           0       -3.096113   -0.450311    0.347543
      7         11           0       -0.701663   -2.564944   -0.436545
 ---------------------------------------------------------------------

 SCF Done:  E(UB3LYP) =  -1136.12304638     A.U. after   19 cycles

 The electronic state is 2-A.
 Alpha  occ. eigenvalues --  -38.44151 -38.43965 -38.43899 -38.43847 -38.43815
 Alpha  occ. eigenvalues --  -38.43543 -38.43464  -2.19952  -2.19858  -2.19770
 Alpha  occ. eigenvalues --   -2.19718  -2.19659  -2.19546  -2.19449  -1.14067
 Alpha  occ. eigenvalues --   -1.13630  -1.13592  -1.13586  -1.13466  -1.13444
 Alpha  occ. eigenvalues --   -1.13435  -1.13414  -1.13413  -1.13387  -1.13366
 Alpha  occ. eigenvalues --   -1.13343  -1.13328  -1.13314  -1.13291  -1.13193
 Alpha  occ. eigenvalues --   -1.13138  -1.13112  -1.13076  -1.13046  -1.12997
 Alpha  occ. eigenvalues --   -0.18627  -0.12807  -0.12711  -0.10854
 Alpha virt. eigenvalues --   -0.05553  -0.05291  -0.04477  -0.03272  -0.03183
 Alpha virt. eigenvalues --   -0.02400  -0.01592  -0.01137  -0.00299  -0.00049
 Alpha virt. eigenvalues --    0.00062   0.00337   0.00719   0.00847   0.00862

  Beta  occ. eigenvalues --  -38.44125 -38.43943 -38.43891 -38.43815 -38.43772
  Beta  occ. eigenvalues --  -38.43534 -38.43417  -2.19906  -2.19843  -2.19731
  Beta  occ. eigenvalues --   -2.19660  -2.19579  -2.19465  -2.19437  -1.14032
  Beta  occ. eigenvalues --   -1.13588  -1.13561  -1.13553  -1.13447  -1.13425
  Beta  occ. eigenvalues --   -1.13396  -1.13390  -1.13366  -1.13349  -1.13328
  Beta  occ. eigenvalues --   -1.13311  -1.13280  -1.13269  -1.13225  -1.13160
  Beta  occ. eigenvalues --   -1.13085  -1.13080  -1.13037  -1.13025  -1.12947
  Beta  occ. eigenvalues --   -0.17968  -0.12525  -0.12484
  Beta virt. eigenvalues --   -0.07041  -0.05467  -0.05116  -0.04381  -0.02603
  Beta virt. eigenvalues --   -0.02554  -0.01541  -0.01380  -0.00998  -0.00205
  Beta virt. eigenvalues --   -0.00081   0.00163   0.00388   0.00788   0.00863

 Mulliken charges and spin densities:
               1          2
     1  Na   0.750673   0.164424
     2  Na  -0.242607   0.077693
     3  Na  -0.323771   0.089930
     4  Na   0.121862  -0.018821
     5  Na  -0.489967   0.534933
     6  Na  -0.218255   0.011436
     7  Na   0.402065   0.140405
 Sum of Mulliken charges =   0.00000   1.00000

 Dipole moment (field-independent basis, Debye):
    X=              0.3009    Y=             -0.1819    Z=              0.4576  Tot=              0.5771
 Quadrupole moment (field-independent basis, Debye-Ang):
   XX=            -56.8319   YY=            -63.9078   ZZ=            -72.6274
   XY=              0.2964   XZ=             -0.9893   YZ=              2.6696

 Normal termination of Gaussian 16 at Thu Dec  7 19:24:57 2023.
