 Gaussian 16, Revision B.01,
 Gaussian 16:  ES64L-G16RevB.01 20-Dec-2017

 -------------------------
 #P B3LYP/6-311+g(d) force
 -------------------------

 -----
 DPGEN
 -----
 Symbolic Z-matrix:
 Charge =  0 Multiplicity = 2

                         Standard orientation:
 ---------------------------------------------------------------------
 Center     Atomic      Atomic             Coordinates (Angstroms)
 Number     Number       Type             X           Y           Z
 ---------------------------------------------------------------------
      1         11           0       -0.615024   -0.094195   -1.623966
      2         11           0       -1.916346   -2.235136    0.218645
      3         11           0        2.148000   -2.033726   -0.421802
      4         11           0        3.136329    0.869014   -0.154875
      5         11           0        0.133365    2.684412    0.073782
      6         11           0        0.128997   -0.195593    2.085040
      7         11           0       -3.015321    1.005224   -0.176826
 ---------------------------------------------------------------------

 SCF Done:  E(UB3LYP) =  -1136.13277079     A.U. after   19 cycles

 The electronic state is 2-A.
 Alpha  occ. eigenvalues --  -38.44346 -38.44243 -38.43691 -38.43635 -38.43507
 Alpha  occ. eigenvalues --  -38.43500 -38.42816  -2.20221  -2.20083  -2.19582
 Alpha  occ. eigenvalues --   -2.19511  -2.19487  -2.19378  -2.18681  -1.13957
 Alpha  occ. eigenvalues --   -1.13866  -1.13838  -1.13786  -1.13740  -1.13720
 Alpha  occ. eigenvalues --   -1.13259  -1.13224  -1.13208  -1.13205  -1.13171
 Alpha  occ. eigenvalues --   -1.13165  -1.13146  -1.13131  -1.13109  -1.13035
 Alpha  occ. eigenvalues --   -1.13016  -1.12996  -1.12372  -1.12351  -1.12304
 Alpha  occ. eigenvalues --   -0.18790  -0.13586  -0.12059  -0.10902
 Alpha virt. eigenvalues --   -0.05980  -0.05320  -0.04146  -0.03471  -0.02781
 Alpha virt. eigenvalues --   -0.02609  -0.01752  -0.01057  -0.00314  -0.00178
 Alpha virt. eigenvalues --   -0.00036   0.00335   0.00760   0.00874   0.00916

  Beta  occ. eigenvalues --  -38.44339 -38.44240 -38.43625 -38.43590 -38.43492
  Beta  occ. eigenvalues --  -38.43452 -38.42810  -2.20211  -2.20081  -2.19471
  Beta  occ. eigenvalues --   -2.19411  -2.19395  -2.19366  -2.18674  -1.13940
  Beta  occ. eigenvalues --   -1.13844  -1.13835  -1.13786  -1.13729  -1.13714
  Beta  occ. eigenvalues --   -1.13188  -1.13153  -1.13129  -1.13126  -1.13104
  Beta  occ. eigenvalues --   -1.13093  -1.13075  -1.13069  -1.13056  -1.13005
  Beta  occ. eigenvalues --   -1.12991  -1.12974  -1.12370  -1.12324  -1.12300
  Beta  occ. eigenvalues --   -0.18075  -0.13335  -0.11813
  Beta virt. eigenvalues --   -0.06989  -0.05873  -0.05320  -0.04108  -0.02709
  Beta virt. eigenvalues --   -0.01986  -0.01660  -0.01571  -0.01001  -0.00354
  Beta virt. eigenvalues --   -0.00193   0.00112   0.00377   0.00839   0.00876

 Mulliken charges and spin densities:
               1          2
     1  Na  -0.322054   0.408623
     2  Na   0.198061  -0.041004
     3  Na   0.196075   0.006447
     4  Na  -0.075863  -0.035693
     5  Na   0.065819  -0.042541
     6  Na  -0.499812   0.706758
     7  Na   0.437773  -0.002591
 Sum of Mulliken charges =  -0.00000   1.00000

 Dipole moment (field-independent basis, Debye):
    X=             -0.1625    Y=             -0.0281    Z=              0.1672  Tot=              0.2348
 Quadrupole moment (field-independent basis, Debye-Ang):
   XX=            -54.0296   YY=            -66.9221   ZZ=            -73.4828
   XY=              0.3607   XZ=             -1.1512   YZ=              0.1920

 Normal termination of Gaussian 16 at Thu Dec  7 08:44:03 2023.
