 Gaussian 16, Revision B.01,
 Gaussian 16:  ES64L-G16RevB.01 20-Dec-2017

 -------------------------
 #P B3LYP/6-311+g(d) force
 -------------------------

 -----
 DPGEN
 -----
 Symbolic Z-matrix:
 Charge =  0 Multiplicity = 2

                         Standard orientation:
 ---------------------------------------------------------------------
 Center     Atomic      Atomic             Coordinates (Angstroms)
 Number     Number       Type             X           Y           Z
 ---------------------------------------------------------------------
      1         11           0        4.033773    0.052251   -1.015945
      2         11           0        0.403463    0.083283   -1.434113
      3         11           0       -2.176008   -1.878723   -1.174252
      4         11           0       -1.666475   -0.667325    1.601763
      5         11           0        1.474286   -1.151635    1.549866
      6         11           0        1.028583    1.766143    0.962156
      7         11           0       -3.097623    1.796006   -0.489476
 ---------------------------------------------------------------------

 SCF Done:  E(UB3LYP) =  -1136.11553337     A.U. after   26 cycles

 The electronic state is 2-A.
 Alpha  occ. eigenvalues --  -38.44873 -38.44550 -38.44408 -38.44183 -38.43784
 Alpha  occ. eigenvalues --  -38.43007 -38.42842  -2.20665  -2.20479  -2.20170
 Alpha  occ. eigenvalues --   -2.20068  -2.19723  -2.18953  -2.18798  -1.14335
 Alpha  occ. eigenvalues --   -1.14313  -1.14276  -1.14247  -1.14138  -1.14040
 Alpha  occ. eigenvalues --   -1.13854  -1.13841  -1.13794  -1.13761  -1.13743
 Alpha  occ. eigenvalues --   -1.13653  -1.13463  -1.13399  -1.13282  -1.12666
 Alpha  occ. eigenvalues --   -1.12626  -1.12570  -1.12491  -1.12450  -1.12396
 Alpha  occ. eigenvalues --   -0.18816  -0.13886  -0.11659  -0.10741
 Alpha virt. eigenvalues --   -0.06846  -0.05113  -0.04547  -0.03178  -0.02738
 Alpha virt. eigenvalues --   -0.02386  -0.02236  -0.01162  -0.00773  -0.00014
 Alpha virt. eigenvalues --    0.00097   0.00142   0.00425   0.00573   0.00735

  Beta  occ. eigenvalues --  -38.44819 -38.44507 -38.44423 -38.44125 -38.43759
  Beta  occ. eigenvalues --  -38.43000 -38.42821  -2.20564  -2.20402  -2.20198
  Beta  occ. eigenvalues --   -2.19961  -2.19682  -2.18940  -2.18766  -1.14266
  Beta  occ. eigenvalues --   -1.14235  -1.14211  -1.14196  -1.14076  -1.13983
  Beta  occ. eigenvalues --   -1.13872  -1.13861  -1.13813  -1.13686  -1.13665
  Beta  occ. eigenvalues --   -1.13576  -1.13405  -1.13357  -1.13261  -1.12662
  Beta  occ. eigenvalues --   -1.12601  -1.12559  -1.12454  -1.12402  -1.12387
  Beta  occ. eigenvalues --   -0.18063  -0.13704  -0.10577
  Beta virt. eigenvalues --   -0.07736  -0.06578  -0.04566  -0.04345  -0.02750
  Beta virt. eigenvalues --   -0.02559  -0.01846  -0.01673  -0.00913  -0.00511
  Beta virt. eigenvalues --    0.00055   0.00153   0.00286   0.00440   0.00685

 Mulliken charges and spin densities:
               1          2
     1  Na   0.282925  -0.154599
     2  Na  -0.504249   0.184529
     3  Na   0.122907  -0.059844
     4  Na   0.465379   0.315408
     5  Na  -0.027688   0.026923
     6  Na  -0.151068   0.345183
     7  Na  -0.188205   0.342400
 Sum of Mulliken charges =  -0.00000   1.00000

 Dipole moment (field-independent basis, Debye):
    X=              0.0574    Y=              0.2693    Z=              0.3182  Tot=              0.4208
 Quadrupole moment (field-independent basis, Debye-Ang):
   XX=            -51.4070   YY=            -63.8935   ZZ=            -79.0896
   XY=             -1.6363   XZ=              0.9797   YZ=              1.9229

 Normal termination of Gaussian 16 at Tue Dec  5 12:06:14 2023.
