 Gaussian 16, Revision B.01,
 Gaussian 16:  ES64L-G16RevB.01 20-Dec-2017

 -------------------------
 #P B3LYP/6-311+g(d) force
 -------------------------

 -----
 DPGEN
 -----
 Symbolic Z-matrix:
 Charge =  0 Multiplicity = 2

                         Standard orientation:
 ---------------------------------------------------------------------
 Center     Atomic      Atomic             Coordinates (Angstroms)
 Number     Number       Type             X           Y           Z
 ---------------------------------------------------------------------
      1         11           0       -2.712159    1.878447    0.504539
      2         11           0        3.529186    0.375024    0.125088
      3         11           0        0.969055   -0.739592    2.253018
      4         11           0        1.311257   -1.831229   -1.341939
      5         11           0        0.820754    2.478112   -0.424799
      6         11           0       -1.496379   -0.408108   -1.999813
      7         11           0       -2.421714   -1.752655    0.883906
 ---------------------------------------------------------------------

 SCF Done:  E(UB3LYP) =  -1136.12785491     A.U. after   21 cycles

 The electronic state is 2-A.
 Alpha  occ. eigenvalues --  -38.44881 -38.44352 -38.44159 -38.44098 -38.43742
 Alpha  occ. eigenvalues --  -38.43728 -38.43213  -2.20687  -2.20175  -2.19980
 Alpha  occ. eigenvalues --   -2.19971  -2.19577  -2.19534  -2.18999  -1.14345
 Alpha  occ. eigenvalues --   -1.14328  -1.14309  -1.13850  -1.13826  -1.13820
 Alpha  occ. eigenvalues --   -1.13685  -1.13680  -1.13639  -1.13606  -1.13589
 Alpha  occ. eigenvalues --   -1.13580  -1.13266  -1.13214  -1.13211  -1.13198
 Alpha  occ. eigenvalues --   -1.13188  -1.13172  -1.12687  -1.12680  -1.12622
 Alpha  occ. eigenvalues --   -0.17835  -0.13503  -0.11698  -0.11379
 Alpha virt. eigenvalues --   -0.06066  -0.05362  -0.04845  -0.03477  -0.03064
 Alpha virt. eigenvalues --   -0.02931  -0.01706  -0.00909  -0.00546  -0.00287
 Alpha virt. eigenvalues --    0.00068   0.00246   0.00362   0.00590   0.00664

  Beta  occ. eigenvalues --  -38.44806 -38.44352 -38.44142 -38.44042 -38.43738
  Beta  occ. eigenvalues --  -38.43686 -38.43212  -2.20547  -2.20177  -2.19941
  Beta  occ. eigenvalues --   -2.19879  -2.19526  -2.19503  -2.18997  -1.14252
  Beta  occ. eigenvalues --   -1.14237  -1.14203  -1.13841  -1.13828  -1.13823
  Beta  occ. eigenvalues --   -1.13650  -1.13607  -1.13599  -1.13584  -1.13531
  Beta  occ. eigenvalues --   -1.13512  -1.13208  -1.13199  -1.13185  -1.13167
  Beta  occ. eigenvalues --   -1.13157  -1.13145  -1.12681  -1.12674  -1.12623
  Beta  occ. eigenvalues --   -0.17116  -0.13379  -0.11167
  Beta virt. eigenvalues --   -0.07766  -0.05765  -0.05349  -0.04227  -0.03208
  Beta virt. eigenvalues --   -0.02368  -0.02216  -0.01620  -0.00836  -0.00332
  Beta virt. eigenvalues --   -0.00075   0.00081   0.00398   0.00485   0.00727

 Mulliken charges and spin densities:
               1          2
     1  Na   0.033730   0.005560
     2  Na   0.630917   0.024244
     3  Na  -0.238761   0.437199
     4  Na  -0.207608   0.140407
     5  Na  -0.466201  -0.034799
     6  Na   0.247166   0.313165
     7  Na   0.000757   0.114224
 Sum of Mulliken charges =  -0.00000   1.00000

 Dipole moment (field-independent basis, Debye):
    X=              0.2978    Y=             -0.3826    Z=              0.4518  Tot=              0.6627
 Quadrupole moment (field-independent basis, Debye-Ang):
   XX=            -54.7714   YY=            -75.5438   ZZ=            -67.0216
   XY=              0.4867   XZ=             -1.4219   YZ=             -0.2641

 Normal termination of Gaussian 16 at Sun Dec  3 19:05:49 2023.
