 Gaussian 16, Revision B.01,
 Gaussian 16:  ES64L-G16RevB.01 20-Dec-2017

 -------------------------
 #P B3LYP/6-311+g(d) force
 -------------------------

 -----
 DPGEN
 -----
 Symbolic Z-matrix:
 Charge =  0 Multiplicity = 2

                         Standard orientation:
 ---------------------------------------------------------------------
 Center     Atomic      Atomic             Coordinates (Angstroms)
 Number     Number       Type             X           Y           Z
 ---------------------------------------------------------------------
      1         11           0        0.422109   -2.824761   -0.122907
      2         11           0        1.396230    2.679127    0.085136
      3         11           0       -2.052724    1.988319   -0.176195
      4         11           0       -3.034235   -1.028435   -0.234283
      5         11           0       -0.151514   -0.269977    2.087226
      6         11           0        3.117716   -0.519900   -0.116377
      7         11           0        0.302418   -0.024373   -1.522600
 ---------------------------------------------------------------------

 SCF Done:  E(UB3LYP) =  -1136.13755504     A.U. after   19 cycles

 The electronic state is 2-A.
 Alpha  occ. eigenvalues --  -38.44227 -38.43998 -38.43501 -38.43447 -38.43374
 Alpha  occ. eigenvalues --  -38.43333 -38.43050  -2.20070  -2.19831  -2.19389
 Alpha  occ. eigenvalues --   -2.19326  -2.19248  -2.19173  -2.19074  -1.13769
 Alpha  occ. eigenvalues --   -1.13725  -1.13696  -1.13523  -1.13492  -1.13466
 Alpha  occ. eigenvalues --   -1.13064  -1.13029  -1.13013  -1.13004  -1.12982
 Alpha  occ. eigenvalues --   -1.12978  -1.12965  -1.12904  -1.12866  -1.12858
 Alpha  occ. eigenvalues --   -1.12832  -1.12808  -1.12744  -1.12699  -1.12684
 Alpha  occ. eigenvalues --   -0.18765  -0.13171  -0.12434  -0.10661
 Alpha virt. eigenvalues --   -0.05786  -0.05038  -0.04700  -0.03146  -0.02821
 Alpha virt. eigenvalues --   -0.02485  -0.01648  -0.01082  -0.00399  -0.00281
 Alpha virt. eigenvalues --   -0.00010   0.00348   0.00801   0.00872   0.00911

  Beta  occ. eigenvalues --  -38.44223 -38.43994 -38.43441 -38.43400 -38.43367
  Beta  occ. eigenvalues --  -38.43330 -38.42994  -2.20065  -2.19826  -2.19319
  Beta  occ. eigenvalues --   -2.19238  -2.19201  -2.19170  -2.18973  -1.13759
  Beta  occ. eigenvalues --   -1.13706  -1.13697  -1.13522  -1.13471  -1.13461
  Beta  occ. eigenvalues --   -1.13010  -1.12983  -1.12968  -1.12955  -1.12929
  Beta  occ. eigenvalues --   -1.12897  -1.12873  -1.12859  -1.12857  -1.12847
  Beta  occ. eigenvalues --   -1.12814  -1.12808  -1.12674  -1.12626  -1.12616
  Beta  occ. eigenvalues --   -0.18045  -0.12930  -0.12204
  Beta virt. eigenvalues --   -0.06726  -0.05745  -0.05050  -0.04656  -0.02370
  Beta virt. eigenvalues --   -0.02036  -0.01561  -0.01404  -0.01019  -0.00457
  Beta virt. eigenvalues --   -0.00323   0.00143   0.00382   0.00843   0.00883

 Mulliken charges and spin densities:
               1          2
     1  Na   0.272663  -0.069891
     2  Na   0.102848  -0.016941
     3  Na   0.160113   0.001108
     4  Na   0.181698  -0.025575
     5  Na  -0.606699   0.790408
     6  Na   0.305156  -0.029929
     7  Na  -0.415778   0.350822
 Sum of Mulliken charges =  -0.00000   1.00000

 Dipole moment (field-independent basis, Debye):
    X=              0.1682    Y=             -0.1799    Z=              0.1769  Tot=              0.3032
 Quadrupole moment (field-independent basis, Debye-Ang):
   XX=            -55.3007   YY=            -62.7929   ZZ=            -74.9567
   XY=              0.7117   XZ=              0.9854   YZ=              0.6802

 Normal termination of Gaussian 16 at Thu Dec  7 12:27:08 2023.
