 Gaussian 16, Revision B.01,
 Gaussian 16:  ES64L-G16RevB.01 20-Dec-2017

 -------------------------
 #P B3LYP/6-311+g(d) force
 -------------------------

 -----
 DPGEN
 -----
 Symbolic Z-matrix:
 Charge =  0 Multiplicity = 2

                         Standard orientation:
 ---------------------------------------------------------------------
 Center     Atomic      Atomic             Coordinates (Angstroms)
 Number     Number       Type             X           Y           Z
 ---------------------------------------------------------------------
      1         11           0        0.238558   -1.941627   -0.913182
      2         11           0        2.755521    0.690281    0.006088
      3         11           0       -1.035684    1.540414   -0.373344
      4         11           0       -3.314866   -1.026363   -1.170152
      5         11           0       -2.876684   -0.014404    1.998141
      6         11           0        1.282408    3.299852   -0.208869
      7         11           0        2.950746   -2.548154    0.661318
 ---------------------------------------------------------------------

 SCF Done:  E(UB3LYP) =  -1136.12409132     A.U. after   20 cycles

 The electronic state is 2-A.
 Alpha  occ. eigenvalues --  -38.44435 -38.44344 -38.43998 -38.43825 -38.43702
 Alpha  occ. eigenvalues --  -38.43550 -38.43548  -2.20268  -2.20226  -2.19921
 Alpha  occ. eigenvalues --   -2.19675  -2.19558  -2.19458  -2.19396  -1.13948
 Alpha  occ. eigenvalues --   -1.13915  -1.13912  -1.13910  -1.13906  -1.13882
 Alpha  occ. eigenvalues --   -1.13631  -1.13614  -1.13596  -1.13370  -1.13360
 Alpha  occ. eigenvalues --   -1.13296  -1.13210  -1.13190  -1.13165  -1.13115
 Alpha  occ. eigenvalues --   -1.13089  -1.13066  -1.13054  -1.13041  -1.13023
 Alpha  occ. eigenvalues --   -0.17636  -0.14165  -0.12889  -0.10203
 Alpha virt. eigenvalues --   -0.06199  -0.05352  -0.04936  -0.03788  -0.02493
 Alpha virt. eigenvalues --   -0.02139  -0.01966  -0.01275  -0.01037  -0.00308
 Alpha virt. eigenvalues --   -0.00173   0.00205   0.00445   0.00559   0.00707

  Beta  occ. eigenvalues --  -38.44414 -38.44339 -38.43986 -38.43792 -38.43608
  Beta  occ. eigenvalues --  -38.43551 -38.43535  -2.20235  -2.20218  -2.19903
  Beta  occ. eigenvalues --   -2.19617  -2.19459  -2.19382  -2.19371  -1.13928
  Beta  occ. eigenvalues --   -1.13902  -1.13896  -1.13893  -1.13880  -1.13853
  Beta  occ. eigenvalues --   -1.13626  -1.13603  -1.13544  -1.13331  -1.13319
  Beta  occ. eigenvalues --   -1.13244  -1.13118  -1.13094  -1.13083  -1.13068
  Beta  occ. eigenvalues --   -1.13063  -1.13051  -1.13032  -1.13023  -1.13006
  Beta  occ. eigenvalues --   -0.17167  -0.13738  -0.12738
  Beta virt. eigenvalues --   -0.06452  -0.06049  -0.05117  -0.04745  -0.03336
  Beta virt. eigenvalues --   -0.02128  -0.01975  -0.01347  -0.01167  -0.00949
  Beta virt. eigenvalues --   -0.00065   0.00135   0.00328   0.00739   0.00769

 Mulliken charges and spin densities:
               1          2
     1  Na  -0.495527   0.123205
     2  Na  -0.787840   0.013942
     3  Na  -1.185437   0.445341
     4  Na   0.800524   0.013843
     5  Na   0.024293   0.342847
     6  Na   0.901971  -0.028392
     7  Na   0.742016   0.089214
 Sum of Mulliken charges =  -0.00000   1.00000

 Dipole moment (field-independent basis, Debye):
    X=              0.1835    Y=             -0.2319    Z=             -0.2260  Tot=              0.3721
 Quadrupole moment (field-independent basis, Debye-Ang):
   XX=            -59.4208   YY=            -64.2695   ZZ=            -73.1826
   XY=              3.0745   XZ=              5.4978   YZ=             -2.2266

 Normal termination of Gaussian 16 at Tue Nov 28 21:34:37 2023.
