 Gaussian 16, Revision B.01,
 Gaussian 16:  ES64L-G16RevB.01 20-Dec-2017

 -------------------------
 #P B3LYP/6-311+g(d) force
 -------------------------

 -----
 DPGEN
 -----
 Symbolic Z-matrix:
 Charge =  0 Multiplicity = 2

                         Standard orientation:
 ---------------------------------------------------------------------
 Center     Atomic      Atomic             Coordinates (Angstroms)
 Number     Number       Type             X           Y           Z
 ---------------------------------------------------------------------
      1         11           0       -1.203156    0.978979    2.049123
      2         11           0       -0.052871   -2.454200   -1.189798
      3         11           0        1.628202    1.994492    0.013005
      4         11           0        3.036255   -0.463395   -0.994962
      5         11           0       -1.029475    2.164842   -1.389993
      6         11           0       -3.380461   -0.835326   -0.560576
      7         11           0        1.001506   -1.385393    2.073201
 ---------------------------------------------------------------------

 SCF Done:  E(UB3LYP) =  -1136.12485085     A.U. after   21 cycles

 The electronic state is 2-A.
 Alpha  occ. eigenvalues --  -38.44508 -38.44442 -38.44206 -38.44095 -38.43966
 Alpha  occ. eigenvalues --  -38.43822 -38.43011  -2.20355  -2.20302  -2.19969
 Alpha  occ. eigenvalues --   -2.19937  -2.19806  -2.19607  -2.18932  -1.14093
 Alpha  occ. eigenvalues --   -1.13990  -1.13973  -1.13954  -1.13925  -1.13911
 Alpha  occ. eigenvalues --   -1.13654  -1.13646  -1.13615  -1.13611  -1.13593
 Alpha  occ. eigenvalues --   -1.13546  -1.13521  -1.13453  -1.13423  -1.13291
 Alpha  occ. eigenvalues --   -1.13274  -1.13224  -1.12614  -1.12585  -1.12568
 Alpha  occ. eigenvalues --   -0.17970  -0.12773  -0.12141  -0.11985
 Alpha virt. eigenvalues --   -0.05869  -0.04757  -0.04629  -0.03704  -0.03519
 Alpha virt. eigenvalues --   -0.03144  -0.01421  -0.00647  -0.00559  -0.00051
 Alpha virt. eigenvalues --   -0.00011   0.00398   0.00439   0.00698   0.00785

  Beta  occ. eigenvalues --  -38.44439 -38.44372 -38.44193 -38.44078 -38.43946
  Beta  occ. eigenvalues --  -38.43802 -38.43007  -2.20232  -2.20177  -2.19947
  Beta  occ. eigenvalues --   -2.19906  -2.19768  -2.19571  -2.18927  -1.13988
  Beta  occ. eigenvalues --   -1.13909  -1.13889  -1.13861  -1.13845  -1.13801
  Beta  occ. eigenvalues --   -1.13635  -1.13623  -1.13602  -1.13598  -1.13565
  Beta  occ. eigenvalues --   -1.13527  -1.13497  -1.13423  -1.13398  -1.13261
  Beta  occ. eigenvalues --   -1.13252  -1.13197  -1.12605  -1.12584  -1.12547
  Beta  occ. eigenvalues --   -0.17213  -0.12586  -0.11828
  Beta virt. eigenvalues --   -0.08078  -0.05775  -0.04473  -0.04142  -0.03505
  Beta virt. eigenvalues --   -0.02889  -0.02273  -0.01317  -0.00603  -0.00242
  Beta virt. eigenvalues --    0.00005   0.00070   0.00473   0.00487   0.00864

 Mulliken charges and spin densities:
               1          2
     1  Na   0.123600   0.230190
     2  Na  -0.119732   0.256225
     3  Na   0.192183   0.393707
     4  Na   0.072571  -0.110330
     5  Na  -0.106637   0.024314
     6  Na  -0.036264   0.090260
     7  Na  -0.125721   0.115634
 Sum of Mulliken charges =  -0.00000   1.00000

 Dipole moment (field-independent basis, Debye):
    X=             -0.2522    Y=             -0.2511    Z=             -0.0148  Tot=              0.3562
 Quadrupole moment (field-independent basis, Debye-Ang):
   XX=            -61.0149   YY=            -72.7536   ZZ=            -64.3549
   XY=             -1.6725   XZ=             -0.0137   YZ=              0.2288

 Normal termination of Gaussian 16 at Sun Dec  3 12:42:42 2023.
