 Gaussian 16, Revision B.01,
 Gaussian 16:  ES64L-G16RevB.01 20-Dec-2017

 -------------------------
 #P B3LYP/6-311+g(d) force
 -------------------------

 -----
 DPGEN
 -----
 Symbolic Z-matrix:
 Charge =  0 Multiplicity = 2

                         Standard orientation:
 ---------------------------------------------------------------------
 Center     Atomic      Atomic             Coordinates (Angstroms)
 Number     Number       Type             X           Y           Z
 ---------------------------------------------------------------------
      1         11           0        0.141416    0.050147    2.022296
      2         11           0        1.298291   -2.612389   -0.387255
      3         11           0        0.239976    3.509634   -0.160361
      4         11           0       -0.019242   -0.087607   -1.560850
      5         11           0        3.495987    0.245222    0.052761
      6         11           0       -2.248767   -2.321525    0.209321
      7         11           0       -2.907661    1.216519   -0.175913
 ---------------------------------------------------------------------

 SCF Done:  E(UB3LYP) =  -1136.13177389     A.U. after   22 cycles

 The electronic state is 2-A.
 Alpha  occ. eigenvalues --  -38.44509 -38.44305 -38.44152 -38.43696 -38.43639
 Alpha  occ. eigenvalues --  -38.43567 -38.43285  -2.20269  -2.20048  -2.19952
 Alpha  occ. eigenvalues --   -2.19513  -2.19506  -2.19416  -2.19226  -1.13944
 Alpha  occ. eigenvalues --   -1.13923  -1.13913  -1.13728  -1.13702  -1.13690
 Alpha  occ. eigenvalues --   -1.13641  -1.13618  -1.13575  -1.13261  -1.13181
 Alpha  occ. eigenvalues --   -1.13177  -1.13167  -1.13156  -1.13106  -1.13094
 Alpha  occ. eigenvalues --   -1.13041  -1.13026  -1.12913  -1.12858  -1.12833
 Alpha  occ. eigenvalues --   -0.18028  -0.12742  -0.12282  -0.10299
 Alpha virt. eigenvalues --   -0.06095  -0.05453  -0.04948  -0.02948  -0.02778
 Alpha virt. eigenvalues --   -0.02307  -0.01742  -0.01535  -0.00813  -0.00653
 Alpha virt. eigenvalues --   -0.00019   0.00316   0.00711   0.00738   0.00837

  Beta  occ. eigenvalues --  -38.44511 -38.44307 -38.44148 -38.43692 -38.43624
  Beta  occ. eigenvalues --  -38.43472 -38.43226  -2.20273  -2.20052  -2.19946
  Beta  occ. eigenvalues --   -2.19507  -2.19483  -2.19242  -2.19120  -1.13936
  Beta  occ. eigenvalues --   -1.13923  -1.13918  -1.13722  -1.13704  -1.13694
  Beta  occ. eigenvalues --   -1.13630  -1.13604  -1.13572  -1.13235  -1.13172
  Beta  occ. eigenvalues --   -1.13168  -1.13150  -1.13121  -1.13095  -1.12978
  Beta  occ. eigenvalues --   -1.12920  -1.12899  -1.12836  -1.12778  -1.12759
  Beta  occ. eigenvalues --   -0.17315  -0.12526  -0.12096
  Beta virt. eigenvalues --   -0.06432  -0.06096  -0.05354  -0.04911  -0.02231
  Beta virt. eigenvalues --   -0.02079  -0.01652  -0.01491  -0.01247  -0.00846
  Beta virt. eigenvalues --   -0.00686   0.00130   0.00354   0.00713   0.00779

 Mulliken charges and spin densities:
               1          2
     1  Na  -0.399389   0.813565
     2  Na   0.337021   0.050382
     3  Na  -0.114974  -0.121303
     4  Na   0.027079   0.398988
     5  Na  -0.034350  -0.101748
     6  Na   0.117570   0.024009
     7  Na   0.067043  -0.063894
 Sum of Mulliken charges =  -0.00000   1.00000

 Dipole moment (field-independent basis, Debye):
    X=              0.1835    Y=              0.2547    Z=              0.0826  Tot=              0.3246
 Quadrupole moment (field-independent basis, Debye-Ang):
   XX=            -55.3965   YY=            -59.0317   ZZ=            -77.2708
   XY=              1.5331   XZ=             -0.3527   YZ=             -0.3382

 Normal termination of Gaussian 16 at Thu Dec  7 09:24:37 2023.
