 Gaussian 16, Revision B.01,
 Gaussian 16:  ES64L-G16RevB.01 20-Dec-2017

 -------------------------
 #P B3LYP/6-311+g(d) force
 -------------------------

 -----
 DPGEN
 -----
 Symbolic Z-matrix:
 Charge =  0 Multiplicity = 2

                         Standard orientation:
 ---------------------------------------------------------------------
 Center     Atomic      Atomic             Coordinates (Angstroms)
 Number     Number       Type             X           Y           Z
 ---------------------------------------------------------------------
      1         11           0       -0.140318    3.066820   -0.010264
      2         11           0        5.257190   -0.882847   -0.835582
      3         11           0        2.782522    1.231670   -0.050914
      4         11           0        3.561404   -1.699750    1.200508
      5         11           0       -0.594751   -0.062831    0.073850
      6         11           0       -4.403234   -1.467695   -1.038506
      7         11           0       -6.462813   -0.185368    0.660907
 ---------------------------------------------------------------------

 SCF Done:  E(UB3LYP) =  -1136.10792719     A.U. after   19 cycles

 The electronic state is 2-A.
 Alpha  occ. eigenvalues --  -38.44853 -38.44799 -38.44069 -38.44026 -38.43865
 Alpha  occ. eigenvalues --  -38.43844 -38.43596  -2.20758  -2.20692  -2.19963
 Alpha  occ. eigenvalues --   -2.19837  -2.19699  -2.19651  -2.19432  -1.14694
 Alpha  occ. eigenvalues --   -1.14404  -1.14385  -1.14331  -1.14302  -1.14182
 Alpha  occ. eigenvalues --   -1.13673  -1.13654  -1.13595  -1.13555  -1.13479
 Alpha  occ. eigenvalues --   -1.13477  -1.13383  -1.13353  -1.13331  -1.13305
 Alpha  occ. eigenvalues --   -1.13292  -1.13259  -1.13106  -1.13082  -1.13040
 Alpha  occ. eigenvalues --   -0.16928  -0.14014  -0.12740  -0.09751
 Alpha virt. eigenvalues --   -0.06492  -0.05856  -0.04701  -0.03782  -0.02787
 Alpha virt. eigenvalues --   -0.02253  -0.02034  -0.01684  -0.01294  -0.00940
 Alpha virt. eigenvalues --   -0.00311   0.00021   0.00403   0.00427   0.00560

  Beta  occ. eigenvalues --  -38.44840 -38.44771 -38.44036 -38.44005 -38.43848
  Beta  occ. eigenvalues --  -38.43847 -38.43549  -2.20732  -2.20642  -2.19907
  Beta  occ. eigenvalues --   -2.19798  -2.19665  -2.19660  -2.19344  -1.14668
  Beta  occ. eigenvalues --   -1.14379  -1.14364  -1.14298  -1.14265  -1.14149
  Beta  occ. eigenvalues --   -1.13635  -1.13588  -1.13577  -1.13516  -1.13453
  Beta  occ. eigenvalues --   -1.13450  -1.13354  -1.13331  -1.13313  -1.13302
  Beta  occ. eigenvalues --   -1.13296  -1.13248  -1.13048  -1.13016  -1.12980
  Beta  occ. eigenvalues --   -0.16398  -0.13792  -0.12537
  Beta virt. eigenvalues --   -0.06511  -0.05942  -0.05474  -0.04403  -0.03453
  Beta virt. eigenvalues --   -0.02652  -0.02057  -0.01870  -0.01350  -0.01087
  Beta virt. eigenvalues --   -0.00581  -0.00019   0.00238   0.00476   0.00563

 Mulliken charges and spin densities:
               1          2
     1  Na   0.351390   0.187461
     2  Na   0.995491   0.008952
     3  Na  -0.441081   0.201961
     4  Na   0.074622   0.147019
     5  Na  -0.944091   0.375134
     6  Na  -0.092886  -0.015579
     7  Na   0.056555   0.095051
 Sum of Mulliken charges =  -0.00000   1.00000

 Dipole moment (field-independent basis, Debye):
    X=              1.3688    Y=             -0.0011    Z=              0.0413  Tot=              1.3694
 Quadrupole moment (field-independent basis, Debye-Ang):
   XX=            -58.8728   YY=            -68.5868   ZZ=            -67.3175
   XY=            -11.0547   XZ=             -5.3729   YZ=              3.1101

 Normal termination of Gaussian 16 at Wed Nov 29 02:48:26 2023.
