 Gaussian 16, Revision B.01,
 Gaussian 16:  ES64L-G16RevB.01 20-Dec-2017

 -------------------------
 #P B3LYP/6-311+g(d) force
 -------------------------

 -----
 DPGEN
 -----
 Symbolic Z-matrix:
 Charge =  0 Multiplicity = 2

                         Standard orientation:
 ---------------------------------------------------------------------
 Center     Atomic      Atomic             Coordinates (Angstroms)
 Number     Number       Type             X           Y           Z
 ---------------------------------------------------------------------
      1         11           0       -0.042832    3.050313   -0.195851
      2         11           0        0.081295    0.540231    1.723938
      3         11           0       -2.128972   -2.251167    0.031664
      4         11           0       -2.681863    0.898402   -0.034581
      5         11           0        1.274280   -2.472776    0.112890
      6         11           0        3.282928    0.262047    0.011321
      7         11           0        0.215163   -0.027050   -1.649381
 ---------------------------------------------------------------------

 SCF Done:  E(UB3LYP) =  -1136.13699302     A.U. after   19 cycles

 The electronic state is 2-A.
 Alpha  occ. eigenvalues --  -38.44232 -38.43699 -38.43646 -38.43571 -38.43396
 Alpha  occ. eigenvalues --  -38.43039 -38.42940  -2.20050  -2.19609  -2.19518
 Alpha  occ. eigenvalues --   -2.19459  -2.19253  -2.19013  -2.18937  -1.13720
 Alpha  occ. eigenvalues --   -1.13709  -1.13696  -1.13311  -1.13275  -1.13270
 Alpha  occ. eigenvalues --   -1.13208  -1.13179  -1.13171  -1.13137  -1.13124
 Alpha  occ. eigenvalues --   -1.13084  -1.12917  -1.12903  -1.12899  -1.12711
 Alpha  occ. eigenvalues --   -1.12637  -1.12628  -1.12611  -1.12568  -1.12544
 Alpha  occ. eigenvalues --   -0.18993  -0.13176  -0.12705  -0.10385
 Alpha virt. eigenvalues --   -0.05756  -0.05053  -0.04885  -0.03077  -0.02782
 Alpha virt. eigenvalues --   -0.02115  -0.01617  -0.01239  -0.00352  -0.00255
 Alpha virt. eigenvalues --    0.00034   0.00355   0.00827   0.00858   0.00916

  Beta  occ. eigenvalues --  -38.44230 -38.43690 -38.43638 -38.43564 -38.43394
  Beta  occ. eigenvalues --  -38.42963 -38.42865  -2.20049  -2.19598  -2.19508
  Beta  occ. eigenvalues --   -2.19450  -2.19253  -2.18874  -2.18801  -1.13711
  Beta  occ. eigenvalues --   -1.13700  -1.13694  -1.13306  -1.13269  -1.13231
  Beta  occ. eigenvalues --   -1.13198  -1.13163  -1.13145  -1.13135  -1.13092
  Beta  occ. eigenvalues --   -1.13082  -1.12919  -1.12900  -1.12882  -1.12618
  Beta  occ. eigenvalues --   -1.12538  -1.12528  -1.12514  -1.12469  -1.12446
  Beta  occ. eigenvalues --   -0.18269  -0.12923  -0.12469
  Beta virt. eigenvalues --   -0.06480  -0.05752  -0.05004  -0.04878  -0.02256
  Beta virt. eigenvalues --   -0.02038  -0.01551  -0.01173  -0.01096  -0.00406
  Beta virt. eigenvalues --   -0.00292   0.00174   0.00383   0.00840   0.00860

 Mulliken charges and spin densities:
               1          2
     1  Na   0.288819  -0.126560
     2  Na  -0.472341   0.649350
     3  Na  -0.080472  -0.045779
     4  Na   0.346023   0.049903
     5  Na   0.157797   0.004995
     6  Na   0.166420  -0.126110
     7  Na  -0.406246   0.594203
 Sum of Mulliken charges =  -0.00000   1.00000

 Dipole moment (field-independent basis, Debye):
    X=              0.4116    Y=              0.2211    Z=              0.0148  Tot=              0.4675
 Quadrupole moment (field-independent basis, Debye-Ang):
   XX=            -56.0152   YY=            -59.8026   ZZ=            -76.3361
   XY=              0.8197   XZ=              0.2763   YZ=             -1.2873

 Normal termination of Gaussian 16 at Sun Dec  3 18:23:55 2023.
