 Gaussian 16, Revision B.01,
 Gaussian 16:  ES64L-G16RevB.01 20-Dec-2017

 -------------------------
 #P B3LYP/6-311+g(d) force
 -------------------------

 -----
 DPGEN
 -----
 Symbolic Z-matrix:
 Charge =  0 Multiplicity = 2

                         Standard orientation:
 ---------------------------------------------------------------------
 Center     Atomic      Atomic             Coordinates (Angstroms)
 Number     Number       Type             X           Y           Z
 ---------------------------------------------------------------------
      1         11           0        0.561882    2.900476   -0.403018
      2         11           0        0.191971   -0.677979   -1.678477
      3         11           0       -2.617250    1.539965   -0.022734
      4         11           0        1.160643   -2.609446    0.367308
      5         11           0       -2.447225   -1.826723   -0.214703
      6         11           0        2.978954    0.346844   -0.283608
      7         11           0        0.171025    0.326864    2.235232
 ---------------------------------------------------------------------

 SCF Done:  E(UB3LYP) =  -1136.13716021     A.U. after   18 cycles

 The electronic state is 2-A.
 Alpha  occ. eigenvalues --  -38.43991 -38.43729 -38.43657 -38.43639 -38.43595
 Alpha  occ. eigenvalues --  -38.43475 -38.43434  -2.19844  -2.19586  -2.19546
 Alpha  occ. eigenvalues --   -2.19462  -2.19440  -2.19416  -2.19301  -1.13501
 Alpha  occ. eigenvalues --   -1.13473  -1.13466  -1.13356  -1.13286  -1.13244
 Alpha  occ. eigenvalues --   -1.13224  -1.13200  -1.13174  -1.13151  -1.13140
 Alpha  occ. eigenvalues --   -1.13130  -1.13121  -1.13090  -1.13058  -1.13051
 Alpha  occ. eigenvalues --   -1.13016  -1.13004  -1.12972  -1.12960  -1.12938
 Alpha  occ. eigenvalues --   -0.18576  -0.12853  -0.12603  -0.11052
 Alpha virt. eigenvalues --   -0.05335  -0.05182  -0.04804  -0.03299  -0.03123
 Alpha virt. eigenvalues --   -0.02800  -0.01261  -0.01038  -0.00343  -0.00276
 Alpha virt. eigenvalues --   -0.00051   0.00374   0.00844   0.00895   0.00917

  Beta  occ. eigenvalues --  -38.43890 -38.43721 -38.43646 -38.43638 -38.43592
  Beta  occ. eigenvalues --  -38.43469 -38.43379  -2.19657  -2.19575  -2.19530
  Beta  occ. eigenvalues --   -2.19463  -2.19436  -2.19317  -2.19292  -1.13379
  Beta  occ. eigenvalues --   -1.13344  -1.13334  -1.13325  -1.13267  -1.13222
  Beta  occ. eigenvalues --   -1.13214  -1.13168  -1.13161  -1.13146  -1.13131
  Beta  occ. eigenvalues --   -1.13123  -1.13111  -1.13076  -1.13053  -1.12998
  Beta  occ. eigenvalues --   -1.12964  -1.12950  -1.12949  -1.12939  -1.12929
  Beta  occ. eigenvalues --   -0.17846  -0.12644  -0.12394
  Beta virt. eigenvalues --   -0.07085  -0.05336  -0.05172  -0.04651  -0.02504
  Beta virt. eigenvalues --   -0.02381  -0.01747  -0.01186  -0.00968  -0.00371
  Beta virt. eigenvalues --   -0.00324   0.00109   0.00413   0.00886   0.00905

 Mulliken charges and spin densities:
               1          2
     1  Na  -0.028278  -0.029879
     2  Na  -0.113538   0.365684
     3  Na  -0.017250  -0.049391
     4  Na   0.265444   0.056935
     5  Na   0.178343  -0.043999
     6  Na   0.278412   0.003273
     7  Na  -0.563132   0.697377
 Sum of Mulliken charges =  -0.00000   1.00000

 Dipole moment (field-independent basis, Debye):
    X=              0.0930    Y=             -0.0497    Z=              0.1891  Tot=              0.2166
 Quadrupole moment (field-independent basis, Debye-Ang):
   XX=            -60.0767   YY=            -62.8017   ZZ=            -72.3488
   XY=              0.1210   XZ=             -0.0839   YZ=             -1.8266

 Normal termination of Gaussian 16 at Thu Dec  7 20:08:20 2023.
