 Gaussian 16, Revision B.01,
 Gaussian 16:  ES64L-G16RevB.01 20-Dec-2017

 -------------------------
 #P B3LYP/6-311+g(d) force
 -------------------------

 -----
 DPGEN
 -----
 Symbolic Z-matrix:
 Charge =  0 Multiplicity = 2

                         Standard orientation:
 ---------------------------------------------------------------------
 Center     Atomic      Atomic             Coordinates (Angstroms)
 Number     Number       Type             X           Y           Z
 ---------------------------------------------------------------------
      1         11           0        0.840657    2.722036    0.115302
      2         11           0        0.009314   -0.117109   -1.644961
      3         11           0       -2.397530   -1.798028   -0.045296
      4         11           0        0.259073    0.271702    2.031040
      5         11           0        1.044318   -2.318367    0.374186
      6         11           0        3.143013   -0.108149   -0.581608
      7         11           0       -2.898845    1.347916   -0.248663
 ---------------------------------------------------------------------

 SCF Done:  E(UB3LYP) =  -1136.13424225     A.U. after   19 cycles

 The electronic state is 2-A.
 Alpha  occ. eigenvalues --  -38.44249 -38.44137 -38.43649 -38.43529 -38.43425
 Alpha  occ. eigenvalues --  -38.43078 -38.42857  -2.20117  -2.19961  -2.19587
 Alpha  occ. eigenvalues --   -2.19427  -2.19402  -2.18936  -2.18811  -1.13801
 Alpha  occ. eigenvalues --   -1.13780  -1.13739  -1.13646  -1.13634  -1.13590
 Alpha  occ. eigenvalues --   -1.13264  -1.13242  -1.13193  -1.13144  -1.13098
 Alpha  occ. eigenvalues --   -1.13066  -1.13058  -1.13039  -1.13020  -1.12627
 Alpha  occ. eigenvalues --   -1.12601  -1.12550  -1.12502  -1.12469  -1.12428
 Alpha  occ. eigenvalues --   -0.19014  -0.13380  -0.12178  -0.11101
 Alpha virt. eigenvalues --   -0.05874  -0.04984  -0.04159  -0.03353  -0.02922
 Alpha virt. eigenvalues --   -0.02687  -0.01765  -0.00927  -0.00262  -0.00055
 Alpha virt. eigenvalues --    0.00049   0.00341   0.00809   0.00899   0.00948

  Beta  occ. eigenvalues --  -38.44230 -38.44134 -38.43550 -38.43528 -38.43367
  Beta  occ. eigenvalues --  -38.43072 -38.42842  -2.20085  -2.19958  -2.19408
  Beta  occ. eigenvalues --   -2.19400  -2.19321  -2.18928  -2.18788  -1.13778
  Beta  occ. eigenvalues --   -1.13744  -1.13716  -1.13647  -1.13619  -1.13587
  Beta  occ. eigenvalues --   -1.13150  -1.13107  -1.13101  -1.13071  -1.13060
  Beta  occ. eigenvalues --   -1.13045  -1.13025  -1.12992  -1.12950  -1.12615
  Beta  occ. eigenvalues --   -1.12576  -1.12548  -1.12490  -1.12425  -1.12403
  Beta  occ. eigenvalues --   -0.18278  -0.13112  -0.11917
  Beta virt. eigenvalues --   -0.07143  -0.05803  -0.04974  -0.04139  -0.02624
  Beta virt. eigenvalues --   -0.02110  -0.01699  -0.01551  -0.00881  -0.00269
  Beta virt. eigenvalues --   -0.00027   0.00115   0.00377   0.00862   0.00906

 Mulliken charges and spin densities:
               1          2
     1  Na   0.033334  -0.079650
     2  Na  -0.422014   0.426171
     3  Na   0.112219  -0.029499
     4  Na  -0.412838   0.567953
     5  Na   0.402509   0.126413
     6  Na   0.231944   0.058814
     7  Na   0.054845  -0.070202
 Sum of Mulliken charges =  -0.00000   1.00000

 Dipole moment (field-independent basis, Debye):
    X=             -0.0503    Y=              0.2096    Z=             -0.0072  Tot=              0.2156
 Quadrupole moment (field-independent basis, Debye-Ang):
   XX=            -54.5802   YY=            -66.7549   ZZ=            -72.6085
   XY=             -0.1758   XZ=             -1.0522   YZ=             -1.0525

 Normal termination of Gaussian 16 at Thu Dec  7 09:22:59 2023.
