 Gaussian 16, Revision B.01,
 Gaussian 16:  ES64L-G16RevB.01 20-Dec-2017

 -------------------------
 #P B3LYP/6-311+g(d) force
 -------------------------

 -----
 DPGEN
 -----
 Symbolic Z-matrix:
 Charge =  0 Multiplicity = 2

                         Standard orientation:
 ---------------------------------------------------------------------
 Center     Atomic      Atomic             Coordinates (Angstroms)
 Number     Number       Type             X           Y           Z
 ---------------------------------------------------------------------
      1         11           0        2.204430   -1.986738    0.031566
      2         11           0        3.023907    1.175320   -0.383718
      3         11           0       -2.889622    1.364677    0.237626
      4         11           0        0.187531   -0.544224    2.308043
      5         11           0       -2.288809   -2.216265   -0.485420
      6         11           0       -0.098415    2.592436   -0.096813
      7         11           0       -0.139022   -0.385206   -1.611284
 ---------------------------------------------------------------------

 SCF Done:  E(UB3LYP) =  -1136.13038647     A.U. after   19 cycles

 The electronic state is 2-A.
 Alpha  occ. eigenvalues --  -38.44247 -38.44181 -38.44102 -38.43928 -38.43816
 Alpha  occ. eigenvalues --  -38.43459 -38.42796  -2.20087  -2.20018  -2.19934
 Alpha  occ. eigenvalues --   -2.19793  -2.19646  -2.19435  -2.18687  -1.13742
 Alpha  occ. eigenvalues --   -1.13721  -1.13715  -1.13706  -1.13676  -1.13646
 Alpha  occ. eigenvalues --   -1.13609  -1.13594  -1.13590  -1.13476  -1.13456
 Alpha  occ. eigenvalues --   -1.13410  -1.13400  -1.13286  -1.13268  -1.13106
 Alpha  occ. eigenvalues --   -1.13073  -1.13041  -1.12376  -1.12340  -1.12331
 Alpha  occ. eigenvalues --   -0.18484  -0.13310  -0.12139  -0.11093
 Alpha virt. eigenvalues --   -0.05759  -0.05672  -0.04072  -0.03427  -0.03019
 Alpha virt. eigenvalues --   -0.02752  -0.01700  -0.01265  -0.00393  -0.00080
 Alpha virt. eigenvalues --   -0.00043   0.00311   0.00689   0.00813   0.00905

  Beta  occ. eigenvalues --  -38.44180 -38.44139 -38.44095 -38.43922 -38.43805
  Beta  occ. eigenvalues --  -38.43404 -38.42792  -2.20017  -2.19923  -2.19886
  Beta  occ. eigenvalues --   -2.19785  -2.19629  -2.19336  -2.18683  -1.13721
  Beta  occ. eigenvalues --   -1.13662  -1.13646  -1.13615  -1.13602  -1.13584
  Beta  occ. eigenvalues --   -1.13574  -1.13571  -1.13567  -1.13468  -1.13420
  Beta  occ. eigenvalues --   -1.13407  -1.13373  -1.13267  -1.13258  -1.13037
  Beta  occ. eigenvalues --   -1.13007  -1.12970  -1.12375  -1.12333  -1.12314
  Beta  occ. eigenvalues --   -0.17791  -0.13102  -0.11876
  Beta virt. eigenvalues --   -0.07154  -0.05659  -0.05630  -0.04016  -0.02688
  Beta virt. eigenvalues --   -0.02152  -0.01829  -0.01589  -0.01184  -0.00437
  Beta virt. eigenvalues --   -0.00062   0.00097   0.00354   0.00773   0.00825

 Mulliken charges and spin densities:
               1          2
     1  Na   0.429082   0.091550
     2  Na   0.079076   0.021214
     3  Na   0.065150   0.035023
     4  Na  -0.571867   0.595041
     5  Na   0.265593   0.035137
     6  Na  -0.015129   0.076589
     7  Na  -0.251906   0.145446
 Sum of Mulliken charges =  -0.00000   1.00000

 Dipole moment (field-independent basis, Debye):
    X=              0.0243    Y=             -0.2992    Z=              0.2875  Tot=              0.4156
 Quadrupole moment (field-independent basis, Debye-Ang):
   XX=            -54.3652   YY=            -67.8467   ZZ=            -72.9094
   XY=              0.4561   XZ=             -1.5291   YZ=              0.1204

 Normal termination of Gaussian 16 at Thu Dec  7 02:24:11 2023.
