 Gaussian 16, Revision B.01,
 Gaussian 16:  ES64L-G16RevB.01 20-Dec-2017

 -------------------------
 #P B3LYP/6-311+g(d) force
 -------------------------

 -----
 DPGEN
 -----
 Symbolic Z-matrix:
 Charge =  0 Multiplicity = 2

                         Standard orientation:
 ---------------------------------------------------------------------
 Center     Atomic      Atomic             Coordinates (Angstroms)
 Number     Number       Type             X           Y           Z
 ---------------------------------------------------------------------
      1         11           0       -3.126413    0.150423   -0.357698
      2         11           0       -0.989569    2.784845   -0.008477
      3         11           0        2.928739   -1.630205   -0.353803
      4         11           0        0.006355   -0.343984   -1.662519
      5         11           0       -1.258477   -2.679932    0.287698
      6         11           0        0.048900   -0.222596    2.018060
      7         11           0        2.390464    1.941449    0.076739
 ---------------------------------------------------------------------

 SCF Done:  E(UB3LYP) =  -1136.13784144     A.U. after   19 cycles

 The electronic state is 2-A.
 Alpha  occ. eigenvalues --  -38.44135 -38.43959 -38.43874 -38.43609 -38.43561
 Alpha  occ. eigenvalues --  -38.43374 -38.43121  -2.19928  -2.19807  -2.19690
 Alpha  occ. eigenvalues --   -2.19499  -2.19428  -2.19315  -2.18960  -1.13606
 Alpha  occ. eigenvalues --   -1.13577  -1.13570  -1.13485  -1.13466  -1.13449
 Alpha  occ. eigenvalues --   -1.13368  -1.13359  -1.13321  -1.13201  -1.13144
 Alpha  occ. eigenvalues --   -1.13119  -1.13115  -1.13066  -1.13048  -1.12995
 Alpha  occ. eigenvalues --   -1.12946  -1.12931  -1.12630  -1.12628  -1.12604
 Alpha  occ. eigenvalues --   -0.18457  -0.13057  -0.12344  -0.10724
 Alpha virt. eigenvalues --   -0.05740  -0.05354  -0.04630  -0.03182  -0.02852
 Alpha virt. eigenvalues --   -0.02542  -0.01674  -0.01195  -0.00513  -0.00331
 Alpha virt. eigenvalues --   -0.00023   0.00336   0.00758   0.00828   0.00874

  Beta  occ. eigenvalues --  -38.44126 -38.43950 -38.43872 -38.43550 -38.43514
  Beta  occ. eigenvalues --  -38.43315 -38.43120  -2.19915  -2.19792  -2.19688
  Beta  occ. eigenvalues --   -2.19412  -2.19324  -2.19207  -2.18960  -1.13583
  Beta  occ. eigenvalues --   -1.13570  -1.13561  -1.13468  -1.13451  -1.13435
  Beta  occ. eigenvalues --   -1.13361  -1.13351  -1.13319  -1.13138  -1.13074
  Beta  occ. eigenvalues --   -1.13045  -1.13036  -1.12997  -1.12972  -1.12921
  Beta  occ. eigenvalues --   -1.12875  -1.12848  -1.12630  -1.12623  -1.12592
  Beta  occ. eigenvalues --   -0.17749  -0.12815  -0.12094
  Beta virt. eigenvalues --   -0.06853  -0.05683  -0.05316  -0.04573  -0.02445
  Beta virt. eigenvalues --   -0.02113  -0.01582  -0.01474  -0.01125  -0.00553
  Beta virt. eigenvalues --   -0.00368   0.00119   0.00377   0.00809   0.00856

 Mulliken charges and spin densities:
               1          2
     1  Na   0.221500   0.030190
     2  Na  -0.076686  -0.049224
     3  Na   0.111194  -0.065081
     4  Na  -0.207064   0.504517
     5  Na   0.264096  -0.037280
     6  Na  -0.313055   0.666941
     7  Na   0.000015  -0.050064
 Sum of Mulliken charges =  -0.00000   1.00000

 Dipole moment (field-independent basis, Debye):
    X=              0.1919    Y=             -0.2543    Z=              0.0555  Tot=              0.3234
 Quadrupole moment (field-independent basis, Debye-Ang):
   XX=            -55.8415   YY=            -63.1064   ZZ=            -74.5945
   XY=              0.0583   XZ=              0.2571   YZ=             -0.0360

 Normal termination of Gaussian 16 at Thu Dec  7 07:02:23 2023.
