 Gaussian 16, Revision B.01,
 Gaussian 16:  ES64L-G16RevB.01 20-Dec-2017

 -------------------------
 #P B3LYP/6-311+g(d) force
 -------------------------

 -----
 DPGEN
 -----
 Symbolic Z-matrix:
 Charge =  0 Multiplicity = 2

                         Standard orientation:
 ---------------------------------------------------------------------
 Center     Atomic      Atomic             Coordinates (Angstroms)
 Number     Number       Type             X           Y           Z
 ---------------------------------------------------------------------
      1         11           0        3.231105   -0.602892    0.180304
      2         11           0       -2.643394   -1.610331    0.149654
      3         11           0        0.111171    0.193130    2.211094
      4         11           0        1.392256    2.673811   -0.350808
      5         11           0       -2.394930    2.107159   -0.011418
      6         11           0        0.374740   -2.697426   -0.283402
      7         11           0       -0.070947   -0.063451   -1.895423
 ---------------------------------------------------------------------

 SCF Done:  E(UB3LYP) =  -1136.13674303     A.U. after   18 cycles

 The electronic state is 2-A.
 Alpha  occ. eigenvalues --  -38.44169 -38.43989 -38.43856 -38.43779 -38.43712
 Alpha  occ. eigenvalues --  -38.43687 -38.43115  -2.20004  -2.19779  -2.19643
 Alpha  occ. eigenvalues --   -2.19631  -2.19582  -2.19521  -2.19010  -1.13663
 Alpha  occ. eigenvalues --   -1.13637  -1.13622  -1.13451  -1.13437  -1.13426
 Alpha  occ. eigenvalues --   -1.13330  -1.13325  -1.13311  -1.13299  -1.13283
 Alpha  occ. eigenvalues --   -1.13254  -1.13247  -1.13231  -1.13204  -1.13200
 Alpha  occ. eigenvalues --   -1.13182  -1.13161  -1.12709  -1.12664  -1.12625
 Alpha  occ. eigenvalues --   -0.18256  -0.12637  -0.12397  -0.11070
 Alpha virt. eigenvalues --   -0.05620  -0.05269  -0.04597  -0.03250  -0.03117
 Alpha virt. eigenvalues --   -0.02946  -0.01476  -0.01142  -0.00438  -0.00252
 Alpha virt. eigenvalues --   -0.00067   0.00376   0.00761   0.00852   0.00868

  Beta  occ. eigenvalues --  -38.44075 -38.43988 -38.43856 -38.43772 -38.43684
  Beta  occ. eigenvalues --  -38.43638 -38.43106  -2.19829  -2.19780  -2.19645
  Beta  occ. eigenvalues --   -2.19572  -2.19520  -2.19495  -2.18999  -1.13548
  Beta  occ. eigenvalues --   -1.13515  -1.13496  -1.13440  -1.13432  -1.13429
  Beta  occ. eigenvalues --   -1.13314  -1.13304  -1.13288  -1.13262  -1.13242
  Beta  occ. eigenvalues --   -1.13230  -1.13201  -1.13201  -1.13175  -1.13166
  Beta  occ. eigenvalues --   -1.13156  -1.13137  -1.12693  -1.12639  -1.12618
  Beta  occ. eigenvalues --   -0.17499  -0.12445  -0.12177
  Beta virt. eigenvalues --   -0.07155  -0.05606  -0.05184  -0.04529  -0.02476
  Beta virt. eigenvalues --   -0.02337  -0.01933  -0.01377  -0.01066  -0.00500
  Beta virt. eigenvalues --   -0.00290   0.00077   0.00392   0.00818   0.00865

 Mulliken charges and spin densities:
               1          2
     1  Na   0.080324  -0.050911
     2  Na   0.072437  -0.041687
     3  Na  -0.511262   0.772441
     4  Na   0.076051  -0.105082
     5  Na   0.038268  -0.104966
     6  Na   0.302161   0.017609
     7  Na  -0.057979   0.512595
 Sum of Mulliken charges =  -0.00000   1.00000

 Dipole moment (field-independent basis, Debye):
    X=              0.0464    Y=              0.2606    Z=              0.1749  Tot=              0.3173
 Quadrupole moment (field-independent basis, Debye-Ang):
   XX=            -57.9537   YY=            -64.4385   ZZ=            -72.3131
   XY=             -0.0291   XZ=             -0.3509   YZ=             -0.6374

 Normal termination of Gaussian 16 at Wed Nov 29 16:50:27 2023.
