 Gaussian 16, Revision B.01,
 Gaussian 16:  ES64L-G16RevB.01 20-Dec-2017

 -------------------------
 #P B3LYP/6-311+g(d) force
 -------------------------

 -----
 DPGEN
 -----
 Symbolic Z-matrix:
 Charge =  0 Multiplicity = 2

                         Standard orientation:
 ---------------------------------------------------------------------
 Center     Atomic      Atomic             Coordinates (Angstroms)
 Number     Number       Type             X           Y           Z
 ---------------------------------------------------------------------
      1         11           0        0.174557   -2.325760    0.676980
      2         11           0        3.280168   -2.713401   -0.320308
      3         11           0        3.514789    0.693454   -0.495401
      4         11           0       -0.074884    0.902216   -0.215813
      5         11           0       -3.344911    0.264227    1.123468
      6         11           0        2.184256    3.289907    0.253398
      7         11           0       -5.733975   -0.110643   -1.022324
 ---------------------------------------------------------------------

 SCF Done:  E(UB3LYP) =  -1136.12175890     A.U. after   20 cycles

 The electronic state is 2-A.
 Alpha  occ. eigenvalues --  -38.44577 -38.44192 -38.44179 -38.44105 -38.43950
 Alpha  occ. eigenvalues --  -38.43649 -38.43519  -2.20384  -2.20062  -2.20009
 Alpha  occ. eigenvalues --   -2.19983  -2.19745  -2.19511  -2.19348  -1.14022
 Alpha  occ. eigenvalues --   -1.14018  -1.14013  -1.13751  -1.13733  -1.13726
 Alpha  occ. eigenvalues --   -1.13707  -1.13686  -1.13669  -1.13640  -1.13622
 Alpha  occ. eigenvalues --   -1.13579  -1.13428  -1.13420  -1.13390  -1.13173
 Alpha  occ. eigenvalues --   -1.13153  -1.13144  -1.13008  -1.13003  -1.12981
 Alpha  occ. eigenvalues --   -0.16952  -0.14025  -0.12472  -0.11223
 Alpha virt. eigenvalues --   -0.05788  -0.05247  -0.04936  -0.03860  -0.02857
 Alpha virt. eigenvalues --   -0.02170  -0.01812  -0.01641  -0.01001  -0.00613
 Alpha virt. eigenvalues --   -0.00242  -0.00007   0.00125   0.00301   0.00738

  Beta  occ. eigenvalues --  -38.44483 -38.44170 -38.44142 -38.44059 -38.43958
  Beta  occ. eigenvalues --  -38.43646 -38.43494  -2.20209  -2.19995  -2.19972
  Beta  occ. eigenvalues --   -2.19901  -2.19769  -2.19507  -2.19302  -1.13907
  Beta  occ. eigenvalues --   -1.13898  -1.13895  -1.13702  -1.13691  -1.13682
  Beta  occ. eigenvalues --   -1.13661  -1.13659  -1.13614  -1.13604  -1.13582
  Beta  occ. eigenvalues --   -1.13515  -1.13450  -1.13438  -1.13356  -1.13162
  Beta  occ. eigenvalues --   -1.13148  -1.13141  -1.12973  -1.12966  -1.12956
  Beta  occ. eigenvalues --   -0.16384  -0.13191  -0.12386
  Beta virt. eigenvalues --   -0.07771  -0.05313  -0.04969  -0.04564  -0.03627
  Beta virt. eigenvalues --   -0.02532  -0.01871  -0.01691  -0.01280  -0.00915
  Beta virt. eigenvalues --   -0.00231  -0.00003   0.00185   0.00250   0.00455

 Mulliken charges and spin densities:
               1          2
     1  Na   0.076255   0.071072
     2  Na   0.135045   0.100129
     3  Na  -0.024773   0.332337
     4  Na  -1.652269  -0.018592
     5  Na   0.074587  -0.052266
     6  Na   1.210122   0.106323
     7  Na   0.181033   0.460996
 Sum of Mulliken charges =  -0.00000   1.00000

 Dipole moment (field-independent basis, Debye):
    X=              0.0977    Y=              0.1595    Z=             -0.0098  Tot=              0.1873
 Quadrupole moment (field-independent basis, Debye-Ang):
   XX=            -64.9500   YY=            -64.7491   ZZ=            -68.0472
   XY=              1.8358   XZ=              1.8042   YZ=              1.4213

 Normal termination of Gaussian 16 at Wed Nov 29 01:43:08 2023.
