 Gaussian 16, Revision B.01,
 Gaussian 16:  ES64L-G16RevB.01 20-Dec-2017

 -------------------------
 #P B3LYP/6-311+g(d) force
 -------------------------

 -----
 DPGEN
 -----
 Symbolic Z-matrix:
 Charge =  0 Multiplicity = 2

                         Standard orientation:
 ---------------------------------------------------------------------
 Center     Atomic      Atomic             Coordinates (Angstroms)
 Number     Number       Type             X           Y           Z
 ---------------------------------------------------------------------
      1         11           0       -3.978603    0.561985   -0.286562
      2         11           0        1.132987   -2.058005   -0.705817
      3         11           0       -0.843216   -0.856251    2.025458
      4         11           0        2.401845    0.058455    1.602749
      5         11           0       -0.362069    2.283787    0.177982
      6         11           0        3.082753    1.006647   -1.428512
      7         11           0       -1.433697   -0.996617   -1.385298
 ---------------------------------------------------------------------

 SCF Done:  E(UB3LYP) =  -1136.12068685     A.U. after   25 cycles

 The electronic state is 2-A.
 Alpha  occ. eigenvalues --  -38.44879 -38.44321 -38.44201 -38.44195 -38.44023
 Alpha  occ. eigenvalues --  -38.43538 -38.42573  -2.20671  -2.20208  -2.20087
 Alpha  occ. eigenvalues --   -2.20015  -2.19797  -2.19496  -2.18510  -1.14365
 Alpha  occ. eigenvalues --   -1.14326  -1.14289  -1.13904  -1.13886  -1.13838
 Alpha  occ. eigenvalues --   -1.13766  -1.13718  -1.13693  -1.13675  -1.13657
 Alpha  occ. eigenvalues --   -1.13632  -1.13503  -1.13497  -1.13386  -1.13252
 Alpha  occ. eigenvalues --   -1.13125  -1.13116  -1.12226  -1.12142  -1.12108
 Alpha  occ. eigenvalues --   -0.18450  -0.13775  -0.11766  -0.11089
 Alpha virt. eigenvalues --   -0.06741  -0.05009  -0.04326  -0.03329  -0.02904
 Alpha virt. eigenvalues --   -0.02589  -0.02414  -0.00947  -0.00637  -0.00163
 Alpha virt. eigenvalues --    0.00168   0.00218   0.00295   0.00629   0.00817

  Beta  occ. eigenvalues --  -38.44875 -38.44291 -38.44155 -38.44126 -38.44019
  Beta  occ. eigenvalues --  -38.43506 -38.42552  -2.20664  -2.20158  -2.19951
  Beta  occ. eigenvalues --   -2.19942  -2.19792  -2.19437  -2.18475  -1.14355
  Beta  occ. eigenvalues --   -1.14323  -1.14286  -1.13858  -1.13831  -1.13803
  Beta  occ. eigenvalues --   -1.13677  -1.13625  -1.13608  -1.13603  -1.13601
  Beta  occ. eigenvalues --   -1.13583  -1.13503  -1.13470  -1.13387  -1.13209
  Beta  occ. eigenvalues --   -1.13079  -1.13076  -1.12197  -1.12117  -1.12069
  Beta  occ. eigenvalues --   -0.17711  -0.13529  -0.10918
  Beta virt. eigenvalues --   -0.07793  -0.06572  -0.04510  -0.04073  -0.03073
  Beta virt. eigenvalues --   -0.02375  -0.02198  -0.01872  -0.00650  -0.00431
  Beta virt. eigenvalues --   -0.00023   0.00209   0.00243   0.00379   0.00747

 Mulliken charges and spin densities:
               1          2
     1  Na   0.526143  -0.072375
     2  Na  -0.011017   0.402148
     3  Na  -0.194195   0.328951
     4  Na   0.393612   0.180977
     5  Na  -0.481844   0.032212
     6  Na   0.012204   0.060634
     7  Na  -0.244903   0.067454
 Sum of Mulliken charges =  -0.00000   1.00000

 Dipole moment (field-independent basis, Debye):
    X=             -0.6439    Y=              0.1659    Z=              0.3633  Tot=              0.7578
 Quadrupole moment (field-independent basis, Debye-Ang):
   XX=            -51.5636   YY=            -78.4932   ZZ=            -65.2968
   XY=             -1.2002   XZ=             -1.4075   YZ=             -1.8544

 Normal termination of Gaussian 16 at Thu Dec  7 20:42:37 2023.
