 Gaussian 16, Revision B.01,
 Gaussian 16:  ES64L-G16RevB.01 20-Dec-2017

 -------------------------
 #P B3LYP/6-311+g(d) force
 -------------------------

 -----
 DPGEN
 -----
 Symbolic Z-matrix:
 Charge =  0 Multiplicity = 2

                         Standard orientation:
 ---------------------------------------------------------------------
 Center     Atomic      Atomic             Coordinates (Angstroms)
 Number     Number       Type             X           Y           Z
 ---------------------------------------------------------------------
      1         11           0        0.962785    2.702033   -0.234855
      2         11           0        0.587558   -2.580549   -0.218474
      3         11           0        0.252326   -0.168005   -1.772358
      4         11           0       -2.472923   -1.676748    0.049053
      5         11           0        3.265545   -0.187368    0.228128
      6         11           0       -0.095102    0.082942    2.099579
      7         11           0       -2.500190    1.827695   -0.151073
 ---------------------------------------------------------------------

 SCF Done:  E(UB3LYP) =  -1136.13690152     A.U. after   19 cycles

 The electronic state is 2-A.
 Alpha  occ. eigenvalues --  -38.44109 -38.43834 -38.43685 -38.43524 -38.43500
 Alpha  occ. eigenvalues --  -38.43456 -38.43188  -2.19912  -2.19713  -2.19503
 Alpha  occ. eigenvalues --   -2.19485  -2.19393  -2.19297  -2.19127  -1.13583
 Alpha  occ. eigenvalues --   -1.13567  -1.13561  -1.13382  -1.13345  -1.13330
 Alpha  occ. eigenvalues --   -1.13282  -1.13180  -1.13168  -1.13156  -1.13137
 Alpha  occ. eigenvalues --   -1.13094  -1.13067  -1.13047  -1.13033  -1.12977
 Alpha  occ. eigenvalues --   -1.12961  -1.12912  -1.12794  -1.12765  -1.12718
 Alpha  occ. eigenvalues --   -0.18755  -0.12844  -0.12549  -0.11000
 Alpha virt. eigenvalues --   -0.05625  -0.05051  -0.04540  -0.03208  -0.03076
 Alpha virt. eigenvalues --   -0.02763  -0.01558  -0.01001  -0.00263  -0.00141
 Alpha virt. eigenvalues --   -0.00027   0.00361   0.00811   0.00898   0.00925

  Beta  occ. eigenvalues --  -38.44106 -38.43741 -38.43683 -38.43520 -38.43449
  Beta  occ. eigenvalues --  -38.43427 -38.43177  -2.19909  -2.19542  -2.19503
  Beta  occ. eigenvalues --   -2.19390  -2.19353  -2.19288  -2.19112  -1.13568
  Beta  occ. eigenvalues --   -1.13563  -1.13560  -1.13271  -1.13225  -1.13208
  Beta  occ. eigenvalues --   -1.13199  -1.13173  -1.13156  -1.13149  -1.13079
  Beta  occ. eigenvalues --   -1.13058  -1.13040  -1.13022  -1.12983  -1.12952
  Beta  occ. eigenvalues --   -1.12939  -1.12910  -1.12769  -1.12723  -1.12710
  Beta  occ. eigenvalues --   -0.17999  -0.12638  -0.12289
  Beta virt. eigenvalues --   -0.07064  -0.05579  -0.05054  -0.04494  -0.02440
  Beta virt. eigenvalues --   -0.02242  -0.01709  -0.01461  -0.00937  -0.00319
  Beta virt. eigenvalues --   -0.00182   0.00103   0.00376   0.00869   0.00885

 Mulliken charges and spin densities:
               1          2
     1  Na   0.058383  -0.108557
     2  Na   0.481182   0.023037
     3  Na  -0.229784   0.484549
     4  Na   0.144304  -0.042658
     5  Na   0.081660  -0.049153
     6  Na  -0.574893   0.779381
     7  Na   0.039148  -0.086600
 Sum of Mulliken charges =  -0.00000   1.00000

 Dipole moment (field-independent basis, Debye):
    X=              0.1640    Y=              0.1858    Z=              0.2235  Tot=              0.3338
 Quadrupole moment (field-independent basis, Debye-Ang):
   XX=            -56.3311   YY=            -64.8740   ZZ=            -72.8850
   XY=              0.1114   XZ=              0.9260   YZ=             -0.6327

 Normal termination of Gaussian 16 at Thu Dec  7 10:04:54 2023.
