 Gaussian 16, Revision B.01,
 Gaussian 16:  ES64L-G16RevB.01 20-Dec-2017

 -------------------------
 #P B3LYP/6-311+g(d) force
 -------------------------

 -----
 DPGEN
 -----
 Symbolic Z-matrix:
 Charge =  0 Multiplicity = 2

                         Standard orientation:
 ---------------------------------------------------------------------
 Center     Atomic      Atomic             Coordinates (Angstroms)
 Number     Number       Type             X           Y           Z
 ---------------------------------------------------------------------
      1         11           0       -3.467824   -1.609986   -0.420828
      2         11           0       -0.327000   -0.227689   -1.561185
      3         11           0       -0.553235   -1.493127    1.784159
      4         11           0       -2.571254    2.281437   -0.446382
      5         11           0        3.621425    1.327135   -0.448544
      6         11           0        0.350001    1.772512    1.434857
      7         11           0        2.947887   -2.050281   -0.342076
 ---------------------------------------------------------------------

 SCF Done:  E(UB3LYP) =  -1136.11970757     A.U. after   23 cycles

 The electronic state is 2-A.
 Alpha  occ. eigenvalues --  -38.44978 -38.44820 -38.44510 -38.44431 -38.43922
 Alpha  occ. eigenvalues --  -38.43558 -38.42916  -2.20744  -2.20652  -2.20284
 Alpha  occ. eigenvalues --   -2.20198  -2.19716  -2.19412  -2.18775  -1.14419
 Alpha  occ. eigenvalues --   -1.14391  -1.14384  -1.14364  -1.14296  -1.14276
 Alpha  occ. eigenvalues --   -1.13962  -1.13932  -1.13922  -1.13877  -1.13849
 Alpha  occ. eigenvalues --   -1.13843  -1.13396  -1.13367  -1.13352  -1.13090
 Alpha  occ. eigenvalues --   -1.13043  -1.13025  -1.12460  -1.12420  -1.12395
 Alpha  occ. eigenvalues --   -0.17585  -0.13507  -0.11187  -0.10931
 Alpha virt. eigenvalues --   -0.06819  -0.06027  -0.03756  -0.03302  -0.03177
 Alpha virt. eigenvalues --   -0.02472  -0.02359  -0.01582  -0.00752  -0.00471
 Alpha virt. eigenvalues --    0.00043   0.00093   0.00217   0.00572   0.00601

  Beta  occ. eigenvalues --  -38.44964 -38.44799 -38.44500 -38.44427 -38.43910
  Beta  occ. eigenvalues --  -38.43472 -38.42867  -2.20719  -2.20613  -2.20267
  Beta  occ. eigenvalues --   -2.20192  -2.19695  -2.19256  -2.18687  -1.14401
  Beta  occ. eigenvalues --   -1.14371  -1.14366  -1.14326  -1.14271  -1.14244
  Beta  occ. eigenvalues --   -1.13948  -1.13915  -1.13909  -1.13871  -1.13846
  Beta  occ. eigenvalues --   -1.13829  -1.13377  -1.13356  -1.13329  -1.12982
  Beta  occ. eigenvalues --   -1.12938  -1.12908  -1.12399  -1.12353  -1.12329
  Beta  occ. eigenvalues --   -0.16900  -0.13133  -0.11092
  Beta virt. eigenvalues --   -0.07156  -0.06687  -0.05882  -0.03294  -0.02968
  Beta virt. eigenvalues --   -0.02717  -0.02251  -0.01567  -0.01496  -0.00689
  Beta virt. eigenvalues --   -0.00189   0.00061   0.00132   0.00317   0.00619

 Mulliken charges and spin densities:
               1          2
     1  Na   0.249729   0.154538
     2  Na  -0.350284   0.211429
     3  Na  -0.120288   0.266387
     4  Na   0.132876  -0.032211
     5  Na   0.156391   0.101479
     6  Na  -0.129830   0.237044
     7  Na   0.061406   0.061335
 Sum of Mulliken charges =  -0.00000   1.00000

 Dipole moment (field-independent basis, Debye):
    X=              0.0895    Y=             -0.1124    Z=             -0.3673  Tot=              0.3944
 Quadrupole moment (field-independent basis, Debye-Ang):
   XX=            -52.0823   YY=            -70.4767   ZZ=            -71.9058
   XY=              1.0507   XZ=             -0.0077   YZ=             -0.9491

 Normal termination of Gaussian 16 at Fri Dec  8 04:12:48 2023.
