 Gaussian 16, Revision B.01,
 Gaussian 16:  ES64L-G16RevB.01 20-Dec-2017

 -------------------------
 #P B3LYP/6-311+g(d) force
 -------------------------

 -----
 DPGEN
 -----
 Symbolic Z-matrix:
 Charge =  0 Multiplicity = 2

                         Standard orientation:
 ---------------------------------------------------------------------
 Center     Atomic      Atomic             Coordinates (Angstroms)
 Number     Number       Type             X           Y           Z
 ---------------------------------------------------------------------
      1         11           0       -2.303163    0.210562   -0.894036
      2         11           0       -3.605861   -2.874307   -0.487244
      3         11           0        2.950581   -1.078690    0.292426
      4         11           0       -2.429069    3.764561   -0.068591
      5         11           0        5.742423    0.279795   -0.780483
      6         11           0       -0.424093   -1.747360    1.008948
      7         11           0        0.069184    1.445440    0.928980
 ---------------------------------------------------------------------

 SCF Done:  E(UB3LYP) =  -1136.12421299     A.U. after   19 cycles

 The electronic state is 2-A.
 Alpha  occ. eigenvalues --  -38.44471 -38.44229 -38.44069 -38.43910 -38.43906
 Alpha  occ. eigenvalues --  -38.43767 -38.43449  -2.20279  -2.20110  -2.19964
 Alpha  occ. eigenvalues --   -2.19812  -2.19693  -2.19576  -2.19261  -1.13911
 Alpha  occ. eigenvalues --   -1.13910  -1.13905  -1.13870  -1.13799  -1.13703
 Alpha  occ. eigenvalues --   -1.13676  -1.13655  -1.13545  -1.13503  -1.13484
 Alpha  occ. eigenvalues --   -1.13387  -1.13360  -1.13358  -1.13307  -1.13237
 Alpha  occ. eigenvalues --   -1.13232  -1.13188  -1.12948  -1.12946  -1.12909
 Alpha  occ. eigenvalues --   -0.17343  -0.13710  -0.12423  -0.11344
 Alpha virt. eigenvalues --   -0.05789  -0.05282  -0.04772  -0.03685  -0.02597
 Alpha virt. eigenvalues --   -0.02107  -0.01953  -0.01845  -0.01092  -0.00924
 Alpha virt. eigenvalues --   -0.00462  -0.00024   0.00293   0.00571   0.00630

  Beta  occ. eigenvalues --  -38.44373 -38.44204 -38.44056 -38.43891 -38.43870
  Beta  occ. eigenvalues --  -38.43731 -38.43452  -2.20096  -2.20068  -2.19943
  Beta  occ. eigenvalues --   -2.19744  -2.19665  -2.19509  -2.19276  -1.13840
  Beta  occ. eigenvalues --   -1.13787  -1.13786  -1.13784  -1.13772  -1.13665
  Beta  occ. eigenvalues --   -1.13642  -1.13639  -1.13522  -1.13462  -1.13443
  Beta  occ. eigenvalues --   -1.13339  -1.13339  -1.13316  -1.13290  -1.13186
  Beta  occ. eigenvalues --   -1.13186  -1.13149  -1.12966  -1.12964  -1.12856
  Beta  occ. eigenvalues --   -0.16779  -0.12795  -0.12193
  Beta virt. eigenvalues --   -0.07967  -0.05554  -0.04974  -0.04389  -0.03443
  Beta virt. eigenvalues --   -0.02247  -0.01903  -0.01800  -0.01398  -0.00759
  Beta virt. eigenvalues --   -0.00641  -0.00150   0.00070   0.00432   0.00641

 Mulliken charges and spin densities:
               1          2
     1  Na  -0.523925   0.197532
     2  Na   0.596706   0.167826
     3  Na  -0.265267   0.171402
     4  Na   0.459169   0.052033
     5  Na   0.427458   0.355428
     6  Na  -0.400363   0.007216
     7  Na  -0.293778   0.048563
 Sum of Mulliken charges =  -0.00000   1.00000

 Dipole moment (field-independent basis, Debye):
    X=             -0.6770    Y=              0.4141    Z=              0.0856  Tot=              0.7982
 Quadrupole moment (field-independent basis, Debye-Ang):
   XX=            -63.4315   YY=            -61.0084   ZZ=            -69.9459
   XY=              2.3532   XZ=             -0.6266   YZ=             -0.9730

 Normal termination of Gaussian 16 at Wed Nov 29 02:46:06 2023.
