 Gaussian 16, Revision B.01,
 Gaussian 16:  ES64L-G16RevB.01 20-Dec-2017

 -------------------------
 #P B3LYP/6-311+g(d) force
 -------------------------

 -----
 DPGEN
 -----
 Symbolic Z-matrix:
 Charge =  0 Multiplicity = 2

                         Standard orientation:
 ---------------------------------------------------------------------
 Center     Atomic      Atomic             Coordinates (Angstroms)
 Number     Number       Type             X           Y           Z
 ---------------------------------------------------------------------
      1         11           0       -0.792051   -2.467880    0.931319
      2         11           0        2.244218   -2.630502   -0.593818
      3         11           0        3.766469   -0.171907   -0.604087
      4         11           0        1.854478    2.324098    1.383793
      5         11           0       -0.577754    3.254573   -0.245381
      6         11           0       -2.645755    0.813573   -1.427576
      7         11           0       -3.849605   -1.121956    0.555749
 ---------------------------------------------------------------------

 SCF Done:  E(UB3LYP) =  -1136.10897031     A.U. after   23 cycles

 The electronic state is 2-A.
 Alpha  occ. eigenvalues --  -38.45021 -38.44865 -38.44249 -38.44221 -38.44007
 Alpha  occ. eigenvalues --  -38.43967 -38.43953  -2.20848  -2.20708  -2.20075
 Alpha  occ. eigenvalues --   -2.20066  -2.19825  -2.19812  -2.19794  -1.14560
 Alpha  occ. eigenvalues --   -1.14504  -1.14493  -1.14459  -1.14348  -1.14322
 Alpha  occ. eigenvalues --   -1.13783  -1.13744  -1.13736  -1.13722  -1.13719
 Alpha  occ. eigenvalues --   -1.13714  -1.13484  -1.13474  -1.13471  -1.13448
 Alpha  occ. eigenvalues --   -1.13447  -1.13440  -1.13436  -1.13426  -1.13419
 Alpha  occ. eigenvalues --   -0.16514  -0.14211  -0.13272  -0.10300
 Alpha virt. eigenvalues --   -0.07436  -0.04769  -0.04342  -0.03986  -0.03494
 Alpha virt. eigenvalues --   -0.02350  -0.01473  -0.01448  -0.01063  -0.00714
 Alpha virt. eigenvalues --   -0.00579   0.00019   0.00194   0.00489   0.00658

  Beta  occ. eigenvalues --  -38.45025 -38.44824 -38.44246 -38.44209 -38.43946
  Beta  occ. eigenvalues --  -38.43923 -38.43892  -2.20861  -2.20636  -2.20066
  Beta  occ. eigenvalues --   -2.20060  -2.19712  -2.19711  -2.19700  -1.14559
  Beta  occ. eigenvalues --   -1.14517  -1.14475  -1.14403  -1.14300  -1.14265
  Beta  occ. eigenvalues --   -1.13761  -1.13732  -1.13720  -1.13712  -1.13710
  Beta  occ. eigenvalues --   -1.13687  -1.13407  -1.13403  -1.13392  -1.13385
  Beta  occ. eigenvalues --   -1.13378  -1.13376  -1.13370  -1.13361  -1.13355
  Beta  occ. eigenvalues --   -0.16036  -0.13625  -0.12683
  Beta virt. eigenvalues --   -0.07386  -0.07096  -0.04497  -0.03887  -0.03651
  Beta virt. eigenvalues --   -0.03013  -0.02226  -0.01277  -0.01113  -0.00992
  Beta virt. eigenvalues --   -0.00560  -0.00256   0.00190   0.00367   0.00596

 Mulliken charges and spin densities:
               1          2
     1  Na  -0.770928   0.242520
     2  Na   0.685319   0.076218
     3  Na  -0.307649   0.163184
     4  Na   0.102363   0.245100
     5  Na  -0.026475  -0.058255
     6  Na  -0.399378   0.358697
     7  Na   0.716748  -0.027463
 Sum of Mulliken charges =  -0.00000   1.00000

 Dipole moment (field-independent basis, Debye):
    X=             -0.2091    Y=             -0.1209    Z=              0.1202  Tot=              0.2698
 Quadrupole moment (field-independent basis, Debye-Ang):
   XX=            -59.9018   YY=            -71.1194   ZZ=            -70.5428
   XY=              3.3377   XZ=             -1.8072   YZ=             -0.3056

 Normal termination of Gaussian 16 at Sun Dec  3 18:43:03 2023.
