 Gaussian 16, Revision B.01,
 Gaussian 16:  ES64L-G16RevB.01 20-Dec-2017

 -------------------------
 #P B3LYP/6-311+g(d) force
 -------------------------

 -----
 DPGEN
 -----
 Symbolic Z-matrix:
 Charge =  0 Multiplicity = 2

                         Standard orientation:
 ---------------------------------------------------------------------
 Center     Atomic      Atomic             Coordinates (Angstroms)
 Number     Number       Type             X           Y           Z
 ---------------------------------------------------------------------
      1         11           0       -2.231134   -0.058284    1.999836
      2         11           0       -1.995904   -1.970602   -0.733387
      3         11           0        3.224272    1.892330    0.045590
      4         11           0       -0.323186    1.811362   -0.000968
      5         11           0       -3.415110    0.909892   -1.479801
      6         11           0        4.092078   -1.392452   -0.671593
      7         11           0        0.648984   -1.192247    0.840323
 ---------------------------------------------------------------------

 SCF Done:  E(UB3LYP) =  -1136.11591323     A.U. after   27 cycles

 The electronic state is 2-A.
 Alpha  occ. eigenvalues --  -38.45266 -38.44867 -38.44309 -38.44061 -38.43959
 Alpha  occ. eigenvalues --  -38.43204 -38.42912  -2.21159  -2.20648  -2.20091
 Alpha  occ. eigenvalues --   -2.19913  -2.19851  -2.19123  -2.18801  -1.14847
 Alpha  occ. eigenvalues --   -1.14800  -1.14768  -1.14308  -1.14293  -1.14273
 Alpha  occ. eigenvalues --   -1.13773  -1.13754  -1.13730  -1.13604  -1.13568
 Alpha  occ. eigenvalues --   -1.13546  -1.13524  -1.13503  -1.13461  -1.12857
 Alpha  occ. eigenvalues --   -1.12805  -1.12715  -1.12495  -1.12480  -1.12400
 Alpha  occ. eigenvalues --   -0.18277  -0.14294  -0.11433  -0.10879
 Alpha virt. eigenvalues --   -0.06904  -0.06015  -0.04120  -0.03104  -0.02678
 Alpha virt. eigenvalues --   -0.02461  -0.02305  -0.01311  -0.01082  -0.00702
 Alpha virt. eigenvalues --    0.00020   0.00146   0.00321   0.00455   0.00620

  Beta  occ. eigenvalues --  -38.45221 -38.44821 -38.44310 -38.43992 -38.43943
  Beta  occ. eigenvalues --  -38.43189 -38.42883  -2.21079  -2.20561  -2.20095
  Beta  occ. eigenvalues --   -2.19824  -2.19788  -2.19102  -2.18751  -1.14771
  Beta  occ. eigenvalues --   -1.14742  -1.14719  -1.14249  -1.14234  -1.14218
  Beta  occ. eigenvalues --   -1.13777  -1.13752  -1.13721  -1.13538  -1.13525
  Beta  occ. eigenvalues --   -1.13487  -1.13470  -1.13443  -1.13406  -1.12846
  Beta  occ. eigenvalues --   -1.12768  -1.12694  -1.12465  -1.12422  -1.12372
  Beta  occ. eigenvalues --   -0.17618  -0.13771  -0.10831
  Beta virt. eigenvalues --   -0.07599  -0.06567  -0.05840  -0.03647  -0.02965
  Beta virt. eigenvalues --   -0.02402  -0.02046  -0.01582  -0.01176  -0.00694
  Beta virt. eigenvalues --   -0.00490   0.00087   0.00156   0.00464   0.00544

 Mulliken charges and spin densities:
               1          2
     1  Na   0.998328  -0.105368
     2  Na  -0.158916   0.056004
     3  Na  -0.004944  -0.046710
     4  Na  -0.651785   0.052732
     5  Na   0.188989   0.422287
     6  Na   0.133831   0.237573
     7  Na  -0.505503   0.383482
 Sum of Mulliken charges =  -0.00000   1.00000

 Dipole moment (field-independent basis, Debye):
    X=              0.0074    Y=             -0.1877    Z=              0.4491  Tot=              0.4868
 Quadrupole moment (field-independent basis, Debye-Ang):
   XX=            -51.9486   YY=            -75.8536   ZZ=            -66.6448
   XY=              0.2239   XZ=             -5.1759   YZ=              3.5170

 Normal termination of Gaussian 16 at Tue Dec  5 21:06:52 2023.
