 Gaussian 16, Revision B.01,
 Gaussian 16:  ES64L-G16RevB.01 20-Dec-2017

 -------------------------
 #P B3LYP/6-311+g(d) force
 -------------------------

 -----
 DPGEN
 -----
 Symbolic Z-matrix:
 Charge =  0 Multiplicity = 2

                         Standard orientation:
 ---------------------------------------------------------------------
 Center     Atomic      Atomic             Coordinates (Angstroms)
 Number     Number       Type             X           Y           Z
 ---------------------------------------------------------------------
      1         11           0        4.168467    0.355307    0.397247
      2         11           0       -1.529172   -1.457505   -1.578885
      3         11           0       -2.421685    1.991386   -0.429280
      4         11           0        0.967147    1.420840   -1.082449
      5         11           0       -3.327872   -0.824230    1.122198
      6         11           0        0.237535    0.103799    1.991823
      7         11           0        1.905579   -1.589597   -0.420655
 ---------------------------------------------------------------------

 SCF Done:  E(UB3LYP) =  -1136.11421555     A.U. after   31 cycles

 The electronic state is 2-A.
 Alpha  occ. eigenvalues --  -38.46212 -38.45707 -38.44691 -38.43405 -38.43149
 Alpha  occ. eigenvalues --  -38.43147 -38.43139  -2.22016  -2.21524  -2.20529
 Alpha  occ. eigenvalues --   -2.19331  -2.19055  -2.19001  -2.18970  -1.15702
 Alpha  occ. eigenvalues --   -1.15670  -1.15635  -1.15231  -1.15161  -1.15130
 Alpha  occ. eigenvalues --   -1.14201  -1.14172  -1.14165  -1.13050  -1.13003
 Alpha  occ. eigenvalues --   -1.12954  -1.12763  -1.12706  -1.12679  -1.12663
 Alpha  occ. eigenvalues --   -1.12660  -1.12643  -1.12635  -1.12625  -1.12606
 Alpha  occ. eigenvalues --   -0.18527  -0.14553  -0.11245  -0.10410
 Alpha virt. eigenvalues --   -0.07740  -0.05055  -0.04888  -0.03397  -0.02973
 Alpha virt. eigenvalues --   -0.02300  -0.02079  -0.01235  -0.01071  -0.00233
 Alpha virt. eigenvalues --   -0.00055   0.00155   0.00286   0.00639   0.00754

  Beta  occ. eigenvalues --  -38.46205 -38.45652 -38.44660 -38.43392 -38.43139
  Beta  occ. eigenvalues --  -38.43110 -38.43103  -2.22004  -2.21422  -2.20470
  Beta  occ. eigenvalues --   -2.19311  -2.18979  -2.18975  -2.18932  -1.15695
  Beta  occ. eigenvalues --   -1.15656  -1.15627  -1.15158  -1.15092  -1.15052
  Beta  occ. eigenvalues --   -1.14161  -1.14131  -1.14121  -1.13035  -1.12981
  Beta  occ. eigenvalues --   -1.12921  -1.12717  -1.12652  -1.12643  -1.12628
  Beta  occ. eigenvalues --   -1.12623  -1.12615  -1.12600  -1.12582  -1.12578
  Beta  occ. eigenvalues --   -0.17816  -0.14345  -0.10163
  Beta virt. eigenvalues --   -0.07597  -0.07347  -0.05057  -0.04239  -0.03036
  Beta virt. eigenvalues --   -0.02672  -0.01771  -0.01470  -0.01027  -0.00786
  Beta virt. eigenvalues --   -0.00192  -0.00017   0.00263   0.00333   0.00701

 Mulliken charges and spin densities:
               1          2
     1  Na   0.963540   0.060602
     2  Na  -0.180324   0.074734
     3  Na  -0.138134   0.004796
     4  Na  -0.545383   0.252595
     5  Na   0.411998   0.209348
     6  Na  -0.415482   0.243044
     7  Na  -0.096215   0.154881
 Sum of Mulliken charges =  -0.00000   1.00000

 Dipole moment (field-independent basis, Debye):
    X=              1.5870    Y=              0.1646    Z=              0.8579  Tot=              1.8116
 Quadrupole moment (field-independent basis, Debye-Ang):
   XX=            -40.5525   YY=            -83.1667   ZZ=            -68.7546
   XY=              1.5484   XZ=              0.7372   YZ=             -0.6646

 Normal termination of Gaussian 16 at Wed Dec  6 01:06:06 2023.
