 Gaussian 16, Revision B.01,
 Gaussian 16:  ES64L-G16RevB.01 20-Dec-2017

 -------------------------
 #P B3LYP/6-311+g(d) force
 -------------------------

 -----
 DPGEN
 -----
 Symbolic Z-matrix:
 Charge =  0 Multiplicity = 2

                         Standard orientation:
 ---------------------------------------------------------------------
 Center     Atomic      Atomic             Coordinates (Angstroms)
 Number     Number       Type             X           Y           Z
 ---------------------------------------------------------------------
      1         11           0        0.070429   -0.007839    2.179975
      2         11           0       -3.262377   -0.369101   -0.648314
      3         11           0        3.062364   -1.117785   -0.189643
      4         11           0       -1.347814    2.146090    0.358760
      5         11           0        1.738917    2.113379   -0.240592
      6         11           0       -0.570688   -2.604722    0.380135
      7         11           0        0.309169   -0.160021   -1.840320
 ---------------------------------------------------------------------

 SCF Done:  E(UB3LYP) =  -1136.13346209     A.U. after   20 cycles

 The electronic state is 2-A.
 Alpha  occ. eigenvalues --  -38.44188 -38.44128 -38.44128 -38.43829 -38.43196
 Alpha  occ. eigenvalues --  -38.43135 -38.42811  -2.20051  -2.20001  -2.19945
 Alpha  occ. eigenvalues --   -2.19783  -2.19058  -2.19052  -2.18748  -1.13720
 Alpha  occ. eigenvalues --   -1.13692  -1.13670  -1.13665  -1.13662  -1.13634
 Alpha  occ. eigenvalues --   -1.13632  -1.13608  -1.13579  -1.13476  -1.13435
 Alpha  occ. eigenvalues --   -1.13386  -1.12769  -1.12755  -1.12723  -1.12715
 Alpha  occ. eigenvalues --   -1.12688  -1.12654  -1.12440  -1.12399  -1.12369
 Alpha  occ. eigenvalues --   -0.18902  -0.13054  -0.12182  -0.11525
 Alpha virt. eigenvalues --   -0.05864  -0.04690  -0.04080  -0.03461  -0.03145
 Alpha virt. eigenvalues --   -0.03124  -0.01725  -0.00798  -0.00232   0.00032
 Alpha virt. eigenvalues --    0.00177   0.00341   0.00840   0.00868   0.00947

  Beta  occ. eigenvalues --  -38.44173 -38.44128 -38.44023 -38.43766 -38.43185
  Beta  occ. eigenvalues --  -38.43129 -38.42802  -2.19976  -2.19946  -2.19859
  Beta  occ. eigenvalues --   -2.19667  -2.19050  -2.19035  -2.18735  -1.13655
  Beta  occ. eigenvalues --   -1.13635  -1.13621  -1.13619  -1.13611  -1.13593
  Beta  occ. eigenvalues --   -1.13576  -1.13545  -1.13529  -1.13402  -1.13354
  Beta  occ. eigenvalues --   -1.13301  -1.12765  -1.12736  -1.12693  -1.12690
  Beta  occ. eigenvalues --   -1.12678  -1.12647  -1.12424  -1.12376  -1.12352
  Beta  occ. eigenvalues --   -0.18135  -0.12787  -0.11915
  Beta virt. eigenvalues --   -0.07582  -0.05773  -0.04677  -0.04025  -0.02734
  Beta virt. eigenvalues --   -0.02311  -0.02099  -0.01595  -0.00755  -0.00131
  Beta virt. eigenvalues --    0.00064   0.00156   0.00365   0.00891   0.00943

 Mulliken charges and spin densities:
               1          2
     1  Na  -0.340640   0.468462
     2  Na  -0.003419   0.013407
     3  Na   0.131171  -0.106459
     4  Na   0.298161   0.127148
     5  Na   0.252991  -0.043844
     6  Na   0.088164   0.006566
     7  Na  -0.426428   0.534720
 Sum of Mulliken charges =  -0.00000   1.00000

 Dipole moment (field-independent basis, Debye):
    X=              0.1794    Y=             -0.3323    Z=             -0.0369  Tot=              0.3795
 Quadrupole moment (field-independent basis, Debye-Ang):
   XX=            -55.7011   YY=            -69.2683   ZZ=            -69.9017
   XY=             -0.2567   XZ=              1.4726   YZ=             -0.2072

 Normal termination of Gaussian 16 at Tue Dec  5 16:09:27 2023.
