 Gaussian 16, Revision B.01,
 Gaussian 16:  ES64L-G16RevB.01 20-Dec-2017

 -------------------------
 #P B3LYP/6-311+g(d) force
 -------------------------

 -----
 DPGEN
 -----
 Symbolic Z-matrix:
 Charge =  0 Multiplicity = 2

                         Standard orientation:
 ---------------------------------------------------------------------
 Center     Atomic      Atomic             Coordinates (Angstroms)
 Number     Number       Type             X           Y           Z
 ---------------------------------------------------------------------
      1         11           0        0.226953    0.074457   -1.278240
      2         11           0        3.163647    1.360091   -0.158775
      3         11           0       -1.039974   -2.797832   -0.323623
      4         11           0       -3.269514    0.355159   -0.541519
      5         11           0        2.210784   -1.978540    0.120684
      6         11           0       -0.568988    3.020939   -0.028950
      7         11           0       -0.722908   -0.034275    2.210423
 ---------------------------------------------------------------------

 SCF Done:  E(UB3LYP) =  -1136.13449370     A.U. after   19 cycles

 The electronic state is 2-A.
 Alpha  occ. eigenvalues --  -38.44391 -38.44074 -38.43958 -38.43665 -38.43489
 Alpha  occ. eigenvalues --  -38.43427 -38.42907  -2.20185  -2.19871  -2.19760
 Alpha  occ. eigenvalues --   -2.19530  -2.19342  -2.19279  -2.18924  -1.13861
 Alpha  occ. eigenvalues --   -1.13836  -1.13821  -1.13547  -1.13534  -1.13510
 Alpha  occ. eigenvalues --   -1.13456  -1.13427  -1.13379  -1.13243  -1.13187
 Alpha  occ. eigenvalues --   -1.13157  -1.13002  -1.12977  -1.12969  -1.12954
 Alpha  occ. eigenvalues --   -1.12928  -1.12907  -1.12622  -1.12577  -1.12542
 Alpha  occ. eigenvalues --   -0.18267  -0.12959  -0.12421  -0.10385
 Alpha virt. eigenvalues --   -0.06005  -0.05176  -0.04912  -0.03042  -0.02679
 Alpha virt. eigenvalues --   -0.02348  -0.01778  -0.01243  -0.00747  -0.00492
 Alpha virt. eigenvalues --   -0.00037   0.00302   0.00741   0.00779   0.00844

  Beta  occ. eigenvalues --  -38.44376 -38.44076 -38.43955 -38.43663 -38.43420
  Beta  occ. eigenvalues --  -38.43381 -38.42869  -2.20159  -2.19875  -2.19757
  Beta  occ. eigenvalues --   -2.19527  -2.19269  -2.19143  -2.18857  -1.13826
  Beta  occ. eigenvalues --   -1.13820  -1.13803  -1.13543  -1.13535  -1.13514
  Beta  occ. eigenvalues --   -1.13452  -1.13407  -1.13380  -1.13240  -1.13171
  Beta  occ. eigenvalues --   -1.13156  -1.12966  -1.12912  -1.12899  -1.12865
  Beta  occ. eigenvalues --   -1.12831  -1.12810  -1.12562  -1.12530  -1.12491
  Beta  occ. eigenvalues --   -0.17601  -0.12745  -0.12232
  Beta virt. eigenvalues --   -0.06452  -0.05942  -0.05148  -0.04847  -0.02334
  Beta virt. eigenvalues --   -0.01990  -0.01701  -0.01274  -0.01173  -0.00760
  Beta virt. eigenvalues --   -0.00523   0.00158   0.00365   0.00771   0.00833

 Mulliken charges and spin densities:
               1          2
     1  Na  -0.239893   0.177258
     2  Na   0.155772  -0.003458
     3  Na   0.223313   0.046786
     4  Na   0.180167   0.041166
     5  Na   0.193775   0.044411
     6  Na   0.060618  -0.019018
     7  Na  -0.573751   0.712855
 Sum of Mulliken charges =  -0.00000   1.00000

 Dipole moment (field-independent basis, Debye):
    X=             -0.0991    Y=              0.2529    Z=              0.1077  Tot=              0.2922
 Quadrupole moment (field-independent basis, Debye-Ang):
   XX=            -54.7945   YY=            -60.7197   ZZ=            -76.4771
   XY=              0.4609   XZ=              2.0067   YZ=              0.0639

 Normal termination of Gaussian 16 at Fri Dec  8 07:02:07 2023.
