 Gaussian 16, Revision B.01,
 Gaussian 16:  ES64L-G16RevB.01 20-Dec-2017

 -------------------------
 #P B3LYP/6-311+g(d) force
 -------------------------

 -----
 DPGEN
 -----
 Symbolic Z-matrix:
 Charge =  0 Multiplicity = 2

                         Standard orientation:
 ---------------------------------------------------------------------
 Center     Atomic      Atomic             Coordinates (Angstroms)
 Number     Number       Type             X           Y           Z
 ---------------------------------------------------------------------
      1         11           0        1.503424   -0.580615    1.335795
      2         11           0       -0.958962   -2.500541   -0.102389
      3         11           0       -1.812439    0.914820    1.374629
      4         11           0        2.423559    2.056925   -0.853771
      5         11           0       -0.240229    3.482047   -0.305585
      6         11           0       -4.095829   -0.922314   -0.960408
      7         11           0        3.180476   -2.450322   -0.488271
 ---------------------------------------------------------------------

 SCF Done:  E(UB3LYP) =  -1136.12157376     A.U. after   20 cycles

 The electronic state is 2-A.
 Alpha  occ. eigenvalues --  -38.44779 -38.44763 -38.44115 -38.44059 -38.43788
 Alpha  occ. eigenvalues --  -38.43762 -38.43642  -2.20560  -2.20557  -2.19937
 Alpha  occ. eigenvalues --   -2.19889  -2.19671  -2.19583  -2.19480  -1.14260
 Alpha  occ. eigenvalues --   -1.14256  -1.14247  -1.14209  -1.14193  -1.14159
 Alpha  occ. eigenvalues --   -1.13695  -1.13596  -1.13588  -1.13546  -1.13532
 Alpha  occ. eigenvalues --   -1.13464  -1.13351  -1.13328  -1.13300  -1.13239
 Alpha  occ. eigenvalues --   -1.13234  -1.13198  -1.13150  -1.13148  -1.13090
 Alpha  occ. eigenvalues --   -0.17201  -0.13262  -0.13061  -0.10162
 Alpha virt. eigenvalues --   -0.06424  -0.06134  -0.04260  -0.03750  -0.02992
 Alpha virt. eigenvalues --   -0.01943  -0.01893  -0.01383  -0.01139  -0.00902
 Alpha virt. eigenvalues --   -0.00133   0.00139   0.00449   0.00530   0.00603

  Beta  occ. eigenvalues --  -38.44778 -38.44757 -38.44113 -38.44022 -38.43727
  Beta  occ. eigenvalues --  -38.43725 -38.43596  -2.20563  -2.20547  -2.19938
  Beta  occ. eigenvalues --   -2.19819  -2.19609  -2.19465  -2.19398  -1.14267
  Beta  occ. eigenvalues --   -1.14241  -1.14236  -1.14201  -1.14183  -1.14156
  Beta  occ. eigenvalues --   -1.13676  -1.13599  -1.13571  -1.13499  -1.13487
  Beta  occ. eigenvalues --   -1.13427  -1.13313  -1.13278  -1.13237  -1.13157
  Beta  occ. eigenvalues --   -1.13150  -1.13124  -1.13098  -1.13081  -1.13028
  Beta  occ. eigenvalues --   -0.16645  -0.12960  -0.12663
  Beta virt. eigenvalues --   -0.06721  -0.06194  -0.05965  -0.03941  -0.03370
  Beta virt. eigenvalues --   -0.02557  -0.01806  -0.01561  -0.00974  -0.00894
  Beta virt. eigenvalues --   -0.00808   0.00096   0.00284   0.00491   0.00652

 Mulliken charges and spin densities:
               1          2
     1  Na   0.507680   0.202814
     2  Na  -0.528924  -0.008492
     3  Na  -0.047863   0.200954
     4  Na  -0.302472   0.246528
     5  Na   0.048003  -0.025819
     6  Na   0.176820   0.359060
     7  Na   0.146756   0.024954
 Sum of Mulliken charges =  -0.00000   1.00000

 Dipole moment (field-independent basis, Debye):
    X=              0.6235    Y=             -0.4874    Z=             -0.2247  Tot=              0.8226
 Quadrupole moment (field-independent basis, Debye-Ang):
   XX=            -62.8384   YY=            -63.0185   ZZ=            -72.4042
   XY=             -9.4031   XZ=             -1.3140   YZ=              1.8015

 Normal termination of Gaussian 16 at Tue Nov 28 22:09:32 2023.
