 Gaussian 16, Revision B.01,
 Gaussian 16:  ES64L-G16RevB.01 20-Dec-2017

 -------------------------
 #P B3LYP/6-311+g(d) force
 -------------------------

 -----
 DPGEN
 -----
 Symbolic Z-matrix:
 Charge =  0 Multiplicity = 2

                         Standard orientation:
 ---------------------------------------------------------------------
 Center     Atomic      Atomic             Coordinates (Angstroms)
 Number     Number       Type             X           Y           Z
 ---------------------------------------------------------------------
      1         11           0        3.848833   -0.880665    0.671170
      2         11           0        1.356911   -1.314716   -0.595433
      3         11           0        1.973457    2.314364   -0.323608
      4         11           0       -3.784527    0.594710    1.164167
      5         11           0       -2.138737   -1.956079   -0.925336
      6         11           0       -1.053993    1.262560   -1.516287
      7         11           0       -0.201944   -0.020174    1.525327
 ---------------------------------------------------------------------

 SCF Done:  E(UB3LYP) =  -1136.11718184     A.U. after   25 cycles

 The electronic state is 2-A.
 Alpha  occ. eigenvalues --  -38.45497 -38.44862 -38.44488 -38.43832 -38.43305
 Alpha  occ. eigenvalues --  -38.43055 -38.42868  -2.21394  -2.20672  -2.20342
 Alpha  occ. eigenvalues --   -2.19686  -2.19316  -2.18957  -2.18700  -1.15171
 Alpha  occ. eigenvalues --   -1.15023  -1.14991  -1.14328  -1.14311  -1.14281
 Alpha  occ. eigenvalues --   -1.14111  -1.13969  -1.13951  -1.13361  -1.13344
 Alpha  occ. eigenvalues --   -1.13312  -1.13057  -1.12953  -1.12898  -1.12651
 Alpha  occ. eigenvalues --   -1.12617  -1.12571  -1.12382  -1.12357  -1.12333
 Alpha  occ. eigenvalues --   -0.18666  -0.14243  -0.11291  -0.10903
 Alpha virt. eigenvalues --   -0.07078  -0.05170  -0.04485  -0.03074  -0.02936
 Alpha virt. eigenvalues --   -0.02315  -0.02058  -0.01352  -0.00974  -0.00158
 Alpha virt. eigenvalues --   -0.00022   0.00192   0.00390   0.00610   0.00720

  Beta  occ. eigenvalues --  -38.45481 -38.44784 -38.44474 -38.43797 -38.43283
  Beta  occ. eigenvalues --  -38.43021 -38.42871  -2.21365  -2.20528  -2.20315
  Beta  occ. eigenvalues --   -2.19626  -2.19283  -2.18898  -2.18707  -1.15127
  Beta  occ. eigenvalues --   -1.15006  -1.14974  -1.14223  -1.14212  -1.14190
  Beta  occ. eigenvalues --   -1.14096  -1.13949  -1.13931  -1.13310  -1.13304
  Beta  occ. eigenvalues --   -1.13257  -1.13042  -1.12888  -1.12878  -1.12610
  Beta  occ. eigenvalues --   -1.12558  -1.12532  -1.12384  -1.12362  -1.12331
  Beta  occ. eigenvalues --   -0.18027  -0.13816  -0.10811
  Beta virt. eigenvalues --   -0.07414  -0.06803  -0.05069  -0.03878  -0.02920
  Beta virt. eigenvalues --   -0.02667  -0.01723  -0.01464  -0.01132  -0.00710
  Beta virt. eigenvalues --   -0.00046   0.00059   0.00309   0.00471   0.00682

 Mulliken charges and spin densities:
               1          2
     1  Na   1.038342   0.227757
     2  Na  -0.858547   0.023600
     3  Na  -0.218258  -0.010205
     4  Na   0.336416   0.304969
     5  Na   0.293384   0.031172
     6  Na  -0.100511   0.145151
     7  Na  -0.490826   0.277556
 Sum of Mulliken charges =  -0.00000   1.00000

 Dipole moment (field-independent basis, Debye):
    X=             -0.4318    Y=              0.2136    Z=              0.1615  Tot=              0.5081
 Quadrupole moment (field-independent basis, Debye-Ang):
   XX=            -49.9432   YY=            -76.9448   ZZ=            -68.3694
   XY=              2.5084   XZ=              2.9328   YZ=              2.4693

 Normal termination of Gaussian 16 at Fri Dec  8 02:23:53 2023.
