 Gaussian 16, Revision B.01,
 Gaussian 16:  ES64L-G16RevB.01 20-Dec-2017

 -------------------------
 #P B3LYP/6-311+g(d) force
 -------------------------

 -----
 DPGEN
 -----
 Symbolic Z-matrix:
 Charge =  0 Multiplicity = 2

                         Standard orientation:
 ---------------------------------------------------------------------
 Center     Atomic      Atomic             Coordinates (Angstroms)
 Number     Number       Type             X           Y           Z
 ---------------------------------------------------------------------
      1         11           0        0.810060    2.888446   -0.417976
      2         11           0       -2.647486    1.262203   -0.247215
      3         11           0        0.065064    0.832607    1.915719
      4         11           0        1.187452   -2.660194    0.151146
      5         11           0        3.132997    0.049255   -0.162500
      6         11           0       -0.442303   -0.627223   -1.635339
      7         11           0       -2.105784   -1.745094    0.396165
 ---------------------------------------------------------------------

 SCF Done:  E(UB3LYP) =  -1136.13251006     A.U. after   19 cycles

 The electronic state is 2-A.
 Alpha  occ. eigenvalues --  -38.44109 -38.43767 -38.43740 -38.43627 -38.43377
 Alpha  occ. eigenvalues --  -38.43353 -38.43348  -2.19918  -2.19668  -2.19591
 Alpha  occ. eigenvalues --   -2.19571  -2.19372  -2.19260  -2.19254  -1.13595
 Alpha  occ. eigenvalues --   -1.13583  -1.13558  -1.13481  -1.13370  -1.13342
 Alpha  occ. eigenvalues --   -1.13303  -1.13272  -1.13230  -1.13219  -1.13198
 Alpha  occ. eigenvalues --   -1.13176  -1.13052  -1.13003  -1.12956  -1.12922
 Alpha  occ. eigenvalues --   -1.12905  -1.12894  -1.12887  -1.12885  -1.12874
 Alpha  occ. eigenvalues --   -0.18921  -0.13124  -0.12766  -0.10640
 Alpha virt. eigenvalues --   -0.05664  -0.05064  -0.04813  -0.03316  -0.03034
 Alpha virt. eigenvalues --   -0.02285  -0.01339  -0.01028  -0.00408  -0.00223
 Alpha virt. eigenvalues --   -0.00001   0.00376   0.00853   0.00891   0.00936

  Beta  occ. eigenvalues --  -38.44107 -38.43756 -38.43733 -38.43613 -38.43373
  Beta  occ. eigenvalues --  -38.43292 -38.43272  -2.19917  -2.19653  -2.19571
  Beta  occ. eigenvalues --   -2.19560  -2.19263  -2.19249  -2.19117  -1.13589
  Beta  occ. eigenvalues --   -1.13574  -1.13560  -1.13459  -1.13354  -1.13311
  Beta  occ. eigenvalues --   -1.13278  -1.13257  -1.13209  -1.13193  -1.13175
  Beta  occ. eigenvalues --   -1.13168  -1.13005  -1.12936  -1.12895  -1.12883
  Beta  occ. eigenvalues --   -1.12880  -1.12843  -1.12830  -1.12786  -1.12773
  Beta  occ. eigenvalues --   -0.18188  -0.12899  -0.12553
  Beta virt. eigenvalues --   -0.06737  -0.05655  -0.05025  -0.04696  -0.02536
  Beta virt. eigenvalues --   -0.02299  -0.01313  -0.01244  -0.00956  -0.00436
  Beta virt. eigenvalues --   -0.00253   0.00153   0.00416   0.00869   0.00905

 Mulliken charges and spin densities:
               1          2
     1  Na   0.034336  -0.077871
     2  Na   0.334284  -0.021765
     3  Na  -0.466989   0.577285
     4  Na   0.102930  -0.013458
     5  Na  -0.033182  -0.081050
     6  Na  -0.331246   0.480751
     7  Na   0.359868   0.136109
 Sum of Mulliken charges =  -0.00000   1.00000

 Dipole moment (field-independent basis, Debye):
    X=              0.2145    Y=              0.2606    Z=              0.0714  Tot=              0.3450
 Quadrupole moment (field-independent basis, Debye-Ang):
   XX=            -58.3041   YY=            -62.1223   ZZ=            -73.8892
   XY=             -0.3776   XZ=             -0.9054   YZ=             -2.8818

 Normal termination of Gaussian 16 at Wed Dec  6 00:16:14 2023.
