 Gaussian 16, Revision B.01,
 Gaussian 16:  ES64L-G16RevB.01 20-Dec-2017

 -------------------------
 #P B3LYP/6-311+g(d) force
 -------------------------

 -----
 DPGEN
 -----
 Symbolic Z-matrix:
 Charge =  0 Multiplicity = 2

                         Standard orientation:
 ---------------------------------------------------------------------
 Center     Atomic      Atomic             Coordinates (Angstroms)
 Number     Number       Type             X           Y           Z
 ---------------------------------------------------------------------
      1         11           0        0.091263    0.001345   -1.864827
      2         11           0       -1.538367    2.270731   -0.074287
      3         11           0        2.018657    1.928034   -0.042250
      4         11           0        0.002671    0.058758    2.125585
      5         11           0        2.685741   -1.236882   -0.050973
      6         11           0       -0.371777   -2.306943    0.001234
      7         11           0       -2.888188   -0.715042   -0.094481
 ---------------------------------------------------------------------

 SCF Done:  E(UB3LYP) =  -1136.13372180     A.U. after   20 cycles

 The electronic state is 2-A.
 Alpha  occ. eigenvalues --  -38.44019 -38.43805 -38.43674 -38.43599 -38.43347
 Alpha  occ. eigenvalues --  -38.43094 -38.42756  -2.19953  -2.19717  -2.19696
 Alpha  occ. eigenvalues --   -2.19499  -2.19243  -2.18985  -2.18773  -1.13632
 Alpha  occ. eigenvalues --   -1.13582  -1.13564  -1.13447  -1.13405  -1.13369
 Alpha  occ. eigenvalues --   -1.13358  -1.13344  -1.13305  -1.13170  -1.13164
 Alpha  occ. eigenvalues --   -1.13149  -1.12918  -1.12905  -1.12865  -1.12665
 Alpha  occ. eigenvalues --   -1.12651  -1.12611  -1.12462  -1.12425  -1.12390
 Alpha  occ. eigenvalues --   -0.19579  -0.13350  -0.12348  -0.11557
 Alpha virt. eigenvalues --   -0.05385  -0.04952  -0.03977  -0.03507  -0.03130
 Alpha virt. eigenvalues --   -0.03033  -0.01378  -0.00795  -0.00098   0.00151
 Alpha virt. eigenvalues --    0.00266   0.00389   0.00827   0.00992   0.01016

  Beta  occ. eigenvalues --  -38.43920 -38.43802 -38.43595 -38.43594 -38.43342
  Beta  occ. eigenvalues --  -38.43089 -38.42743  -2.19772  -2.19715  -2.19550
  Beta  occ. eigenvalues --   -2.19496  -2.19237  -2.18980  -2.18755  -1.13515
  Beta  occ. eigenvalues --   -1.13452  -1.13444  -1.13430  -1.13372  -1.13330
  Beta  occ. eigenvalues --   -1.13311  -1.13244  -1.13216  -1.13169  -1.13154
  Beta  occ. eigenvalues --   -1.13116  -1.12911  -1.12875  -1.12866  -1.12661
  Beta  occ. eigenvalues --   -1.12621  -1.12612  -1.12452  -1.12386  -1.12363
  Beta  occ. eigenvalues --   -0.18771  -0.13093  -0.12064
  Beta virt. eigenvalues --   -0.07539  -0.05339  -0.04972  -0.03990  -0.02644
  Beta virt. eigenvalues --   -0.02185  -0.02004  -0.01295  -0.00747   0.00057
  Beta virt. eigenvalues --    0.00089   0.00221   0.00397   0.00899   0.00970

 Mulliken charges and spin densities:
               1          2
     1  Na  -0.783907   0.487502
     2  Na   0.307784  -0.049395
     3  Na   0.293849  -0.046930
     4  Na  -0.903351   0.625656
     5  Na   0.287934  -0.041454
     6  Na   0.653652   0.088427
     7  Na   0.144039  -0.063806
 Sum of Mulliken charges =  -0.00000   1.00000

 Dipole moment (field-independent basis, Debye):
    X=              0.0748    Y=              0.1887    Z=              0.1895  Tot=              0.2777
 Quadrupole moment (field-independent basis, Debye-Ang):
   XX=            -57.2195   YY=            -68.5142   ZZ=            -69.7379
   XY=             -0.3213   XZ=              0.2202   YZ=             -0.0526

 Normal termination of Gaussian 16 at Wed Dec  6 00:46:30 2023.
