 Gaussian 16, Revision B.01,
 Gaussian 16:  ES64L-G16RevB.01 20-Dec-2017

 -------------------------
 #P B3LYP/6-311+g(d) force
 -------------------------

 -----
 DPGEN
 -----
 Symbolic Z-matrix:
 Charge =  0 Multiplicity = 2

                         Standard orientation:
 ---------------------------------------------------------------------
 Center     Atomic      Atomic             Coordinates (Angstroms)
 Number     Number       Type             X           Y           Z
 ---------------------------------------------------------------------
      1         11           0        3.454276   -2.581653   -0.281473
      2         11           0        4.731841    0.098798    0.896468
      3         11           0       -3.697281   -0.321989    0.033957
      4         11           0        0.307193   -2.543230   -0.488628
      5         11           0       -0.601062    2.772780   -0.589165
      6         11           0        2.279539    3.013623   -0.065295
      7         11           0       -6.474506   -0.438329    0.494136
 ---------------------------------------------------------------------

 SCF Done:  E(UB3LYP) =  -1136.10361941     A.U. after   20 cycles

 The electronic state is 2-A.
 Alpha  occ. eigenvalues --  -38.45303 -38.45156 -38.44679 -38.44211 -38.44149
 Alpha  occ. eigenvalues --  -38.44142 -38.43992  -2.21103  -2.20967  -2.20520
 Alpha  occ. eigenvalues --   -2.20025  -2.19974  -2.19969  -2.19801  -1.14747
 Alpha  occ. eigenvalues --   -1.14742  -1.14728  -1.14616  -1.14607  -1.14590
 Alpha  occ. eigenvalues --   -1.14305  -1.14140  -1.14139  -1.13791  -1.13671
 Alpha  occ. eigenvalues --   -1.13660  -1.13651  -1.13633  -1.13628  -1.13619
 Alpha  occ. eigenvalues --   -1.13617  -1.13612  -1.13457  -1.13444  -1.13415
 Alpha  occ. eigenvalues --   -0.15832  -0.14066  -0.12935  -0.11774
 Alpha virt. eigenvalues --   -0.06412  -0.06269  -0.03773  -0.03492  -0.03196
 Alpha virt. eigenvalues --   -0.02853  -0.02500  -0.01689  -0.01101  -0.00977
 Alpha virt. eigenvalues --   -0.00808  -0.00434  -0.00256   0.00350   0.00747

  Beta  occ. eigenvalues --  -38.45214 -38.45070 -38.44640 -38.44194 -38.44154
  Beta  occ. eigenvalues --  -38.44149 -38.43999  -2.20937  -2.20806  -2.20449
  Beta  occ. eigenvalues --   -2.19991  -2.19990  -2.19987  -2.19815  -1.14638
  Beta  occ. eigenvalues --   -1.14631  -1.14613  -1.14512  -1.14499  -1.14479
  Beta  occ. eigenvalues --   -1.14261  -1.14091  -1.14091  -1.13778  -1.13654
  Beta  occ. eigenvalues --   -1.13649  -1.13648  -1.13636  -1.13632  -1.13627
  Beta  occ. eigenvalues --   -1.13613  -1.13592  -1.13468  -1.13455  -1.13406
  Beta  occ. eigenvalues --   -0.15098  -0.13614  -0.12634
  Beta virt. eigenvalues --   -0.08488  -0.05821  -0.05703  -0.03579  -0.03343
  Beta virt. eigenvalues --   -0.02811  -0.02574  -0.02252  -0.01632  -0.00933
  Beta virt. eigenvalues --   -0.00659  -0.00355  -0.00201  -0.00031   0.00400

 Mulliken charges and spin densities:
               1          2
     1  Na   0.246006   0.025710
     2  Na  -0.167697   0.402300
     3  Na   0.033209   0.150860
     4  Na  -0.046931   0.384782
     5  Na   0.141937  -0.037336
     6  Na  -0.085676   0.059912
     7  Na  -0.120847   0.013772
 Sum of Mulliken charges =  -0.00000   1.00000

 Dipole moment (field-independent basis, Debye):
    X=             -0.0379    Y=             -0.4281    Z=              0.1905  Tot=              0.4701
 Quadrupole moment (field-independent basis, Debye-Ang):
   XX=            -50.5376   YY=            -71.7874   ZZ=            -73.5669
   XY=              0.6000   XZ=              0.6671   YZ=              0.9018

 Normal termination of Gaussian 16 at Sun Dec  3 15:11:28 2023.
