 Gaussian 16, Revision B.01,
 Gaussian 16:  ES64L-G16RevB.01 20-Dec-2017

 -------------------------
 #P B3LYP/6-311+g(d) force
 -------------------------

 -----
 DPGEN
 -----
 Symbolic Z-matrix:
 Charge =  0 Multiplicity = 2

                         Standard orientation:
 ---------------------------------------------------------------------
 Center     Atomic      Atomic             Coordinates (Angstroms)
 Number     Number       Type             X           Y           Z
 ---------------------------------------------------------------------
      1         11           0        1.903669    2.813508    0.635251
      2         11           0       -1.746181   -2.709866    0.176647
      3         11           0       -1.315834    0.888217    1.529175
      4         11           0        2.685035   -3.064177   -0.364703
      5         11           0       -4.050902   -0.929903   -0.386368
      6         11           0       -1.175868    3.192639   -1.314314
      7         11           0        3.700081   -0.190418   -0.275688
 ---------------------------------------------------------------------

 SCF Done:  E(UB3LYP) =  -1136.10986666     A.U. after   23 cycles

 The electronic state is 2-A.
 Alpha  occ. eigenvalues --  -38.46128 -38.45377 -38.45193 -38.44014 -38.43563
 Alpha  occ. eigenvalues --  -38.43457 -38.42695  -2.21878  -2.21206  -2.21010
 Alpha  occ. eigenvalues --   -2.19813  -2.19376  -2.19277  -2.18520  -1.15581
 Alpha  occ. eigenvalues --   -1.15561  -1.15477  -1.14966  -1.14854  -1.14833
 Alpha  occ. eigenvalues --   -1.14679  -1.14660  -1.14598  -1.13470  -1.13467
 Alpha  occ. eigenvalues --   -1.13421  -1.13070  -1.13050  -1.13033  -1.12957
 Alpha  occ. eigenvalues --   -1.12934  -1.12879  -1.12180  -1.12161  -1.12148
 Alpha  occ. eigenvalues --   -0.16473  -0.13897  -0.12786  -0.09695
 Alpha virt. eigenvalues --   -0.07059  -0.06371  -0.04359  -0.03655  -0.02643
 Alpha virt. eigenvalues --   -0.02401  -0.02173  -0.01667  -0.01352  -0.01073
 Alpha virt. eigenvalues --   -0.00190   0.00086   0.00221   0.00487   0.00491

  Beta  occ. eigenvalues --  -38.46138 -38.45367 -38.45187 -38.43949 -38.43556
  Beta  occ. eigenvalues --  -38.43398 -38.42651  -2.21898  -2.21190  -2.21001
  Beta  occ. eigenvalues --   -2.19690  -2.19369  -2.19169  -2.18436  -1.15594
  Beta  occ. eigenvalues --   -1.15563  -1.15499  -1.14951  -1.14841  -1.14817
  Beta  occ. eigenvalues --   -1.14675  -1.14655  -1.14577  -1.13386  -1.13378
  Beta  occ. eigenvalues --   -1.13343  -1.13058  -1.13051  -1.12995  -1.12885
  Beta  occ. eigenvalues --   -1.12863  -1.12788  -1.12132  -1.12103  -1.12090
  Beta  occ. eigenvalues --   -0.16244  -0.13326  -0.12302
  Beta virt. eigenvalues --   -0.06858  -0.06366  -0.06236  -0.04040  -0.03445
  Beta virt. eigenvalues --   -0.02288  -0.02107  -0.01845  -0.01501  -0.01103
  Beta virt. eigenvalues --   -0.00890   0.00139   0.00236   0.00402   0.00506

 Mulliken charges and spin densities:
               1          2
     1  Na   0.077127   0.315728
     2  Na  -0.332945   0.057187
     3  Na  -0.046486  -0.053305
     4  Na   0.063693   0.264311
     5  Na   0.553058   0.055856
     6  Na  -0.066504   0.327184
     7  Na  -0.247944   0.033040
 Sum of Mulliken charges =  -0.00000   1.00000

 Dipole moment (field-independent basis, Debye):
    X=             -3.3676    Y=              0.1468    Z=              0.1628  Tot=              3.3747
 Quadrupole moment (field-independent basis, Debye-Ang):
   XX=            -66.2971   YY=            -72.2522   ZZ=            -67.1085
   XY=              4.1925   XZ=              0.5363   YZ=             -1.7062

 Normal termination of Gaussian 16 at Mon Dec  4 03:34:00 2023.
