 Gaussian 16, Revision B.01,
 Gaussian 16:  ES64L-G16RevB.01 20-Dec-2017

 -------------------------
 #P B3LYP/6-311+g(d) force
 -------------------------

 -----
 DPGEN
 -----
 Symbolic Z-matrix:
 Charge =  0 Multiplicity = 2

                         Standard orientation:
 ---------------------------------------------------------------------
 Center     Atomic      Atomic             Coordinates (Angstroms)
 Number     Number       Type             X           Y           Z
 ---------------------------------------------------------------------
      1         11           0       -1.497743   -0.603213   -1.579653
      2         11           0        0.997219   -2.439607   -0.520566
      3         11           0        1.338379    1.862428   -0.991646
      4         11           0        3.677363   -0.263221    0.249248
      5         11           0        0.403590    0.175758    2.136958
      6         11           0       -3.330178   -1.118491    0.676180
      7         11           0       -1.588630    2.386346    0.029479
 ---------------------------------------------------------------------

 SCF Done:  E(UB3LYP) =  -1136.12634213     A.U. after   21 cycles

 The electronic state is 2-A.
 Alpha  occ. eigenvalues --  -38.44893 -38.44843 -38.44351 -38.43732 -38.43365
 Alpha  occ. eigenvalues --  -38.43118 -38.43069  -2.20707  -2.20641  -2.20184
 Alpha  occ. eigenvalues --   -2.19550  -2.19312  -2.19002  -2.18942  -1.14435
 Alpha  occ. eigenvalues --   -1.14343  -1.14332  -1.14320  -1.14298  -1.14278
 Alpha  occ. eigenvalues --   -1.13854  -1.13820  -1.13798  -1.13261  -1.13219
 Alpha  occ. eigenvalues --   -1.13162  -1.12993  -1.12969  -1.12921  -1.12738
 Alpha  occ. eigenvalues --   -1.12658  -1.12652  -1.12599  -1.12592  -1.12546
 Alpha  occ. eigenvalues --   -0.18279  -0.13533  -0.11769  -0.10942
 Alpha virt. eigenvalues --   -0.06767  -0.04987  -0.04249  -0.03531  -0.02833
 Alpha virt. eigenvalues --   -0.02682  -0.02198  -0.00931  -0.00562  -0.00167
 Alpha virt. eigenvalues --    0.00082   0.00224   0.00373   0.00776   0.00820

  Beta  occ. eigenvalues --  -38.44886 -38.44845 -38.44266 -38.43716 -38.43323
  Beta  occ. eigenvalues --  -38.43095 -38.43065  -2.20695  -2.20647  -2.20026
  Beta  occ. eigenvalues --   -2.19523  -2.19235  -2.18961  -2.18937  -1.14426
  Beta  occ. eigenvalues --   -1.14331  -1.14320  -1.14318  -1.14296  -1.14282
  Beta  occ. eigenvalues --   -1.13748  -1.13712  -1.13681  -1.13238  -1.13184
  Beta  occ. eigenvalues --   -1.13148  -1.12930  -1.12921  -1.12864  -1.12719
  Beta  occ. eigenvalues --   -1.12629  -1.12608  -1.12591  -1.12574  -1.12531
  Beta  occ. eigenvalues --   -0.17555  -0.13416  -0.11526
  Beta virt. eigenvalues --   -0.07107  -0.06566  -0.04972  -0.03845  -0.03165
  Beta virt. eigenvalues --   -0.02242  -0.01962  -0.01694  -0.00868  -0.00399
  Beta virt. eigenvalues --   -0.00076   0.00090   0.00272   0.00523   0.00825

 Mulliken charges and spin densities:
               1          2
     1  Na   0.282912   0.046741
     2  Na  -0.239895   0.064848
     3  Na  -0.312625   0.138392
     4  Na   0.441125   0.002126
     5  Na  -0.410366   0.595364
     6  Na   0.099203   0.076094
     7  Na   0.139646   0.076434
 Sum of Mulliken charges =  -0.00000   1.00000

 Dipole moment (field-independent basis, Debye):
    X=              0.3090    Y=             -0.2120    Z=              0.5430  Tot=              0.6598
 Quadrupole moment (field-independent basis, Debye-Ang):
   XX=            -49.7993   YY=            -72.8642   ZZ=            -71.5414
   XY=             -0.0971   XZ=             -2.2722   YZ=             -1.1143

 Normal termination of Gaussian 16 at Fri Dec  8 01:00:38 2023.
