 Gaussian 16, Revision B.01,
 Gaussian 16:  ES64L-G16RevB.01 20-Dec-2017

 -------------------------
 #P B3LYP/6-311+g(d) force
 -------------------------

 -----
 DPGEN
 -----
 Symbolic Z-matrix:
 Charge =  0 Multiplicity = 2

                         Standard orientation:
 ---------------------------------------------------------------------
 Center     Atomic      Atomic             Coordinates (Angstroms)
 Number     Number       Type             X           Y           Z
 ---------------------------------------------------------------------
      1         11           0       -3.095473   -0.129041   -0.381913
      2         11           0       -0.803563   -2.903873   -0.042688
      3         11           0        2.896781   -1.267591   -0.219035
      4         11           0       -0.347240   -0.571447    1.700179
      5         11           0        2.311753    2.003883    0.324329
      6         11           0        0.495546    0.148063   -1.410113
      7         11           0       -1.457805    2.720006    0.029242
 ---------------------------------------------------------------------

 SCF Done:  E(UB3LYP) =  -1136.13190892     A.U. after   21 cycles

 The electronic state is 2-A.
 Alpha  occ. eigenvalues --  -38.44208 -38.44076 -38.43958 -38.43600 -38.43515
 Alpha  occ. eigenvalues --  -38.42979 -38.42966  -2.20075  -2.19926  -2.19816
 Alpha  occ. eigenvalues --   -2.19477  -2.19344  -2.19014  -2.18945  -1.13800
 Alpha  occ. eigenvalues --   -1.13727  -1.13693  -1.13601  -1.13589  -1.13565
 Alpha  occ. eigenvalues --   -1.13521  -1.13467  -1.13437  -1.13241  -1.13125
 Alpha  occ. eigenvalues --   -1.13090  -1.13017  -1.13007  -1.12988  -1.12735
 Alpha  occ. eigenvalues --   -1.12645  -1.12640  -1.12601  -1.12561  -1.12545
 Alpha  occ. eigenvalues --   -0.18814  -0.13444  -0.12558  -0.10044
 Alpha virt. eigenvalues --   -0.05760  -0.05451  -0.04881  -0.03162  -0.02618
 Alpha virt. eigenvalues --   -0.01801  -0.01680  -0.01269  -0.00559  -0.00510
 Alpha virt. eigenvalues --    0.00047   0.00338   0.00800   0.00823   0.00858

  Beta  occ. eigenvalues --  -38.44197 -38.44064 -38.43950 -38.43593 -38.43513
  Beta  occ. eigenvalues --  -38.42927 -38.42888  -2.20058  -2.19906  -2.19803
  Beta  occ. eigenvalues --   -2.19469  -2.19344  -2.18920  -2.18804  -1.13783
  Beta  occ. eigenvalues --   -1.13702  -1.13680  -1.13587  -1.13563  -1.13548
  Beta  occ. eigenvalues --   -1.13511  -1.13447  -1.13422  -1.13222  -1.13098
  Beta  occ. eigenvalues --   -1.13088  -1.13014  -1.13004  -1.12975  -1.12658
  Beta  occ. eigenvalues --   -1.12575  -1.12569  -1.12510  -1.12459  -1.12447
  Beta  occ. eigenvalues --   -0.18144  -0.13185  -0.12302
  Beta virt. eigenvalues --   -0.06277  -0.05668  -0.05400  -0.04839  -0.02389
  Beta virt. eigenvalues --   -0.01925  -0.01574  -0.01188  -0.00911  -0.00575
  Beta virt. eigenvalues --   -0.00518   0.00193   0.00396   0.00829   0.00847

 Mulliken charges and spin densities:
               1          2
     1  Na   0.067777   0.035823
     2  Na   0.330285  -0.075945
     3  Na   0.378183  -0.050336
     4  Na  -0.392620   0.659982
     5  Na   0.037403   0.036681
     6  Na  -0.398351   0.424117
     7  Na  -0.022677  -0.030322
 Sum of Mulliken charges =  -0.00000   1.00000

 Dipole moment (field-independent basis, Debye):
    X=              0.1931    Y=             -0.0637    Z=              0.0768  Tot=              0.2174
 Quadrupole moment (field-independent basis, Debye-Ang):
   XX=            -54.4472   YY=            -59.7545   ZZ=            -77.4746
   XY=              0.1758   XZ=              1.8592   YZ=              1.9089

 Normal termination of Gaussian 16 at Tue Nov 28 22:23:11 2023.
