 Gaussian 16, Revision B.01,
 Gaussian 16:  ES64L-G16RevB.01 20-Dec-2017

 -------------------------
 #P B3LYP/6-311+g(d) force
 -------------------------

 -----
 DPGEN
 -----
 Symbolic Z-matrix:
 Charge =  0 Multiplicity = 2

                         Standard orientation:
 ---------------------------------------------------------------------
 Center     Atomic      Atomic             Coordinates (Angstroms)
 Number     Number       Type             X           Y           Z
 ---------------------------------------------------------------------
      1         11           0        0.009548   -0.093524    2.093719
      2         11           0        2.136584   -2.171476   -0.423225
      3         11           0       -0.572521   -0.111930   -1.643004
      4         11           0        0.563362    2.653550   -0.373864
      5         11           0       -2.901989    1.380946    0.092398
      6         11           0       -2.352786   -2.240509    0.067539
      7         11           0        3.117800    0.582942    0.186437
 ---------------------------------------------------------------------

 SCF Done:  E(UB3LYP) =  -1136.13153094     A.U. after   19 cycles

 The electronic state is 2-A.
 Alpha  occ. eigenvalues --  -38.44580 -38.44154 -38.43938 -38.43856 -38.43809
 Alpha  occ. eigenvalues --  -38.43308 -38.42868  -2.20404  -2.20029  -2.19751
 Alpha  occ. eigenvalues --   -2.19715  -2.19651  -2.19275  -2.18736  -1.14094
 Alpha  occ. eigenvalues --   -1.14066  -1.14028  -1.13767  -1.13678  -1.13675
 Alpha  occ. eigenvalues --   -1.13443  -1.13412  -1.13387  -1.13380  -1.13342
 Alpha  occ. eigenvalues --   -1.13331  -1.13313  -1.13299  -1.13280  -1.12957
 Alpha  occ. eigenvalues --   -1.12917  -1.12902  -1.12429  -1.12390  -1.12366
 Alpha  occ. eigenvalues --   -0.18521  -0.13559  -0.11908  -0.10768
 Alpha virt. eigenvalues --   -0.06028  -0.05658  -0.04127  -0.03483  -0.02674
 Alpha virt. eigenvalues --   -0.02614  -0.01802  -0.01237  -0.00515  -0.00181
 Alpha virt. eigenvalues --   -0.00034   0.00346   0.00707   0.00804   0.00867

  Beta  occ. eigenvalues --  -38.44576 -38.44153 -38.43935 -38.43802 -38.43759
  Beta  occ. eigenvalues --  -38.43246 -38.42860  -2.20400  -2.20029  -2.19750
  Beta  occ. eigenvalues --   -2.19641  -2.19537  -2.19162  -2.18726  -1.14083
  Beta  occ. eigenvalues --   -1.14051  -1.14028  -1.13771  -1.13678  -1.13655
  Beta  occ. eigenvalues --   -1.13436  -1.13396  -1.13388  -1.13306  -1.13281
  Beta  occ. eigenvalues --   -1.13273  -1.13260  -1.13215  -1.13203  -1.12880
  Beta  occ. eigenvalues --   -1.12835  -1.12818  -1.12419  -1.12363  -1.12361
  Beta  occ. eigenvalues --   -0.17797  -0.13370  -0.11671
  Beta virt. eigenvalues --   -0.06861  -0.05961  -0.05615  -0.04072  -0.02736
  Beta virt. eigenvalues --   -0.01942  -0.01701  -0.01565  -0.01152  -0.00561
  Beta virt. eigenvalues --   -0.00206   0.00117   0.00377   0.00793   0.00803

 Mulliken charges and spin densities:
               1          2
     1  Na  -0.440399   0.701572
     2  Na   0.100853  -0.050663
     3  Na  -0.049506   0.379984
     4  Na   0.080722  -0.005553
     5  Na   0.181294  -0.004624
     6  Na   0.004388  -0.081768
     7  Na   0.122649   0.061052
 Sum of Mulliken charges =  -0.00000   1.00000

 Dipole moment (field-independent basis, Debye):
    X=             -0.5154    Y=             -0.0763    Z=              0.2534  Tot=              0.5793
 Quadrupole moment (field-independent basis, Debye-Ang):
   XX=            -53.5697   YY=            -66.0614   ZZ=            -74.4252
   XY=             -0.0683   XZ=             -0.9333   YZ=              0.3706

 Normal termination of Gaussian 16 at Fri Dec  8 00:45:09 2023.
