 Gaussian 16, Revision B.01,
 Gaussian 16:  ES64L-G16RevB.01 20-Dec-2017

 -------------------------
 #P B3LYP/6-311+g(d) force
 -------------------------

 -----
 DPGEN
 -----
 Symbolic Z-matrix:
 Charge =  0 Multiplicity = 2

                         Standard orientation:
 ---------------------------------------------------------------------
 Center     Atomic      Atomic             Coordinates (Angstroms)
 Number     Number       Type             X           Y           Z
 ---------------------------------------------------------------------
      1         11           0        0.674653   -2.015385   -0.111193
      2         11           0        2.810278    1.116960    0.234545
      3         11           0       -1.311118    0.905545   -1.139191
      4         11           0       -2.750874   -2.460228   -0.417572
      5         11           0       -3.384777    0.271290    1.243408
      6         11           0        0.198587    4.110419   -0.074961
      7         11           0        3.763251   -1.928601    0.264964
 ---------------------------------------------------------------------

 SCF Done:  E(UB3LYP) =  -1136.12220994     A.U. after   23 cycles

 The electronic state is 2-A.
 Alpha  occ. eigenvalues --  -38.44715 -38.44477 -38.44472 -38.43877 -38.43647
 Alpha  occ. eigenvalues --  -38.43619 -38.43509  -2.20517  -2.20317  -2.20306
 Alpha  occ. eigenvalues --   -2.19630  -2.19520  -2.19497  -2.19396  -1.14215
 Alpha  occ. eigenvalues --   -1.14197  -1.14130  -1.14034  -1.14007  -1.13998
 Alpha  occ. eigenvalues --   -1.13976  -1.13961  -1.13882  -1.13304  -1.13294
 Alpha  occ. eigenvalues --   -1.13260  -1.13229  -1.13166  -1.13157  -1.13146
 Alpha  occ. eigenvalues --   -1.13125  -1.13111  -1.13077  -1.13070  -1.12971
 Alpha  occ. eigenvalues --   -0.17224  -0.14285  -0.12450  -0.09953
 Alpha virt. eigenvalues --   -0.06315  -0.05734  -0.05111  -0.03299  -0.02370
 Alpha virt. eigenvalues --   -0.02213  -0.01957  -0.01534  -0.01441  -0.00911
 Alpha virt. eigenvalues --    0.00076   0.00196   0.00399   0.00567   0.00654

  Beta  occ. eigenvalues --  -38.44702 -38.44461 -38.44460 -38.43878 -38.43624
  Beta  occ. eigenvalues --  -38.43526 -38.43471  -2.20495  -2.20296  -2.20287
  Beta  occ. eigenvalues --   -2.19630  -2.19479  -2.19328  -2.19324  -1.14202
  Beta  occ. eigenvalues --   -1.14185  -1.14096  -1.14013  -1.13990  -1.13971
  Beta  occ. eigenvalues --   -1.13958  -1.13903  -1.13876  -1.13304  -1.13295
  Beta  occ. eigenvalues --   -1.13259  -1.13200  -1.13134  -1.13127  -1.13032
  Beta  occ. eigenvalues --   -1.13027  -1.13026  -1.13003  -1.12999  -1.12910
  Beta  occ. eigenvalues --   -0.16665  -0.13755  -0.12228
  Beta virt. eigenvalues --   -0.06319  -0.06155  -0.05629  -0.04842  -0.02820
  Beta virt. eigenvalues --   -0.02157  -0.01991  -0.01693  -0.01393  -0.01155
  Beta virt. eigenvalues --   -0.00442   0.00332   0.00391   0.00484   0.00664

 Mulliken charges and spin densities:
               1          2
     1  Na  -2.114612  -0.052086
     2  Na  -0.451663   0.095120
     3  Na  -0.515739   0.218454
     4  Na   0.835366  -0.166721
     5  Na   0.217907   0.427264
     6  Na   0.227372  -0.052430
     7  Na   1.801369   0.530398
 Sum of Mulliken charges =  -0.00000   1.00000

 Dipole moment (field-independent basis, Debye):
    X=              0.3592    Y=             -0.4423    Z=             -0.0794  Tot=              0.5752
 Quadrupole moment (field-independent basis, Debye-Ang):
   XX=            -67.2587   YY=            -59.7681   ZZ=            -71.1235
   XY=              3.4351   XZ=              3.0136   YZ=              1.2342

 Normal termination of Gaussian 16 at Wed Nov 29 00:09:37 2023.
