 Gaussian 16, Revision B.01,
 Gaussian 16:  ES64L-G16RevB.01 20-Dec-2017

 -------------------------
 #P B3LYP/6-311+g(d) force
 -------------------------

 -----
 DPGEN
 -----
 Symbolic Z-matrix:
 Charge =  0 Multiplicity = 2

                         Standard orientation:
 ---------------------------------------------------------------------
 Center     Atomic      Atomic             Coordinates (Angstroms)
 Number     Number       Type             X           Y           Z
 ---------------------------------------------------------------------
      1         11           0        2.495278    2.914820    0.238298
      2         11           0        0.417554   -2.222604   -1.520606
      3         11           0        3.238065   -0.525555   -0.638867
      4         11           0       -3.542336    1.749467   -0.208487
      5         11           0       -2.453436   -1.204344   -0.354644
      6         11           0       -0.452576    1.585688    0.318090
      7         11           0        0.297451   -2.297473    2.166216
 ---------------------------------------------------------------------

 SCF Done:  E(UB3LYP) =  -1136.12270125     A.U. after   20 cycles

 The electronic state is 2-A.
 Alpha  occ. eigenvalues --  -38.44724 -38.44366 -38.44239 -38.43964 -38.43873
 Alpha  occ. eigenvalues --  -38.43716 -38.43491  -2.20510  -2.20218  -2.20120
 Alpha  occ. eigenvalues --   -2.19771  -2.19673  -2.19596  -2.19340  -1.14189
 Alpha  occ. eigenvalues --   -1.14171  -1.14131  -1.13925  -1.13899  -1.13860
 Alpha  occ. eigenvalues --   -1.13820  -1.13785  -1.13709  -1.13418  -1.13413
 Alpha  occ. eigenvalues --   -1.13383  -1.13376  -1.13332  -1.13306  -1.13282
 Alpha  occ. eigenvalues --   -1.13265  -1.13198  -1.13019  -1.13000  -1.12965
 Alpha  occ. eigenvalues --   -0.17483  -0.13571  -0.12685  -0.10389
 Alpha virt. eigenvalues --   -0.06706  -0.05726  -0.04615  -0.03164  -0.02820
 Alpha virt. eigenvalues --   -0.02155  -0.02028  -0.01511  -0.01264  -0.00550
 Alpha virt. eigenvalues --   -0.00123   0.00213   0.00314   0.00523   0.00841

  Beta  occ. eigenvalues --  -38.44693 -38.44368 -38.44233 -38.43869 -38.43862
  Beta  occ. eigenvalues --  -38.43706 -38.43462  -2.20455  -2.20221  -2.20112
  Beta  occ. eigenvalues --   -2.19667  -2.19581  -2.19578  -2.19289  -1.14143
  Beta  occ. eigenvalues --   -1.14137  -1.14087  -1.13926  -1.13901  -1.13859
  Beta  occ. eigenvalues --   -1.13818  -1.13763  -1.13702  -1.13374  -1.13325
  Beta  occ. eigenvalues --   -1.13302  -1.13284  -1.13282  -1.13263  -1.13253
  Beta  occ. eigenvalues --   -1.13250  -1.13188  -1.12985  -1.12962  -1.12917
  Beta  occ. eigenvalues --   -0.17051  -0.13297  -0.12419
  Beta virt. eigenvalues --   -0.06755  -0.06301  -0.05572  -0.04409  -0.02714
  Beta virt. eigenvalues --   -0.02335  -0.01948  -0.01609  -0.01182  -0.01146
  Beta virt. eigenvalues --   -0.00424   0.00139   0.00371   0.00506   0.00570

 Mulliken charges and spin densities:
               1          2
     1  Na   1.147995  -0.099713
     2  Na   0.536786   0.103527
     3  Na  -0.316026   0.196443
     4  Na   0.975378  -0.051045
     5  Na  -0.293800   0.243280
     6  Na  -2.063197   0.130352
     7  Na   0.012864   0.477156
 Sum of Mulliken charges =  -0.00000   1.00000

 Dipole moment (field-independent basis, Debye):
    X=             -0.3502    Y=              0.4594    Z=             -0.0999  Tot=              0.5862
 Quadrupole moment (field-independent basis, Debye-Ang):
   XX=            -53.9087   YY=            -66.3424   ZZ=            -75.1197
   XY=             -1.1326   XZ=              2.0743   YZ=              0.4133

 Normal termination of Gaussian 16 at Wed Nov 29 16:02:40 2023.
