 Gaussian 16, Revision B.01,
 Gaussian 16:  ES64L-G16RevB.01 20-Dec-2017

 -------------------------
 #P B3LYP/6-311+g(d) force
 -------------------------

 -----
 DPGEN
 -----
 Symbolic Z-matrix:
 Charge =  0 Multiplicity = 2

                         Standard orientation:
 ---------------------------------------------------------------------
 Center     Atomic      Atomic             Coordinates (Angstroms)
 Number     Number       Type             X           Y           Z
 ---------------------------------------------------------------------
      1         11           0       -0.343970    0.344553    1.358112
      2         11           0       -6.139771   -0.068491    0.133870
      3         11           0       -3.166788    1.207901   -0.927088
      4         11           0       -1.249720   -1.822909   -0.294144
      5         11           0        2.469707   -1.413232    0.138376
      6         11           0        3.104852    2.069602    0.079828
      7         11           0        5.325690   -0.317424   -0.488953
 ---------------------------------------------------------------------

 SCF Done:  E(UB3LYP) =  -1136.11434813     A.U. after   21 cycles

 The electronic state is 2-A.
 Alpha  occ. eigenvalues --  -38.44407 -38.44385 -38.44152 -38.44136 -38.44015
 Alpha  occ. eigenvalues --  -38.43894 -38.43816  -2.20287  -2.20184  -2.19968
 Alpha  occ. eigenvalues --   -2.19915  -2.19902  -2.19782  -2.19670  -1.14079
 Alpha  occ. eigenvalues --   -1.13944  -1.13888  -1.13871  -1.13841  -1.13806
 Alpha  occ. eigenvalues --   -1.13637  -1.13629  -1.13593  -1.13573  -1.13571
 Alpha  occ. eigenvalues --   -1.13564  -1.13553  -1.13536  -1.13531  -1.13478
 Alpha  occ. eigenvalues --   -1.13456  -1.13452  -1.13316  -1.13303  -1.13267
 Alpha  occ. eigenvalues --   -0.17164  -0.14507  -0.11619  -0.10508
 Alpha virt. eigenvalues --   -0.06532  -0.05718  -0.05038  -0.03356  -0.02801
 Alpha virt. eigenvalues --   -0.02402  -0.02180  -0.01438  -0.00884  -0.00738
 Alpha virt. eigenvalues --   -0.00216  -0.00097   0.00163   0.00293   0.00650

  Beta  occ. eigenvalues --  -38.44386 -38.44380 -38.44156 -38.44076 -38.43992
  Beta  occ. eigenvalues --  -38.43855 -38.43796  -2.20247  -2.20175  -2.19910
  Beta  occ. eigenvalues --   -2.19875  -2.19856  -2.19712  -2.19635  -1.14055
  Beta  occ. eigenvalues --   -1.13918  -1.13867  -1.13855  -1.13826  -1.13799
  Beta  occ. eigenvalues --   -1.13578  -1.13577  -1.13562  -1.13556  -1.13538
  Beta  occ. eigenvalues --   -1.13535  -1.13527  -1.13507  -1.13482  -1.13433
  Beta  occ. eigenvalues --   -1.13409  -1.13386  -1.13294  -1.13266  -1.13234
  Beta  occ. eigenvalues --   -0.16589  -0.14288  -0.11507
  Beta virt. eigenvalues --   -0.06919  -0.06312  -0.05000  -0.04866  -0.03172
  Beta virt. eigenvalues --   -0.02433  -0.02082  -0.01700  -0.01396  -0.00644
  Beta virt. eigenvalues --   -0.00506  -0.00046   0.00102   0.00381   0.00419

 Mulliken charges and spin densities:
               1          2
     1  Na  -0.267431   0.468942
     2  Na   0.176395  -0.004902
     3  Na  -0.142825  -0.055013
     4  Na   0.310945   0.101036
     5  Na  -0.694318   0.196778
     6  Na  -0.117650   0.181512
     7  Na   0.734884   0.111648
 Sum of Mulliken charges =  -0.00000   1.00000

 Dipole moment (field-independent basis, Debye):
    X=              0.1517    Y=             -0.2839    Z=             -0.0586  Tot=              0.3272
 Quadrupole moment (field-independent basis, Debye-Ang):
   XX=            -61.6538   YY=            -69.8630   ZZ=            -69.2287
   XY=              5.4765   XZ=             -4.1024   YZ=             -1.2217

 Normal termination of Gaussian 16 at Wed Nov 29 03:31:42 2023.
