 Gaussian 16, Revision B.01,
 Gaussian 16:  ES64L-G16RevB.01 20-Dec-2017

 -------------------------
 #P B3LYP/6-311+g(d) force
 -------------------------

 -----
 DPGEN
 -----
 Symbolic Z-matrix:
 Charge =  0 Multiplicity = 2

                         Standard orientation:
 ---------------------------------------------------------------------
 Center     Atomic      Atomic             Coordinates (Angstroms)
 Number     Number       Type             X           Y           Z
 ---------------------------------------------------------------------
      1         11           0       -0.303566    0.067280    2.257699
      2         11           0        3.517138    0.008756   -0.471544
      3         11           0        1.218978   -2.417986    0.363350
      4         11           0       -2.393784   -2.128432   -0.420704
      5         11           0        0.643842    2.954578    0.121113
      6         11           0       -2.726590    1.489532   -0.323847
      7         11           0        0.043983    0.026272   -1.526066
 ---------------------------------------------------------------------

 SCF Done:  E(UB3LYP) =  -1136.13642282     A.U. after   19 cycles

 The electronic state is 2-A.
 Alpha  occ. eigenvalues --  -38.44200 -38.44026 -38.43914 -38.43605 -38.43534
 Alpha  occ. eigenvalues --  -38.43308 -38.43296  -2.19986  -2.19853  -2.19772
 Alpha  occ. eigenvalues --   -2.19422  -2.19341  -2.19272  -2.19163  -1.13658
 Alpha  occ. eigenvalues --   -1.13640  -1.13625  -1.13544  -1.13519  -1.13473
 Alpha  occ. eigenvalues --   -1.13431  -1.13397  -1.13384  -1.13108  -1.13077
 Alpha  occ. eigenvalues --   -1.13063  -1.13035  -1.13013  -1.12979  -1.12966
 Alpha  occ. eigenvalues --   -1.12925  -1.12883  -1.12843  -1.12826  -1.12773
 Alpha  occ. eigenvalues --   -0.18275  -0.12856  -0.12225  -0.10913
 Alpha virt. eigenvalues --   -0.05809  -0.05175  -0.04606  -0.03119  -0.02889
 Alpha virt. eigenvalues --   -0.02753  -0.01748  -0.01196  -0.00511  -0.00246
 Alpha virt. eigenvalues --   -0.00063   0.00310   0.00738   0.00812   0.00887

  Beta  occ. eigenvalues --  -38.44193 -38.44019 -38.43804 -38.43599 -38.43531
  Beta  occ. eigenvalues --  -38.43287 -38.43263  -2.19974  -2.19842  -2.19569
  Beta  occ. eigenvalues --   -2.19413  -2.19339  -2.19190  -2.19149  -1.13640
  Beta  occ. eigenvalues --   -1.13634  -1.13618  -1.13528  -1.13505  -1.13463
  Beta  occ. eigenvalues --   -1.13295  -1.13259  -1.13236  -1.13093  -1.13072
  Beta  occ. eigenvalues --   -1.13049  -1.13029  -1.12996  -1.12966  -1.12929
  Beta  occ. eigenvalues --   -1.12877  -1.12825  -1.12815  -1.12792  -1.12764
  Beta  occ. eigenvalues --   -0.17567  -0.12611  -0.12021
  Beta virt. eigenvalues --   -0.06979  -0.05729  -0.05152  -0.04513  -0.02425
  Beta virt. eigenvalues --   -0.02162  -0.01700  -0.01625  -0.01155  -0.00521
  Beta virt. eigenvalues --   -0.00250   0.00092   0.00355   0.00802   0.00838

 Mulliken charges and spin densities:
               1          2
     1  Na  -0.374454   0.630916
     2  Na   0.037352  -0.005678
     3  Na   0.225268   0.120580
     4  Na   0.118468   0.008733
     5  Na  -0.000555   0.003766
     6  Na   0.174439  -0.011192
     7  Na  -0.180518   0.252874
 Sum of Mulliken charges =  -0.00000   1.00000

 Dipole moment (field-independent basis, Debye):
    X=             -0.0334    Y=              0.2022    Z=              0.1176  Tot=              0.2363
 Quadrupole moment (field-independent basis, Debye-Ang):
   XX=            -55.4469   YY=            -64.1240   ZZ=            -73.6441
   XY=              0.8154   XZ=              0.1799   YZ=              0.0040

 Normal termination of Gaussian 16 at Tue Dec  5 19:03:04 2023.
