 Gaussian 16, Revision B.01,
 Gaussian 16:  ES64L-G16RevB.01 20-Dec-2017

 -------------------------
 #P B3LYP/6-311+g(d) force
 -------------------------

 -----
 DPGEN
 -----
 Symbolic Z-matrix:
 Charge =  0 Multiplicity = 2

                         Standard orientation:
 ---------------------------------------------------------------------
 Center     Atomic      Atomic             Coordinates (Angstroms)
 Number     Number       Type             X           Y           Z
 ---------------------------------------------------------------------
      1         11           0       -5.330006   -0.023079    0.298871
      2         11           0       -2.339655   -1.252423    0.378910
      3         11           0        2.783050   -1.844819    1.404792
      4         11           0        1.676280    2.031314    1.935678
      5         11           0        0.974990    4.129772   -1.474405
      6         11           0        0.586311    0.316401   -0.901054
      7         11           0        1.649031   -3.357165   -1.642792
 ---------------------------------------------------------------------

 SCF Done:  E(UB3LYP) =  -1136.11207143     A.U. after   22 cycles

 The electronic state is 2-A.
 Alpha  occ. eigenvalues --  -38.44824 -38.44638 -38.44491 -38.44472 -38.44222
 Alpha  occ. eigenvalues --  -38.44209 -38.43860  -2.20598  -2.20446  -2.20271
 Alpha  occ. eigenvalues --   -2.20229  -2.20000  -2.19975  -2.19648  -1.14286
 Alpha  occ. eigenvalues --   -1.14257  -1.14214  -1.14170  -1.14141  -1.14034
 Alpha  occ. eigenvalues --   -1.13951  -1.13935  -1.13892  -1.13888  -1.13872
 Alpha  occ. eigenvalues --   -1.13830  -1.13666  -1.13654  -1.13636  -1.13635
 Alpha  occ. eigenvalues --   -1.13629  -1.13620  -1.13332  -1.13315  -1.13260
 Alpha  occ. eigenvalues --   -0.16420  -0.12718  -0.12456  -0.10789
 Alpha virt. eigenvalues --   -0.06981  -0.05493  -0.04947  -0.03137  -0.02739
 Alpha virt. eigenvalues --   -0.02473  -0.02089  -0.01852  -0.01190  -0.00790
 Alpha virt. eigenvalues --   -0.00499  -0.00195  -0.00006   0.00343   0.00512

  Beta  occ. eigenvalues --  -38.44794 -38.44627 -38.44449 -38.44419 -38.44205
  Beta  occ. eigenvalues --  -38.44188 -38.43860  -2.20545  -2.20428  -2.20195
  Beta  occ. eigenvalues --   -2.20130  -2.19969  -2.19935  -2.19649  -1.14252
  Beta  occ. eigenvalues --   -1.14223  -1.14156  -1.14154  -1.14112  -1.14021
  Beta  occ. eigenvalues --   -1.13902  -1.13884  -1.13824  -1.13817  -1.13801
  Beta  occ. eigenvalues --   -1.13768  -1.13631  -1.13631  -1.13625  -1.13621
  Beta  occ. eigenvalues --   -1.13608  -1.13579  -1.13333  -1.13314  -1.13258
  Beta  occ. eigenvalues --   -0.15873  -0.12405  -0.12242
  Beta virt. eigenvalues --   -0.07278  -0.06756  -0.04848  -0.04750  -0.02945
  Beta virt. eigenvalues --   -0.02433  -0.02235  -0.01801  -0.01644  -0.00753
  Beta virt. eigenvalues --   -0.00683  -0.00196  -0.00067   0.00252   0.00419

 Mulliken charges and spin densities:
               1          2
     1  Na   0.071204   0.029929
     2  Na  -0.081610   0.026022
     3  Na   0.308283   0.185405
     4  Na   0.062517   0.303838
     5  Na   0.285217   0.266850
     6  Na  -1.322994   0.098308
     7  Na   0.677383   0.089649
 Sum of Mulliken charges =  -0.00000   1.00000

 Dipole moment (field-independent basis, Debye):
    X=              0.3431    Y=              0.2498    Z=              0.1172  Tot=              0.4403
 Quadrupole moment (field-independent basis, Debye-Ang):
   XX=            -63.4335   YY=            -60.2758   ZZ=            -68.2407
   XY=             -5.4257   XZ=              1.6231   YZ=              0.4403

 Normal termination of Gaussian 16 at Sun Dec  3 18:08:19 2023.
