 Gaussian 16, Revision B.01,
 Gaussian 16:  ES64L-G16RevB.01 20-Dec-2017

 -------------------------
 #P B3LYP/6-311+g(d) force
 -------------------------

 -----
 DPGEN
 -----
 Symbolic Z-matrix:
 Charge =  0 Multiplicity = 2

                         Standard orientation:
 ---------------------------------------------------------------------
 Center     Atomic      Atomic             Coordinates (Angstroms)
 Number     Number       Type             X           Y           Z
 ---------------------------------------------------------------------
      1         11           0       -0.716955   -0.272692   -1.580169
      2         11           0       -0.107567   -2.079444    0.950991
      3         11           0       -3.046536   -1.016969   -0.278382
      4         11           0        3.054839   -1.377903   -0.846410
      5         11           0        2.233316    0.866218    1.333041
      6         11           0       -1.598944    1.094119    1.317795
      7         11           0        0.181847    2.786672   -0.896866
 ---------------------------------------------------------------------

 SCF Done:  E(UB3LYP) =  -1136.12504058     A.U. after   21 cycles

 The electronic state is 2-A.
 Alpha  occ. eigenvalues --  -38.44326 -38.44098 -38.43966 -38.43579 -38.43553
 Alpha  occ. eigenvalues --  -38.43442 -38.42900  -2.20296  -2.19905  -2.19811
 Alpha  occ. eigenvalues --   -2.19608  -2.19480  -2.19412  -2.18763  -1.14126
 Alpha  occ. eigenvalues --   -1.13970  -1.13883  -1.13609  -1.13560  -1.13543
 Alpha  occ. eigenvalues --   -1.13488  -1.13461  -1.13418  -1.13317  -1.13237
 Alpha  occ. eigenvalues --   -1.13226  -1.13165  -1.13134  -1.13084  -1.13067
 Alpha  occ. eigenvalues --   -1.13063  -1.13024  -1.12446  -1.12409  -1.12394
 Alpha  occ. eigenvalues --   -0.19018  -0.13536  -0.12040  -0.11040
 Alpha virt. eigenvalues --   -0.05945  -0.05065  -0.04228  -0.03516  -0.03005
 Alpha virt. eigenvalues --   -0.02464  -0.01670  -0.00840  -0.00451   0.00130
 Alpha virt. eigenvalues --    0.00289   0.00344   0.00652   0.00775   0.00849

  Beta  occ. eigenvalues --  -38.44317 -38.44091 -38.43945 -38.43556 -38.43483
  Beta  occ. eigenvalues --  -38.43400 -38.42886  -2.20284  -2.19892  -2.19773
  Beta  occ. eigenvalues --   -2.19482  -2.19442  -2.19338  -2.18739  -1.14105
  Beta  occ. eigenvalues --   -1.13944  -1.13870  -1.13598  -1.13542  -1.13535
  Beta  occ. eigenvalues --   -1.13450  -1.13436  -1.13397  -1.13255  -1.13154
  Beta  occ. eigenvalues --   -1.13150  -1.13112  -1.13066  -1.13046  -1.13029
  Beta  occ. eigenvalues --   -1.13005  -1.12958  -1.12423  -1.12390  -1.12370
  Beta  occ. eigenvalues --   -0.18270  -0.13347  -0.11828
  Beta virt. eigenvalues --   -0.07129  -0.05815  -0.04819  -0.04092  -0.03045
  Beta virt. eigenvalues --   -0.02368  -0.01621  -0.01481  -0.00716  -0.00149
  Beta virt. eigenvalues --    0.00142   0.00330   0.00394   0.00769   0.00862

 Mulliken charges and spin densities:
               1          2
     1  Na  -0.592956   0.380114
     2  Na  -0.437933   0.212383
     3  Na   1.266945   0.062855
     4  Na   0.093585  -0.066759
     5  Na  -0.081033   0.112160
     6  Na  -0.328943   0.384581
     7  Na   0.080335  -0.085334
 Sum of Mulliken charges =  -0.00000   1.00000

 Dipole moment (field-independent basis, Debye):
    X=              0.1347    Y=             -0.2576    Z=              0.1405  Tot=              0.3229
 Quadrupole moment (field-independent basis, Debye-Ang):
   XX=            -55.4007   YY=            -69.3320   ZZ=            -69.4873
   XY=              1.2428   XZ=             -1.4718   YZ=              0.3020

 Normal termination of Gaussian 16 at Tue Dec  5 21:08:50 2023.
