 Gaussian 16, Revision B.01,
 Gaussian 16:  ES64L-G16RevB.01 20-Dec-2017

 -------------------------
 #P B3LYP/6-311+g(d) force
 -------------------------

 -----
 DPGEN
 -----
 Symbolic Z-matrix:
 Charge =  0 Multiplicity = 2

                         Standard orientation:
 ---------------------------------------------------------------------
 Center     Atomic      Atomic             Coordinates (Angstroms)
 Number     Number       Type             X           Y           Z
 ---------------------------------------------------------------------
      1         11           0       -2.804774   -1.586121   -0.057623
      2         11           0        0.339654    0.267359   -1.571573
      3         11           0       -0.227588    0.027560    2.102929
      4         11           0        1.348816    2.786713   -0.219383
      5         11           0       -2.301186    2.108751   -0.135226
      6         11           0        0.507653   -2.992165   -0.459827
      7         11           0        3.137425   -0.612095    0.340704
 ---------------------------------------------------------------------

 SCF Done:  E(UB3LYP) =  -1136.13715009     A.U. after   19 cycles

 The electronic state is 2-A.
 Alpha  occ. eigenvalues --  -38.43972 -38.43930 -38.43848 -38.43828 -38.43674
 Alpha  occ. eigenvalues --  -38.43608 -38.43175  -2.19777  -2.19741  -2.19673
 Alpha  occ. eigenvalues --   -2.19641  -2.19529  -2.19427  -2.19143  -1.13448
 Alpha  occ. eigenvalues --   -1.13441  -1.13427  -1.13421  -1.13415  -1.13405
 Alpha  occ. eigenvalues --   -1.13373  -1.13321  -1.13318  -1.13301  -1.13284
 Alpha  occ. eigenvalues --   -1.13281  -1.13193  -1.13157  -1.13141  -1.13116
 Alpha  occ. eigenvalues --   -1.13085  -1.13055  -1.12823  -1.12784  -1.12756
 Alpha  occ. eigenvalues --   -0.18242  -0.12656  -0.12618  -0.10571
 Alpha virt. eigenvalues --   -0.05551  -0.05370  -0.04994  -0.03062  -0.02935
 Alpha virt. eigenvalues --   -0.02483  -0.01462  -0.01323  -0.00582  -0.00570
 Alpha virt. eigenvalues --   -0.00013   0.00348   0.00811   0.00820   0.00849

  Beta  occ. eigenvalues --  -38.43965 -38.43927 -38.43847 -38.43821 -38.43598
  Beta  occ. eigenvalues --  -38.43577 -38.43120  -2.19767  -2.19738  -2.19664
  Beta  occ. eigenvalues --   -2.19642  -2.19411  -2.19349  -2.19043  -1.13437
  Beta  occ. eigenvalues --   -1.13422  -1.13418  -1.13414  -1.13402  -1.13394
  Beta  occ. eigenvalues --   -1.13369  -1.13308  -1.13301  -1.13300  -1.13282
  Beta  occ. eigenvalues --   -1.13277  -1.13096  -1.13075  -1.13066  -1.13046
  Beta  occ. eigenvalues --   -1.13033  -1.13010  -1.12752  -1.12710  -1.12685
  Beta  occ. eigenvalues --   -0.17541  -0.12456  -0.12373
  Beta virt. eigenvalues --   -0.06702  -0.05545  -0.05323  -0.04895  -0.02320
  Beta virt. eigenvalues --   -0.02206  -0.01454  -0.01355  -0.01242  -0.00629
  Beta virt. eigenvalues --   -0.00605   0.00133   0.00382   0.00811   0.00848

 Mulliken charges and spin densities:
               1          2
     1  Na  -0.002160  -0.065762
     2  Na  -0.046023   0.391764
     3  Na  -0.416309   0.796502
     4  Na   0.283941  -0.039600
     5  Na   0.073514  -0.091533
     6  Na   0.055538  -0.024197
     7  Na   0.051498   0.032825
 Sum of Mulliken charges =  -0.00000   1.00000

 Dipole moment (field-independent basis, Debye):
    X=              0.0182    Y=              0.1550    Z=              0.1498  Tot=              0.2163
 Quadrupole moment (field-independent basis, Debye-Ang):
   XX=            -57.4004   YY=            -60.1537   ZZ=            -75.4161
   XY=             -0.1517   XZ=              1.3811   YZ=              0.5361

 Normal termination of Gaussian 16 at Thu Dec  7 11:38:38 2023.
