 Gaussian 16, Revision B.01,
 Gaussian 16:  ES64L-G16RevB.01 20-Dec-2017

 -------------------------
 #P B3LYP/6-311+g(d) force
 -------------------------

 -----
 DPGEN
 -----
 Symbolic Z-matrix:
 Charge =  0 Multiplicity = 2

                         Standard orientation:
 ---------------------------------------------------------------------
 Center     Atomic      Atomic             Coordinates (Angstroms)
 Number     Number       Type             X           Y           Z
 ---------------------------------------------------------------------
      1         11           0        0.436992   -3.028030   -0.310677
      2         11           0       -3.433933   -0.481328   -0.186624
      3         11           0        2.736775   -0.899631   -0.177085
      4         11           0       -0.289561    0.051781   -1.576596
      5         11           0        1.986848    2.377863    0.149284
      6         11           0       -0.372106   -0.676802    2.113935
      7         11           0       -1.065015    2.656147   -0.012237
 ---------------------------------------------------------------------

 SCF Done:  E(UB3LYP) =  -1136.13287895     A.U. after   19 cycles

 The electronic state is 2-A.
 Alpha  occ. eigenvalues --  -38.44249 -38.43920 -38.43915 -38.43690 -38.43665
 Alpha  occ. eigenvalues --  -38.43418 -38.43188  -2.20025  -2.19793  -2.19785
 Alpha  occ. eigenvalues --   -2.19569  -2.19519  -2.19282  -2.19160  -1.13701
 Alpha  occ. eigenvalues --   -1.13677  -1.13670  -1.13521  -1.13492  -1.13463
 Alpha  occ. eigenvalues --   -1.13446  -1.13434  -1.13418  -1.13244  -1.13225
 Alpha  occ. eigenvalues --   -1.13202  -1.13175  -1.13152  -1.13131  -1.12948
 Alpha  occ. eigenvalues --   -1.12931  -1.12925  -1.12843  -1.12811  -1.12769
 Alpha  occ. eigenvalues --   -0.18507  -0.13051  -0.12601  -0.10611
 Alpha virt. eigenvalues --   -0.05904  -0.05180  -0.04750  -0.03175  -0.02995
 Alpha virt. eigenvalues --   -0.02468  -0.01626  -0.01264  -0.00421  -0.00295
 Alpha virt. eigenvalues --   -0.00019   0.00336   0.00789   0.00847   0.00875

  Beta  occ. eigenvalues --  -38.44248 -38.43912 -38.43910 -38.43683 -38.43569
  Beta  occ. eigenvalues --  -38.43416 -38.43129  -2.20026  -2.19787  -2.19775
  Beta  occ. eigenvalues --   -2.19561  -2.19340  -2.19280  -2.19053  -1.13690
  Beta  occ. eigenvalues --   -1.13675  -1.13672  -1.13516  -1.13488  -1.13441
  Beta  occ. eigenvalues --   -1.13432  -1.13414  -1.13405  -1.13239  -1.13202
  Beta  occ. eigenvalues --   -1.13191  -1.13057  -1.13026  -1.13005  -1.12949
  Beta  occ. eigenvalues --   -1.12930  -1.12908  -1.12766  -1.12733  -1.12692
  Beta  occ. eigenvalues --   -0.17807  -0.12813  -0.12401
  Beta virt. eigenvalues --   -0.06707  -0.05913  -0.05061  -0.04727  -0.02376
  Beta virt. eigenvalues --   -0.02259  -0.01619  -0.01382  -0.01185  -0.00472
  Beta virt. eigenvalues --   -0.00324   0.00151   0.00374   0.00801   0.00862

 Mulliken charges and spin densities:
               1          2
     1  Na   0.446418  -0.015092
     2  Na   0.121354  -0.089542
     3  Na   0.138095   0.128615
     4  Na  -0.231894   0.213299
     5  Na  -0.103255   0.026297
     6  Na  -0.620592   0.678321
     7  Na   0.249874   0.058103
 Sum of Mulliken charges =  -0.00000   1.00000

 Dipole moment (field-independent basis, Debye):
    X=             -0.4057    Y=             -0.2677    Z=              0.0927  Tot=              0.4948
 Quadrupole moment (field-independent basis, Debye-Ang):
   XX=            -57.9187   YY=            -60.8685   ZZ=            -75.2192
   XY=              0.5025   XZ=              0.2205   YZ=              1.4986

 Normal termination of Gaussian 16 at Tue Dec  5 18:22:13 2023.
