 Gaussian 16, Revision B.01,
 Gaussian 16:  ES64L-G16RevB.01 20-Dec-2017

 -------------------------
 #P B3LYP/6-311+g(d) force
 -------------------------

 -----
 DPGEN
 -----
 Symbolic Z-matrix:
 Charge =  0 Multiplicity = 2

                         Standard orientation:
 ---------------------------------------------------------------------
 Center     Atomic      Atomic             Coordinates (Angstroms)
 Number     Number       Type             X           Y           Z
 ---------------------------------------------------------------------
      1         11           0       -2.750177   -1.736683   -0.482758
      2         11           0        0.918413   -2.084073    0.908753
      3         11           0       -1.838357    2.484836   -0.235847
      4         11           0       -0.659656   -0.061481    2.283492
      5         11           0        1.360655    2.335184    0.240494
      6         11           0        3.215068   -0.503526   -0.602221
      7         11           0       -0.245947   -0.434257   -2.111913
 ---------------------------------------------------------------------

 SCF Done:  E(UB3LYP) =  -1136.12996223     A.U. after   20 cycles

 The electronic state is 2-A.
 Alpha  occ. eigenvalues --  -38.44698 -38.44507 -38.43884 -38.43563 -38.43505
 Alpha  occ. eigenvalues --  -38.43457 -38.43255  -2.20595  -2.20374  -2.19689
 Alpha  occ. eigenvalues --   -2.19487  -2.19347  -2.19274  -2.19098  -1.14341
 Alpha  occ. eigenvalues --   -1.14192  -1.14189  -1.14041  -1.14010  -1.14001
 Alpha  occ. eigenvalues --   -1.13376  -1.13335  -1.13323  -1.13214  -1.13159
 Alpha  occ. eigenvalues --   -1.13096  -1.13000  -1.12998  -1.12972  -1.12964
 Alpha  occ. eigenvalues --   -1.12942  -1.12914  -1.12776  -1.12765  -1.12716
 Alpha  occ. eigenvalues --   -0.18389  -0.12658  -0.12240  -0.11992
 Alpha virt. eigenvalues --   -0.05350  -0.05043  -0.04258  -0.03593  -0.03529
 Alpha virt. eigenvalues --   -0.03342  -0.01380  -0.00906  -0.00355   0.00075
 Alpha virt. eigenvalues --    0.00185   0.00381   0.00677   0.00805   0.00895

  Beta  occ. eigenvalues --  -38.44597 -38.44431 -38.43877 -38.43532 -38.43500
  Beta  occ. eigenvalues --  -38.43457 -38.43253  -2.20413  -2.20233  -2.19678
  Beta  occ. eigenvalues --   -2.19438  -2.19340  -2.19276  -2.19097  -1.14210
  Beta  occ. eigenvalues --   -1.14069  -1.14059  -1.13952  -1.13910  -1.13895
  Beta  occ. eigenvalues --   -1.13352  -1.13331  -1.13313  -1.13157  -1.13129
  Beta  occ. eigenvalues --   -1.13061  -1.12994  -1.12983  -1.12967  -1.12960
  Beta  occ. eigenvalues --   -1.12931  -1.12915  -1.12767  -1.12758  -1.12717
  Beta  occ. eigenvalues --   -0.17588  -0.12445  -0.12012
  Beta virt. eigenvalues --   -0.07991  -0.05242  -0.04971  -0.04029  -0.02928
  Beta virt. eigenvalues --   -0.02649  -0.02578  -0.01270  -0.00880  -0.00152
  Beta virt. eigenvalues --    0.00080   0.00210   0.00421   0.00837   0.00896

 Mulliken charges and spin densities:
               1          2
     1  Na   0.069319  -0.133634
     2  Na   0.078201  -0.011531
     3  Na   0.013256  -0.110875
     4  Na   0.109657   0.494931
     5  Na  -0.217236  -0.008121
     6  Na   0.219047   0.013651
     7  Na  -0.272245   0.755578
 Sum of Mulliken charges =  -0.00000   1.00000

 Dipole moment (field-independent basis, Debye):
    X=             -0.4158    Y=             -0.0892    Z=             -0.1855  Tot=              0.4639
 Quadrupole moment (field-independent basis, Debye-Ang):
   XX=            -59.8783   YY=            -70.1970   ZZ=            -67.1106
   XY=              0.4103   XZ=             -0.7403   YZ=             -0.0386

 Normal termination of Gaussian 16 at Sun Dec  3 21:21:34 2023.
