 Gaussian 16, Revision B.01,
 Gaussian 16:  ES64L-G16RevB.01 20-Dec-2017

 -------------------------
 #P B3LYP/6-311+g(d) force
 -------------------------

 -----
 DPGEN
 -----
 Symbolic Z-matrix:
 Charge =  0 Multiplicity = 2

                         Standard orientation:
 ---------------------------------------------------------------------
 Center     Atomic      Atomic             Coordinates (Angstroms)
 Number     Number       Type             X           Y           Z
 ---------------------------------------------------------------------
      1         11           0       -0.653824   -0.889737   -1.464671
      2         11           0        2.348954   -1.635004   -1.162812
      3         11           0       -0.320265   -0.206672    1.774228
      4         11           0        0.857382    2.131524   -0.114060
      5         11           0       -3.013498   -1.827979    0.785936
      6         11           0       -2.567763    2.074521   -0.709972
      7         11           0        3.349013    0.353347    0.891352
 ---------------------------------------------------------------------

 SCF Done:  E(UB3LYP) =  -1136.12413292     A.U. after   23 cycles

 The electronic state is 2-A.
 Alpha  occ. eigenvalues --  -38.44592 -38.44299 -38.44069 -38.43937 -38.43832
 Alpha  occ. eigenvalues --  -38.43442 -38.42875  -2.20471  -2.20214  -2.19873
 Alpha  occ. eigenvalues --   -2.19764  -2.19721  -2.19393  -2.18779  -1.14164
 Alpha  occ. eigenvalues --   -1.14132  -1.14107  -1.13925  -1.13849  -1.13834
 Alpha  occ. eigenvalues --   -1.13548  -1.13514  -1.13508  -1.13438  -1.13431
 Alpha  occ. eigenvalues --   -1.13410  -1.13404  -1.13357  -1.13343  -1.13090
 Alpha  occ. eigenvalues --   -1.13020  -1.13003  -1.12492  -1.12446  -1.12395
 Alpha  occ. eigenvalues --   -0.18651  -0.13931  -0.11654  -0.11223
 Alpha virt. eigenvalues --   -0.06496  -0.05278  -0.04386  -0.03317  -0.02673
 Alpha virt. eigenvalues --   -0.02353  -0.02242  -0.01334  -0.00581   0.00126
 Alpha virt. eigenvalues --    0.00178   0.00213   0.00427   0.00614   0.00780

  Beta  occ. eigenvalues --  -38.44578 -38.44239 -38.44048 -38.43917 -38.43795
  Beta  occ. eigenvalues --  -38.43390 -38.42871  -2.20448  -2.20104  -2.19835
  Beta  occ. eigenvalues --   -2.19730  -2.19657  -2.19301  -2.18777  -1.14148
  Beta  occ. eigenvalues --   -1.14118  -1.14078  -1.13848  -1.13777  -1.13747
  Beta  occ. eigenvalues --   -1.13512  -1.13490  -1.13486  -1.13395  -1.13389
  Beta  occ. eigenvalues --   -1.13383  -1.13373  -1.13316  -1.13298  -1.13034
  Beta  occ. eigenvalues --   -1.12938  -1.12933  -1.12494  -1.12429  -1.12380
  Beta  occ. eigenvalues --   -0.17991  -0.13690  -0.11229
  Beta virt. eigenvalues --   -0.07481  -0.06340  -0.05141  -0.03802  -0.03055
  Beta virt. eigenvalues --   -0.02283  -0.01956  -0.01559  -0.01161  -0.00266
  Beta virt. eigenvalues --    0.00103   0.00204   0.00254   0.00585   0.00733

 Mulliken charges and spin densities:
               1          2
     1  Na   0.328483   0.506056
     2  Na  -0.701960  -0.010102
     3  Na  -0.550447   0.386940
     4  Na  -0.515929   0.003602
     5  Na   0.244190  -0.013118
     6  Na  -0.148084  -0.057846
     7  Na   1.343747   0.184469
 Sum of Mulliken charges =  -0.00000   1.00000

 Dipole moment (field-independent basis, Debye):
    X=             -0.1800    Y=              0.0671    Z=              0.3397  Tot=              0.3902
 Quadrupole moment (field-independent basis, Debye-Ang):
   XX=            -49.0579   YY=            -74.1161   ZZ=            -71.0207
   XY=             -0.3119   XZ=              2.1019   YZ=             -0.6407

 Normal termination of Gaussian 16 at Tue Nov 28 21:04:18 2023.
