 Gaussian 16, Revision B.01,
 Gaussian 16:  ES64L-G16RevB.01 20-Dec-2017

 -------------------------
 #P B3LYP/6-311+g(d) force
 -------------------------

 -----
 DPGEN
 -----
 Symbolic Z-matrix:
 Charge =  0 Multiplicity = 2

                         Standard orientation:
 ---------------------------------------------------------------------
 Center     Atomic      Atomic             Coordinates (Angstroms)
 Number     Number       Type             X           Y           Z
 ---------------------------------------------------------------------
      1         11           0        2.037824    2.014456   -0.901090
      2         11           0       -3.231723   -1.306032   -1.041281
      3         11           0        3.125684   -1.731325   -0.910502
      4         11           0       -1.518938   -0.425027    2.289753
      5         11           0       -0.071170   -0.740005   -0.832940
      6         11           0       -2.045727    1.957681   -0.628525
      7         11           0        1.704050    0.230252    2.024585
 ---------------------------------------------------------------------

 SCF Done:  E(UB3LYP) =  -1136.12451715     A.U. after   25 cycles

 The electronic state is 2-A.
 Alpha  occ. eigenvalues --  -38.45043 -38.44713 -38.44504 -38.44402 -38.43173
 Alpha  occ. eigenvalues --  -38.42690 -38.42318  -2.20868  -2.20535  -2.20314
 Alpha  occ. eigenvalues --   -2.20234  -2.19167  -2.18559  -2.18170  -1.14553
 Alpha  occ. eigenvalues --   -1.14508  -1.14483  -1.14208  -1.14197  -1.14140
 Alpha  occ. eigenvalues --   -1.13991  -1.13958  -1.13927  -1.13921  -1.13870
 Alpha  occ. eigenvalues --   -1.13859  -1.12897  -1.12814  -1.12802  -1.12244
 Alpha  occ. eigenvalues --   -1.12242  -1.12178  -1.11857  -1.11839  -1.11789
 Alpha  occ. eigenvalues --   -0.18249  -0.13882  -0.11612  -0.10749
 Alpha virt. eigenvalues --   -0.06112  -0.05716  -0.04691  -0.03338  -0.02535
 Alpha virt. eigenvalues --   -0.02312  -0.02025  -0.01347  -0.00537  -0.00309
 Alpha virt. eigenvalues --    0.00204   0.00257   0.00300   0.00468   0.00686

  Beta  occ. eigenvalues --  -38.45000 -38.44662 -38.44455 -38.44386 -38.43149
  Beta  occ. eigenvalues --  -38.42685 -38.42318  -2.20787  -2.20443  -2.20224
  Beta  occ. eigenvalues --   -2.20205  -2.19129  -2.18550  -2.18170  -1.14498
  Beta  occ. eigenvalues --   -1.14455  -1.14415  -1.14144  -1.14133  -1.14065
  Beta  occ. eigenvalues --   -1.13922  -1.13901  -1.13894  -1.13866  -1.13849
  Beta  occ. eigenvalues --   -1.13843  -1.12827  -1.12790  -1.12780  -1.12240
  Beta  occ. eigenvalues --   -1.12218  -1.12179  -1.11853  -1.11835  -1.11790
  Beta  occ. eigenvalues --   -0.17563  -0.13659  -0.10599
  Beta virt. eigenvalues --   -0.07821  -0.05523  -0.05340  -0.04549  -0.02942
  Beta virt. eigenvalues --   -0.02037  -0.01913  -0.01831  -0.00797  -0.00433
  Beta virt. eigenvalues --   -0.00012   0.00282   0.00347   0.00381   0.00580

 Mulliken charges and spin densities:
               1          2
     1  Na   0.147992   0.271384
     2  Na   1.562072  -0.024086
     3  Na   0.850277   0.004181
     4  Na  -0.186461  -0.109951
     5  Na  -2.905147   0.440393
     6  Na   0.409193   0.215511
     7  Na   0.122074   0.202568
 Sum of Mulliken charges =  -0.00000   1.00000

 Dipole moment (field-independent basis, Debye):
    X=             -0.1770    Y=              0.3084    Z=             -0.5587  Tot=              0.6622
 Quadrupole moment (field-independent basis, Debye-Ang):
   XX=            -50.4564   YY=            -61.8846   ZZ=            -80.6407
   XY=              0.4279   XZ=              0.2681   YZ=              0.1971

 Normal termination of Gaussian 16 at Mon Dec  4 02:39:59 2023.
