 Gaussian 16, Revision B.01,
 Gaussian 16:  ES64L-G16RevB.01 20-Dec-2017

 -------------------------
 #P B3LYP/6-311+g(d) force
 -------------------------

 -----
 DPGEN
 -----
 Symbolic Z-matrix:
 Charge =  0 Multiplicity = 2

                         Standard orientation:
 ---------------------------------------------------------------------
 Center     Atomic      Atomic             Coordinates (Angstroms)
 Number     Number       Type             X           Y           Z
 ---------------------------------------------------------------------
      1         11           0       -2.294660   -0.917915    1.831236
      2         11           0        0.411562    0.953380   -0.608421
      3         11           0        3.446757   -0.792963    1.568848
      4         11           0       -2.917902   -0.543219   -1.310568
      5         11           0        3.723982    1.335976   -0.899385
      6         11           0        0.116373   -2.464335   -1.105091
      7         11           0       -2.486112    2.429076    0.523381
 ---------------------------------------------------------------------

 SCF Done:  E(UB3LYP) =  -1136.11646005     A.U. after   24 cycles

 The electronic state is 2-A.
 Alpha  occ. eigenvalues --  -38.45091 -38.45025 -38.44859 -38.44696 -38.43443
 Alpha  occ. eigenvalues --  -38.42912 -38.42636  -2.20944  -2.20814  -2.20663
 Alpha  occ. eigenvalues --   -2.20533  -2.19338  -2.18743  -2.18442  -1.14659
 Alpha  occ. eigenvalues --   -1.14611  -1.14542  -1.14481  -1.14465  -1.14446
 Alpha  occ. eigenvalues --   -1.14337  -1.14319  -1.14289  -1.14215  -1.14174
 Alpha  occ. eigenvalues --   -1.14122  -1.13039  -1.12990  -1.12962  -1.12422
 Alpha  occ. eigenvalues --   -1.12408  -1.12383  -1.12129  -1.12104  -1.12069
 Alpha  occ. eigenvalues --   -0.17543  -0.14333  -0.11011  -0.10408
 Alpha virt. eigenvalues --   -0.06572  -0.06519  -0.04339  -0.03217  -0.02744
 Alpha virt. eigenvalues --   -0.02477  -0.02090  -0.01211  -0.00904  -0.00686
 Alpha virt. eigenvalues --   -0.00377   0.00102   0.00183   0.00385   0.00524

  Beta  occ. eigenvalues --  -38.45084 -38.44973 -38.44864 -38.44627 -38.43393
  Beta  occ. eigenvalues --  -38.42914 -38.42626  -2.20933  -2.20716  -2.20675
  Beta  occ. eigenvalues --   -2.20405  -2.19248  -2.18749  -2.18426  -1.14633
  Beta  occ. eigenvalues --   -1.14595  -1.14537  -1.14421  -1.14404  -1.14382
  Beta  occ. eigenvalues --   -1.14332  -1.14327  -1.14279  -1.14127  -1.14088
  Beta  occ. eigenvalues --   -1.14030  -1.12963  -1.12923  -1.12907  -1.12427
  Beta  occ. eigenvalues --   -1.12409  -1.12372  -1.12117  -1.12080  -1.12062
  Beta  occ. eigenvalues --   -0.16948  -0.13993  -0.10833
  Beta virt. eigenvalues --   -0.07029  -0.06467  -0.05625  -0.04235  -0.03087
  Beta virt. eigenvalues --   -0.02502  -0.01975  -0.01550  -0.00846  -0.00644
  Beta virt. eigenvalues --   -0.00418  -0.00304   0.00207   0.00280   0.00458

 Mulliken charges and spin densities:
               1          2
     1  Na  -0.150501   0.460742
     2  Na  -1.858999   0.278881
     3  Na   0.074594   0.254316
     4  Na   0.927274   0.054460
     5  Na   0.367052   0.049473
     6  Na  -0.076432   0.047267
     7  Na   0.717012  -0.145140
 Sum of Mulliken charges =  -0.00000   1.00000

 Dipole moment (field-independent basis, Debye):
    X=              0.5701    Y=             -0.1046    Z=             -0.1509  Tot=              0.5989
 Quadrupole moment (field-independent basis, Debye-Ang):
   XX=            -54.1570   YY=            -74.6360   ZZ=            -66.9389
   XY=              1.3812   XZ=              2.0469   YZ=             -3.2255

 Normal termination of Gaussian 16 at Tue Dec  5 14:04:10 2023.
