 Gaussian 16, Revision B.01,
 Gaussian 16:  ES64L-G16RevB.01 20-Dec-2017

 -------------------------
 #P B3LYP/6-311+g(d) force
 -------------------------

 -----
 DPGEN
 -----
 Symbolic Z-matrix:
 Charge =  0 Multiplicity = 2

                         Standard orientation:
 ---------------------------------------------------------------------
 Center     Atomic      Atomic             Coordinates (Angstroms)
 Number     Number       Type             X           Y           Z
 ---------------------------------------------------------------------
      1         11           0       -2.032467    0.025977    1.712409
      2         11           0        3.254665   -0.839610   -0.736004
      3         11           0        0.947076   -1.797835    1.064161
      4         11           0        1.286618    1.678007    1.471631
      5         11           0       -2.556438   -2.102122   -0.856212
      6         11           0       -1.031911    2.960274   -0.976962
      7         11           0        0.132457    0.075310   -1.679023
 ---------------------------------------------------------------------

 SCF Done:  E(UB3LYP) =  -1136.13329490     A.U. after   20 cycles

 The electronic state is 2-A.
 Alpha  occ. eigenvalues --  -38.44023 -38.43965 -38.43678 -38.43591 -38.43538
 Alpha  occ. eigenvalues --  -38.43502 -38.43234  -2.19867  -2.19811  -2.19537
 Alpha  occ. eigenvalues --   -2.19455  -2.19454  -2.19399  -2.19057  -1.13560
 Alpha  occ. eigenvalues --   -1.13518  -1.13505  -1.13480  -1.13462  -1.13421
 Alpha  occ. eigenvalues --   -1.13281  -1.13216  -1.13174  -1.13155  -1.13123
 Alpha  occ. eigenvalues --   -1.13117  -1.13093  -1.13091  -1.13058  -1.13050
 Alpha  occ. eigenvalues --   -1.13031  -1.13021  -1.12740  -1.12699  -1.12679
 Alpha  occ. eigenvalues --   -0.18427  -0.12772  -0.11986  -0.11669
 Alpha virt. eigenvalues --   -0.05218  -0.05092  -0.04592  -0.03252  -0.03195
 Alpha virt. eigenvalues --   -0.03010  -0.01378  -0.00995  -0.00754   0.00202
 Alpha virt. eigenvalues --    0.00336   0.00479   0.00546   0.00758   0.00833

  Beta  occ. eigenvalues --  -38.43983 -38.43926 -38.43671 -38.43581 -38.43516
  Beta  occ. eigenvalues --  -38.43434 -38.43219  -2.19796  -2.19741  -2.19525
  Beta  occ. eigenvalues --   -2.19419  -2.19381  -2.19332  -2.19031  -1.13502
  Beta  occ. eigenvalues --   -1.13462  -1.13454  -1.13433  -1.13398  -1.13377
  Beta  occ. eigenvalues --   -1.13268  -1.13192  -1.13159  -1.13128  -1.13064
  Beta  occ. eigenvalues --   -1.13051  -1.13047  -1.13039  -1.13021  -1.13013
  Beta  occ. eigenvalues --   -1.13006  -1.12980  -1.12707  -1.12684  -1.12662
  Beta  occ. eigenvalues --   -0.17622  -0.12598  -0.11798
  Beta virt. eigenvalues --   -0.07699  -0.05078  -0.04802  -0.04319  -0.02885
  Beta virt. eigenvalues --   -0.02670  -0.02059  -0.01314  -0.00885  -0.00393
  Beta virt. eigenvalues --    0.00226   0.00385   0.00563   0.00662   0.00818

 Mulliken charges and spin densities:
               1          2
     1  Na   0.136617   0.217011
     2  Na   0.430006  -0.141907
     3  Na  -0.128020   0.247383
     4  Na  -0.240785   0.261097
     5  Na   0.006531  -0.123006
     6  Na  -0.060835  -0.116025
     7  Na  -0.143514   0.655447
 Sum of Mulliken charges =  -0.00000   1.00000

 Dipole moment (field-independent basis, Debye):
    X=              0.1511    Y=              0.0022    Z=              0.1970  Tot=              0.2483
 Quadrupole moment (field-independent basis, Debye-Ang):
   XX=            -59.7907   YY=            -68.1552   ZZ=            -66.3860
   XY=              0.0454   XZ=              0.0806   YZ=              1.6840

 Normal termination of Gaussian 16 at Sun Dec  3 13:58:42 2023.
