 Gaussian 16, Revision B.01,
 Gaussian 16:  ES64L-G16RevB.01 20-Dec-2017

 -------------------------
 #P B3LYP/6-311+g(d) force
 -------------------------

 -----
 DPGEN
 -----
 Symbolic Z-matrix:
 Charge =  0 Multiplicity = 2

                         Standard orientation:
 ---------------------------------------------------------------------
 Center     Atomic      Atomic             Coordinates (Angstroms)
 Number     Number       Type             X           Y           Z
 ---------------------------------------------------------------------
      1         11           0        0.073267    0.239871   -1.459384
      2         11           0        0.892600   -2.793861   -0.609567
      3         11           0       -2.920769   -1.430482   -0.343333
      4         11           0        1.375780    2.943278   -0.366904
      5         11           0       -2.225540    1.963685    0.191342
      6         11           0        2.977013   -0.488962    0.325419
      7         11           0       -0.172351   -0.433530    2.262427
 ---------------------------------------------------------------------

 SCF Done:  E(UB3LYP) =  -1136.13627673     A.U. after   18 cycles

 The electronic state is 2-A.
 Alpha  occ. eigenvalues --  -38.43979 -38.43907 -38.43904 -38.43890 -38.43554
 Alpha  occ. eigenvalues --  -38.43431 -38.43000  -2.19820  -2.19737  -2.19735
 Alpha  occ. eigenvalues --   -2.19707  -2.19413  -2.19247  -2.19000  -1.13480
 Alpha  occ. eigenvalues --   -1.13451  -1.13444  -1.13434  -1.13419  -1.13406
 Alpha  occ. eigenvalues --   -1.13395  -1.13383  -1.13375  -1.13373  -1.13356
 Alpha  occ. eigenvalues --   -1.13327  -1.13113  -1.13057  -1.13038  -1.12957
 Alpha  occ. eigenvalues --   -1.12900  -1.12878  -1.12685  -1.12642  -1.12618
 Alpha  occ. eigenvalues --   -0.18342  -0.12948  -0.12312  -0.10851
 Alpha virt. eigenvalues --   -0.05412  -0.05355  -0.04814  -0.03280  -0.02861
 Alpha virt. eigenvalues --   -0.02644  -0.01448  -0.01236  -0.00469  -0.00379
 Alpha virt. eigenvalues --   -0.00029   0.00345   0.00804   0.00836   0.00867

  Beta  occ. eigenvalues --  -38.43904 -38.43899 -38.43884 -38.43874 -38.43540
  Beta  occ. eigenvalues --  -38.43428 -38.42951  -2.19732  -2.19727  -2.19703
  Beta  occ. eigenvalues --   -2.19626  -2.19389  -2.19244  -2.18913  -1.13433
  Beta  occ. eigenvalues --   -1.13419  -1.13392  -1.13383  -1.13377  -1.13366
  Beta  occ. eigenvalues --   -1.13360  -1.13355  -1.13341  -1.13326  -1.13315
  Beta  occ. eigenvalues --   -1.13288  -1.13089  -1.13030  -1.13022  -1.12946
  Beta  occ. eigenvalues --   -1.12892  -1.12879  -1.12621  -1.12579  -1.12554
  Beta  occ. eigenvalues --   -0.17637  -0.12763  -0.12089
  Beta virt. eigenvalues --   -0.06893  -0.05389  -0.05268  -0.04741  -0.02500
  Beta virt. eigenvalues --   -0.02167  -0.01620  -0.01371  -0.01149  -0.00462
  Beta virt. eigenvalues --   -0.00404   0.00131   0.00384   0.00838   0.00864

 Mulliken charges and spin densities:
               1          2
     1  Na  -0.081230   0.188758
     2  Na   0.156833   0.002920
     3  Na   0.034976  -0.044286
     4  Na   0.103036   0.001277
     5  Na   0.123240   0.047845
     6  Na   0.156431   0.120557
     7  Na  -0.493286   0.682928
 Sum of Mulliken charges =  -0.00000   1.00000

 Dipole moment (field-independent basis, Debye):
    X=             -0.1435    Y=             -0.0901    Z=              0.2657  Tot=              0.3151
 Quadrupole moment (field-independent basis, Debye-Ang):
   XX=            -57.9535   YY=            -61.4641   ZZ=            -74.1225
   XY=              0.5146   XZ=              0.7355   YZ=              1.6567

 Normal termination of Gaussian 16 at Thu Dec  7 14:09:34 2023.
