 Gaussian 16, Revision B.01,
 Gaussian 16:  ES64L-G16RevB.01 20-Dec-2017

 -------------------------
 #P B3LYP/6-311+g(d) force
 -------------------------

 -----
 DPGEN
 -----
 Symbolic Z-matrix:
 Charge =  0 Multiplicity = 2

                         Standard orientation:
 ---------------------------------------------------------------------
 Center     Atomic      Atomic             Coordinates (Angstroms)
 Number     Number       Type             X           Y           Z
 ---------------------------------------------------------------------
      1         11           0       -0.403695    1.529240   -0.822046
      2         11           0       -2.598132    3.728535    0.175843
      3         11           0       -3.032275   -0.191217   -0.054308
      4         11           0       -2.525105   -3.650848   -0.030735
      5         11           0       -0.121565   -1.770040    0.232985
      6         11           0        3.018084    0.648740    1.100526
      7         11           0        5.662688   -0.294410   -0.602265
 ---------------------------------------------------------------------

 SCF Done:  E(UB3LYP) =  -1136.12018876     A.U. after   21 cycles

 The electronic state is 2-A.
 Alpha  occ. eigenvalues --  -38.44945 -38.44293 -38.44170 -38.43918 -38.43770
 Alpha  occ. eigenvalues --  -38.43733 -38.43413  -2.20801  -2.20091  -2.20019
 Alpha  occ. eigenvalues --   -2.19828  -2.19665  -2.19534  -2.19194  -1.14536
 Alpha  occ. eigenvalues --   -1.14503  -1.14365  -1.13764  -1.13750  -1.13736
 Alpha  occ. eigenvalues --   -1.13711  -1.13664  -1.13650  -1.13524  -1.13504
 Alpha  occ. eigenvalues --   -1.13400  -1.13371  -1.13332  -1.13252  -1.13174
 Alpha  occ. eigenvalues --   -1.13174  -1.13167  -1.12883  -1.12866  -1.12835
 Alpha  occ. eigenvalues --   -0.17328  -0.13364  -0.13049  -0.10317
 Alpha virt. eigenvalues --   -0.06450  -0.05257  -0.04952  -0.03554  -0.02557
 Alpha virt. eigenvalues --   -0.02491  -0.02042  -0.01694  -0.00944  -0.00749
 Alpha virt. eigenvalues --   -0.00374   0.00124   0.00280   0.00436   0.00504

  Beta  occ. eigenvalues --  -38.44933 -38.44266 -38.44151 -38.43885 -38.43740
  Beta  occ. eigenvalues --  -38.43648 -38.43423  -2.20780  -2.20039  -2.19983
  Beta  occ. eigenvalues --   -2.19771  -2.19614  -2.19377  -2.19221  -1.14507
  Beta  occ. eigenvalues --   -1.14490  -1.14350  -1.13729  -1.13714  -1.13711
  Beta  occ. eigenvalues --   -1.13677  -1.13639  -1.13621  -1.13480  -1.13468
  Beta  occ. eigenvalues --   -1.13352  -1.13334  -1.13301  -1.13186  -1.13073
  Beta  occ. eigenvalues --   -1.13066  -1.13063  -1.12908  -1.12885  -1.12805
  Beta  occ. eigenvalues --   -0.16782  -0.13011  -0.12490
  Beta virt. eigenvalues --   -0.07004  -0.06186  -0.04960  -0.04538  -0.03252
  Beta virt. eigenvalues --   -0.02436  -0.02185  -0.01931  -0.01388  -0.00651
  Beta virt. eigenvalues --   -0.00430  -0.00086   0.00281   0.00454   0.00517

 Mulliken charges and spin densities:
               1          2
     1  Na  -1.047294  -0.120378
     2  Na   0.771390   0.230005
     3  Na  -0.010717   0.288287
     4  Na   1.450290   0.273111
     5  Na  -1.514441  -0.040089
     6  Na   0.260388  -0.038107
     7  Na   0.090383   0.407171
 Sum of Mulliken charges =  -0.00000   1.00000

 Dipole moment (field-independent basis, Debye):
    X=             -1.8998    Y=             -0.2920    Z=             -0.0491  Tot=              1.9228
 Quadrupole moment (field-independent basis, Debye-Ang):
   XX=            -73.6386   YY=            -57.3402   ZZ=            -69.2213
   XY=             -0.6586   XZ=             -3.1282   YZ=              2.4974

 Normal termination of Gaussian 16 at Tue Nov 28 21:37:00 2023.
