 Gaussian 16, Revision B.01,
 Gaussian 16:  ES64L-G16RevB.01 20-Dec-2017

 -------------------------
 #P B3LYP/6-311+g(d) force
 -------------------------

 -----
 DPGEN
 -----
 Symbolic Z-matrix:
 Charge =  0 Multiplicity = 2

                         Standard orientation:
 ---------------------------------------------------------------------
 Center     Atomic      Atomic             Coordinates (Angstroms)
 Number     Number       Type             X           Y           Z
 ---------------------------------------------------------------------
      1         11           0        0.044278   -0.146150   -1.613632
      2         11           0        0.549408    3.149179   -0.074142
      3         11           0       -2.186114   -2.095420   -0.151726
      4         11           0       -2.972137    1.291734   -0.086745
      5         11           0        3.280505    0.154085   -0.333680
      6         11           0        0.148927    0.303540    1.975248
      7         11           0        1.135133   -2.656968    0.284676
 ---------------------------------------------------------------------

 SCF Done:  E(UB3LYP) =  -1136.13789693     A.U. after   20 cycles

 The electronic state is 2-A.
 Alpha  occ. eigenvalues --  -38.44208 -38.44125 -38.43947 -38.43482 -38.43369
 Alpha  occ. eigenvalues --  -38.43364 -38.43165  -2.20008  -2.19920  -2.19734
 Alpha  occ. eigenvalues --   -2.19341  -2.19248  -2.19241  -2.19122  -1.13685
 Alpha  occ. eigenvalues --   -1.13661  -1.13646  -1.13597  -1.13583  -1.13557
 Alpha  occ. eigenvalues --   -1.13415  -1.13399  -1.13366  -1.13046  -1.13003
 Alpha  occ. eigenvalues --   -1.12987  -1.12943  -1.12920  -1.12906  -1.12871
 Alpha  occ. eigenvalues --   -1.12863  -1.12857  -1.12805  -1.12748  -1.12737
 Alpha  occ. eigenvalues --   -0.18393  -0.12805  -0.12520  -0.10454
 Alpha virt. eigenvalues --   -0.05895  -0.05117  -0.04944  -0.02966  -0.02920
 Alpha virt. eigenvalues --   -0.02340  -0.01656  -0.01275  -0.00655  -0.00442
 Alpha virt. eigenvalues --   -0.00001   0.00344   0.00785   0.00801   0.00890

  Beta  occ. eigenvalues --  -38.44199 -38.44123 -38.43946 -38.43478 -38.43359
  Beta  occ. eigenvalues --  -38.43272 -38.43105  -2.19994  -2.19919  -2.19734
  Beta  occ. eigenvalues --   -2.19336  -2.19227  -2.19080  -2.19012  -1.13662
  Beta  occ. eigenvalues --   -1.13647  -1.13640  -1.13587  -1.13580  -1.13556
  Beta  occ. eigenvalues --   -1.13401  -1.13395  -1.13368  -1.13039  -1.12987
  Beta  occ. eigenvalues --   -1.12977  -1.12922  -1.12871  -1.12858  -1.12811
  Beta  occ. eigenvalues --   -1.12754  -1.12740  -1.12727  -1.12673  -1.12655
  Beta  occ. eigenvalues --   -0.17681  -0.12566  -0.12300
  Beta virt. eigenvalues --   -0.06585  -0.05883  -0.05060  -0.04905  -0.02243
  Beta virt. eigenvalues --   -0.02150  -0.01555  -0.01333  -0.01180  -0.00704
  Beta virt. eigenvalues --   -0.00484   0.00138   0.00377   0.00785   0.00843

 Mulliken charges and spin densities:
               1          2
     1  Na  -0.199599   0.537965
     2  Na  -0.035630  -0.150178
     3  Na   0.174742  -0.022111
     4  Na   0.038789  -0.098739
     5  Na   0.090360  -0.051982
     6  Na  -0.330691   0.725424
     7  Na   0.262030   0.059622
 Sum of Mulliken charges =  -0.00000   1.00000

 Dipole moment (field-independent basis, Debye):
    X=              0.1009    Y=              0.3268    Z=              0.0417  Tot=              0.3445
 Quadrupole moment (field-independent basis, Debye-Ang):
   XX=            -55.9616   YY=            -60.3383   ZZ=            -75.9481
   XY=             -0.1118   XZ=             -0.3229   YZ=             -1.0857

 Normal termination of Gaussian 16 at Tue Dec  5 17:56:05 2023.
