 Gaussian 16, Revision B.01,
 Gaussian 16:  ES64L-G16RevB.01 20-Dec-2017

 -------------------------
 #P B3LYP/6-311+g(d) force
 -------------------------

 -----
 DPGEN
 -----
 Symbolic Z-matrix:
 Charge =  0 Multiplicity = 2

                         Standard orientation:
 ---------------------------------------------------------------------
 Center     Atomic      Atomic             Coordinates (Angstroms)
 Number     Number       Type             X           Y           Z
 ---------------------------------------------------------------------
      1         11           0       -0.987917   -1.155755   -2.158799
      2         11           0        1.111997   -1.822595    0.789293
      3         11           0        4.180350    0.102642   -0.177831
      4         11           0        0.797600    1.298473   -0.775297
      5         11           0       -1.857132    2.041821   -0.477687
      6         11           0       -0.378337    0.755701    2.207007
      7         11           0       -2.866561   -1.220287    0.593313
 ---------------------------------------------------------------------

 SCF Done:  E(UB3LYP) =  -1136.11835404     A.U. after   25 cycles

 The electronic state is 2-A.
 Alpha  occ. eigenvalues --  -38.45244 -38.44264 -38.44119 -38.43737 -38.43719
 Alpha  occ. eigenvalues --  -38.43071 -38.43037  -2.20987  -2.20096  -2.20048
 Alpha  occ. eigenvalues --   -2.19615  -2.19571  -2.19100  -2.18988  -1.14664
 Alpha  occ. eigenvalues --   -1.14654  -1.14609  -1.13776  -1.13766  -1.13743
 Alpha  occ. eigenvalues --   -1.13732  -1.13667  -1.13659  -1.13307  -1.13290
 Alpha  occ. eigenvalues --   -1.13255  -1.13245  -1.13221  -1.13145  -1.13021
 Alpha  occ. eigenvalues --   -1.12765  -1.12741  -1.12610  -1.12582  -1.12506
 Alpha  occ. eigenvalues --   -0.18953  -0.13092  -0.12194  -0.11160
 Alpha virt. eigenvalues --   -0.06949  -0.04324  -0.03869  -0.03324  -0.03231
 Alpha virt. eigenvalues --   -0.02859  -0.02367  -0.00883  -0.00446   0.00037
 Alpha virt. eigenvalues --    0.00095   0.00183   0.00302   0.00822   0.00920

  Beta  occ. eigenvalues --  -38.45250 -38.44256 -38.44042 -38.43693 -38.43676
  Beta  occ. eigenvalues --  -38.43036 -38.43021  -2.20999  -2.20083  -2.19907
  Beta  occ. eigenvalues --   -2.19527  -2.19504  -2.19043  -2.18959  -1.14669
  Beta  occ. eigenvalues --   -1.14662  -1.14618  -1.13760  -1.13736  -1.13726
  Beta  occ. eigenvalues --   -1.13652  -1.13574  -1.13548  -1.13261  -1.13224
  Beta  occ. eigenvalues --   -1.13195  -1.13174  -1.13142  -1.13117  -1.12989
  Beta  occ. eigenvalues --   -1.12723  -1.12672  -1.12589  -1.12544  -1.12479
  Beta  occ. eigenvalues --   -0.18043  -0.12977  -0.11014
  Beta virt. eigenvalues --   -0.07995  -0.06765  -0.04141  -0.03227  -0.02985
  Beta virt. eigenvalues --   -0.02811  -0.02266  -0.01941  -0.00744  -0.00274
  Beta virt. eigenvalues --    0.00111   0.00204   0.00242   0.00343   0.00887

 Mulliken charges and spin densities:
               1          2
     1  Na  -0.391007   0.176686
     2  Na  -0.036816   0.072153
     3  Na   0.179073  -0.114523
     4  Na  -0.300114   0.334731
     5  Na   0.725657  -0.059356
     6  Na  -0.397395   0.547020
     7  Na   0.220602   0.043288
 Sum of Mulliken charges =  -0.00000   1.00000

 Dipole moment (field-independent basis, Debye):
    X=              0.6835    Y=             -0.2278    Z=              0.2938  Tot=              0.7780
 Quadrupole moment (field-independent basis, Debye-Ang):
   XX=            -49.6821   YY=            -78.0915   ZZ=            -65.0150
   XY=             -0.4206   XZ=             -1.4964   YZ=             -2.1851

 Normal termination of Gaussian 16 at Sat Dec  9 06:16:49 2023.
