 Gaussian 16, Revision B.01,
 Gaussian 16:  ES64L-G16RevB.01 20-Dec-2017

 -------------------------
 #P B3LYP/6-311+g(d) force
 -------------------------

 -----
 DPGEN
 -----
 Symbolic Z-matrix:
 Charge =  0 Multiplicity = 2

                         Standard orientation:
 ---------------------------------------------------------------------
 Center     Atomic      Atomic             Coordinates (Angstroms)
 Number     Number       Type             X           Y           Z
 ---------------------------------------------------------------------
      1         11           0        3.084612    1.214785   -0.143149
      2         11           0        0.323660   -1.058428   -1.841271
      3         11           0       -0.035149   -0.248603    2.075100
      4         11           0       -3.236897    1.209470    0.693066
      5         11           0        3.023917   -1.887320    0.543576
      6         11           0        0.021590    2.703121   -0.784524
      7         11           0       -3.181732   -1.933024   -0.542798
 ---------------------------------------------------------------------

 SCF Done:  E(UB3LYP) =  -1136.12109396     A.U. after   23 cycles

 The electronic state is 2-A.
 Alpha  occ. eigenvalues --  -38.45145 -38.44746 -38.44693 -38.44547 -38.44309
 Alpha  occ. eigenvalues --  -38.43916 -38.42473  -2.20930  -2.20533  -2.20524
 Alpha  occ. eigenvalues --   -2.20350  -2.20082  -2.19744  -2.18274  -1.14607
 Alpha  occ. eigenvalues --   -1.14576  -1.14540  -1.14209  -1.14197  -1.14189
 Alpha  occ. eigenvalues --   -1.14188  -1.14171  -1.14171  -1.14027  -1.13995
 Alpha  occ. eigenvalues --   -1.13961  -1.13755  -1.13737  -1.13727  -1.13424
 Alpha  occ. eigenvalues --   -1.13392  -1.13385  -1.11953  -1.11941  -1.11916
 Alpha  occ. eigenvalues --   -0.17575  -0.13754  -0.11304  -0.11002
 Alpha virt. eigenvalues --   -0.06881  -0.05898  -0.04374  -0.03355  -0.02986
 Alpha virt. eigenvalues --   -0.02555  -0.02364  -0.01527  -0.00713  -0.00388
 Alpha virt. eigenvalues --   -0.00085   0.00203   0.00297   0.00387   0.00631

  Beta  occ. eigenvalues --  -38.45071 -38.44735 -38.44688 -38.44473 -38.44305
  Beta  occ. eigenvalues --  -38.43912 -38.42468  -2.20792  -2.20517  -2.20514
  Beta  occ. eigenvalues --   -2.20213  -2.20076  -2.19738  -2.18266  -1.14511
  Beta  occ. eigenvalues --   -1.14485  -1.14434  -1.14192  -1.14185  -1.14182
  Beta  occ. eigenvalues --   -1.14176  -1.14163  -1.14158  -1.13935  -1.13898
  Beta  occ. eigenvalues --   -1.13859  -1.13753  -1.13725  -1.13720  -1.13423
  Beta  occ. eigenvalues --   -1.13382  -1.13371  -1.11944  -1.11937  -1.11902
  Beta  occ. eigenvalues --   -0.16890  -0.13637  -0.11039
  Beta virt. eigenvalues --   -0.07290  -0.06631  -0.05759  -0.03943  -0.03041
  Beta virt. eigenvalues --   -0.02307  -0.02211  -0.01792  -0.01307  -0.00755
  Beta virt. eigenvalues --   -0.00201  -0.00046   0.00258   0.00490   0.00539

 Mulliken charges and spin densities:
               1          2
     1  Na   0.064894   0.073199
     2  Na  -0.272811   0.487641
     3  Na  -0.259222   0.413471
     4  Na   0.323527   0.120061
     5  Na   0.429007   0.033382
     6  Na  -0.243587  -0.085475
     7  Na  -0.041809  -0.042279
 Sum of Mulliken charges =  -0.00000   1.00000

 Dipole moment (field-independent basis, Debye):
    X=             -0.0244    Y=             -0.3722    Z=              0.3643  Tot=              0.5214
 Quadrupole moment (field-independent basis, Debye-Ang):
   XX=            -51.3796   YY=            -72.8447   ZZ=            -72.5960
   XY=             -1.1284   XZ=             -0.3097   YZ=              0.4074

 Normal termination of Gaussian 16 at Mon Dec  4 04:44:08 2023.
