 Gaussian 16, Revision B.01,
 Gaussian 16:  ES64L-G16RevB.01 20-Dec-2017

 -------------------------
 #P B3LYP/6-311+g(d) force
 -------------------------

 -----
 DPGEN
 -----
 Symbolic Z-matrix:
 Charge =  0 Multiplicity = 2

                         Standard orientation:
 ---------------------------------------------------------------------
 Center     Atomic      Atomic             Coordinates (Angstroms)
 Number     Number       Type             X           Y           Z
 ---------------------------------------------------------------------
      1         11           0       -0.203770   -0.538203   -1.851558
      2         11           0        0.091370    0.161078    2.035700
      3         11           0        0.800839   -2.478498    0.316194
      4         11           0        3.320504   -0.145254   -0.418203
      5         11           0       -2.666844   -1.642005    0.140647
      6         11           0       -2.384571    2.006465   -0.344161
      7         11           0        1.042473    2.636416    0.121380
 ---------------------------------------------------------------------

 SCF Done:  E(UB3LYP) =  -1136.13698190     A.U. after   19 cycles

 The electronic state is 2-A.
 Alpha  occ. eigenvalues --  -38.44114 -38.43871 -38.43720 -38.43703 -38.43702
 Alpha  occ. eigenvalues --  -38.43272 -38.43215  -2.19914  -2.19703  -2.19634
 Alpha  occ. eigenvalues --   -2.19628  -2.19511  -2.19136  -2.19114  -1.13585
 Alpha  occ. eigenvalues --   -1.13568  -1.13559  -1.13401  -1.13371  -1.13346
 Alpha  occ. eigenvalues --   -1.13330  -1.13306  -1.13283  -1.13271  -1.13241
 Alpha  occ. eigenvalues --   -1.13228  -1.13188  -1.13166  -1.13150  -1.12826
 Alpha  occ. eigenvalues --   -1.12812  -1.12805  -1.12777  -1.12733  -1.12727
 Alpha  occ. eigenvalues --   -0.18579  -0.12840  -0.12439  -0.11012
 Alpha virt. eigenvalues --   -0.05656  -0.05218  -0.04431  -0.03228  -0.03106
 Alpha virt. eigenvalues --   -0.02737  -0.01633  -0.01043  -0.00289  -0.00140
 Alpha virt. eigenvalues --   -0.00041   0.00352   0.00775   0.00882   0.00911

  Beta  occ. eigenvalues --  -38.44108 -38.43868 -38.43697 -38.43637 -38.43626
  Beta  occ. eigenvalues --  -38.43268 -38.43201  -2.19904  -2.19701  -2.19509
  Beta  occ. eigenvalues --   -2.19505  -2.19460  -2.19116  -2.19109  -1.13571
  Beta  occ. eigenvalues --   -1.13557  -1.13552  -1.13387  -1.13357  -1.13337
  Beta  occ. eigenvalues --   -1.13261  -1.13201  -1.13190  -1.13169  -1.13166
  Beta  occ. eigenvalues --   -1.13154  -1.13145  -1.13136  -1.13122  -1.12814
  Beta  occ. eigenvalues --   -1.12793  -1.12761  -1.12757  -1.12735  -1.12714
  Beta  occ. eigenvalues --   -0.17825  -0.12615  -0.12207
  Beta virt. eigenvalues --   -0.07104  -0.05573  -0.05215  -0.04353  -0.02499
  Beta virt. eigenvalues --   -0.02317  -0.01708  -0.01526  -0.00990  -0.00313
  Beta virt. eigenvalues --   -0.00176   0.00088   0.00376   0.00850   0.00873

 Mulliken charges and spin densities:
               1          2
     1  Na  -0.390211   0.641362
     2  Na  -0.277805   0.585468
     3  Na   0.435388   0.035888
     4  Na  -0.011114  -0.028899
     5  Na   0.234137  -0.087390
     6  Na  -0.052248  -0.088925
     7  Na   0.061852  -0.057503
 Sum of Mulliken charges =  -0.00000   1.00000

 Dipole moment (field-independent basis, Debye):
    X=             -0.0772    Y=             -0.0547    Z=             -0.0617  Tot=              0.1129
 Quadrupole moment (field-independent basis, Debye-Ang):
   XX=            -55.7431   YY=            -65.9674   ZZ=            -72.4246
   XY=              0.5541   XZ=             -1.0402   YZ=             -1.4825

 Normal termination of Gaussian 16 at Tue Dec  5 19:04:47 2023.
