 Gaussian 16, Revision B.01,
 Gaussian 16:  ES64L-G16RevB.01 20-Dec-2017

 -------------------------
 #P B3LYP/6-311+g(d) force
 -------------------------

 -----
 DPGEN
 -----
 Symbolic Z-matrix:
 Charge =  0 Multiplicity = 2

                         Standard orientation:
 ---------------------------------------------------------------------
 Center     Atomic      Atomic             Coordinates (Angstroms)
 Number     Number       Type             X           Y           Z
 ---------------------------------------------------------------------
      1         11           0        2.488255   -2.361322    0.145810
      2         11           0       -2.366067   -2.467885   -0.055820
      3         11           0       -2.929688    0.825958    0.035068
      4         11           0       -0.174470   -0.333945   -1.665097
      5         11           0        2.984619    1.310288   -0.528560
      6         11           0       -0.491646    3.052008    0.118951
      7         11           0        0.488998   -0.025103    1.949647
 ---------------------------------------------------------------------

 SCF Done:  E(UB3LYP) =  -1136.13305468     A.U. after   21 cycles

 The electronic state is 2-A.
 Alpha  occ. eigenvalues --  -38.44514 -38.44387 -38.43921 -38.43888 -38.43552
 Alpha  occ. eigenvalues --  -38.43549 -38.43151  -2.20300  -2.20163  -2.19750
 Alpha  occ. eigenvalues --   -2.19724  -2.19440  -2.19411  -2.18974  -1.13975
 Alpha  occ. eigenvalues --   -1.13955  -1.13931  -1.13836  -1.13821  -1.13802
 Alpha  occ. eigenvalues --   -1.13446  -1.13436  -1.13409  -1.13393  -1.13371
 Alpha  occ. eigenvalues --   -1.13340  -1.13139  -1.13083  -1.13079  -1.13053
 Alpha  occ. eigenvalues --   -1.13046  -1.13023  -1.12646  -1.12637  -1.12619
 Alpha  occ. eigenvalues --   -0.18003  -0.13224  -0.12060  -0.10324
 Alpha virt. eigenvalues --   -0.06077  -0.05653  -0.04691  -0.03273  -0.02632
 Alpha virt. eigenvalues --   -0.02330  -0.01801  -0.01475  -0.00815  -0.00530
 Alpha virt. eigenvalues --   -0.00034   0.00320   0.00699   0.00717   0.00842

  Beta  occ. eigenvalues --  -38.44494 -38.44383 -38.43923 -38.43885 -38.43491
  Beta  occ. eigenvalues --  -38.43467 -38.43150  -2.20265  -2.20158  -2.19747
  Beta  occ. eigenvalues --   -2.19730  -2.19335  -2.19253  -2.18974  -1.13934
  Beta  occ. eigenvalues --   -1.13932  -1.13910  -1.13820  -1.13813  -1.13799
  Beta  occ. eigenvalues --   -1.13447  -1.13434  -1.13390  -1.13388  -1.13370
  Beta  occ. eigenvalues --   -1.13342  -1.13063  -1.13009  -1.12977  -1.12971
  Beta  occ. eigenvalues --   -1.12937  -1.12906  -1.12649  -1.12626  -1.12610
  Beta  occ. eigenvalues --   -0.17326  -0.13000  -0.11860
  Beta virt. eigenvalues --   -0.06553  -0.05998  -0.05513  -0.04687  -0.02545
  Beta virt. eigenvalues --   -0.01977  -0.01671  -0.01461  -0.01248  -0.00857
  Beta virt. eigenvalues --   -0.00556   0.00122   0.00368   0.00710   0.00799

 Mulliken charges and spin densities:
               1          2
     1  Na   0.012376  -0.089353
     2  Na   0.155011  -0.088763
     3  Na   0.075275  -0.004590
     4  Na  -0.051574   0.427917
     5  Na   0.052027   0.079915
     6  Na  -0.023769  -0.014732
     7  Na  -0.219344   0.689606
 Sum of Mulliken charges =  -0.00000   1.00000

 Dipole moment (field-independent basis, Debye):
    X=              0.3966    Y=             -0.4105    Z=             -0.0120  Tot=              0.5709
 Quadrupole moment (field-independent basis, Debye-Ang):
   XX=            -55.5659   YY=            -60.9969   ZZ=            -76.4309
   XY=              0.2648   XZ=             -1.5770   YZ=             -0.6638

 Normal termination of Gaussian 16 at Thu Dec  7 08:08:09 2023.
