 Gaussian 16, Revision B.01,
 Gaussian 16:  ES64L-G16RevB.01 20-Dec-2017

 -------------------------
 #P B3LYP/6-311+g(d) force
 -------------------------

 -----
 DPGEN
 -----
 Symbolic Z-matrix:
 Charge =  0 Multiplicity = 2

                         Standard orientation:
 ---------------------------------------------------------------------
 Center     Atomic      Atomic             Coordinates (Angstroms)
 Number     Number       Type             X           Y           Z
 ---------------------------------------------------------------------
      1         11           0       -0.482677   -0.423839    1.041271
      2         11           0        7.228228    2.139057    0.005985
      3         11           0       -3.051479   -1.645213    0.364153
      4         11           0       -6.280766    2.404616    0.016445
      5         11           0       -6.848346   -0.402379   -0.737758
      6         11           0        6.645055   -0.663484   -0.376966
      7         11           0        2.789985   -1.408758   -0.313131
 ---------------------------------------------------------------------

 SCF Done:  E(UB3LYP) =  -1136.10161596     A.U. after   17 cycles

 The electronic state is 2-A.
 Alpha  occ. eigenvalues --  -38.45051 -38.44613 -38.44446 -38.44301 -38.44222
 Alpha  occ. eigenvalues --  -38.43935 -38.43532  -2.20856  -2.20421  -2.20230
 Alpha  occ. eigenvalues --   -2.20133  -2.20057  -2.19756  -2.19360  -1.14576
 Alpha  occ. eigenvalues --   -1.14499  -1.14492  -1.14073  -1.14071  -1.14058
 Alpha  occ. eigenvalues --   -1.13896  -1.13881  -1.13877  -1.13826  -1.13779
 Alpha  occ. eigenvalues --   -1.13760  -1.13756  -1.13694  -1.13668  -1.13408
 Alpha  occ. eigenvalues --   -1.13401  -1.13387  -1.13040  -1.13014  -1.13000
 Alpha  occ. eigenvalues --   -0.15055  -0.14291  -0.12967  -0.10793
 Alpha virt. eigenvalues --   -0.06718  -0.05429  -0.03885  -0.03340  -0.03303
 Alpha virt. eigenvalues --   -0.02762  -0.02300  -0.01836  -0.01456  -0.01218
 Alpha virt. eigenvalues --   -0.00304  -0.00232  -0.00092   0.00331   0.00444

  Beta  occ. eigenvalues --  -38.45029 -38.44616 -38.44338 -38.44251 -38.44161
  Beta  occ. eigenvalues --  -38.43941 -38.43542  -2.20815  -2.20430  -2.20041
  Beta  occ. eigenvalues --   -2.20029  -2.19945  -2.19773  -2.19384  -1.14551
  Beta  occ. eigenvalues --   -1.14471  -1.14463  -1.14081  -1.14069  -1.14058
  Beta  occ. eigenvalues --   -1.13844  -1.13744  -1.13741  -1.13710  -1.13697
  Beta  occ. eigenvalues --   -1.13694  -1.13692  -1.13617  -1.13594  -1.13424
  Beta  occ. eigenvalues --   -1.13409  -1.13360  -1.13040  -1.13036  -1.12990
  Beta  occ. eigenvalues --   -0.14569  -0.13640  -0.12545
  Beta virt. eigenvalues --   -0.07537  -0.06308  -0.05082  -0.03595  -0.03177
  Beta virt. eigenvalues --   -0.03099  -0.02584  -0.02017  -0.01588  -0.01340
  Beta virt. eigenvalues --   -0.00896  -0.00037   0.00083   0.00130   0.00356

 Mulliken charges and spin densities:
               1          2
     1  Na  -0.042750  -0.022462
     2  Na   0.100133   0.204314
     3  Na  -0.095166   0.216295
     4  Na  -0.034882   0.096895
     5  Na   0.152500  -0.006028
     6  Na   0.081583  -0.012368
     7  Na  -0.161417   0.523354
 Sum of Mulliken charges =  -0.00000   1.00000

 Dipole moment (field-independent basis, Debye):
    X=             -1.7500    Y=              0.9937    Z=             -0.1332  Tot=              2.0168
 Quadrupole moment (field-independent basis, Debye-Ang):
   XX=            -63.3635   YY=            -56.8147   ZZ=            -74.1300
   XY=              3.0355   XZ=              1.4560   YZ=              5.2538

 Normal termination of Gaussian 16 at Sun Dec  3 22:20:41 2023.
