 Gaussian 16, Revision B.01,
 Gaussian 16:  ES64L-G16RevB.01 20-Dec-2017

 -------------------------
 #P B3LYP/6-311+g(d) force
 -------------------------

 -----
 DPGEN
 -----
 Symbolic Z-matrix:
 Charge =  0 Multiplicity = 2

                         Standard orientation:
 ---------------------------------------------------------------------
 Center     Atomic      Atomic             Coordinates (Angstroms)
 Number     Number       Type             X           Y           Z
 ---------------------------------------------------------------------
      1         11           0        0.143063    2.762278    0.650985
      2         11           0        6.020230   -0.329987   -0.370380
      3         11           0        2.596829    1.406593   -0.473708
      4         11           0        2.537429   -2.380498    0.600836
      5         11           0       -0.463761   -0.721699   -0.024287
      6         11           0       -3.852698   -0.478997   -0.270406
      7         11           0       -6.981092   -0.257689   -0.113041
 ---------------------------------------------------------------------

 SCF Done:  E(UB3LYP) =  -1136.11166289     A.U. after   24 cycles

 The electronic state is 2-A.
 Alpha  occ. eigenvalues --  -38.45186 -38.44497 -38.44433 -38.44414 -38.44305
 Alpha  occ. eigenvalues --  -38.44205 -38.43765  -2.20963  -2.20284  -2.20276
 Alpha  occ. eigenvalues --   -2.20176  -2.20160  -2.20051  -2.19573  -1.14638
 Alpha  occ. eigenvalues --   -1.14632  -1.14562  -1.14002  -1.13945  -1.13944
 Alpha  occ. eigenvalues --   -1.13932  -1.13932  -1.13929  -1.13848  -1.13841
 Alpha  occ. eigenvalues --   -1.13838  -1.13831  -1.13793  -1.13774  -1.13693
 Alpha  occ. eigenvalues --   -1.13685  -1.13649  -1.13242  -1.13238  -1.13220
 Alpha  occ. eigenvalues --   -0.16841  -0.13625  -0.12266  -0.11601
 Alpha virt. eigenvalues --   -0.07255  -0.05346  -0.03875  -0.03816  -0.03375
 Alpha virt. eigenvalues --   -0.02446  -0.02097  -0.01735  -0.01275  -0.01025
 Alpha virt. eigenvalues --   -0.00640  -0.00131   0.00027   0.00251   0.00551

  Beta  occ. eigenvalues --  -38.45133 -38.44475 -38.44410 -38.44375 -38.44255
  Beta  occ. eigenvalues --  -38.44169 -38.43770  -2.20867  -2.20244  -2.20207
  Beta  occ. eigenvalues --   -2.20134  -2.20069  -2.19987  -2.19584  -1.14576
  Beta  occ. eigenvalues --   -1.14564  -1.14479  -1.13948  -1.13918  -1.13905
  Beta  occ. eigenvalues --   -1.13905  -1.13894  -1.13874  -1.13820  -1.13808
  Beta  occ. eigenvalues --   -1.13779  -1.13770  -1.13768  -1.13698  -1.13651
  Beta  occ. eigenvalues --   -1.13626  -1.13611  -1.13247  -1.13243  -1.13218
  Beta  occ. eigenvalues --   -0.16108  -0.13394  -0.11683
  Beta virt. eigenvalues --   -0.08259  -0.06682  -0.05087  -0.03598  -0.03526
  Beta virt. eigenvalues --   -0.02808  -0.02364  -0.01830  -0.01519  -0.01087
  Beta virt. eigenvalues --   -0.00673  -0.00353   0.00098   0.00142   0.00348

 Mulliken charges and spin densities:
               1          2
     1  Na   0.437950  -0.068751
     2  Na  -0.015832   0.156351
     3  Na  -0.030280   0.476325
     4  Na   0.904901  -0.174399
     5  Na  -1.274847   0.492570
     6  Na  -0.679228   0.099601
     7  Na   0.657336   0.018304
 Sum of Mulliken charges =  -0.00000   1.00000

 Dipole moment (field-independent basis, Debye):
    X=              0.1960    Y=              0.2926    Z=              0.4289  Tot=              0.5550
 Quadrupole moment (field-independent basis, Debye-Ang):
   XX=            -53.7657   YY=            -67.3363   ZZ=            -72.4218
   XY=             -3.4505   XZ=             -1.3643   YZ=             -0.0213

 Normal termination of Gaussian 16 at Wed Nov 29 01:33:40 2023.
