 Gaussian 16, Revision B.01,
 Gaussian 16:  ES64L-G16RevB.01 20-Dec-2017

 -------------------------
 #P B3LYP/6-311+g(d) force
 -------------------------

 -----
 DPGEN
 -----
 Symbolic Z-matrix:
 Charge =  0 Multiplicity = 2

                         Standard orientation:
 ---------------------------------------------------------------------
 Center     Atomic      Atomic             Coordinates (Angstroms)
 Number     Number       Type             X           Y           Z
 ---------------------------------------------------------------------
      1         11           0       -3.362392   -0.900994   -0.428648
      2         11           0       -0.235562   -0.163609   -1.401017
      3         11           0       -2.779562    2.372729   -0.624191
      4         11           0       -1.191661    0.647973    2.134403
      5         11           0        4.782602    1.365057    0.442744
      6         11           0       -0.228118   -2.400083    0.835259
      7         11           0        3.014692   -0.921073   -0.958550
 ---------------------------------------------------------------------

 SCF Done:  E(UB3LYP) =  -1136.11525590     A.U. after   29 cycles

 The electronic state is 2-A.
 Alpha  occ. eigenvalues --  -38.45749 -38.44383 -38.44271 -38.44232 -38.43647
 Alpha  occ. eigenvalues --  -38.43308 -38.42856  -2.21599  -2.20167  -2.20159
 Alpha  occ. eigenvalues --   -2.20136  -2.19476  -2.19138  -2.18731  -1.15289
 Alpha  occ. eigenvalues --   -1.15255  -1.15211  -1.13853  -1.13831  -1.13820
 Alpha  occ. eigenvalues --   -1.13811  -1.13803  -1.13801  -1.13787  -1.13766
 Alpha  occ. eigenvalues --   -1.13737  -1.13171  -1.13141  -1.13098  -1.12816
 Alpha  occ. eigenvalues --   -1.12795  -1.12790  -1.12419  -1.12387  -1.12370
 Alpha  occ. eigenvalues --   -0.18137  -0.13764  -0.11388  -0.10915
 Alpha virt. eigenvalues --   -0.07483  -0.05159  -0.04346  -0.03058  -0.02934
 Alpha virt. eigenvalues --   -0.02509  -0.02359  -0.01574  -0.00780  -0.00637
 Alpha virt. eigenvalues --   -0.00309   0.00042   0.00158   0.00530   0.00684

  Beta  occ. eigenvalues --  -38.45733 -38.44357 -38.44183 -38.44168 -38.43644
  Beta  occ. eigenvalues --  -38.43315 -38.42851  -2.21572  -2.20112  -2.20079
  Beta  occ. eigenvalues --   -2.19945  -2.19474  -2.19153  -2.18725  -1.15256
  Beta  occ. eigenvalues --   -1.15226  -1.15200  -1.13789  -1.13787  -1.13778
  Beta  occ. eigenvalues --   -1.13772  -1.13769  -1.13719  -1.13671  -1.13640
  Beta  occ. eigenvalues --   -1.13599  -1.13166  -1.13140  -1.13082  -1.12829
  Beta  occ. eigenvalues --   -1.12803  -1.12782  -1.12418  -1.12383  -1.12340
  Beta  occ. eigenvalues --   -0.17471  -0.13471  -0.11188
  Beta virt. eigenvalues --   -0.07339  -0.06984  -0.04973  -0.04167  -0.02798
  Beta virt. eigenvalues --   -0.02502  -0.01992  -0.01688  -0.01386  -0.00703
  Beta virt. eigenvalues --   -0.00367  -0.00159   0.00061   0.00342   0.00586

 Mulliken charges and spin densities:
               1          2
     1  Na   0.529464   0.068277
     2  Na  -0.497999   0.271100
     3  Na   0.230750  -0.073990
     4  Na  -0.400408   0.583311
     5  Na  -0.115181   0.135990
     6  Na   0.039095   0.020181
     7  Na   0.214279  -0.004869
 Sum of Mulliken charges =  -0.00000   1.00000

 Dipole moment (field-independent basis, Debye):
    X=             -1.1037    Y=             -0.2746    Z=              0.2625  Tot=              1.1672
 Quadrupole moment (field-independent basis, Debye-Ang):
   XX=            -59.7141   YY=            -65.8661   ZZ=            -73.0915
   XY=              5.7822   XZ=              2.7793   YZ=              1.1396

 Normal termination of Gaussian 16 at Thu Dec  7 12:56:52 2023.
