 Gaussian 16, Revision B.01,
 Gaussian 16:  ES64L-G16RevB.01 20-Dec-2017

 -------------------------
 #P B3LYP/6-311+g(d) force
 -------------------------

 -----
 DPGEN
 -----
 Symbolic Z-matrix:
 Charge =  0 Multiplicity = 2

                         Standard orientation:
 ---------------------------------------------------------------------
 Center     Atomic      Atomic             Coordinates (Angstroms)
 Number     Number       Type             X           Y           Z
 ---------------------------------------------------------------------
      1         11           0        1.740460   -2.777453    0.414584
      2         11           0        1.252898   -0.128791    1.578420
      3         11           0        3.261498    0.519458   -0.811707
      4         11           0       -0.963585   -0.995275   -1.428256
      5         11           0       -2.199393    1.268182    1.256348
      6         11           0       -3.894707   -0.731088   -0.456737
      7         11           0        0.802829    2.844968   -0.552652
 ---------------------------------------------------------------------

 SCF Done:  E(UB3LYP) =  -1136.12259652     A.U. after   21 cycles

 The electronic state is 2-A.
 Alpha  occ. eigenvalues --  -38.44636 -38.44533 -38.44463 -38.43858 -38.43608
 Alpha  occ. eigenvalues --  -38.43315 -38.43143  -2.20485  -2.20392  -2.20312
 Alpha  occ. eigenvalues --   -2.19718  -2.19575  -2.19177  -2.18952  -1.14180
 Alpha  occ. eigenvalues --   -1.14139  -1.14123  -1.14086  -1.14068  -1.14028
 Alpha  occ. eigenvalues --   -1.13980  -1.13962  -1.13895  -1.13384  -1.13366
 Alpha  occ. eigenvalues --   -1.13349  -1.13298  -1.13240  -1.13214  -1.12839
 Alpha  occ. eigenvalues --   -1.12811  -1.12797  -1.12633  -1.12611  -1.12598
 Alpha  occ. eigenvalues --   -0.18018  -0.14154  -0.11920  -0.10580
 Alpha virt. eigenvalues --   -0.06701  -0.05060  -0.04502  -0.03638  -0.02899
 Alpha virt. eigenvalues --   -0.02416  -0.01947  -0.01040  -0.00683  -0.00361
 Alpha virt. eigenvalues --    0.00031   0.00163   0.00328   0.00714   0.00763

  Beta  occ. eigenvalues --  -38.44598 -38.44522 -38.44427 -38.43815 -38.43558
  Beta  occ. eigenvalues --  -38.43308 -38.43141  -2.20415  -2.20373  -2.20246
  Beta  occ. eigenvalues --   -2.19640  -2.19485  -2.19166  -2.18953  -1.14133
  Beta  occ. eigenvalues --   -1.14096  -1.14088  -1.14047  -1.14035  -1.14014
  Beta  occ. eigenvalues --   -1.13927  -1.13919  -1.13855  -1.13326  -1.13312
  Beta  occ. eigenvalues --   -1.13292  -1.13242  -1.13166  -1.13147  -1.12813
  Beta  occ. eigenvalues --   -1.12801  -1.12789  -1.12634  -1.12616  -1.12574
  Beta  occ. eigenvalues --   -0.17443  -0.13871  -0.11586
  Beta virt. eigenvalues --   -0.06991  -0.06550  -0.04769  -0.04189  -0.03273
  Beta virt. eigenvalues --   -0.02326  -0.02170  -0.01351  -0.00874  -0.00580
  Beta virt. eigenvalues --   -0.00143   0.00121   0.00243   0.00484   0.00756

 Mulliken charges and spin densities:
               1          2
     1  Na   0.337616  -0.089065
     2  Na  -0.021745   0.291862
     3  Na   0.062863   0.304756
     4  Na  -0.580294   0.308620
     5  Na  -0.082643   0.129293
     6  Na   0.390410   0.047366
     7  Na  -0.106206   0.007167
 Sum of Mulliken charges =  -0.00000   1.00000

 Dipole moment (field-independent basis, Debye):
    X=             -0.4381    Y=             -0.3150    Z=             -0.2545  Tot=              0.5966
 Quadrupole moment (field-independent basis, Debye-Ang):
   XX=            -53.0144   YY=            -70.2853   ZZ=            -72.2923
   XY=             -2.1420   XZ=             -2.1006   YZ=              0.3715

 Normal termination of Gaussian 16 at Sun Dec  3 23:16:06 2023.
