 Gaussian 16, Revision B.01,
 Gaussian 16:  ES64L-G16RevB.01 20-Dec-2017

 -------------------------
 #P B3LYP/6-311+g(d) force
 -------------------------

 -----
 DPGEN
 -----
 Symbolic Z-matrix:
 Charge =  0 Multiplicity = 2

                         Standard orientation:
 ---------------------------------------------------------------------
 Center     Atomic      Atomic             Coordinates (Angstroms)
 Number     Number       Type             X           Y           Z
 ---------------------------------------------------------------------
      1         11           0        1.445691    1.890618   -0.357494
      2         11           0        4.086454   -0.676673   -0.499031
      3         11           0       -1.600013    1.733572    1.079946
      4         11           0        1.186797   -0.522602    1.875760
      5         11           0       -2.249403    0.809922   -1.526359
      6         11           0        0.218009   -1.433933   -0.951169
      7         11           0       -3.087535   -1.800904    0.378346
 ---------------------------------------------------------------------

 SCF Done:  E(UB3LYP) =  -1136.12093798     A.U. after   25 cycles

 The electronic state is 2-A.
 Alpha  occ. eigenvalues --  -38.45182 -38.44073 -38.43979 -38.43965 -38.43871
 Alpha  occ. eigenvalues --  -38.43238 -38.43152  -2.20954  -2.19957  -2.19926
 Alpha  occ. eigenvalues --   -2.19876  -2.19680  -2.19120  -2.19079  -1.14625
 Alpha  occ. eigenvalues --   -1.14620  -1.14566  -1.13746  -1.13700  -1.13667
 Alpha  occ. eigenvalues --   -1.13584  -1.13553  -1.13524  -1.13505  -1.13498
 Alpha  occ. eigenvalues --   -1.13456  -1.13345  -1.13338  -1.13315  -1.12832
 Alpha  occ. eigenvalues --   -1.12804  -1.12771  -1.12740  -1.12707  -1.12664
 Alpha  occ. eigenvalues --   -0.18661  -0.14042  -0.11165  -0.10826
 Alpha virt. eigenvalues --   -0.07006  -0.05183  -0.04411  -0.03024  -0.02822
 Alpha virt. eigenvalues --   -0.02349  -0.02240  -0.01269  -0.00637  -0.00152
 Alpha virt. eigenvalues --    0.00092   0.00244   0.00420   0.00620   0.00799

  Beta  occ. eigenvalues --  -38.45164 -38.44056 -38.43937 -38.43887 -38.43873
  Beta  occ. eigenvalues --  -38.43226 -38.43140  -2.20920  -2.19931  -2.19849
  Beta  occ. eigenvalues --   -2.19733  -2.19683  -2.19102  -2.19060  -1.14597
  Beta  occ. eigenvalues --   -1.14593  -1.14546  -1.13697  -1.13652  -1.13631
  Beta  occ. eigenvalues --   -1.13539  -1.13503  -1.13460  -1.13452  -1.13403
  Beta  occ. eigenvalues --   -1.13349  -1.13347  -1.13325  -1.13315  -1.12823
  Beta  occ. eigenvalues --   -1.12765  -1.12749  -1.12727  -1.12676  -1.12652
  Beta  occ. eigenvalues --   -0.17946  -0.13829  -0.10968
  Beta virt. eigenvalues --   -0.07088  -0.06708  -0.05056  -0.03828  -0.02942
  Beta virt. eigenvalues --   -0.02602  -0.01808  -0.01466  -0.01084  -0.00280
  Beta virt. eigenvalues --   -0.00105   0.00148   0.00271   0.00553   0.00703

 Mulliken charges and spin densities:
               1          2
     1  Na  -0.272737   0.070381
     2  Na   0.362132   0.118526
     3  Na   0.288882   0.231975
     4  Na  -0.218086   0.217197
     5  Na   0.245580   0.020046
     6  Na  -0.366822   0.303911
     7  Na  -0.038949   0.037965
 Sum of Mulliken charges =  -0.00000   1.00000

 Dipole moment (field-independent basis, Debye):
    X=              0.9497    Y=             -0.2041    Z=              0.1653  Tot=              0.9854
 Quadrupole moment (field-independent basis, Debye-Ang):
   XX=            -47.7217   YY=            -76.2095   ZZ=            -69.0953
   XY=             -0.6554   XZ=             -2.4358   YZ=             -1.7862

 Normal termination of Gaussian 16 at Tue Dec  5 18:31:26 2023.
