 Gaussian 16, Revision B.01,
 Gaussian 16:  ES64L-G16RevB.01 20-Dec-2017

 -------------------------
 #P B3LYP/6-311+g(d) force
 -------------------------

 -----
 DPGEN
 -----
 Symbolic Z-matrix:
 Charge =  0 Multiplicity = 2

                         Standard orientation:
 ---------------------------------------------------------------------
 Center     Atomic      Atomic             Coordinates (Angstroms)
 Number     Number       Type             X           Y           Z
 ---------------------------------------------------------------------
      1         11           0       -0.212084   -2.198974    0.090194
      2         11           0       -2.519193    1.478118   -0.834294
      3         11           0        0.600017    2.712803    1.578047
      4         11           0        2.112391   -1.424454   -2.080244
      5         11           0        2.371695   -0.830406    2.215147
      6         11           0        0.950185    1.757842   -1.666737
      7         11           0       -3.303010   -1.494929    0.697887
 ---------------------------------------------------------------------

 SCF Done:  E(UB3LYP) =  -1136.12273256     A.U. after   20 cycles

 The electronic state is 2-A.
 Alpha  occ. eigenvalues --  -38.45258 -38.44554 -38.44235 -38.44218 -38.43797
 Alpha  occ. eigenvalues --  -38.43280 -38.43278  -2.21029  -2.20328  -2.20050
 Alpha  occ. eigenvalues --   -2.20013  -2.19636  -2.19127  -2.19093  -1.14695
 Alpha  occ. eigenvalues --   -1.14663  -1.14639  -1.13999  -1.13990  -1.13949
 Alpha  occ. eigenvalues --   -1.13724  -1.13713  -1.13706  -1.13683  -1.13661
 Alpha  occ. eigenvalues --   -1.13628  -1.13314  -1.13295  -1.13258  -1.12845
 Alpha  occ. eigenvalues --   -1.12814  -1.12802  -1.12750  -1.12733  -1.12695
 Alpha  occ. eigenvalues --   -0.17145  -0.12636  -0.12252  -0.12014
 Alpha virt. eigenvalues --   -0.05895  -0.05168  -0.04894  -0.03659  -0.03349
 Alpha virt. eigenvalues --   -0.02960  -0.01216  -0.00955  -0.00858  -0.00133
 Alpha virt. eigenvalues --    0.00059   0.00136   0.00276   0.00422   0.00667

  Beta  occ. eigenvalues --  -38.45177 -38.44525 -38.44233 -38.44164 -38.43765
  Beta  occ. eigenvalues --  -38.43283 -38.43276  -2.20879  -2.20274  -2.20010
  Beta  occ. eigenvalues --   -2.19951  -2.19578  -2.19126  -2.19099  -1.14589
  Beta  occ. eigenvalues --   -1.14560  -1.14535  -1.13966  -1.13953  -1.13903
  Beta  occ. eigenvalues --   -1.13704  -1.13680  -1.13657  -1.13632  -1.13630
  Beta  occ. eigenvalues --   -1.13594  -1.13272  -1.13260  -1.13201  -1.12841
  Beta  occ. eigenvalues --   -1.12805  -1.12798  -1.12753  -1.12738  -1.12701
  Beta  occ. eigenvalues --   -0.16493  -0.12360  -0.12147
  Beta virt. eigenvalues --   -0.08144  -0.05517  -0.04845  -0.04469  -0.03442
  Beta virt. eigenvalues --   -0.02813  -0.02382  -0.01094  -0.00862  -0.00440
  Beta virt. eigenvalues --   -0.00056   0.00185   0.00304   0.00411   0.00477

 Mulliken charges and spin densities:
               1          2
     1  Na  -0.426057   0.329605
     2  Na  -0.303760  -0.030126
     3  Na   0.115014   0.345065
     4  Na   0.356255   0.236361
     5  Na  -0.187748   0.234734
     6  Na   0.115712   0.038635
     7  Na   0.330583  -0.154274
 Sum of Mulliken charges =  -0.00000   1.00000

 Dipole moment (field-independent basis, Debye):
    X=              0.5908    Y=              0.3798    Z=              0.4112  Tot=              0.8139
 Quadrupole moment (field-independent basis, Debye-Ang):
   XX=            -64.1116   YY=            -70.0400   ZZ=            -63.3982
   XY=             -2.4414   XZ=              0.2411   YZ=              0.8596

 Normal termination of Gaussian 16 at Mon Dec  4 03:59:40 2023.
