 Gaussian 16, Revision B.01,
 Gaussian 16:  ES64L-G16RevB.01 20-Dec-2017

 -------------------------
 #P B3LYP/6-311+g(d) force
 -------------------------

 -----
 DPGEN
 -----
 Symbolic Z-matrix:
 Charge =  0 Multiplicity = 2

                         Standard orientation:
 ---------------------------------------------------------------------
 Center     Atomic      Atomic             Coordinates (Angstroms)
 Number     Number       Type             X           Y           Z
 ---------------------------------------------------------------------
      1         11           0       -0.557791    0.180106   -1.340831
      2         11           0       -1.362804    3.011778   -0.017920
      3         11           0       -1.219676   -2.755972    0.710316
      4         11           0        2.054381   -1.983392   -0.682671
      5         11           0        3.476530    1.126685   -0.172082
      6         11           0        0.745909    0.597834    1.753933
      7         11           0       -3.136549   -0.177039   -0.250744
 ---------------------------------------------------------------------

 SCF Done:  E(UB3LYP) =  -1136.12638433     A.U. after   22 cycles

 The electronic state is 2-A.
 Alpha  occ. eigenvalues --  -38.44809 -38.44628 -38.43821 -38.43767 -38.43383
 Alpha  occ. eigenvalues --  -38.43211 -38.43124  -2.20599  -2.20519  -2.19663
 Alpha  occ. eigenvalues --   -2.19589  -2.19405  -2.19102  -2.18962  -1.14319
 Alpha  occ. eigenvalues --   -1.14273  -1.14254  -1.14242  -1.14157  -1.14108
 Alpha  occ. eigenvalues --   -1.13356  -1.13321  -1.13290  -1.13283  -1.13250
 Alpha  occ. eigenvalues --   -1.13223  -1.13087  -1.13075  -1.12986  -1.12786
 Alpha  occ. eigenvalues --   -1.12726  -1.12716  -1.12630  -1.12613  -1.12607
 Alpha  occ. eigenvalues --   -0.18331  -0.13517  -0.12250  -0.10105
 Alpha virt. eigenvalues --   -0.06437  -0.05255  -0.04560  -0.03304  -0.02820
 Alpha virt. eigenvalues --   -0.01996  -0.01873  -0.01319  -0.00674  -0.00308
 Alpha virt. eigenvalues --    0.00029   0.00285   0.00638   0.00718   0.00807

  Beta  occ. eigenvalues --  -38.44808 -38.44618 -38.43797 -38.43767 -38.43339
  Beta  occ. eigenvalues --  -38.43135 -38.43105  -2.20600  -2.20504  -2.19621
  Beta  occ. eigenvalues --   -2.19591  -2.19328  -2.18961  -2.18928  -1.14303
  Beta  occ. eigenvalues --   -1.14267  -1.14251  -1.14237  -1.14131  -1.14099
  Beta  occ. eigenvalues --   -1.13325  -1.13288  -1.13280  -1.13253  -1.13247
  Beta  occ. eigenvalues --   -1.13212  -1.13026  -1.13011  -1.12936  -1.12691
  Beta  occ. eigenvalues --   -1.12627  -1.12616  -1.12609  -1.12589  -1.12572
  Beta  occ. eigenvalues --   -0.17699  -0.13217  -0.12019
  Beta virt. eigenvalues --   -0.06425  -0.06378  -0.05128  -0.04436  -0.02600
  Beta virt. eigenvalues --   -0.02142  -0.01925  -0.01323  -0.00926  -0.00679
  Beta virt. eigenvalues --   -0.00251   0.00171   0.00347   0.00709   0.00799

 Mulliken charges and spin densities:
               1          2
     1  Na   0.064272   0.047256
     2  Na  -0.082892  -0.056552
     3  Na  -0.149647   0.105422
     4  Na   0.048193   0.207027
     5  Na   0.084880  -0.025839
     6  Na  -0.291520   0.601708
     7  Na   0.326713   0.120978
 Sum of Mulliken charges =  -0.00000   1.00000

 Dipole moment (field-independent basis, Debye):
    X=              0.2730    Y=              0.5082    Z=              0.0825  Tot=              0.5828
 Quadrupole moment (field-independent basis, Debye-Ang):
   XX=            -53.2518   YY=            -61.7098   ZZ=            -76.7469
   XY=              1.2384   XZ=             -2.1401   YZ=             -0.8502

 Normal termination of Gaussian 16 at Wed Dec  6 00:00:28 2023.
