 Gaussian 16, Revision B.01,
 Gaussian 16:  ES64L-G16RevB.01 20-Dec-2017

 -------------------------
 #P B3LYP/6-311+g(d) force
 -------------------------

 -----
 DPGEN
 -----
 Symbolic Z-matrix:
 Charge =  0 Multiplicity = 2

                         Standard orientation:
 ---------------------------------------------------------------------
 Center     Atomic      Atomic             Coordinates (Angstroms)
 Number     Number       Type             X           Y           Z
 ---------------------------------------------------------------------
      1         11           0       -4.863658   -0.813547   -0.358873
      2         11           0        0.282068    3.513859   -0.055724
      3         11           0       -3.339141    2.019952    0.790883
      4         11           0        1.914900   -2.603055    0.902926
      5         11           0       -1.505050   -3.351466   -0.614603
      6         11           0        4.803647   -0.765122    0.026895
      7         11           0        2.707234    1.999378   -0.691504
 ---------------------------------------------------------------------

 SCF Done:  E(UB3LYP) =  -1136.10473934     A.U. after   22 cycles

 The electronic state is 2-A.
 Alpha  occ. eigenvalues --  -38.45269 -38.45122 -38.44837 -38.44824 -38.44564
 Alpha  occ. eigenvalues --  -38.44178 -38.43513  -2.21019  -2.20857  -2.20594
 Alpha  occ. eigenvalues --   -2.20578  -2.20392  -2.19988  -2.19346  -1.14697
 Alpha  occ. eigenvalues --   -1.14682  -1.14645  -1.14552  -1.14540  -1.14484
 Alpha  occ. eigenvalues --   -1.14265  -1.14243  -1.14240  -1.14236  -1.14225
 Alpha  occ. eigenvalues --   -1.14191  -1.14121  -1.14054  -1.14027  -1.13637
 Alpha  occ. eigenvalues --   -1.13633  -1.13611  -1.13027  -1.12982  -1.12967
 Alpha  occ. eigenvalues --   -0.15449  -0.13891  -0.13149  -0.11075
 Alpha virt. eigenvalues --   -0.07509  -0.05106  -0.04448  -0.03581  -0.03480
 Alpha virt. eigenvalues --   -0.02406  -0.02206  -0.01568  -0.01433  -0.01093
 Alpha virt. eigenvalues --   -0.00722  -0.00519   0.00158   0.00402   0.00581

  Beta  occ. eigenvalues --  -38.45244 -38.45123 -38.44821 -38.44749 -38.44549
  Beta  occ. eigenvalues --  -38.44114 -38.43481  -2.20975  -2.20864  -2.20566
  Beta  occ. eigenvalues --   -2.20440  -2.20370  -2.19869  -2.19288  -1.14669
  Beta  occ. eigenvalues --   -1.14655  -1.14601  -1.14562  -1.14549  -1.14452
  Beta  occ. eigenvalues --   -1.14248  -1.14228  -1.14202  -1.14147  -1.14132
  Beta  occ. eigenvalues --   -1.14093  -1.14079  -1.14044  -1.14003  -1.13555
  Beta  occ. eigenvalues --   -1.13552  -1.13535  -1.12982  -1.12943  -1.12929
  Beta  occ. eigenvalues --   -0.14912  -0.13239  -0.12308
  Beta virt. eigenvalues --   -0.07952  -0.07670  -0.04557  -0.04074  -0.03414
  Beta virt. eigenvalues --   -0.03163  -0.02182  -0.02054  -0.01324  -0.01042
  Beta virt. eigenvalues --   -0.00858  -0.00565  -0.00308   0.00301   0.00452

 Mulliken charges and spin densities:
               1          2
     1  Na   0.213327   0.036688
     2  Na   0.085112   0.063405
     3  Na  -0.205794   0.141857
     4  Na  -0.351017  -0.016094
     5  Na  -0.068472   0.352907
     6  Na   0.664092   0.297601
     7  Na  -0.337248   0.123637
 Sum of Mulliken charges =  -0.00000   1.00000

 Dipole moment (field-independent basis, Debye):
    X=             -0.4425    Y=             -0.4420    Z=              0.0971  Tot=              0.6329
 Quadrupole moment (field-independent basis, Debye-Ang):
   XX=            -57.9648   YY=            -69.9730   ZZ=            -71.1995
   XY=              1.1697   XZ=              0.6700   YZ=              1.9076

 Normal termination of Gaussian 16 at Mon Dec  4 00:01:46 2023.
