 Gaussian 16, Revision B.01,
 Gaussian 16:  ES64L-G16RevB.01 20-Dec-2017

 -------------------------
 #P B3LYP/6-311+g(d) force
 -------------------------

 -----
 DPGEN
 -----
 Symbolic Z-matrix:
 Charge =  0 Multiplicity = 2

                         Standard orientation:
 ---------------------------------------------------------------------
 Center     Atomic      Atomic             Coordinates (Angstroms)
 Number     Number       Type             X           Y           Z
 ---------------------------------------------------------------------
      1         11           0        1.056090    2.645732    0.012222
      2         11           0        2.984479   -0.313161   -0.449763
      3         11           0       -2.460826   -1.719255   -0.060117
      4         11           0        0.580953   -2.640853    0.346994
      5         11           0        0.336415    0.271383    1.989579
      6         11           0       -2.440715    1.907607   -0.086752
      7         11           0       -0.056396   -0.151453   -1.752164
 ---------------------------------------------------------------------

 SCF Done:  E(UB3LYP) =  -1136.13978436     A.U. after   19 cycles

 The electronic state is 2-A.
 Alpha  occ. eigenvalues --  -38.43702 -38.43605 -38.43601 -38.43530 -38.43482
 Alpha  occ. eigenvalues --  -38.43294 -38.43184  -2.19536  -2.19518  -2.19469
 Alpha  occ. eigenvalues --   -2.19392  -2.19360  -2.19276  -2.19104  -1.13237
 Alpha  occ. eigenvalues --   -1.13199  -1.13197  -1.13186  -1.13164  -1.13162
 Alpha  occ. eigenvalues --   -1.13146  -1.13118  -1.13107  -1.13100  -1.13058
 Alpha  occ. eigenvalues --   -1.13031  -1.13029  -1.13023  -1.12968  -1.12953
 Alpha  occ. eigenvalues --   -1.12906  -1.12888  -1.12776  -1.12755  -1.12724
 Alpha  occ. eigenvalues --   -0.18972  -0.12873  -0.12716  -0.11021
 Alpha virt. eigenvalues --   -0.05309  -0.05044  -0.04707  -0.03198  -0.03080
 Alpha virt. eigenvalues --   -0.02685  -0.01320  -0.01059  -0.00201  -0.00144
 Alpha virt. eigenvalues --    0.00018   0.00371   0.00863   0.00922   0.00945

  Beta  occ. eigenvalues --  -38.43701 -38.43588 -38.43528 -38.43516 -38.43475
  Beta  occ. eigenvalues --  -38.43222 -38.43172  -2.19519  -2.19450  -2.19392
  Beta  occ. eigenvalues --   -2.19370  -2.19351  -2.19146  -2.19086  -1.13191
  Beta  occ. eigenvalues --   -1.13182  -1.13164  -1.13155  -1.13131  -1.13104
  Beta  occ. eigenvalues --   -1.13101  -1.13090  -1.13076  -1.13037  -1.13032
  Beta  occ. eigenvalues --   -1.13024  -1.13010  -1.12975  -1.12964  -1.12876
  Beta  occ. eigenvalues --   -1.12823  -1.12792  -1.12755  -1.12720  -1.12707
  Beta  occ. eigenvalues --   -0.18223  -0.12621  -0.12468
  Beta virt. eigenvalues --   -0.07070  -0.05309  -0.05000  -0.04669  -0.02386
  Beta virt. eigenvalues --   -0.02305  -0.01622  -0.01225  -0.00994  -0.00250
  Beta virt. eigenvalues --   -0.00157   0.00122   0.00392   0.00884   0.00938

 Mulliken charges and spin densities:
               1          2
     1  Na   0.193491  -0.080767
     2  Na   0.229611  -0.004964
     3  Na   0.025987  -0.096418
     4  Na   0.258187   0.051653
     5  Na  -0.377500   0.655767
     6  Na  -0.027725  -0.121635
     7  Na  -0.302051   0.596364
 Sum of Mulliken charges =  -0.00000   1.00000

 Dipole moment (field-independent basis, Debye):
    X=             -0.0341    Y=              0.1834    Z=              0.0583  Tot=              0.1954
 Quadrupole moment (field-independent basis, Debye-Ang):
   XX=            -58.6164   YY=            -62.7083   ZZ=            -72.8407
   XY=             -0.1728   XZ=             -0.9210   YZ=             -0.8282

 Normal termination of Gaussian 16 at Thu Dec  7 09:02:43 2023.
