 Gaussian 16, Revision B.01,
 Gaussian 16:  ES64L-G16RevB.01 20-Dec-2017

 -------------------------
 #P B3LYP/6-311+g(d) force
 -------------------------

 -----
 DPGEN
 -----
 Symbolic Z-matrix:
 Charge =  0 Multiplicity = 2

                         Standard orientation:
 ---------------------------------------------------------------------
 Center     Atomic      Atomic             Coordinates (Angstroms)
 Number     Number       Type             X           Y           Z
 ---------------------------------------------------------------------
      1         11           0        0.186979   -2.455670    0.310150
      2         11           0       -2.238455    2.090606   -0.345599
      3         11           0        3.215692   -0.853760   -0.131829
      4         11           0        0.266154   -0.016448   -1.740610
      5         11           0       -2.938342   -1.337816   -0.176964
      6         11           0        1.895680    2.170169    0.150620
      7         11           0       -0.387708    0.402919    1.934231
 ---------------------------------------------------------------------

 SCF Done:  E(UB3LYP) =  -1136.13560323     A.U. after   20 cycles

 The electronic state is 2-A.
 Alpha  occ. eigenvalues --  -38.44324 -38.44202 -38.43705 -38.43556 -38.43500
 Alpha  occ. eigenvalues --  -38.43379 -38.42683  -2.20164  -2.20032  -2.19538
 Alpha  occ. eigenvalues --   -2.19460  -2.19421  -2.19309  -2.18601  -1.13830
 Alpha  occ. eigenvalues --   -1.13825  -1.13815  -1.13699  -1.13692  -1.13682
 Alpha  occ. eigenvalues --   -1.13217  -1.13213  -1.13173  -1.13166  -1.13143
 Alpha  occ. eigenvalues --   -1.13104  -1.13072  -1.13048  -1.13043  -1.12982
 Alpha  occ. eigenvalues --   -1.12931  -1.12921  -1.12301  -1.12266  -1.12214
 Alpha  occ. eigenvalues --   -0.18835  -0.13465  -0.12037  -0.10798
 Alpha virt. eigenvalues --   -0.06004  -0.05473  -0.03945  -0.03384  -0.02776
 Alpha virt. eigenvalues --   -0.02488  -0.01885  -0.01188  -0.00307  -0.00079
 Alpha virt. eigenvalues --    0.00005   0.00334   0.00714   0.00842   0.00937

  Beta  occ. eigenvalues --  -38.44323 -38.44199 -38.43697 -38.43549 -38.43434
  Beta  occ. eigenvalues --  -38.43291 -38.42671  -2.20165  -2.20030  -2.19526
  Beta  occ. eigenvalues --   -2.19411  -2.19339  -2.19147  -2.18582  -1.13830
  Beta  occ. eigenvalues --   -1.13820  -1.13808  -1.13694  -1.13685  -1.13673
  Beta  occ. eigenvalues --   -1.13207  -1.13184  -1.13161  -1.13127  -1.13071
  Beta  occ. eigenvalues --   -1.13067  -1.13042  -1.13000  -1.12969  -1.12875
  Beta  occ. eigenvalues --   -1.12817  -1.12805  -1.12292  -1.12220  -1.12204
  Beta  occ. eigenvalues --   -0.18097  -0.13239  -0.11785
  Beta virt. eigenvalues --   -0.06882  -0.05913  -0.05489  -0.03918  -0.02633
  Beta virt. eigenvalues --   -0.01986  -0.01781  -0.01443  -0.01142  -0.00351
  Beta virt. eigenvalues --   -0.00052   0.00107   0.00361   0.00788   0.00837

 Mulliken charges and spin densities:
               1          2
     1  Na   0.205998  -0.011551
     2  Na   0.132480  -0.079970
     3  Na   0.160009  -0.012785
     4  Na  -0.431786   0.603141
     5  Na   0.069214  -0.031537
     6  Na   0.236128  -0.114039
     7  Na  -0.372043   0.646741
 Sum of Mulliken charges =  -0.00000   1.00000

 Dipole moment (field-independent basis, Debye):
    X=              0.0080    Y=              0.0997    Z=             -0.0489  Tot=              0.1114
 Quadrupole moment (field-independent basis, Debye-Ang):
   XX=            -51.4063   YY=            -67.6870   ZZ=            -73.8285
   XY=             -0.1341   XZ=              1.1371   YZ=             -0.6259

 Normal termination of Gaussian 16 at Thu Dec  7 10:56:07 2023.
