 Gaussian 16, Revision B.01,
 Gaussian 16:  ES64L-G16RevB.01 20-Dec-2017

 -------------------------
 #P B3LYP/6-311+g(d) force
 -------------------------

 -----
 DPGEN
 -----
 Symbolic Z-matrix:
 Charge =  0 Multiplicity = 2

                         Standard orientation:
 ---------------------------------------------------------------------
 Center     Atomic      Atomic             Coordinates (Angstroms)
 Number     Number       Type             X           Y           Z
 ---------------------------------------------------------------------
      1         11           0        2.727442   -1.968125   -0.096719
      2         11           0       -3.085398    0.374021   -0.557234
      3         11           0       -0.125399   -0.060777   -1.913066
      4         11           0       -1.214965   -2.696742    0.293874
      5         11           0        2.540685    1.717442   -0.131350
      6         11           0       -0.415789   -0.177893    1.953780
      7         11           0       -0.426576    2.812074    0.450715
 ---------------------------------------------------------------------

 SCF Done:  E(UB3LYP) =  -1136.13589596     A.U. after   19 cycles

 The electronic state is 2-A.
 Alpha  occ. eigenvalues --  -38.43975 -38.43952 -38.43809 -38.43755 -38.43744
 Alpha  occ. eigenvalues --  -38.43685 -38.43175  -2.19792  -2.19738  -2.19707
 Alpha  occ. eigenvalues --   -2.19670  -2.19592  -2.19512  -2.19047  -1.13503
 Alpha  occ. eigenvalues --   -1.13444  -1.13428  -1.13420  -1.13410  -1.13395
 Alpha  occ. eigenvalues --   -1.13382  -1.13372  -1.13342  -1.13325  -1.13316
 Alpha  occ. eigenvalues --   -1.13281  -1.13245  -1.13225  -1.13198  -1.13194
 Alpha  occ. eigenvalues --   -1.13183  -1.13150  -1.12728  -1.12701  -1.12677
 Alpha  occ. eigenvalues --   -0.18403  -0.12856  -0.12355  -0.11069
 Alpha virt. eigenvalues --   -0.05639  -0.05172  -0.04668  -0.03263  -0.03037
 Alpha virt. eigenvalues --   -0.02812  -0.01504  -0.01114  -0.00436  -0.00304
 Alpha virt. eigenvalues --   -0.00028   0.00354   0.00807   0.00856   0.00901

  Beta  occ. eigenvalues --  -38.43979 -38.43933 -38.43733 -38.43732 -38.43685
  Beta  occ. eigenvalues --  -38.43671 -38.43164  -2.19762  -2.19746  -2.19576
  Beta  occ. eigenvalues --   -2.19566  -2.19517  -2.19512  -2.19030  -1.13462
  Beta  occ. eigenvalues --   -1.13418  -1.13410  -1.13407  -1.13398  -1.13387
  Beta  occ. eigenvalues --   -1.13345  -1.13286  -1.13254  -1.13225  -1.13215
  Beta  occ. eigenvalues --   -1.13209  -1.13195  -1.13194  -1.13173  -1.13168
  Beta  occ. eigenvalues --   -1.13152  -1.13150  -1.12711  -1.12682  -1.12660
  Beta  occ. eigenvalues --   -0.17664  -0.12613  -0.12122
  Beta virt. eigenvalues --   -0.07152  -0.05611  -0.05084  -0.04617  -0.02508
  Beta virt. eigenvalues --   -0.02309  -0.01800  -0.01373  -0.01039  -0.00473
  Beta virt. eigenvalues --   -0.00322   0.00095   0.00394   0.00832   0.00901

 Mulliken charges and spin densities:
               1          2
     1  Na  -0.128145  -0.121037
     2  Na   0.199448   0.029003
     3  Na  -0.151143   0.669785
     4  Na   0.088414  -0.106328
     5  Na  -0.095430  -0.095134
     6  Na  -0.028191   0.621652
     7  Na   0.115047   0.002060
 Sum of Mulliken charges =  -0.00000   1.00000

 Dipole moment (field-independent basis, Debye):
    X=             -0.1474    Y=             -0.2260    Z=             -0.0717  Tot=              0.2792
 Quadrupole moment (field-independent basis, Debye-Ang):
   XX=            -58.4915   YY=            -63.3056   ZZ=            -72.9156
   XY=             -0.4067   XZ=              0.6179   YZ=              0.1649

 Normal termination of Gaussian 16 at Tue Dec  5 11:38:04 2023.
