 Gaussian 16, Revision B.01,
 Gaussian 16:  ES64L-G16RevB.01 20-Dec-2017

 -------------------------
 #P B3LYP/6-311+g(d) force
 -------------------------

 -----
 DPGEN
 -----
 Symbolic Z-matrix:
 Charge =  0 Multiplicity = 2

                         Standard orientation:
 ---------------------------------------------------------------------
 Center     Atomic      Atomic             Coordinates (Angstroms)
 Number     Number       Type             X           Y           Z
 ---------------------------------------------------------------------
      1         11           0       -2.438779    1.490163   -0.111303
      2         11           0       -0.335675    0.059840    1.873691
      3         11           0        3.338874    0.500616   -0.303643
      4         11           0        0.056490   -0.478173   -1.778090
      5         11           0       -2.671031   -1.622863   -0.255553
      6         11           0        1.495395   -2.501301    0.499937
      7         11           0        0.554725    2.551717    0.074960
 ---------------------------------------------------------------------

 SCF Done:  E(UB3LYP) =  -1136.13399192     A.U. after   19 cycles

 The electronic state is 2-A.
 Alpha  occ. eigenvalues --  -38.44567 -38.43915 -38.43582 -38.43548 -38.43534
 Alpha  occ. eigenvalues --  -38.43409 -38.42704  -2.20363  -2.19783  -2.19525
 Alpha  occ. eigenvalues --   -2.19467  -2.19384  -2.19377  -2.18616  -1.14036
 Alpha  occ. eigenvalues --   -1.14019  -1.14003  -1.13497  -1.13450  -1.13419
 Alpha  occ. eigenvalues --   -1.13232  -1.13190  -1.13161  -1.13153  -1.13119
 Alpha  occ. eigenvalues --   -1.13083  -1.13077  -1.13045  -1.13030  -1.13007
 Alpha  occ. eigenvalues --   -1.12996  -1.12977  -1.12307  -1.12279  -1.12241
 Alpha  occ. eigenvalues --   -0.18945  -0.13408  -0.12181  -0.10907
 Alpha virt. eigenvalues --   -0.06081  -0.05124  -0.04165  -0.03379  -0.02830
 Alpha virt. eigenvalues --   -0.02531  -0.01853  -0.00988  -0.00347  -0.00046
 Alpha virt. eigenvalues --    0.00004   0.00333   0.00767   0.00843   0.00891

  Beta  occ. eigenvalues --  -38.44563 -38.43907 -38.43574 -38.43534 -38.43469
  Beta  occ. eigenvalues --  -38.43321 -38.42698  -2.20358  -2.19773  -2.19515
  Beta  occ. eigenvalues --   -2.19360  -2.19349  -2.19216  -2.18608  -1.14020
  Beta  occ. eigenvalues --   -1.14016  -1.14002  -1.13492  -1.13430  -1.13398
  Beta  occ. eigenvalues --   -1.13217  -1.13172  -1.13126  -1.13094  -1.13055
  Beta  occ. eigenvalues --   -1.13032  -1.13000  -1.12993  -1.12978  -1.12942
  Beta  occ. eigenvalues --   -1.12890  -1.12866  -1.12303  -1.12262  -1.12222
  Beta  occ. eigenvalues --   -0.18207  -0.13164  -0.11907
  Beta virt. eigenvalues --   -0.07010  -0.05998  -0.05100  -0.04120  -0.02643
  Beta virt. eigenvalues --   -0.02073  -0.01736  -0.01492  -0.00920  -0.00365
  Beta virt. eigenvalues --   -0.00046   0.00109   0.00365   0.00833   0.00864

 Mulliken charges and spin densities:
               1          2
     1  Na   0.231987   0.054476
     2  Na  -0.271734   0.562567
     3  Na   0.007669  -0.036333
     4  Na  -0.403837   0.506159
     5  Na   0.375167  -0.004928
     6  Na   0.004411  -0.061350
     7  Na   0.056337  -0.020591
 Sum of Mulliken charges =  -0.00000   1.00000

 Dipole moment (field-independent basis, Debye):
    X=              0.2922    Y=             -0.3139    Z=             -0.0798  Tot=              0.4362
 Quadrupole moment (field-independent basis, Debye-Ang):
   XX=            -53.3145   YY=            -66.9697   ZZ=            -73.3912
   XY=              0.6303   XZ=              0.2106   YZ=             -1.2448

 Normal termination of Gaussian 16 at Thu Dec  7 11:16:37 2023.
