 Gaussian 16, Revision B.01,
 Gaussian 16:  ES64L-G16RevB.01 20-Dec-2017

 -------------------------
 #P B3LYP/6-311+g(d) force
 -------------------------

 -----
 DPGEN
 -----
 Symbolic Z-matrix:
 Charge =  0 Multiplicity = 2

                         Standard orientation:
 ---------------------------------------------------------------------
 Center     Atomic      Atomic             Coordinates (Angstroms)
 Number     Number       Type             X           Y           Z
 ---------------------------------------------------------------------
      1         11           0       -0.660973   -1.578938    1.057975
      2         11           0       -2.955191   -3.161960   -0.486542
      3         11           0       -2.927865    0.136217   -0.239643
      4         11           0        0.008254    1.478905   -0.977238
      5         11           0        2.953594   -0.251399    0.535605
      6         11           0       -2.179055    3.616415    0.459290
      7         11           0        5.761236   -0.239240   -0.349447
 ---------------------------------------------------------------------

 SCF Done:  E(UB3LYP) =  -1136.12057028     A.U. after   19 cycles

 The electronic state is 2-A.
 Alpha  occ. eigenvalues --  -38.44473 -38.44305 -38.44292 -38.44236 -38.44171
 Alpha  occ. eigenvalues --  -38.43483 -38.42659  -2.20329  -2.20225  -2.20139
 Alpha  occ. eigenvalues --   -2.20093  -2.20020  -2.19330  -2.18513  -1.14059
 Alpha  occ. eigenvalues --   -1.14010  -1.13981  -1.13939  -1.13921  -1.13834
 Alpha  occ. eigenvalues --   -1.13825  -1.13779  -1.13759  -1.13753  -1.13746
 Alpha  occ. eigenvalues --   -1.13704  -1.13667  -1.13658  -1.13616  -1.13031
 Alpha  occ. eigenvalues --   -1.12947  -1.12946  -1.12190  -1.12181  -1.12169
 Alpha  occ. eigenvalues --   -0.17570  -0.13580  -0.12981  -0.10510
 Alpha virt. eigenvalues --   -0.06234  -0.05799  -0.04151  -0.03708  -0.02533
 Alpha virt. eigenvalues --   -0.02434  -0.02016  -0.01411  -0.01327  -0.00499
 Alpha virt. eigenvalues --   -0.00440   0.00068   0.00458   0.00527   0.00612

  Beta  occ. eigenvalues --  -38.44452 -38.44287 -38.44273 -38.44201 -38.44151
  Beta  occ. eigenvalues --  -38.43398 -38.42654  -2.20293  -2.20195  -2.20076
  Beta  occ. eigenvalues --   -2.20056  -2.19983  -2.19173  -2.18514  -1.14036
  Beta  occ. eigenvalues --   -1.13985  -1.13955  -1.13906  -1.13886  -1.13802
  Beta  occ. eigenvalues --   -1.13788  -1.13742  -1.13730  -1.13724  -1.13700
  Beta  occ. eigenvalues --   -1.13681  -1.13642  -1.13623  -1.13581  -1.12932
  Beta  occ. eigenvalues --   -1.12839  -1.12838  -1.12195  -1.12189  -1.12099
  Beta  occ. eigenvalues --   -0.17026  -0.13014  -0.12534
  Beta virt. eigenvalues --   -0.07150  -0.05948  -0.05608  -0.03597  -0.03470
  Beta virt. eigenvalues --   -0.02380  -0.02263  -0.01848  -0.01093  -0.00917
  Beta virt. eigenvalues --   -0.00221  -0.00153   0.00243   0.00545   0.00581

 Mulliken charges and spin densities:
               1          2
     1  Na  -0.369391  -0.199729
     2  Na   0.862802   0.125556
     3  Na  -0.316097   0.479142
     4  Na  -0.474738  -0.220276
     5  Na   0.055307   0.278167
     6  Na   0.434757   0.128381
     7  Na  -0.192639   0.408759
 Sum of Mulliken charges =  -0.00000   1.00000

 Dipole moment (field-independent basis, Debye):
    X=             -2.1461    Y=              0.0704    Z=             -0.1331  Tot=              2.1514
 Quadrupole moment (field-independent basis, Debye-Ang):
   XX=            -73.7398   YY=            -59.6223   ZZ=            -66.8630
   XY=              2.0461   XZ=             -2.1041   YZ=              2.3785

 Normal termination of Gaussian 16 at Tue Nov 28 20:52:59 2023.
