 Gaussian 16, Revision B.01,
 Gaussian 16:  ES64L-G16RevB.01 20-Dec-2017

 -------------------------
 #P B3LYP/6-311+g(d) force
 -------------------------

 -----
 DPGEN
 -----
 Symbolic Z-matrix:
 Charge =  0 Multiplicity = 2

                         Standard orientation:
 ---------------------------------------------------------------------
 Center     Atomic      Atomic             Coordinates (Angstroms)
 Number     Number       Type             X           Y           Z
 ---------------------------------------------------------------------
      1         11           0       -0.510539    0.849680    2.190941
      2         11           0        2.265088   -0.553681    1.843984
      3         11           0        2.871629   -0.569286   -1.199456
      4         11           0        0.968651    2.205506   -1.022577
      5         11           0       -2.254128    2.249715   -0.756059
      6         11           0        0.177842   -2.287863   -1.094604
      7         11           0       -3.518543   -1.894070    0.037771
 ---------------------------------------------------------------------

 SCF Done:  E(UB3LYP) =  -1136.11921580     A.U. after   21 cycles

 The electronic state is 2-A.
 Alpha  occ. eigenvalues --  -38.44870 -38.44807 -38.44222 -38.44012 -38.43938
 Alpha  occ. eigenvalues --  -38.43852 -38.43722  -2.20713  -2.20698  -2.20018
 Alpha  occ. eigenvalues --   -2.19924  -2.19729  -2.19576  -2.19575  -1.14494
 Alpha  occ. eigenvalues --   -1.14356  -1.14342  -1.14326  -1.14314  -1.14293
 Alpha  occ. eigenvalues --   -1.13713  -1.13669  -1.13646  -1.13611  -1.13577
 Alpha  occ. eigenvalues --   -1.13565  -1.13414  -1.13397  -1.13332  -1.13258
 Alpha  occ. eigenvalues --   -1.13251  -1.13235  -1.13218  -1.13217  -1.13203
 Alpha  occ. eigenvalues --   -0.17963  -0.13079  -0.12268  -0.11605
 Alpha virt. eigenvalues --   -0.05989  -0.05569  -0.04743  -0.03718  -0.03204
 Alpha virt. eigenvalues --   -0.02837  -0.01613  -0.01067  -0.00650  -0.00220
 Alpha virt. eigenvalues --   -0.00022   0.00249   0.00307   0.00486   0.00494

  Beta  occ. eigenvalues --  -38.44793 -38.44740 -38.44212 -38.43985 -38.43922
  Beta  occ. eigenvalues --  -38.43861 -38.43687  -2.20582  -2.20572  -2.19999
  Beta  occ. eigenvalues --   -2.19875  -2.19701  -2.19592  -2.19512  -1.14380
  Beta  occ. eigenvalues --   -1.14267  -1.14251  -1.14249  -1.14229  -1.14177
  Beta  occ. eigenvalues --   -1.13692  -1.13661  -1.13632  -1.13572  -1.13544
  Beta  occ. eigenvalues --   -1.13526  -1.13389  -1.13378  -1.13311  -1.13268
  Beta  occ. eigenvalues --   -1.13247  -1.13228  -1.13205  -1.13173  -1.13157
  Beta  occ. eigenvalues --   -0.17162  -0.12970  -0.11488
  Beta virt. eigenvalues --   -0.08035  -0.05849  -0.05376  -0.04172  -0.03392
  Beta virt. eigenvalues --   -0.02379  -0.02353  -0.01542  -0.00969  -0.00316
  Beta virt. eigenvalues --   -0.00137   0.00039   0.00358   0.00447   0.00619

 Mulliken charges and spin densities:
               1          2
     1  Na  -0.419794   0.457785
     2  Na   0.463208  -0.009277
     3  Na   0.306544   0.477926
     4  Na  -0.222705   0.114271
     5  Na   0.301763   0.024189
     6  Na  -0.581141   0.045031
     7  Na   0.152125  -0.109926
 Sum of Mulliken charges =  -0.00000   1.00000

 Dipole moment (field-independent basis, Debye):
    X=              0.4977    Y=              0.5030    Z=              0.2398  Tot=              0.7472
 Quadrupole moment (field-independent basis, Debye-Ang):
   XX=            -58.3410   YY=            -74.1126   ZZ=            -66.8583
   XY=             -3.7413   XZ=             -0.8443   YZ=             -1.7406

 Normal termination of Gaussian 16 at Tue Nov 28 20:28:09 2023.
