 Gaussian 16, Revision B.01,
 Gaussian 16:  ES64L-G16RevB.01 20-Dec-2017

 -------------------------
 #P B3LYP/6-311+g(d) force
 -------------------------

 -----
 DPGEN
 -----
 Symbolic Z-matrix:
 Charge =  0 Multiplicity = 2

                         Standard orientation:
 ---------------------------------------------------------------------
 Center     Atomic      Atomic             Coordinates (Angstroms)
 Number     Number       Type             X           Y           Z
 ---------------------------------------------------------------------
      1         11           0       -2.827044    1.277207   -0.332989
      2         11           0       -0.374737   -0.711668    1.892998
      3         11           0       -0.152504    2.795378    0.391537
      4         11           0        3.285498    1.177055   -0.237903
      5         11           0       -3.337149   -1.886604   -0.193575
      6         11           0        0.405126   -0.602347   -1.743197
      7         11           0        3.000811   -2.049021    0.223129
 ---------------------------------------------------------------------

 SCF Done:  E(UB3LYP) =  -1136.12197668     A.U. after   22 cycles

 The electronic state is 2-A.
 Alpha  occ. eigenvalues --  -38.45220 -38.45029 -38.44461 -38.44197 -38.44160
 Alpha  occ. eigenvalues --  -38.43710 -38.42333  -2.21015  -2.20835  -2.20270
 Alpha  occ. eigenvalues --   -2.20066  -2.19958  -2.19546  -2.18169  -1.14694
 Alpha  occ. eigenvalues --   -1.14671  -1.14656  -1.14533  -1.14489  -1.14442
 Alpha  occ. eigenvalues --   -1.13947  -1.13918  -1.13916  -1.13763  -1.13735
 Alpha  occ. eigenvalues --   -1.13732  -1.13615  -1.13612  -1.13582  -1.13222
 Alpha  occ. eigenvalues --   -1.13171  -1.13158  -1.11856  -1.11825  -1.11814
 Alpha  occ. eigenvalues --   -0.17828  -0.14013  -0.11485  -0.10327
 Alpha virt. eigenvalues --   -0.06947  -0.06133  -0.03980  -0.03652  -0.02651
 Alpha virt. eigenvalues --   -0.02464  -0.02233  -0.01566  -0.01002  -0.00287
 Alpha virt. eigenvalues --   -0.00117   0.00173   0.00447   0.00540   0.00627

  Beta  occ. eigenvalues --  -38.45213 -38.44984 -38.44459 -38.44188 -38.44158
  Beta  occ. eigenvalues --  -38.43612 -38.42329  -2.21004  -2.20752  -2.20269
  Beta  occ. eigenvalues --   -2.20053  -2.19957  -2.19365  -2.18164  -1.14679
  Beta  occ. eigenvalues --   -1.14662  -1.14647  -1.14468  -1.14431  -1.14381
  Beta  occ. eigenvalues --   -1.13949  -1.13918  -1.13894  -1.13760  -1.13728
  Beta  occ. eigenvalues --   -1.13702  -1.13615  -1.13595  -1.13582  -1.13100
  Beta  occ. eigenvalues --   -1.13041  -1.13031  -1.11855  -1.11818  -1.11799
  Beta  occ. eigenvalues --   -0.17170  -0.13824  -0.11317
  Beta virt. eigenvalues --   -0.06767  -0.06546  -0.06065  -0.03907  -0.03016
  Beta virt. eigenvalues --   -0.02398  -0.01782  -0.01656  -0.01223  -0.01048
  Beta virt. eigenvalues --   -0.00195   0.00025   0.00229   0.00589   0.00661

 Mulliken charges and spin densities:
               1          2
     1  Na   0.097510   0.109408
     2  Na  -0.435220   0.574603
     3  Na  -0.124808  -0.052477
     4  Na   0.054730   0.057819
     5  Na   0.325051   0.022553
     6  Na  -0.273833   0.264415
     7  Na   0.356570   0.023677
 Sum of Mulliken charges =  -0.00000   1.00000

 Dipole moment (field-independent basis, Debye):
    X=              0.8713    Y=             -0.5947    Z=             -0.2317  Tot=              1.0801
 Quadrupole moment (field-independent basis, Debye-Ang):
   XX=            -50.6113   YY=            -69.0356   ZZ=            -75.5857
   XY=              0.8234   XZ=              1.2090   YZ=              0.1134

 Normal termination of Gaussian 16 at Thu Dec  7 13:28:43 2023.
