 Gaussian 16, Revision B.01,
 Gaussian 16:  ES64L-G16RevB.01 20-Dec-2017

 -------------------------
 #P B3LYP/6-311+g(d) force
 -------------------------

 -----
 DPGEN
 -----
 Symbolic Z-matrix:
 Charge =  0 Multiplicity = 2

                         Standard orientation:
 ---------------------------------------------------------------------
 Center     Atomic      Atomic             Coordinates (Angstroms)
 Number     Number       Type             X           Y           Z
 ---------------------------------------------------------------------
      1         11           0       -2.999541    1.392352   -0.242155
      2         11           0       -2.240164   -2.321086   -0.322911
      3         11           0        1.879776   -2.639205    0.166988
      4         11           0        0.264947   -0.300875   -1.322431
      5         11           0       -0.331653   -0.290945    1.856308
      6         11           0        3.127144    0.946131   -0.267688
      7         11           0        0.299491    3.213628    0.131888
 ---------------------------------------------------------------------

 SCF Done:  E(UB3LYP) =  -1136.13327942     A.U. after   19 cycles

 The electronic state is 2-A.
 Alpha  occ. eigenvalues --  -38.44282 -38.44177 -38.44103 -38.44031 -38.43829
 Alpha  occ. eigenvalues --  -38.43014 -38.42962  -2.20061  -2.19996  -2.19920
 Alpha  occ. eigenvalues --   -2.19842  -2.19612  -2.18957  -2.18922  -1.13741
 Alpha  occ. eigenvalues --   -1.13717  -1.13700  -1.13689  -1.13657  -1.13623
 Alpha  occ. eigenvalues --   -1.13601  -1.13582  -1.13544  -1.13531  -1.13499
 Alpha  occ. eigenvalues --   -1.13470  -1.13290  -1.13272  -1.13252  -1.12720
 Alpha  occ. eigenvalues --   -1.12590  -1.12586  -1.12574  -1.12540  -1.12519
 Alpha  occ. eigenvalues --   -0.18205  -0.12879  -0.12549  -0.09886
 Alpha virt. eigenvalues --   -0.05894  -0.05512  -0.05244  -0.02798  -0.02656
 Alpha virt. eigenvalues --   -0.01871  -0.01694  -0.01587  -0.00857  -0.00825
 Alpha virt. eigenvalues --    0.00018   0.00308   0.00732   0.00760   0.00794

  Beta  occ. eigenvalues --  -38.44278 -38.44171 -38.44089 -38.44024 -38.43828
  Beta  occ. eigenvalues --  -38.42922 -38.42919  -2.20056  -2.19988  -2.19899
  Beta  occ. eigenvalues --   -2.19830  -2.19613  -2.18881  -2.18753  -1.13727
  Beta  occ. eigenvalues --   -1.13713  -1.13693  -1.13682  -1.13635  -1.13616
  Beta  occ. eigenvalues --   -1.13581  -1.13556  -1.13527  -1.13517  -1.13482
  Beta  occ. eigenvalues --   -1.13465  -1.13280  -1.13273  -1.13252  -1.12639
  Beta  occ. eigenvalues --   -1.12537  -1.12522  -1.12475  -1.12424  -1.12395
  Beta  occ. eigenvalues --   -0.17541  -0.12614  -0.12352
  Beta virt. eigenvalues --   -0.06128  -0.05872  -0.05424  -0.05155  -0.02113
  Beta virt. eigenvalues --   -0.01982  -0.01595  -0.01508  -0.00923  -0.00890
  Beta virt. eigenvalues --   -0.00831   0.00179   0.00375   0.00744   0.00799

 Mulliken charges and spin densities:
               1          2
     1  Na  -0.030408  -0.011073
     2  Na   0.201934   0.028544
     3  Na   0.239878  -0.038454
     4  Na  -0.332537   0.324130
     5  Na  -0.213013   0.749379
     6  Na   0.177721  -0.008778
     7  Na  -0.043575  -0.043748
 Sum of Mulliken charges =  -0.00000   1.00000

 Dipole moment (field-independent basis, Debye):
    X=             -0.0250    Y=             -0.1983    Z=              0.1066  Tot=              0.2265
 Quadrupole moment (field-independent basis, Debye-Ang):
   XX=            -54.9480   YY=            -56.7446   ZZ=            -78.7060
   XY=             -0.8522   XZ=              1.1830   YZ=             -0.0371

 Normal termination of Gaussian 16 at Fri Dec  8 07:37:46 2023.
