 Gaussian 16, Revision B.01,
 Gaussian 16:  ES64L-G16RevB.01 20-Dec-2017

 -------------------------
 #P B3LYP/6-311+g(d) force
 -------------------------

 -----
 DPGEN
 -----
 Symbolic Z-matrix:
 Charge =  0 Multiplicity = 2

                         Standard orientation:
 ---------------------------------------------------------------------
 Center     Atomic      Atomic             Coordinates (Angstroms)
 Number     Number       Type             X           Y           Z
 ---------------------------------------------------------------------
      1         11           0       -2.478768    0.200836   -0.890832
      2         11           0       -3.697653   -2.675861   -0.369948
      3         11           0        2.924879   -1.099119    0.231482
      4         11           0       -2.238548    3.647301   -0.122864
      5         11           0        5.705732    0.043369   -0.759256
      6         11           0       -0.598294   -1.814581    0.945510
      7         11           0        0.382652    1.698055    0.965907
 ---------------------------------------------------------------------

 SCF Done:  E(UB3LYP) =  -1136.12688089     A.U. after   18 cycles

 The electronic state is 2-A.
 Alpha  occ. eigenvalues --  -38.44373 -38.44236 -38.44090 -38.44024 -38.43857
 Alpha  occ. eigenvalues --  -38.43684 -38.43284  -2.20189  -2.20056  -2.19981
 Alpha  occ. eigenvalues --   -2.19897  -2.19697  -2.19488  -2.19105  -1.13885
 Alpha  occ. eigenvalues --   -1.13880  -1.13783  -1.13708  -1.13700  -1.13684
 Alpha  occ. eigenvalues --   -1.13681  -1.13676  -1.13607  -1.13579  -1.13571
 Alpha  occ. eigenvalues --   -1.13481  -1.13353  -1.13345  -1.13308  -1.13152
 Alpha  occ. eigenvalues --   -1.13149  -1.13113  -1.12788  -1.12786  -1.12757
 Alpha  occ. eigenvalues --   -0.17128  -0.13797  -0.12626  -0.11185
 Alpha virt. eigenvalues --   -0.05510  -0.05390  -0.04889  -0.03828  -0.02518
 Alpha virt. eigenvalues --   -0.02181  -0.01889  -0.01839  -0.01056  -0.00858
 Alpha virt. eigenvalues --   -0.00398   0.00046   0.00254   0.00530   0.00662

  Beta  occ. eigenvalues --  -38.44353 -38.44141 -38.44072 -38.43981 -38.43834
  Beta  occ. eigenvalues --  -38.43668 -38.43283  -2.20156  -2.19949  -2.19880
  Beta  occ. eigenvalues --   -2.19820  -2.19655  -2.19460  -2.19114  -1.13863
  Beta  occ. eigenvalues --   -1.13855  -1.13750  -1.13675  -1.13654  -1.13585
  Beta  occ. eigenvalues --   -1.13576  -1.13564  -1.13562  -1.13532  -1.13526
  Beta  occ. eigenvalues --   -1.13408  -1.13317  -1.13316  -1.13283  -1.13130
  Beta  occ. eigenvalues --   -1.13129  -1.13097  -1.12802  -1.12800  -1.12696
  Beta  occ. eigenvalues --   -0.16544  -0.12949  -0.12450
  Beta virt. eigenvalues --   -0.07761  -0.05372  -0.05045  -0.04396  -0.03573
  Beta virt. eigenvalues --   -0.02202  -0.02010  -0.01766  -0.01361  -0.00797
  Beta virt. eigenvalues --   -0.00553  -0.00061   0.00161   0.00408   0.00623

 Mulliken charges and spin densities:
               1          2
     1  Na  -0.707744   0.227929
     2  Na   0.829575   0.111723
     3  Na  -0.449172   0.278740
     4  Na   0.501940   0.061302
     5  Na   0.589018   0.331596
     6  Na  -0.536276  -0.033180
     7  Na  -0.227341   0.021890
 Sum of Mulliken charges =  -0.00000   1.00000

 Dipole moment (field-independent basis, Debye):
    X=             -1.0293    Y=              0.1856    Z=              0.1264  Tot=              1.0535
 Quadrupole moment (field-independent basis, Debye-Ang):
   XX=            -63.4006   YY=            -61.5040   ZZ=            -70.2425
   XY=              4.4517   XZ=             -0.1368   YZ=             -0.5578

 Normal termination of Gaussian 16 at Wed Nov 29 02:58:57 2023.
