 Gaussian 16, Revision B.01,
 Gaussian 16:  ES64L-G16RevB.01 20-Dec-2017

 -------------------------
 #P B3LYP/6-311+g(d) force
 -------------------------

 -----
 DPGEN
 -----
 Symbolic Z-matrix:
 Charge =  0 Multiplicity = 2

                         Standard orientation:
 ---------------------------------------------------------------------
 Center     Atomic      Atomic             Coordinates (Angstroms)
 Number     Number       Type             X           Y           Z
 ---------------------------------------------------------------------
      1         11           0       -0.147789   -1.024320    1.826210
      2         11           0        2.460044   -2.095452    0.412096
      3         11           0       -3.537381   -1.163735   -0.443401
      4         11           0        0.386283    2.186515   -0.413810
      5         11           0       -2.513567    2.018683    0.699446
      6         11           0       -0.397711   -1.162718   -1.785963
      7         11           0        3.750121    1.241026   -0.294578
 ---------------------------------------------------------------------

 SCF Done:  E(UB3LYP) =  -1136.11975422     A.U. after   23 cycles

 The electronic state is 2-A.
 Alpha  occ. eigenvalues --  -38.45061 -38.44886 -38.44403 -38.43926 -38.43901
 Alpha  occ. eigenvalues --  -38.43846 -38.43144  -2.20854  -2.20654  -2.20238
 Alpha  occ. eigenvalues --   -2.19766  -2.19758  -2.19687  -2.18989  -1.14521
 Alpha  occ. eigenvalues --   -1.14510  -1.14494  -1.14321  -1.14309  -1.14291
 Alpha  occ. eigenvalues --   -1.13919  -1.13880  -1.13857  -1.13521  -1.13429
 Alpha  occ. eigenvalues --   -1.13413  -1.13395  -1.13388  -1.13386  -1.13342
 Alpha  occ. eigenvalues --   -1.13334  -1.13313  -1.12675  -1.12663  -1.12623
 Alpha  occ. eigenvalues --   -0.17840  -0.13651  -0.11851  -0.10705
 Alpha virt. eigenvalues --   -0.07244  -0.05735  -0.03900  -0.03365  -0.02998
 Alpha virt. eigenvalues --   -0.02545  -0.02342  -0.01654  -0.00629  -0.00362
 Alpha virt. eigenvalues --   -0.00035   0.00112   0.00387   0.00545   0.00646

  Beta  occ. eigenvalues --  -38.45042 -38.44871 -38.44348 -38.43914 -38.43830
  Beta  occ. eigenvalues --  -38.43826 -38.43142  -2.20822  -2.20626  -2.20137
  Beta  occ. eigenvalues --   -2.19741  -2.19651  -2.19633  -2.18989  -1.14494
  Beta  occ. eigenvalues --   -1.14479  -1.14471  -1.14300  -1.14289  -1.14272
  Beta  occ. eigenvalues --   -1.13851  -1.13811  -1.13778  -1.13470  -1.13402
  Beta  occ. eigenvalues --   -1.13376  -1.13367  -1.13337  -1.13306  -1.13299
  Beta  occ. eigenvalues --   -1.13294  -1.13258  -1.12678  -1.12652  -1.12612
  Beta  occ. eigenvalues --   -0.17253  -0.13372  -0.11475
  Beta virt. eigenvalues --   -0.07260  -0.06939  -0.05563  -0.03476  -0.03075
  Beta virt. eigenvalues --   -0.02650  -0.02100  -0.01680  -0.01412  -0.00587
  Beta virt. eigenvalues --   -0.00149   0.00054   0.00137   0.00542   0.00588

 Mulliken charges and spin densities:
               1          2
     1  Na  -0.349489   0.307572
     2  Na   0.475932   0.151543
     3  Na   0.134308   0.034453
     4  Na  -0.375715   0.013042
     5  Na   0.479245   0.098175
     6  Na  -0.171123   0.349746
     7  Na  -0.193158   0.045468
 Sum of Mulliken charges =  -0.00000   1.00000

 Dipole moment (field-independent basis, Debye):
    X=             -0.1600    Y=             -0.5793    Z=              0.1176  Tot=              0.6124
 Quadrupole moment (field-independent basis, Debye-Ang):
   XX=            -46.9252   YY=            -74.8844   ZZ=            -73.2850
   XY=             -0.9824   XZ=             -1.9180   YZ=              0.7038

 Normal termination of Gaussian 16 at Tue Nov 28 19:42:27 2023.
