 Gaussian 16, Revision B.01,
 Gaussian 16:  ES64L-G16RevB.01 20-Dec-2017

 -------------------------
 #P B3LYP/6-311+g(d) force
 -------------------------

 -----
 DPGEN
 -----
 Symbolic Z-matrix:
 Charge =  0 Multiplicity = 2

                         Standard orientation:
 ---------------------------------------------------------------------
 Center     Atomic      Atomic             Coordinates (Angstroms)
 Number     Number       Type             X           Y           Z
 ---------------------------------------------------------------------
      1         11           0        3.357154   -0.796980   -0.051803
      2         11           0        0.393681   -0.443873   -1.732051
      3         11           0       -2.989997   -0.751920   -0.923973
      4         11           0        1.474652    2.636049   -0.445755
      5         11           0       -2.135287    2.078020    0.707262
      6         11           0       -0.406855   -2.784129    0.686077
      7         11           0        0.306653    0.062833    1.760244
 ---------------------------------------------------------------------

 SCF Done:  E(UB3LYP) =  -1136.13366563     A.U. after   20 cycles

 The electronic state is 2-A.
 Alpha  occ. eigenvalues --  -38.44673 -38.43861 -38.43781 -38.43519 -38.43458
 Alpha  occ. eigenvalues --  -38.43447 -38.43315  -2.20459  -2.19691  -2.19585
 Alpha  occ. eigenvalues --   -2.19443  -2.19305  -2.19286  -2.19276  -1.14146
 Alpha  occ. eigenvalues --   -1.14110  -1.14092  -1.13368  -1.13349  -1.13324
 Alpha  occ. eigenvalues --   -1.13280  -1.13255  -1.13204  -1.13140  -1.13090
 Alpha  occ. eigenvalues --   -1.13070  -1.13057  -1.13000  -1.12952  -1.12942
 Alpha  occ. eigenvalues --   -1.12926  -1.12917  -1.12912  -1.12886  -1.12859
 Alpha  occ. eigenvalues --   -0.18378  -0.12970  -0.12129  -0.10949
 Alpha virt. eigenvalues --   -0.06061  -0.04999  -0.04399  -0.03308  -0.02976
 Alpha virt. eigenvalues --   -0.02571  -0.01850  -0.01073  -0.00534  -0.00036
 Alpha virt. eigenvalues --    0.00028   0.00347   0.00655   0.00784   0.00838

  Beta  occ. eigenvalues --  -38.44672 -38.43837 -38.43776 -38.43458 -38.43448
  Beta  occ. eigenvalues --  -38.43428 -38.43235  -2.20460  -2.19649  -2.19579
  Beta  occ. eigenvalues --   -2.19332  -2.19273  -2.19270  -2.19131  -1.14135
  Beta  occ. eigenvalues --   -1.14113  -1.14089  -1.13331  -1.13314  -1.13298
  Beta  occ. eigenvalues --   -1.13268  -1.13247  -1.13196  -1.13069  -1.13025
  Beta  occ. eigenvalues --   -1.13004  -1.12972  -1.12966  -1.12921  -1.12916
  Beta  occ. eigenvalues --   -1.12910  -1.12891  -1.12840  -1.12792  -1.12763
  Beta  occ. eigenvalues --   -0.17673  -0.12713  -0.11864
  Beta virt. eigenvalues --   -0.07099  -0.06023  -0.04892  -0.04275  -0.02682
  Beta virt. eigenvalues --   -0.02273  -0.01775  -0.01545  -0.00998  -0.00442
  Beta virt. eigenvalues --   -0.00050   0.00114   0.00381   0.00752   0.00799

 Mulliken charges and spin densities:
               1          2
     1  Na  -0.013816  -0.073329
     2  Na   0.104035   0.454553
     3  Na  -0.031932   0.117243
     4  Na  -0.206937  -0.001851
     5  Na  -0.064221   0.049351
     6  Na  -0.092518   0.069694
     7  Na   0.305389   0.384337
 Sum of Mulliken charges =  -0.00000   1.00000

 Dipole moment (field-independent basis, Debye):
    X=              0.6621    Y=             -0.1224    Z=             -0.1457  Tot=              0.6889
 Quadrupole moment (field-independent basis, Debye-Ang):
   XX=            -54.6539   YY=            -65.0119   ZZ=            -73.0374
   XY=             -0.3077   XZ=              0.5918   YZ=             -0.9607

 Normal termination of Gaussian 16 at Wed Nov 29 17:08:28 2023.
