 Gaussian 16, Revision B.01,
 Gaussian 16:  ES64L-G16RevB.01 20-Dec-2017

 -------------------------
 #P B3LYP/6-311+g(d) force
 -------------------------

 -----
 DPGEN
 -----
 Symbolic Z-matrix:
 Charge =  0 Multiplicity = 2

                         Standard orientation:
 ---------------------------------------------------------------------
 Center     Atomic      Atomic             Coordinates (Angstroms)
 Number     Number       Type             X           Y           Z
 ---------------------------------------------------------------------
      1         11           0       -3.873523   -0.396158   -0.706790
      2         11           0        1.039409   -2.731340    0.839510
      3         11           0       -3.146629    2.783142    0.583789
      4         11           0        0.329394    3.569127    0.146736
      5         11           0        3.750575    2.095648   -0.544050
      6         11           0        4.146033   -1.708463   -0.077904
      7         11           0       -2.245259   -3.611957   -0.241292
 ---------------------------------------------------------------------

 SCF Done:  E(UB3LYP) =  -1136.10773416     A.U. after   24 cycles

 The electronic state is 2-A.
 Alpha  occ. eigenvalues --  -38.45685 -38.45186 -38.45055 -38.44977 -38.44208
 Alpha  occ. eigenvalues --  -38.43837 -38.43706  -2.21432  -2.20951  -2.20794
 Alpha  occ. eigenvalues --   -2.20726  -2.19998  -2.19632  -2.19501  -1.15121
 Alpha  occ. eigenvalues --   -1.15103  -1.15058  -1.14637  -1.14628  -1.14575
 Alpha  occ. eigenvalues --   -1.14486  -1.14477  -1.14414  -1.14402  -1.14379
 Alpha  occ. eigenvalues --   -1.14345  -1.13659  -1.13650  -1.13629  -1.13293
 Alpha  occ. eigenvalues --   -1.13283  -1.13269  -1.13158  -1.13147  -1.13139
 Alpha  occ. eigenvalues --   -0.15364  -0.13797  -0.13409  -0.10819
 Alpha virt. eigenvalues --   -0.07844  -0.04811  -0.04719  -0.03539  -0.03448
 Alpha virt. eigenvalues --   -0.02310  -0.02197  -0.01917  -0.01625  -0.00918
 Alpha virt. eigenvalues --   -0.00655  -0.00318   0.00157   0.00326   0.00489

  Beta  occ. eigenvalues --  -38.45669 -38.45166 -38.45044 -38.44937 -38.44166
  Beta  occ. eigenvalues --  -38.43799 -38.43661  -2.21407  -2.20918  -2.20777
  Beta  occ. eigenvalues --   -2.20654  -2.19921  -2.19561  -2.19416  -1.15110
  Beta  occ. eigenvalues --   -1.15092  -1.15006  -1.14619  -1.14611  -1.14518
  Beta  occ. eigenvalues --   -1.14478  -1.14468  -1.14377  -1.14356  -1.14334
  Beta  occ. eigenvalues --   -1.14283  -1.13608  -1.13594  -1.13574  -1.13245
  Beta  occ. eigenvalues --   -1.13236  -1.13222  -1.13100  -1.13092  -1.13081
  Beta  occ. eigenvalues --   -0.14834  -0.13093  -0.12702
  Beta virt. eigenvalues --   -0.08053  -0.07647  -0.04380  -0.04215  -0.03355
  Beta virt. eigenvalues --   -0.03115  -0.02078  -0.02004  -0.01712  -0.01412
  Beta virt. eigenvalues --   -0.00609  -0.00452  -0.00078   0.00261   0.00288

 Mulliken charges and spin densities:
               1          2
     1  Na  -0.190706   0.136873
     2  Na  -0.770397   0.147380
     3  Na   0.074764   0.208793
     4  Na   0.045875   0.042839
     5  Na  -0.004119   0.124918
     6  Na   0.388092   0.118955
     7  Na   0.456493   0.220241
 Sum of Mulliken charges =  -0.00000   1.00000

 Dipole moment (field-independent basis, Debye):
    X=              0.0607    Y=             -0.0129    Z=             -0.1370  Tot=              0.1504
 Quadrupole moment (field-independent basis, Debye-Ang):
   XX=            -58.3249   YY=            -69.1896   ZZ=            -72.0861
   XY=              0.6495   XZ=             -0.3396   YZ=              0.6891

 Normal termination of Gaussian 16 at Sun Dec  3 11:59:23 2023.
