 Gaussian 16, Revision B.01,
 Gaussian 16:  ES64L-G16RevB.01 20-Dec-2017

 -------------------------
 #P B3LYP/6-311+g(d) force
 -------------------------

 -----
 DPGEN
 -----
 Symbolic Z-matrix:
 Charge =  0 Multiplicity = 2

                         Standard orientation:
 ---------------------------------------------------------------------
 Center     Atomic      Atomic             Coordinates (Angstroms)
 Number     Number       Type             X           Y           Z
 ---------------------------------------------------------------------
      1         11           0        1.948880    2.034639   -0.818646
      2         11           0       -2.508572   -2.525351   -0.645088
      3         11           0        4.148416   -1.691583    0.157580
      4         11           0        0.101342   -0.141547   -1.297636
      5         11           0       -2.894609    0.402673    0.009596
      6         11           0       -0.778456    2.718892    0.621348
      7         11           0       -0.017002   -0.797722    1.972846
 ---------------------------------------------------------------------

 SCF Done:  E(UB3LYP) =  -1136.11303898     A.U. after   24 cycles

 The electronic state is 2-A.
 Alpha  occ. eigenvalues --  -38.44992 -38.44402 -38.44224 -38.44153 -38.44013
 Alpha  occ. eigenvalues --  -38.43964 -38.43104  -2.20677  -2.20237  -2.20167
 Alpha  occ. eigenvalues --   -2.20047  -2.19945  -2.19866  -2.19010  -1.14368
 Alpha  occ. eigenvalues --   -1.14357  -1.14312  -1.13938  -1.13910  -1.13880
 Alpha  occ. eigenvalues --   -1.13864  -1.13857  -1.13837  -1.13801  -1.13698
 Alpha  occ. eigenvalues --   -1.13637  -1.13622  -1.13546  -1.13527  -1.13515
 Alpha  occ. eigenvalues --   -1.13499  -1.13479  -1.12701  -1.12660  -1.12640
 Alpha  occ. eigenvalues --   -0.18604  -0.13392  -0.11783  -0.10763
 Alpha virt. eigenvalues --   -0.06843  -0.05638  -0.04213  -0.03121  -0.02825
 Alpha virt. eigenvalues --   -0.02554  -0.02034  -0.01660  -0.00683  -0.00292
 Alpha virt. eigenvalues --   -0.00043   0.00143   0.00386   0.00590   0.00678

  Beta  occ. eigenvalues --  -38.45023 -38.44309 -38.44203 -38.44123 -38.43992
  Beta  occ. eigenvalues --  -38.43919 -38.43087  -2.20735  -2.20134  -2.20066
  Beta  occ. eigenvalues --   -2.19993  -2.19866  -2.19830  -2.18983  -1.14408
  Beta  occ. eigenvalues --   -1.14394  -1.14350  -1.13864  -1.13848  -1.13844
  Beta  occ. eigenvalues --   -1.13815  -1.13755  -1.13743  -1.13704  -1.13657
  Beta  occ. eigenvalues --   -1.13595  -1.13555  -1.13497  -1.13491  -1.13478
  Beta  occ. eigenvalues --   -1.13460  -1.13446  -1.12681  -1.12647  -1.12592
  Beta  occ. eigenvalues --   -0.17799  -0.13087  -0.11649
  Beta virt. eigenvalues --   -0.07063  -0.06618  -0.05457  -0.03962  -0.02606
  Beta virt. eigenvalues --   -0.02330  -0.02155  -0.01546  -0.01222  -0.00739
  Beta virt. eigenvalues --   -0.00108   0.00030   0.00205   0.00553   0.00652

 Mulliken charges and spin densities:
               1          2
     1  Na   0.840245  -0.004534
     2  Na   0.519162   0.049607
     3  Na  -0.066472  -0.178833
     4  Na  -0.864439   0.244230
     5  Na   0.262883   0.168731
     6  Na  -0.165587   0.129799
     7  Na  -0.525791   0.590999
 Sum of Mulliken charges =  -0.00000   1.00000

 Dipole moment (field-independent basis, Debye):
    X=             -0.1358    Y=             -0.2858    Z=              0.2565  Tot=              0.4073
 Quadrupole moment (field-independent basis, Debye-Ang):
   XX=            -56.6836   YY=            -63.2265   ZZ=            -74.3529
   XY=              1.3656   XZ=             -0.5052   YZ=              1.1192

 Normal termination of Gaussian 16 at Thu Dec  7 16:35:03 2023.
