 Gaussian 16, Revision B.01,
 Gaussian 16:  ES64L-G16RevB.01 20-Dec-2017

 -------------------------
 #P B3LYP/6-311+g(d) force
 -------------------------

 -----
 DPGEN
 -----
 Symbolic Z-matrix:
 Charge =  0 Multiplicity = 2

                         Standard orientation:
 ---------------------------------------------------------------------
 Center     Atomic      Atomic             Coordinates (Angstroms)
 Number     Number       Type             X           Y           Z
 ---------------------------------------------------------------------
      1         11           0       -0.586435    0.529394   -0.090815
      2         11           0       -1.314561   -3.222204   -0.750026
      3         11           0       -3.009258    2.843734    0.144170
      4         11           0       -3.771303   -0.415023    0.570967
      5         11           0        2.950220    2.979694   -0.825897
      6         11           0        3.899294   -0.362147    1.084108
      7         11           0        1.832041   -2.353449   -0.132507
 ---------------------------------------------------------------------

 SCF Done:  E(UB3LYP) =  -1136.11694987     A.U. after   24 cycles

 The electronic state is 2-A.
 Alpha  occ. eigenvalues --  -38.45695 -38.44995 -38.44431 -38.43899 -38.43851
 Alpha  occ. eigenvalues --  -38.43574 -38.43140  -2.21499  -2.20814  -2.20253
 Alpha  occ. eigenvalues --   -2.19716  -2.19623  -2.19444  -2.18953  -1.15189
 Alpha  occ. eigenvalues --   -1.15171  -1.15112  -1.14542  -1.14462  -1.14443
 Alpha  occ. eigenvalues --   -1.13915  -1.13908  -1.13877  -1.13432  -1.13376
 Alpha  occ. eigenvalues --   -1.13327  -1.13274  -1.13264  -1.13231  -1.13114
 Alpha  occ. eigenvalues --   -1.13107  -1.13070  -1.12620  -1.12614  -1.12589
 Alpha  occ. eigenvalues --   -0.16764  -0.14159  -0.12411  -0.10154
 Alpha virt. eigenvalues --   -0.06954  -0.05757  -0.04006  -0.03961  -0.02734
 Alpha virt. eigenvalues --   -0.02521  -0.02140  -0.01659  -0.01066  -0.00668
 Alpha virt. eigenvalues --   -0.00369   0.00062   0.00304   0.00446   0.00611

  Beta  occ. eigenvalues --  -38.45691 -38.44999 -38.44409 -38.43856 -38.43756
  Beta  occ. eigenvalues --  -38.43541 -38.43129  -2.21494  -2.20820  -2.20213
  Beta  occ. eigenvalues --   -2.19643  -2.19446  -2.19388  -2.18932  -1.15189
  Beta  occ. eigenvalues --   -1.15170  -1.15088  -1.14543  -1.14469  -1.14448
  Beta  occ. eigenvalues --   -1.13887  -1.13881  -1.13849  -1.13366  -1.13331
  Beta  occ. eigenvalues --   -1.13264  -1.13154  -1.13142  -1.13116  -1.13079
  Beta  occ. eigenvalues --   -1.13075  -1.13003  -1.12605  -1.12603  -1.12571
  Beta  occ. eigenvalues --   -0.16568  -0.13520  -0.11848
  Beta virt. eigenvalues --   -0.06954  -0.06659  -0.05494  -0.03888  -0.03639
  Beta virt. eigenvalues --   -0.02398  -0.02103  -0.01905  -0.01458  -0.00892
  Beta virt. eigenvalues --   -0.00323  -0.00084   0.00236   0.00451   0.00483

 Mulliken charges and spin densities:
               1          2
     1  Na  -3.435163  -0.172802
     2  Na   0.553790   0.095328
     3  Na   0.622543   0.132076
     4  Na   1.192843   0.076546
     5  Na   0.186053   0.438942
     6  Na   0.253904   0.021094
     7  Na   0.626030   0.408816
 Sum of Mulliken charges =  -0.00000   1.00000

 Dipole moment (field-independent basis, Debye):
    X=             -2.5228    Y=              0.1700    Z=              0.4145  Tot=              2.5623
 Quadrupole moment (field-independent basis, Debye-Ang):
   XX=            -57.6775   YY=            -67.7900   ZZ=            -72.0354
   XY=              0.6192   XZ=             -0.4416   YZ=              0.7208

 Normal termination of Gaussian 16 at Fri Dec  8 17:32:54 2023.
