 Gaussian 16, Revision B.01,
 Gaussian 16:  ES64L-G16RevB.01 20-Dec-2017

 -------------------------
 #P B3LYP/6-311+g(d) force
 -------------------------

 -----
 DPGEN
 -----
 Symbolic Z-matrix:
 Charge =  0 Multiplicity = 2

                         Standard orientation:
 ---------------------------------------------------------------------
 Center     Atomic      Atomic             Coordinates (Angstroms)
 Number     Number       Type             X           Y           Z
 ---------------------------------------------------------------------
      1         11           0       -3.628295   -0.153962    0.212965
      2         11           0       -1.986887    2.583378   -0.454559
      3         11           0        3.682432    1.546291   -0.156654
      4         11           0       -1.479945   -2.369938   -0.538973
      5         11           0        0.376760   -0.066176    2.133865
      6         11           0        0.408057    0.250663   -0.896217
      7         11           0        2.627879   -1.790257   -0.300428
 ---------------------------------------------------------------------

 SCF Done:  E(UB3LYP) =  -1136.11505398     A.U. after   25 cycles

 The electronic state is 2-A.
 Alpha  occ. eigenvalues --  -38.44909 -38.44828 -38.44585 -38.43984 -38.43759
 Alpha  occ. eigenvalues --  -38.43454 -38.42934  -2.20744  -2.20611  -2.20436
 Alpha  occ. eigenvalues --   -2.20002  -2.19644  -2.19269  -2.18791  -1.14415
 Alpha  occ. eigenvalues --   -1.14405  -1.14383  -1.14279  -1.14266  -1.14246
 Alpha  occ. eigenvalues --   -1.14171  -1.14096  -1.14031  -1.13778  -1.13653
 Alpha  occ. eigenvalues --   -1.13616  -1.13308  -1.13248  -1.13230  -1.12953
 Alpha  occ. eigenvalues --   -1.12924  -1.12910  -1.12487  -1.12456  -1.12413
 Alpha  occ. eigenvalues --   -0.18264  -0.14126  -0.11340  -0.10317
 Alpha virt. eigenvalues --   -0.07109  -0.05954  -0.03872  -0.03300  -0.02771
 Alpha virt. eigenvalues --   -0.02213  -0.01974  -0.01796  -0.00913  -0.00231
 Alpha virt. eigenvalues --   -0.00176   0.00021   0.00511   0.00623   0.00681

  Beta  occ. eigenvalues --  -38.44896 -38.44804 -38.44573 -38.43974 -38.43635
  Beta  occ. eigenvalues --  -38.43458 -38.42926  -2.20720  -2.20569  -2.20416
  Beta  occ. eigenvalues --   -2.19989  -2.19416  -2.19277  -2.18778  -1.14399
  Beta  occ. eigenvalues --   -1.14382  -1.14367  -1.14251  -1.14226  -1.14220
  Beta  occ. eigenvalues --   -1.14160  -1.14068  -1.14007  -1.13718  -1.13646
  Beta  occ. eigenvalues --   -1.13614  -1.13160  -1.13094  -1.13070  -1.12961
  Beta  occ. eigenvalues --   -1.12931  -1.12904  -1.12479  -1.12447  -1.12389
  Beta  occ. eigenvalues --   -0.17638  -0.13755  -0.11208
  Beta virt. eigenvalues --   -0.06963  -0.06431  -0.05814  -0.03785  -0.02752
  Beta virt. eigenvalues --   -0.02599  -0.01774  -0.01452  -0.01262  -0.00768
  Beta virt. eigenvalues --   -0.00176   0.00006   0.00162   0.00605   0.00659

 Mulliken charges and spin densities:
               1          2
     1  Na   0.152448   0.058606
     2  Na   0.432235   0.037360
     3  Na   0.045086   0.182635
     4  Na   0.376787   0.034612
     5  Na  -0.247518   0.440652
     6  Na  -1.540729   0.125805
     7  Na   0.781693   0.120328
 Sum of Mulliken charges =  -0.00000   1.00000

 Dipole moment (field-independent basis, Debye):
    X=              0.6273    Y=             -0.0439    Z=              0.7503  Tot=              0.9790
 Quadrupole moment (field-independent basis, Debye-Ang):
   XX=            -52.6391   YY=            -68.8192   ZZ=            -73.4406
   XY=              0.3993   XZ=             -0.6976   YZ=             -0.5025

 Normal termination of Gaussian 16 at Tue Dec  5 20:00:04 2023.
