 Gaussian 16, Revision B.01,
 Gaussian 16:  ES64L-G16RevB.01 20-Dec-2017

 -------------------------
 #P B3LYP/6-311+g(d) force
 -------------------------

 -----
 DPGEN
 -----
 Symbolic Z-matrix:
 Charge =  0 Multiplicity = 2

                         Standard orientation:
 ---------------------------------------------------------------------
 Center     Atomic      Atomic             Coordinates (Angstroms)
 Number     Number       Type             X           Y           Z
 ---------------------------------------------------------------------
      1         11           0        0.091056    0.923388   -0.570385
      2         11           0       -2.399219    3.707068    0.433966
      3         11           0       -3.129771    0.706478   -0.350533
      4         11           0       -0.297747   -2.032056    1.520711
      5         11           0        2.865786   -0.894469    0.014123
      6         11           0       -2.518436   -3.284212   -0.765759
      7         11           0        5.388332    0.873803   -0.282123
 ---------------------------------------------------------------------

 SCF Done:  E(UB3LYP) =  -1136.11957496     A.U. after   21 cycles

 The electronic state is 2-A.
 Alpha  occ. eigenvalues --  -38.44889 -38.44758 -38.44487 -38.44241 -38.43710
 Alpha  occ. eigenvalues --  -38.43604 -38.42965  -2.20738  -2.20555  -2.20339
 Alpha  occ. eigenvalues --   -2.20058  -2.19503  -2.19434  -2.18837  -1.14436
 Alpha  occ. eigenvalues --   -1.14425  -1.14338  -1.14242  -1.14216  -1.14187
 Alpha  occ. eigenvalues --   -1.14045  -1.14013  -1.13906  -1.13747  -1.13714
 Alpha  occ. eigenvalues --   -1.13688  -1.13163  -1.13151  -1.13125  -1.13100
 Alpha  occ. eigenvalues --   -1.13061  -1.13055  -1.12523  -1.12503  -1.12483
 Alpha  occ. eigenvalues --   -0.17036  -0.13813  -0.12639  -0.10397
 Alpha virt. eigenvalues --   -0.06561  -0.05483  -0.04725  -0.03388  -0.02722
 Alpha virt. eigenvalues --   -0.02369  -0.02240  -0.01670  -0.01105  -0.00567
 Alpha virt. eigenvalues --   -0.00341  -0.00252   0.00404   0.00484   0.00580

  Beta  occ. eigenvalues --  -38.44860 -38.44759 -38.44471 -38.44223 -38.43661
  Beta  occ. eigenvalues --  -38.43514 -38.42959  -2.20687  -2.20555  -2.20310
  Beta  occ. eigenvalues --   -2.20030  -2.19412  -2.19267  -2.18834  -1.14410
  Beta  occ. eigenvalues --   -1.14388  -1.14291  -1.14240  -1.14217  -1.14186
  Beta  occ. eigenvalues --   -1.14025  -1.13992  -1.13880  -1.13731  -1.13698
  Beta  occ. eigenvalues --   -1.13642  -1.13102  -1.13086  -1.13068  -1.12993
  Beta  occ. eigenvalues --   -1.12947  -1.12942  -1.12530  -1.12510  -1.12412
  Beta  occ. eigenvalues --   -0.16557  -0.13308  -0.12129
  Beta virt. eigenvalues --   -0.07024  -0.06456  -0.05150  -0.04353  -0.03063
  Beta virt. eigenvalues --   -0.02525  -0.02240  -0.01938  -0.01344  -0.00864
  Beta virt. eigenvalues --   -0.00217  -0.00140   0.00007   0.00465   0.00601

 Mulliken charges and spin densities:
               1          2
     1  Na  -1.055956  -0.133272
     2  Na   0.454217  -0.054532
     3  Na   0.227594   0.319296
     4  Na   0.342513   0.055258
     5  Na  -0.451606   0.233298
     6  Na   0.189177   0.288576
     7  Na   0.294062   0.291376
 Sum of Mulliken charges =  -0.00000   1.00000

 Dipole moment (field-independent basis, Debye):
    X=             -1.4501    Y=              1.2719    Z=              0.6033  Tot=              2.0210
 Quadrupole moment (field-independent basis, Debye-Ang):
   XX=            -75.7907   YY=            -58.7783   ZZ=            -67.5754
   XY=             -3.9926   XZ=             -0.1436   YZ=              1.3280

 Normal termination of Gaussian 16 at Wed Nov 29 01:19:08 2023.
