 Gaussian 16, Revision B.01,
 Gaussian 16:  ES64L-G16RevB.01 20-Dec-2017

 -------------------------
 #P B3LYP/6-311+g(d) force
 -------------------------

 -----
 DPGEN
 -----
 Symbolic Z-matrix:
 Charge =  0 Multiplicity = 2

                         Standard orientation:
 ---------------------------------------------------------------------
 Center     Atomic      Atomic             Coordinates (Angstroms)
 Number     Number       Type             X           Y           Z
 ---------------------------------------------------------------------
      1         11           0       -3.686151   -1.939649   -0.181328
      2         11           0        3.298717    0.395654   -1.028707
      3         11           0        2.864572   -1.955214    0.788684
      4         11           0       -2.493585    1.803277   -0.817642
      5         11           0        0.943326    2.248547    0.334787
      6         11           0       -0.004961   -1.077577   -1.150873
      7         11           0       -0.921917    0.524962    2.055080
 ---------------------------------------------------------------------

 SCF Done:  E(UB3LYP) =  -1136.11845955     A.U. after   24 cycles

 The electronic state is 2-A.
 Alpha  occ. eigenvalues --  -38.44953 -38.44554 -38.44515 -38.44319 -38.44188
 Alpha  occ. eigenvalues --  -38.43563 -38.42739  -2.20749  -2.20379  -2.20352
 Alpha  occ. eigenvalues --   -2.20212  -2.19923  -2.19457  -2.18644  -1.14442
 Alpha  occ. eigenvalues --   -1.14409  -1.14355  -1.14111  -1.14096  -1.14061
 Alpha  occ. eigenvalues --   -1.14009  -1.13984  -1.13965  -1.13864  -1.13855
 Alpha  occ. eigenvalues --   -1.13802  -1.13604  -1.13598  -1.13557  -1.13153
 Alpha  occ. eigenvalues --   -1.13080  -1.13071  -1.12334  -1.12306  -1.12270
 Alpha  occ. eigenvalues --   -0.18059  -0.13954  -0.11433  -0.10368
 Alpha virt. eigenvalues --   -0.06525  -0.06373  -0.04348  -0.03318  -0.02499
 Alpha virt. eigenvalues --   -0.02438  -0.02333  -0.01526  -0.00840  -0.00373
 Alpha virt. eigenvalues --    0.00043   0.00130   0.00431   0.00450   0.00617

  Beta  occ. eigenvalues --  -38.44938 -38.44534 -38.44494 -38.44290 -38.44205
  Beta  occ. eigenvalues --  -38.43482 -38.42720  -2.20721  -2.20346  -2.20312
  Beta  occ. eigenvalues --   -2.20160  -2.19955  -2.19307  -2.18615  -1.14413
  Beta  occ. eigenvalues --   -1.14391  -1.14338  -1.14082  -1.14061  -1.14025
  Beta  occ. eigenvalues --   -1.13983  -1.13950  -1.13941  -1.13828  -1.13813
  Beta  occ. eigenvalues --   -1.13764  -1.13624  -1.13617  -1.13578  -1.13055
  Beta  occ. eigenvalues --   -1.12973  -1.12963  -1.12308  -1.12260  -1.12247
  Beta  occ. eigenvalues --   -0.17386  -0.13766  -0.11266
  Beta virt. eigenvalues --   -0.06735  -0.06345  -0.06079  -0.03866  -0.03131
  Beta virt. eigenvalues --   -0.02398  -0.01903  -0.01704  -0.01153  -0.00730
  Beta virt. eigenvalues --   -0.00123   0.00101   0.00200   0.00550   0.00563

 Mulliken charges and spin densities:
               1          2
     1  Na   0.053891  -0.116980
     2  Na   1.090438  -0.031977
     3  Na  -0.115688   0.095265
     4  Na   0.209926  -0.012535
     5  Na  -0.329739   0.252526
     6  Na  -1.001830   0.308710
     7  Na   0.093002   0.504992
 Sum of Mulliken charges =  -0.00000   1.00000

 Dipole moment (field-independent basis, Debye):
    X=             -0.0572    Y=             -0.0086    Z=             -0.0314  Tot=              0.0658
 Quadrupole moment (field-independent basis, Debye-Ang):
   XX=            -52.8849   YY=            -70.0823   ZZ=            -72.4735
   XY=             -2.6641   XZ=             -0.0041   YZ=             -3.9661

 Normal termination of Gaussian 16 at Thu Dec  7 07:24:25 2023.
