 Gaussian 16, Revision B.01,
 Gaussian 16:  ES64L-G16RevB.01 20-Dec-2017

 -------------------------
 #P B3LYP/6-311+g(d) force
 -------------------------

 -----
 DPGEN
 -----
 Symbolic Z-matrix:
 Charge =  0 Multiplicity = 2

                         Standard orientation:
 ---------------------------------------------------------------------
 Center     Atomic      Atomic             Coordinates (Angstroms)
 Number     Number       Type             X           Y           Z
 ---------------------------------------------------------------------
      1         11           0       -1.730982    2.173017    0.290649
      2         11           0        0.371904   -2.651139    0.185325
      3         11           0       -3.264474   -0.680805   -0.557580
      4         11           0       -0.127370   -0.017540   -1.740306
      5         11           0        2.140537    2.358360    0.007325
      6         11           0       -0.666366   -0.341692    1.919626
      7         11           0        3.276750   -0.840201   -0.105040
 ---------------------------------------------------------------------

 SCF Done:  E(UB3LYP) =  -1136.13157756     A.U. after   21 cycles

 The electronic state is 2-A.
 Alpha  occ. eigenvalues --  -38.44675 -38.44516 -38.43724 -38.43538 -38.43468
 Alpha  occ. eigenvalues --  -38.43450 -38.42878  -2.20514  -2.20319  -2.19656
 Alpha  occ. eigenvalues --   -2.19484  -2.19340  -2.19263  -2.18774  -1.14184
 Alpha  occ. eigenvalues --   -1.14169  -1.14150  -1.13995  -1.13975  -1.13964
 Alpha  occ. eigenvalues --   -1.13352  -1.13310  -1.13266  -1.13186  -1.13162
 Alpha  occ. eigenvalues --   -1.13088  -1.13004  -1.12997  -1.12953  -1.12939
 Alpha  occ. eigenvalues --   -1.12928  -1.12903  -1.12471  -1.12440  -1.12381
 Alpha  occ. eigenvalues --   -0.18630  -0.13459  -0.11990  -0.10845
 Alpha virt. eigenvalues --   -0.06282  -0.05294  -0.04158  -0.03363  -0.02694
 Alpha virt. eigenvalues --   -0.02551  -0.02073  -0.01036  -0.00336  -0.00271
 Alpha virt. eigenvalues --   -0.00063   0.00293   0.00700   0.00816   0.00863

  Beta  occ. eigenvalues --  -38.44655 -38.44518 -38.43659 -38.43472 -38.43448
  Beta  occ. eigenvalues --  -38.43435 -38.42869  -2.20479  -2.20324  -2.19539
  Beta  occ. eigenvalues --   -2.19322  -2.19315  -2.19271  -2.18761  -1.14154
  Beta  occ. eigenvalues --   -1.14135  -1.14122  -1.13993  -1.13976  -1.13970
  Beta  occ. eigenvalues --   -1.13275  -1.13230  -1.13171  -1.13092  -1.13053
  Beta  occ. eigenvalues --   -1.12979  -1.12976  -1.12942  -1.12939  -1.12930
  Beta  occ. eigenvalues --   -1.12930  -1.12906  -1.12460  -1.12401  -1.12377
  Beta  occ. eigenvalues --   -0.17906  -0.13252  -0.11749
  Beta virt. eigenvalues --   -0.06901  -0.06175  -0.05272  -0.04119  -0.02675
  Beta virt. eigenvalues --   -0.01973  -0.01932  -0.01498  -0.00984  -0.00344
  Beta virt. eigenvalues --   -0.00292   0.00092   0.00341   0.00782   0.00871

 Mulliken charges and spin densities:
               1          2
     1  Na  -0.018069   0.014653
     2  Na   0.153494  -0.111856
     3  Na   0.286700   0.033508
     4  Na  -0.205789   0.643383
     5  Na  -0.088752  -0.098180
     6  Na  -0.047927   0.589703
     7  Na  -0.079657  -0.071211
 Sum of Mulliken charges =  -0.00000   1.00000

 Dipole moment (field-independent basis, Debye):
    X=             -0.2173    Y=             -0.1754    Z=             -0.0970  Tot=              0.2956
 Quadrupole moment (field-independent basis, Debye-Ang):
   XX=            -51.6948   YY=            -67.9637   ZZ=            -74.0469
   XY=             -0.1010   XZ=              1.0781   YZ=              1.0468

 Normal termination of Gaussian 16 at Mon Dec  4 00:11:06 2023.
