 Gaussian 16, Revision B.01,
 Gaussian 16:  ES64L-G16RevB.01 20-Dec-2017

 -------------------------
 #P B3LYP/6-311+g(d) force
 -------------------------

 -----
 DPGEN
 -----
 Symbolic Z-matrix:
 Charge =  0 Multiplicity = 2

                         Standard orientation:
 ---------------------------------------------------------------------
 Center     Atomic      Atomic             Coordinates (Angstroms)
 Number     Number       Type             X           Y           Z
 ---------------------------------------------------------------------
      1         11           0        1.536145    2.575948   -0.606047
      2         11           0        1.446533   -0.346872    1.918460
      3         11           0        3.385249   -1.026429   -0.561259
      4         11           0       -3.722059   -0.770223   -0.387165
      5         11           0       -1.982067    1.646292    1.018363
      6         11           0       -0.215345   -2.215758    0.057281
      7         11           0       -0.448456    0.137042   -1.439632
 ---------------------------------------------------------------------

 SCF Done:  E(UB3LYP) =  -1136.12059691     A.U. after   22 cycles

 The electronic state is 2-A.
 Alpha  occ. eigenvalues --  -38.45319 -38.44859 -38.43769 -38.43568 -38.43562
 Alpha  occ. eigenvalues --  -38.43560 -38.42823  -2.21110  -2.20666  -2.19620
 Alpha  occ. eigenvalues --   -2.19584  -2.19490  -2.19475  -2.18641  -1.14807
 Alpha  occ. eigenvalues --   -1.14750  -1.14742  -1.14344  -1.14331  -1.14293
 Alpha  occ. eigenvalues --   -1.13548  -1.13337  -1.13277  -1.13264  -1.13238
 Alpha  occ. eigenvalues --   -1.13201  -1.13160  -1.13117  -1.13101  -1.13073
 Alpha  occ. eigenvalues --   -1.13068  -1.13004  -1.12333  -1.12293  -1.12269
 Alpha  occ. eigenvalues --   -0.18536  -0.13758  -0.11503  -0.10593
 Alpha virt. eigenvalues --   -0.06965  -0.05110  -0.03928  -0.03395  -0.02738
 Alpha virt. eigenvalues --   -0.02395  -0.02224  -0.01218  -0.00494  -0.00043
 Alpha virt. eigenvalues --    0.00080   0.00193   0.00471   0.00744   0.00825

  Beta  occ. eigenvalues --  -38.45316 -38.44861 -38.43741 -38.43548 -38.43510
  Beta  occ. eigenvalues --  -38.43488 -38.42813  -2.21107  -2.20671  -2.19568
  Beta  occ. eigenvalues --   -2.19500  -2.19451  -2.19343  -2.18626  -1.14796
  Beta  occ. eigenvalues --   -1.14744  -1.14737  -1.14343  -1.14332  -1.14295
  Beta  occ. eigenvalues --   -1.13500  -1.13296  -1.13226  -1.13208  -1.13192
  Beta  occ. eigenvalues --   -1.13134  -1.13096  -1.13036  -1.13033  -1.13013
  Beta  occ. eigenvalues --   -1.12995  -1.12953  -1.12315  -1.12283  -1.12254
  Beta  occ. eigenvalues --   -0.17835  -0.13586  -0.11242
  Beta virt. eigenvalues --   -0.06826  -0.06788  -0.04935  -0.03646  -0.03067
  Beta virt. eigenvalues --   -0.02550  -0.01824  -0.01308  -0.01080  -0.00266
  Beta virt. eigenvalues --    0.00030   0.00091   0.00222   0.00619   0.00788

 Mulliken charges and spin densities:
               1          2
     1  Na  -0.067779   0.016618
     2  Na   0.067189   0.475547
     3  Na   0.085494  -0.015723
     4  Na   0.546498  -0.019022
     5  Na  -0.252728   0.209716
     6  Na  -0.032645  -0.028559
     7  Na  -0.346029   0.361422
 Sum of Mulliken charges =  -0.00000   1.00000

 Dipole moment (field-independent basis, Debye):
    X=             -0.0764    Y=             -0.3975    Z=             -0.0445  Tot=              0.4072
 Quadrupole moment (field-independent basis, Debye-Ang):
   XX=            -44.0112   YY=            -73.0852   ZZ=            -73.2914
   XY=              0.0081   XZ=             -2.0226   YZ=              2.0704

 Normal termination of Gaussian 16 at Tue Dec  5 20:18:46 2023.
