 Gaussian 16, Revision B.01,
 Gaussian 16:  ES64L-G16RevB.01 20-Dec-2017

 -------------------------
 #P B3LYP/6-311+g(d) force
 -------------------------

 -----
 DPGEN
 -----
 Symbolic Z-matrix:
 Charge =  0 Multiplicity = 2

                         Standard orientation:
 ---------------------------------------------------------------------
 Center     Atomic      Atomic             Coordinates (Angstroms)
 Number     Number       Type             X           Y           Z
 ---------------------------------------------------------------------
      1         11           0        1.697316    1.569710    1.001802
      2         11           0        1.609036   -2.025409    0.784968
      3         11           0       -0.220979   -0.160669   -1.460468
      4         11           0        3.806620   -0.108962   -1.317966
      5         11           0       -1.729472    2.493542   -0.123471
      6         11           0       -3.885721   -1.160936   -1.127328
      7         11           0       -1.276801   -0.607276    2.242461
 ---------------------------------------------------------------------

 SCF Done:  E(UB3LYP) =  -1136.12117084     A.U. after   29 cycles

 The electronic state is 2-A.
 Alpha  occ. eigenvalues --  -38.44836 -38.44652 -38.44607 -38.44536 -38.43503
 Alpha  occ. eigenvalues --  -38.43500 -38.42939  -2.20634  -2.20468  -2.20402
 Alpha  occ. eigenvalues --   -2.20358  -2.19354  -2.19343  -2.18750  -1.14300
 Alpha  occ. eigenvalues --   -1.14282  -1.14252  -1.14143  -1.14115  -1.14093
 Alpha  occ. eigenvalues --   -1.14092  -1.14065  -1.14027  -1.14012  -1.14009
 Alpha  occ. eigenvalues --   -1.13972  -1.13062  -1.13039  -1.13024  -1.13019
 Alpha  occ. eigenvalues --   -1.12965  -1.12947  -1.12446  -1.12410  -1.12369
 Alpha  occ. eigenvalues --   -0.17957  -0.13485  -0.11634  -0.10732
 Alpha virt. eigenvalues --   -0.06624  -0.05395  -0.04731  -0.03091  -0.02765
 Alpha virt. eigenvalues --   -0.02545  -0.02286  -0.01463  -0.00834  -0.00314
 Alpha virt. eigenvalues --    0.00073   0.00223   0.00301   0.00445   0.00622

  Beta  occ. eigenvalues --  -38.44802 -38.44580 -38.44563 -38.44515 -38.43494
  Beta  occ. eigenvalues --  -38.43485 -38.42936  -2.20570  -2.20364  -2.20337
  Beta  occ. eigenvalues --   -2.20275  -2.19337  -2.19325  -2.18748  -1.14256
  Beta  occ. eigenvalues --   -1.14238  -1.14212  -1.14082  -1.14045  -1.14040
  Beta  occ. eigenvalues --   -1.14000  -1.13998  -1.13984  -1.13965  -1.13951
  Beta  occ. eigenvalues --   -1.13920  -1.13050  -1.13029  -1.13005  -1.12988
  Beta  occ. eigenvalues --   -1.12949  -1.12922  -1.12439  -1.12409  -1.12363
  Beta  occ. eigenvalues --   -0.17305  -0.13064  -0.10532
  Beta virt. eigenvalues --   -0.07923  -0.06345  -0.05050  -0.04446  -0.02763
  Beta virt. eigenvalues --   -0.02371  -0.01994  -0.01909  -0.01114  -0.00711
  Beta virt. eigenvalues --   -0.00176   0.00125   0.00295   0.00362   0.00567

 Mulliken charges and spin densities:
               1          2
     1  Na   0.001128   0.129697
     2  Na  -0.074025   0.241995
     3  Na  -0.318352   0.078964
     4  Na   0.407041   0.105910
     5  Na  -0.031468   0.009550
     6  Na  -0.003729   0.201906
     7  Na   0.019405   0.231977
 Sum of Mulliken charges =  -0.00000   1.00000

 Dipole moment (field-independent basis, Debye):
    X=              0.4410    Y=              0.0012    Z=             -0.0491  Tot=              0.4437
 Quadrupole moment (field-independent basis, Debye-Ang):
   XX=            -51.1847   YY=            -78.0486   ZZ=            -65.0915
   XY=             -0.8169   XZ=             -3.3758   YZ=              0.3970

 Normal termination of Gaussian 16 at Wed Nov 29 16:56:45 2023.
