 Gaussian 16, Revision B.01,
 Gaussian 16:  ES64L-G16RevB.01 20-Dec-2017

 -------------------------
 #P B3LYP/6-311+g(d) force
 -------------------------

 -----
 DPGEN
 -----
 Symbolic Z-matrix:
 Charge =  0 Multiplicity = 2

                         Standard orientation:
 ---------------------------------------------------------------------
 Center     Atomic      Atomic             Coordinates (Angstroms)
 Number     Number       Type             X           Y           Z
 ---------------------------------------------------------------------
      1         11           0       -0.304649    0.235454    2.610379
      2         11           0       -4.322502   -0.269023   -1.650007
      3         11           0       -0.642190    3.206290   -0.480099
      4         11           0        2.122489    1.884403    0.005169
      5         11           0       -2.907968   -1.708449    0.792928
      6         11           0        1.750123   -2.511265   -0.451196
      7         11           0        4.304697   -0.837409   -0.827174
 ---------------------------------------------------------------------

 SCF Done:  E(UB3LYP) =  -1136.11177975     A.U. after   19 cycles

 The electronic state is 2-A.
 Alpha  occ. eigenvalues --  -38.45118 -38.44981 -38.44232 -38.44125 -38.44113
 Alpha  occ. eigenvalues --  -38.43749 -38.43703  -2.20892  -2.20763  -2.20038
 Alpha  occ. eigenvalues --   -2.19956  -2.19907  -2.19581  -2.19495  -1.14564
 Alpha  occ. eigenvalues --   -1.14562  -1.14542  -1.14421  -1.14405  -1.14364
 Alpha  occ. eigenvalues --   -1.13691  -1.13676  -1.13670  -1.13614  -1.13609
 Alpha  occ. eigenvalues --   -1.13603  -1.13599  -1.13554  -1.13541  -1.13267
 Alpha  occ. eigenvalues --   -1.13247  -1.13191  -1.13171  -1.13166  -1.13148
 Alpha  occ. eigenvalues --   -0.16265  -0.13664  -0.12177  -0.11221
 Alpha virt. eigenvalues --   -0.06531  -0.05321  -0.04996  -0.03515  -0.02959
 Alpha virt. eigenvalues --   -0.02697  -0.02136  -0.01300  -0.01043  -0.00808
 Alpha virt. eigenvalues --   -0.00400  -0.00127   0.00256   0.00346   0.00468

  Beta  occ. eigenvalues --  -38.45121 -38.44883 -38.44161 -38.44113 -38.44099
  Beta  occ. eigenvalues --  -38.43743 -38.43709  -2.20897  -2.20583  -2.19934
  Beta  occ. eigenvalues --   -2.19904  -2.19879  -2.19571  -2.19512  -1.14569
  Beta  occ. eigenvalues --   -1.14564  -1.14539  -1.14299  -1.14283  -1.14235
  Beta  occ. eigenvalues --   -1.13607  -1.13600  -1.13592  -1.13587  -1.13585
  Beta  occ. eigenvalues --   -1.13583  -1.13578  -1.13535  -1.13521  -1.13258
  Beta  occ. eigenvalues --   -1.13234  -1.13189  -1.13183  -1.13182  -1.13114
  Beta  occ. eigenvalues --   -0.15756  -0.13131  -0.12020
  Beta virt. eigenvalues --   -0.07693  -0.06267  -0.04895  -0.04550  -0.03389
  Beta virt. eigenvalues --   -0.02517  -0.02222  -0.02012  -0.01121  -0.00960
  Beta virt. eigenvalues --   -0.00494  -0.00215   0.00222   0.00340   0.00454

 Mulliken charges and spin densities:
               1          2
     1  Na   0.121685   0.547374
     2  Na   0.066418   0.392415
     3  Na   0.100663   0.082227
     4  Na  -0.462999   0.127955
     5  Na  -0.214270  -0.168579
     6  Na  -0.287762   0.015926
     7  Na   0.676265   0.002681
 Sum of Mulliken charges =  -0.00000   1.00000

 Dipole moment (field-independent basis, Debye):
    X=              0.8143    Y=             -0.0025    Z=             -0.1720  Tot=              0.8323
 Quadrupole moment (field-independent basis, Debye-Ang):
   XX=            -63.6287   YY=            -69.7187   ZZ=            -68.4083
   XY=             -2.9332   XZ=              2.0095   YZ=             -1.0646

 Normal termination of Gaussian 16 at Sun Dec  3 18:28:56 2023.
