 Gaussian 16, Revision B.01,
 Gaussian 16:  ES64L-G16RevB.01 20-Dec-2017

 -------------------------
 #P B3LYP/6-311+g(d) force
 -------------------------

 -----
 DPGEN
 -----
 Symbolic Z-matrix:
 Charge =  0 Multiplicity = 2

                         Standard orientation:
 ---------------------------------------------------------------------
 Center     Atomic      Atomic             Coordinates (Angstroms)
 Number     Number       Type             X           Y           Z
 ---------------------------------------------------------------------
      1         11           0        0.298970    3.336634   -0.867575
      2         11           0        3.837683    1.599876   -0.055527
      3         11           0        0.979112   -2.669388   -0.788654
      4         11           0       -2.535088   -1.845537   -0.668575
      5         11           0        4.121949   -1.963262    0.932999
      6         11           0       -1.585257    1.919378    0.880638
      7         11           0       -5.117369   -0.377701    0.566693
 ---------------------------------------------------------------------

 SCF Done:  E(UB3LYP) =  -1136.11028228     A.U. after   20 cycles

 The electronic state is 2-A.
 Alpha  occ. eigenvalues --  -38.45584 -38.44972 -38.44639 -38.44108 -38.44095
 Alpha  occ. eigenvalues --  -38.44050 -38.43547  -2.21321  -2.20779  -2.20388
 Alpha  occ. eigenvalues --   -2.19913  -2.19882  -2.19868  -2.19372  -1.15002
 Alpha  occ. eigenvalues --   -1.14973  -1.14929  -1.14496  -1.14440  -1.14395
 Alpha  occ. eigenvalues --   -1.14071  -1.14045  -1.14037  -1.13619  -1.13597
 Alpha  occ. eigenvalues --   -1.13584  -1.13548  -1.13539  -1.13509  -1.13503
 Alpha  occ. eigenvalues --   -1.13488  -1.13453  -1.13071  -1.13014  -1.12995
 Alpha  occ. eigenvalues --   -0.15769  -0.13770  -0.12870  -0.10941
 Alpha virt. eigenvalues --   -0.07147  -0.05188  -0.04363  -0.03670  -0.03230
 Alpha virt. eigenvalues --   -0.02475  -0.01985  -0.01690  -0.01260  -0.00735
 Alpha virt. eigenvalues --   -0.00423  -0.00355  -0.00109   0.00541   0.00564

  Beta  occ. eigenvalues --  -38.45535 -38.44955 -38.44648 -38.44095 -38.44026
  Beta  occ. eigenvalues --  -38.43980 -38.43539  -2.21231  -2.20750  -2.20407
  Beta  occ. eigenvalues --   -2.19897  -2.19757  -2.19737  -2.19361  -1.14941
  Beta  occ. eigenvalues --   -1.14915  -1.14863  -1.14467  -1.14420  -1.14377
  Beta  occ. eigenvalues --   -1.14085  -1.14061  -1.14033  -1.13595  -1.13582
  Beta  occ. eigenvalues --   -1.13539  -1.13465  -1.13455  -1.13419  -1.13413
  Beta  occ. eigenvalues --   -1.13398  -1.13374  -1.13053  -1.13008  -1.12990
  Beta  occ. eigenvalues --   -0.15232  -0.13222  -0.12373
  Beta virt. eigenvalues --   -0.07604  -0.06956  -0.04811  -0.04024  -0.03512
  Beta virt. eigenvalues --   -0.02809  -0.02297  -0.01749  -0.01406  -0.01075
  Beta virt. eigenvalues --   -0.00466  -0.00302  -0.00039   0.00101   0.00599

 Mulliken charges and spin densities:
               1          2
     1  Na   0.392888   0.016657
     2  Na  -0.115716   0.306869
     3  Na  -0.577066   0.127942
     4  Na  -0.211433   0.150859
     5  Na   0.426202   0.005905
     6  Na  -0.672916   0.061595
     7  Na   0.758040   0.330173
 Sum of Mulliken charges =  -0.00000   1.00000

 Dipole moment (field-independent basis, Debye):
    X=              0.5484    Y=              0.4379    Z=              0.3157  Tot=              0.7695
 Quadrupole moment (field-independent basis, Debye-Ang):
   XX=            -60.5819   YY=            -69.3227   ZZ=            -68.7685
   XY=             -1.4956   XZ=             -0.8817   YZ=             -2.0161

 Normal termination of Gaussian 16 at Sun Dec  3 17:02:57 2023.
