 Gaussian 16, Revision B.01,
 Gaussian 16:  ES64L-G16RevB.01 20-Dec-2017

 -------------------------
 #P B3LYP/6-311+g(d) force
 -------------------------

 -----
 DPGEN
 -----
 Symbolic Z-matrix:
 Charge =  0 Multiplicity = 2

                         Standard orientation:
 ---------------------------------------------------------------------
 Center     Atomic      Atomic             Coordinates (Angstroms)
 Number     Number       Type             X           Y           Z
 ---------------------------------------------------------------------
      1         11           0       -1.337887    2.444751   -0.420880
      2         11           0        2.881244   -1.067002   -0.609848
      3         11           0        2.063202    2.410661    0.090800
      4         11           0        0.041464    0.126879    2.143543
      5         11           0       -3.533909   -0.510326   -0.091948
      6         11           0        0.228377   -2.808816    0.371614
      7         11           0       -0.342491   -0.596147   -1.483280
 ---------------------------------------------------------------------

 SCF Done:  E(UB3LYP) =  -1136.13320900     A.U. after   20 cycles

 The electronic state is 2-A.
 Alpha  occ. eigenvalues --  -38.44427 -38.43930 -38.43718 -38.43641 -38.43555
 Alpha  occ. eigenvalues --  -38.43403 -38.43336  -2.20201  -2.19776  -2.19590
 Alpha  occ. eigenvalues --   -2.19483  -2.19461  -2.19321  -2.19216  -1.13877
 Alpha  occ. eigenvalues --   -1.13853  -1.13844  -1.13461  -1.13435  -1.13412
 Alpha  occ. eigenvalues --   -1.13287  -1.13253  -1.13223  -1.13207  -1.13191
 Alpha  occ. eigenvalues --   -1.13150  -1.13103  -1.13097  -1.13061  -1.12982
 Alpha  occ. eigenvalues --   -1.12941  -1.12907  -1.12885  -1.12870  -1.12866
 Alpha  occ. eigenvalues --   -0.18433  -0.12933  -0.12418  -0.10787
 Alpha virt. eigenvalues --   -0.05941  -0.04973  -0.04742  -0.03150  -0.02928
 Alpha virt. eigenvalues --   -0.02601  -0.01857  -0.01067  -0.00446  -0.00243
 Alpha virt. eigenvalues --   -0.00027   0.00303   0.00774   0.00827   0.00868

  Beta  occ. eigenvalues --  -38.44428 -38.43912 -38.43633 -38.43613 -38.43542
  Beta  occ. eigenvalues --  -38.43402 -38.43292  -2.20206  -2.19746  -2.19472
  Beta  occ. eigenvalues --   -2.19442  -2.19397  -2.19242  -2.19217  -1.13873
  Beta  occ. eigenvalues --   -1.13852  -1.13848  -1.13435  -1.13407  -1.13392
  Beta  occ. eigenvalues --   -1.13258  -1.13183  -1.13138  -1.13130  -1.13093
  Beta  occ. eigenvalues --   -1.13087  -1.13075  -1.13057  -1.13032  -1.12927
  Beta  occ. eigenvalues --   -1.12891  -1.12878  -1.12870  -1.12860  -1.12847
  Beta  occ. eigenvalues --   -0.17715  -0.12686  -0.12235
  Beta virt. eigenvalues --   -0.06847  -0.05884  -0.04956  -0.04648  -0.02406
  Beta virt. eigenvalues --   -0.02229  -0.01815  -0.01499  -0.01007  -0.00440
  Beta virt. eigenvalues --   -0.00247   0.00114   0.00352   0.00830   0.00840

 Mulliken charges and spin densities:
               1          2
     1  Na  -0.026343  -0.020681
     2  Na   0.133149   0.064413
     3  Na  -0.027438   0.000792
     4  Na  -0.383961   0.654531
     5  Na   0.130413  -0.029839
     6  Na   0.278265   0.107299
     7  Na  -0.104085   0.223485
 Sum of Mulliken charges =  -0.00000   1.00000

 Dipole moment (field-independent basis, Debye):
    X=             -0.3395    Y=             -0.1398    Z=              0.1615  Tot=              0.4011
 Quadrupole moment (field-independent basis, Debye-Ang):
   XX=            -55.0262   YY=            -64.2512   ZZ=            -74.1542
   XY=              0.5586   XZ=             -1.2643   YZ=             -1.2279

 Normal termination of Gaussian 16 at Fri Dec  8 03:05:12 2023.
