 Gaussian 16, Revision B.01,
 Gaussian 16:  ES64L-G16RevB.01 20-Dec-2017

 -------------------------
 #P B3LYP/6-311+g(d) force
 -------------------------

 -----
 DPGEN
 -----
 Symbolic Z-matrix:
 Charge =  0 Multiplicity = 2

                         Standard orientation:
 ---------------------------------------------------------------------
 Center     Atomic      Atomic             Coordinates (Angstroms)
 Number     Number       Type             X           Y           Z
 ---------------------------------------------------------------------
      1         11           0       -3.317046   -1.071794    0.656003
      2         11           0        3.607494   -0.900207    0.494150
      3         11           0       -0.149736   -2.126806   -1.064321
      4         11           0       -0.139786   -0.299377    2.067166
      5         11           0       -0.339040    2.665864    0.769073
      6         11           0        1.675020    0.847225   -1.036828
      7         11           0       -1.336907    0.885095   -1.885243
 ---------------------------------------------------------------------

 SCF Done:  E(UB3LYP) =  -1136.12647503     A.U. after   21 cycles

 The electronic state is 2-A.
 Alpha  occ. eigenvalues --  -38.44578 -38.44277 -38.44029 -38.43961 -38.43776
 Alpha  occ. eigenvalues --  -38.42979 -38.42756  -2.20456  -2.20061  -2.19838
 Alpha  occ. eigenvalues --   -2.19810  -2.19707  -2.18979  -2.18649  -1.14131
 Alpha  occ. eigenvalues --   -1.14106  -1.14063  -1.13735  -1.13721  -1.13691
 Alpha  occ. eigenvalues --   -1.13562  -1.13542  -1.13484  -1.13478  -1.13460
 Alpha  occ. eigenvalues --   -1.13422  -1.13395  -1.13335  -1.13300  -1.12687
 Alpha  occ. eigenvalues --   -1.12644  -1.12588  -1.12335  -1.12285  -1.12277
 Alpha  occ. eigenvalues --   -0.18719  -0.12874  -0.12153  -0.11627
 Alpha virt. eigenvalues --   -0.06231  -0.04412  -0.03998  -0.03511  -0.03355
 Alpha virt. eigenvalues --   -0.03035  -0.01928  -0.00869  -0.00520   0.00192
 Alpha virt. eigenvalues --    0.00291   0.00311   0.00437   0.00885   0.00929

  Beta  occ. eigenvalues --  -38.44495 -38.44273 -38.44030 -38.43929 -38.43715
  Beta  occ. eigenvalues --  -38.42958 -38.42739  -2.20305  -2.20054  -2.19840
  Beta  occ. eigenvalues --   -2.19755  -2.19598  -2.18945  -2.18619  -1.14033
  Beta  occ. eigenvalues --   -1.13991  -1.13953  -1.13722  -1.13711  -1.13689
  Beta  occ. eigenvalues --   -1.13565  -1.13491  -1.13479  -1.13462  -1.13423
  Beta  occ. eigenvalues --   -1.13365  -1.13337  -1.13258  -1.13226  -1.12653
  Beta  occ. eigenvalues --   -1.12598  -1.12572  -1.12305  -1.12268  -1.12245
  Beta  occ. eigenvalues --   -0.17844  -0.12729  -0.11480
  Beta virt. eigenvalues --   -0.08000  -0.06076  -0.04182  -0.03724  -0.02967
  Beta virt. eigenvalues --   -0.02700  -0.02246  -0.01827  -0.00725  -0.00286
  Beta virt. eigenvalues --    0.00217   0.00319   0.00369   0.00542   0.00914

 Mulliken charges and spin densities:
               1          2
     1  Na  -0.013141  -0.107070
     2  Na   0.170599  -0.203799
     3  Na  -0.415276   0.010952
     4  Na  -0.023930   0.837957
     5  Na  -0.250910  -0.226661
     6  Na   0.150830   0.359051
     7  Na   0.381827   0.329570
 Sum of Mulliken charges =  -0.00000   1.00000

 Dipole moment (field-independent basis, Debye):
    X=             -0.4883    Y=             -0.3437    Z=              0.3706  Tot=              0.7028
 Quadrupole moment (field-independent basis, Debye-Ang):
   XX=            -56.8561   YY=            -72.4552   ZZ=            -65.7893
   XY=             -1.4303   XZ=              1.4067   YZ=              0.9704

 Normal termination of Gaussian 16 at Wed Nov 29 16:26:23 2023.
