 Gaussian 16, Revision B.01,
 Gaussian 16:  ES64L-G16RevB.01 20-Dec-2017

 -------------------------
 #P B3LYP/6-311+g(d) force
 -------------------------

 -----
 DPGEN
 -----
 Symbolic Z-matrix:
 Charge =  0 Multiplicity = 2

                         Standard orientation:
 ---------------------------------------------------------------------
 Center     Atomic      Atomic             Coordinates (Angstroms)
 Number     Number       Type             X           Y           Z
 ---------------------------------------------------------------------
      1         11           0       -1.691976    1.149558    1.582535
      2         11           0        0.812646    2.511840   -0.932506
      3         11           0        2.341827   -2.035072   -0.830121
      4         11           0       -0.111392   -0.056743   -1.623818
      5         11           0       -0.233337   -1.733987    1.455871
      6         11           0       -3.733379   -0.603030   -0.728920
      7         11           0        2.615610    0.767434    1.076958
 ---------------------------------------------------------------------

 SCF Done:  E(UB3LYP) =  -1136.12362680     A.U. after   21 cycles

 The electronic state is 2-A.
 Alpha  occ. eigenvalues --  -38.45013 -38.44598 -38.44089 -38.43726 -38.43557
 Alpha  occ. eigenvalues --  -38.43260 -38.42604  -2.20775  -2.20447  -2.19946
 Alpha  occ. eigenvalues --   -2.19723  -2.19431  -2.19126  -2.18520  -1.14447
 Alpha  occ. eigenvalues --   -1.14436  -1.14399  -1.14117  -1.14110  -1.14078
 Alpha  occ. eigenvalues --   -1.13663  -1.13587  -1.13547  -1.13478  -1.13379
 Alpha  occ. eigenvalues --   -1.13329  -1.13133  -1.13093  -1.13029  -1.12805
 Alpha  occ. eigenvalues --   -1.12774  -1.12749  -1.12237  -1.12147  -1.12117
 Alpha  occ. eigenvalues --   -0.18541  -0.13245  -0.11619  -0.11407
 Alpha virt. eigenvalues --   -0.06508  -0.04896  -0.03822  -0.03479  -0.02913
 Alpha virt. eigenvalues --   -0.02850  -0.02165  -0.00984  -0.00373   0.00042
 Alpha virt. eigenvalues --    0.00230   0.00262   0.00389   0.00728   0.00764

  Beta  occ. eigenvalues --  -38.45003 -38.44579 -38.44046 -38.43657 -38.43522
  Beta  occ. eigenvalues --  -38.43246 -38.42595  -2.20755  -2.20414  -2.19869
  Beta  occ. eigenvalues --   -2.19599  -2.19369  -2.19102  -2.18506  -1.14429
  Beta  occ. eigenvalues --   -1.14418  -1.14389  -1.14091  -1.14076  -1.14059
  Beta  occ. eigenvalues --   -1.13603  -1.13526  -1.13495  -1.13389  -1.13291
  Beta  occ. eigenvalues --   -1.13237  -1.13091  -1.13022  -1.12992  -1.12775
  Beta  occ. eigenvalues --   -1.12760  -1.12731  -1.12216  -1.12134  -1.12103
  Beta  occ. eigenvalues --   -0.17780  -0.13048  -0.11407
  Beta virt. eigenvalues --   -0.07555  -0.06248  -0.04587  -0.03659  -0.03155
  Beta virt. eigenvalues --   -0.02326  -0.02061  -0.01839  -0.00775  -0.00210
  Beta virt. eigenvalues --    0.00111   0.00292   0.00313   0.00527   0.00786

 Mulliken charges and spin densities:
               1          2
     1  Na   0.032250   0.262597
     2  Na   0.423811  -0.074130
     3  Na   0.419251  -0.112640
     4  Na  -0.486199   0.495363
     5  Na  -0.277498   0.247308
     6  Na   0.046583  -0.050511
     7  Na  -0.158197   0.232014
 Sum of Mulliken charges =  -0.00000   1.00000

 Dipole moment (field-independent basis, Debye):
    X=             -0.6188    Y=             -0.2134    Z=              0.3733  Tot=              0.7535
 Quadrupole moment (field-independent basis, Debye-Ang):
   XX=            -52.6336   YY=            -72.6985   ZZ=            -67.9957
   XY=              0.4779   XZ=              2.6202   YZ=              3.1499

 Normal termination of Gaussian 16 at Tue Dec  5 16:20:47 2023.
