 Gaussian 16, Revision B.01,
 Gaussian 16:  ES64L-G16RevB.01 20-Dec-2017

 -------------------------
 #P B3LYP/6-311+g(d) force
 -------------------------

 -----
 DPGEN
 -----
 Symbolic Z-matrix:
 Charge =  0 Multiplicity = 2

                         Standard orientation:
 ---------------------------------------------------------------------
 Center     Atomic      Atomic             Coordinates (Angstroms)
 Number     Number       Type             X           Y           Z
 ---------------------------------------------------------------------
      1         11           0       -2.690771   -1.778442   -0.100948
      2         11           0        1.156394    2.549359   -0.005509
      3         11           0       -2.659463    1.887476   -0.242749
      4         11           0        1.075315   -2.503316    0.205651
      5         11           0       -0.118892   -0.300500   -1.634806
      6         11           0        3.434152   -0.007997   -0.268936
      7         11           0       -0.196736    0.153419    2.047296
 ---------------------------------------------------------------------

 SCF Done:  E(UB3LYP) =  -1136.13600110     A.U. after   20 cycles

 The electronic state is 2-A.
 Alpha  occ. eigenvalues --  -38.44402 -38.44123 -38.44074 -38.43449 -38.43402
 Alpha  occ. eigenvalues --  -38.43225 -38.43185  -2.20209  -2.19940  -2.19870
 Alpha  occ. eigenvalues --   -2.19361  -2.19343  -2.19068  -2.19065  -1.13877
 Alpha  occ. eigenvalues --   -1.13867  -1.13855  -1.13626  -1.13601  -1.13575
 Alpha  occ. eigenvalues --   -1.13548  -1.13523  -1.13507  -1.13086  -1.13024
 Alpha  occ. eigenvalues --   -1.13005  -1.12974  -1.12971  -1.12960  -1.12749
 Alpha  occ. eigenvalues --   -1.12747  -1.12743  -1.12728  -1.12689  -1.12671
 Alpha  occ. eigenvalues --   -0.18498  -0.13165  -0.12131  -0.10637
 Alpha virt. eigenvalues --   -0.06016  -0.05515  -0.04216  -0.03170  -0.02783
 Alpha virt. eigenvalues --   -0.02483  -0.01914  -0.01291  -0.00470  -0.00210
 Alpha virt. eigenvalues --   -0.00044   0.00307   0.00705   0.00829   0.00881

  Beta  occ. eigenvalues --  -38.44399 -38.44120 -38.44070 -38.43349 -38.43346
  Beta  occ. eigenvalues --  -38.43219 -38.43176  -2.20205  -2.19936  -2.19865
  Beta  occ. eigenvalues --   -2.19259  -2.19158  -2.19061  -2.19052  -1.13869
  Beta  occ. eigenvalues --   -1.13858  -1.13853  -1.13615  -1.13592  -1.13570
  Beta  occ. eigenvalues --   -1.13530  -1.13521  -1.13502  -1.13017  -1.12949
  Beta  occ. eigenvalues --   -1.12898  -1.12891  -1.12841  -1.12832  -1.12743
  Beta  occ. eigenvalues --   -1.12733  -1.12712  -1.12688  -1.12686  -1.12665
  Beta  occ. eigenvalues --   -0.17774  -0.12941  -0.11899
  Beta virt. eigenvalues --   -0.06734  -0.05930  -0.05531  -0.04183  -0.02452
  Beta virt. eigenvalues --   -0.01987  -0.01813  -0.01425  -0.01253  -0.00507
  Beta virt. eigenvalues --   -0.00241   0.00105   0.00343   0.00776   0.00824

 Mulliken charges and spin densities:
               1          2
     1  Na   0.250396  -0.060967
     2  Na   0.118381  -0.074238
     3  Na   0.035878  -0.092092
     4  Na   0.280369  -0.005740
     5  Na  -0.335290   0.523440
     6  Na   0.040217  -0.017884
     7  Na  -0.389952   0.727480
 Sum of Mulliken charges =  -0.00000   1.00000

 Dipole moment (field-independent basis, Debye):
    X=             -0.1787    Y=             -0.0311    Z=              0.0334  Tot=              0.1844
 Quadrupole moment (field-independent basis, Debye-Ang):
   XX=            -51.7894   YY=            -65.7682   ZZ=            -74.8903
   XY=             -0.0064   XZ=             -0.1839   YZ=             -1.0676

 Normal termination of Gaussian 16 at Fri Dec  8 02:33:42 2023.
