 Gaussian 16, Revision B.01,
 Gaussian 16:  ES64L-G16RevB.01 20-Dec-2017

 -------------------------
 #P B3LYP/6-311+g(d) force
 -------------------------

 -----
 DPGEN
 -----
 Symbolic Z-matrix:
 Charge =  0 Multiplicity = 2

                         Standard orientation:
 ---------------------------------------------------------------------
 Center     Atomic      Atomic             Coordinates (Angstroms)
 Number     Number       Type             X           Y           Z
 ---------------------------------------------------------------------
      1         11           0        0.420692    2.903072   -0.364070
      2         11           0       -3.263921    1.149439   -0.418322
      3         11           0       -1.958944   -2.353218    0.521883
      4         11           0        3.086334    0.918454    0.432137
      5         11           0       -0.202300    0.105112    2.111316
      6         11           0        2.098106   -2.362901   -0.661664
      7         11           0       -0.179966   -0.359958   -1.621281
 ---------------------------------------------------------------------

 SCF Done:  E(UB3LYP) =  -1136.13335451     A.U. after   19 cycles

 The electronic state is 2-A.
 Alpha  occ. eigenvalues --  -38.44500 -38.44048 -38.44038 -38.43957 -38.43491
 Alpha  occ. eigenvalues --  -38.43393 -38.43375  -2.20269  -2.19892  -2.19858
 Alpha  occ. eigenvalues --   -2.19776  -2.19313  -2.19306  -2.19208  -1.13948
 Alpha  occ. eigenvalues --   -1.13913  -1.13909  -1.13566  -1.13539  -1.13527
 Alpha  occ. eigenvalues --   -1.13522  -1.13506  -1.13500  -1.13444  -1.13439
 Alpha  occ. eigenvalues --   -1.13395  -1.13062  -1.12992  -1.12959  -1.12955
 Alpha  occ. eigenvalues --   -1.12935  -1.12897  -1.12884  -1.12871  -1.12835
 Alpha  occ. eigenvalues --   -0.18042  -0.12934  -0.12092  -0.10891
 Alpha virt. eigenvalues --   -0.05930  -0.05392  -0.04512  -0.03308  -0.02871
 Alpha virt. eigenvalues --   -0.02646  -0.01802  -0.01239  -0.00591  -0.00333
 Alpha virt. eigenvalues --   -0.00045   0.00315   0.00713   0.00795   0.00830

  Beta  occ. eigenvalues --  -38.44491 -38.44044 -38.43946 -38.43942 -38.43477
  Beta  occ. eigenvalues --  -38.43391 -38.43320  -2.20253  -2.19852  -2.19751
  Beta  occ. eigenvalues --   -2.19722  -2.19288  -2.19208  -2.19205  -1.13928
  Beta  occ. eigenvalues --   -1.13904  -1.13897  -1.13524  -1.13514  -1.13492
  Beta  occ. eigenvalues --   -1.13469  -1.13426  -1.13415  -1.13407  -1.13384
  Beta  occ. eigenvalues --   -1.13361  -1.13022  -1.12942  -1.12928  -1.12920
  Beta  occ. eigenvalues --   -1.12898  -1.12867  -1.12865  -1.12832  -1.12821
  Beta  occ. eigenvalues --   -0.17349  -0.12718  -0.11810
  Beta virt. eigenvalues --   -0.07068  -0.05868  -0.05265  -0.04413  -0.02628
  Beta virt. eigenvalues --   -0.02218  -0.01694  -0.01659  -0.01119  -0.00561
  Beta virt. eigenvalues --   -0.00358   0.00083   0.00359   0.00796   0.00810

 Mulliken charges and spin densities:
               1          2
     1  Na  -0.105846  -0.024333
     2  Na  -0.022616  -0.046772
     3  Na   0.088628   0.042035
     4  Na   0.042949   0.042684
     5  Na  -0.160520   0.580477
     6  Na   0.097142   0.002186
     7  Na   0.060263   0.403724
 Sum of Mulliken charges =  -0.00000   1.00000

 Dipole moment (field-independent basis, Debye):
    X=             -0.3864    Y=              0.0155    Z=              0.2429  Tot=              0.4567
 Quadrupole moment (field-independent basis, Debye-Ang):
   XX=            -54.9929   YY=            -64.7420   ZZ=            -73.8207
   XY=             -0.0928   XZ=              0.8207   YZ=             -1.0102

 Normal termination of Gaussian 16 at Fri Dec  8 05:12:41 2023.
