 Gaussian 16, Revision B.01,
 Gaussian 16:  ES64L-G16RevB.01 20-Dec-2017

 -------------------------
 #P B3LYP/6-311+g(d) force
 -------------------------

 -----
 DPGEN
 -----
 Symbolic Z-matrix:
 Charge =  0 Multiplicity = 2

                         Standard orientation:
 ---------------------------------------------------------------------
 Center     Atomic      Atomic             Coordinates (Angstroms)
 Number     Number       Type             X           Y           Z
 ---------------------------------------------------------------------
      1         11           0        1.498859   -0.843062   -1.664384
      2         11           0       -1.435650    1.841162   -0.705467
      3         11           0       -1.957186   -1.790108   -1.147518
      4         11           0        3.989706   -0.850056    0.978679
      5         11           0        0.023756   -0.460101    1.847883
      6         11           0        2.100404    2.005702   -0.284392
      7         11           0       -4.219889    0.096463    0.975200
 ---------------------------------------------------------------------

 SCF Done:  E(UB3LYP) =  -1136.11736178     A.U. after   32 cycles

 The electronic state is 2-A.
 Alpha  occ. eigenvalues --  -38.46235 -38.45059 -38.44405 -38.44390 -38.43751
 Alpha  occ. eigenvalues --  -38.43273 -38.42641  -2.21984  -2.20835  -2.20263
 Alpha  occ. eigenvalues --   -2.20240  -2.19538  -2.19137  -2.18481  -1.15693
 Alpha  occ. eigenvalues --   -1.15659  -1.15580  -1.14502  -1.14496  -1.14454
 Alpha  occ. eigenvalues --   -1.13956  -1.13930  -1.13910  -1.13895  -1.13866
 Alpha  occ. eigenvalues --   -1.13845  -1.13214  -1.13206  -1.13168  -1.12836
 Alpha  occ. eigenvalues --   -1.12807  -1.12733  -1.12183  -1.12161  -1.12086
 Alpha  occ. eigenvalues --   -0.18010  -0.14098  -0.11478  -0.10401
 Alpha virt. eigenvalues --   -0.07446  -0.05199  -0.05051  -0.03203  -0.03028
 Alpha virt. eigenvalues --   -0.02283  -0.02225  -0.01594  -0.01142  -0.00375
 Alpha virt. eigenvalues --   -0.00116   0.00181   0.00221   0.00450   0.00591

  Beta  occ. eigenvalues --  -38.46220 -38.45032 -38.44340 -38.44335 -38.43747
  Beta  occ. eigenvalues --  -38.43264 -38.42631  -2.21958  -2.20784  -2.20164
  Beta  occ. eigenvalues --   -2.20123  -2.19531  -2.19120  -2.18465  -1.15662
  Beta  occ. eigenvalues --   -1.15639  -1.15563  -1.14467  -1.14455  -1.14422
  Beta  occ. eigenvalues --   -1.13882  -1.13848  -1.13833  -1.13818  -1.13794
  Beta  occ. eigenvalues --   -1.13741  -1.13205  -1.13201  -1.13164  -1.12822
  Beta  occ. eigenvalues --   -1.12795  -1.12720  -1.12171  -1.12138  -1.12074
  Beta  occ. eigenvalues --   -0.17333  -0.13885  -0.10292
  Beta virt. eigenvalues --   -0.07514  -0.07220  -0.04962  -0.04612  -0.02879
  Beta virt. eigenvalues --   -0.02750  -0.01751  -0.01728  -0.01330  -0.00793
  Beta virt. eigenvalues --   -0.00267  -0.00069   0.00262   0.00293   0.00594

 Mulliken charges and spin densities:
               1          2
     1  Na  -0.167378   0.210523
     2  Na  -0.473800   0.122083
     3  Na   0.067161   0.173102
     4  Na   0.374503   0.011887
     5  Na  -0.530490   0.181612
     6  Na   0.118185   0.125938
     7  Na   0.611820   0.174854
 Sum of Mulliken charges =  -0.00000   1.00000

 Dipole moment (field-independent basis, Debye):
    X=             -0.8019    Y=              0.0004    Z=              0.2597  Tot=              0.8430
 Quadrupole moment (field-independent basis, Debye-Ang):
   XX=            -51.4954   YY=            -76.9514   ZZ=            -69.4014
   XY=              1.1079   XZ=             -2.3160   YZ=              5.2147

 Normal termination of Gaussian 16 at Thu Dec  7 20:31:37 2023.
