 Gaussian 16, Revision B.01,
 Gaussian 16:  ES64L-G16RevB.01 20-Dec-2017

 -------------------------
 #P B3LYP/6-311+g(d) force
 -------------------------

 -----
 DPGEN
 -----
 Symbolic Z-matrix:
 Charge =  0 Multiplicity = 2

                         Standard orientation:
 ---------------------------------------------------------------------
 Center     Atomic      Atomic             Coordinates (Angstroms)
 Number     Number       Type             X           Y           Z
 ---------------------------------------------------------------------
      1         11           0       -2.148688    2.513117   -0.382719
      2         11           0        3.482958   -0.335587   -0.457050
      3         11           0       -0.551056   -0.533816    2.156187
      4         11           0       -3.148115   -1.378984   -0.339331
      5         11           0        0.651740   -2.663299   -0.109473
      6         11           0        1.640157    2.229553    0.653515
      7         11           0        0.073004    0.169015   -1.521129
 ---------------------------------------------------------------------

 SCF Done:  E(UB3LYP) =  -1136.13221290     A.U. after   20 cycles

 The electronic state is 2-A.
 Alpha  occ. eigenvalues --  -38.44809 -38.44253 -38.43744 -38.43660 -38.43511
 Alpha  occ. eigenvalues --  -38.43382 -38.43354  -2.20574  -2.20064  -2.19527
 Alpha  occ. eigenvalues --   -2.19523  -2.19349  -2.19329  -2.19210  -1.14258
 Alpha  occ. eigenvalues --   -1.14222  -1.14208  -1.13733  -1.13727  -1.13702
 Alpha  occ. eigenvalues --   -1.13215  -1.13199  -1.13183  -1.13162  -1.13154
 Alpha  occ. eigenvalues --   -1.13137  -1.13062  -1.13045  -1.13011  -1.12984
 Alpha  occ. eigenvalues --   -1.12970  -1.12935  -1.12886  -1.12876  -1.12807
 Alpha  occ. eigenvalues --   -0.18128  -0.13014  -0.12042  -0.10681
 Alpha virt. eigenvalues --   -0.06237  -0.05369  -0.04297  -0.03259  -0.02812
 Alpha virt. eigenvalues --   -0.02520  -0.02021  -0.01279  -0.00568  -0.00202
 Alpha virt. eigenvalues --   -0.00081   0.00282   0.00661   0.00711   0.00819

  Beta  occ. eigenvalues --  -38.44804 -38.44248 -38.43741 -38.43562 -38.43495
  Beta  occ. eigenvalues --  -38.43345 -38.43336  -2.20567  -2.20056  -2.19522
  Beta  occ. eigenvalues --   -2.19343  -2.19321  -2.19247  -2.19198  -1.14241
  Beta  occ. eigenvalues --   -1.14219  -1.14202  -1.13725  -1.13716  -1.13697
  Beta  occ. eigenvalues --   -1.13204  -1.13179  -1.13157  -1.13083  -1.13035
  Beta  occ. eigenvalues --   -1.13027  -1.13008  -1.12997  -1.12971  -1.12960
  Beta  occ. eigenvalues --   -1.12927  -1.12879  -1.12860  -1.12841  -1.12797
  Beta  occ. eigenvalues --   -0.17436  -0.12799  -0.11817
  Beta virt. eigenvalues --   -0.06827  -0.06177  -0.05286  -0.04168  -0.02625
  Beta virt. eigenvalues --   -0.02122  -0.01920  -0.01512  -0.01221  -0.00541
  Beta virt. eigenvalues --   -0.00203   0.00078   0.00331   0.00745   0.00781

 Mulliken charges and spin densities:
               1          2
     1  Na  -0.011245  -0.007656
     2  Na   0.144925   0.004241
     3  Na  -0.282278   0.619725
     4  Na   0.041610  -0.063457
     5  Na   0.173825  -0.018023
     6  Na   0.030779   0.145446
     7  Na  -0.097616   0.319723
 Sum of Mulliken charges =  -0.00000   1.00000

 Dipole moment (field-independent basis, Debye):
    X=             -0.2917    Y=             -0.2387    Z=              0.0133  Tot=              0.3771
 Quadrupole moment (field-independent basis, Debye-Ang):
   XX=            -51.8556   YY=            -66.1984   ZZ=            -74.3097
   XY=              0.4954   XZ=              0.4857   YZ=              1.6721

 Normal termination of Gaussian 16 at Thu Dec  7 04:39:12 2023.
