 Gaussian 16, Revision B.01,
 Gaussian 16:  ES64L-G16RevB.01 20-Dec-2017

 -------------------------
 #P B3LYP/6-311+g(d) force
 -------------------------

 -----
 DPGEN
 -----
 Symbolic Z-matrix:
 Charge =  0 Multiplicity = 2

                         Standard orientation:
 ---------------------------------------------------------------------
 Center     Atomic      Atomic             Coordinates (Angstroms)
 Number     Number       Type             X           Y           Z
 ---------------------------------------------------------------------
      1         11           0        0.792595   -2.918974    0.455452
      2         11           0       -3.513354   -2.609047    0.739119
      3         11           0       -4.031053   -0.029629   -0.845255
      4         11           0       -4.974457    3.312602   -0.250147
      5         11           0        2.984533    2.097954    1.687791
      6         11           0        3.526307   -1.466709   -1.105119
      7         11           0        5.215428    1.613803   -0.681841
 ---------------------------------------------------------------------

 SCF Done:  E(UB3LYP) =  -1136.09969934     A.U. after   19 cycles

 The electronic state is 2-A.
 Alpha  occ. eigenvalues --  -38.45960 -38.45011 -38.44543 -38.44417 -38.44140
 Alpha  occ. eigenvalues --  -38.43695 -38.43689  -2.21730  -2.20797  -2.20331
 Alpha  occ. eigenvalues --   -2.20233  -2.19941  -2.19497  -2.19418  -1.15386
 Alpha  occ. eigenvalues --   -1.15376  -1.15351  -1.14468  -1.14466  -1.14446
 Alpha  occ. eigenvalues --   -1.13969  -1.13968  -1.13943  -1.13917  -1.13871
 Alpha  occ. eigenvalues --   -1.13842  -1.13611  -1.13594  -1.13554  -1.13185
 Alpha  occ. eigenvalues --   -1.13170  -1.13148  -1.13116  -1.13106  -1.13061
 Alpha  occ. eigenvalues --   -0.15327  -0.14330  -0.12112  -0.11095
 Alpha virt. eigenvalues --   -0.07477  -0.05338  -0.04200  -0.03557  -0.03142
 Alpha virt. eigenvalues --   -0.02694  -0.02396  -0.01842  -0.01476  -0.01072
 Alpha virt. eigenvalues --   -0.00860  -0.00522  -0.00016   0.00100   0.00241

  Beta  occ. eigenvalues --  -38.45908 -38.45029 -38.44437 -38.44344 -38.44087
  Beta  occ. eigenvalues --  -38.43728 -38.43707  -2.21633  -2.20833  -2.20134
  Beta  occ. eigenvalues --   -2.20098  -2.19841  -2.19526  -2.19494  -1.15320
  Beta  occ. eigenvalues --   -1.15305  -1.15289  -1.14495  -1.14483  -1.14460
  Beta  occ. eigenvalues --   -1.13835  -1.13833  -1.13832  -1.13812  -1.13778
  Beta  occ. eigenvalues --   -1.13754  -1.13541  -1.13529  -1.13496  -1.13201
  Beta  occ. eigenvalues --   -1.13197  -1.13171  -1.13159  -1.13122  -1.13093
  Beta  occ. eigenvalues --   -0.15028  -0.13627  -0.11408
  Beta virt. eigenvalues --   -0.07893  -0.07170  -0.05112  -0.03844  -0.03448
  Beta virt. eigenvalues --   -0.02866  -0.02402  -0.02158  -0.01597  -0.01145
  Beta virt. eigenvalues --   -0.00788  -0.00540  -0.00199   0.00048   0.00210

 Mulliken charges and spin densities:
               1          2
     1  Na  -0.137719  -0.227269
     2  Na   0.391380   0.336510
     3  Na  -0.799711  -0.098551
     4  Na   0.300824   0.548054
     5  Na  -0.153251   0.252848
     6  Na  -0.045164   0.260306
     7  Na   0.443641  -0.071898
 Sum of Mulliken charges =  -0.00000   1.00000

 Dipole moment (field-independent basis, Debye):
    X=              1.8652    Y=              1.4950    Z=              0.7201  Tot=              2.4965
 Quadrupole moment (field-independent basis, Debye-Ang):
   XX=            -64.0430   YY=            -70.1610   ZZ=            -66.3963
   XY=              4.3367   XZ=             -7.1238   YZ=             -0.5290

 Normal termination of Gaussian 16 at Mon Dec  4 04:30:34 2023.
