 Gaussian 16, Revision B.01,
 Gaussian 16:  ES64L-G16RevB.01 20-Dec-2017

 -------------------------
 #P B3LYP/6-311+g(d) force
 -------------------------

 -----
 DPGEN
 -----
 Symbolic Z-matrix:
 Charge =  0 Multiplicity = 2

                         Standard orientation:
 ---------------------------------------------------------------------
 Center     Atomic      Atomic             Coordinates (Angstroms)
 Number     Number       Type             X           Y           Z
 ---------------------------------------------------------------------
      1         11           0        1.770551    0.784072    1.338513
      2         11           0       -3.063180   -1.128063   -0.983909
      3         11           0       -1.659096    0.851791    1.449610
      4         11           0        3.211537   -0.956384   -0.874876
      5         11           0        0.138149   -0.011879   -1.266299
      6         11           0       -0.246326    3.036976   -0.601719
      7         11           0       -0.151636   -2.576513    0.938680
 ---------------------------------------------------------------------

 SCF Done:  E(UB3LYP) =  -1136.13275353     A.U. after   19 cycles

 The electronic state is 2-A.
 Alpha  occ. eigenvalues --  -38.43975 -38.43882 -38.43765 -38.43404 -38.43330
 Alpha  occ. eigenvalues --  -38.43234 -38.42754  -2.19788  -2.19705  -2.19616
 Alpha  occ. eigenvalues --   -2.19349  -2.19261  -2.19101  -2.18830  -1.13479
 Alpha  occ. eigenvalues --   -1.13459  -1.13395  -1.13380  -1.13365  -1.13322
 Alpha  occ. eigenvalues --   -1.13311  -1.13293  -1.13233  -1.13077  -1.13008
 Alpha  occ. eigenvalues --   -1.12964  -1.12937  -1.12921  -1.12872  -1.12814
 Alpha  occ. eigenvalues --   -1.12733  -1.12725  -1.12530  -1.12456  -1.12448
 Alpha  occ. eigenvalues --   -0.18761  -0.12988  -0.12179  -0.10896
 Alpha virt. eigenvalues --   -0.05686  -0.04721  -0.04581  -0.03275  -0.02844
 Alpha virt. eigenvalues --   -0.02280  -0.01565  -0.01080  -0.00692   0.00218
 Alpha virt. eigenvalues --    0.00296   0.00363   0.00547   0.00833   0.00858

  Beta  occ. eigenvalues --  -38.43953 -38.43862 -38.43750 -38.43371 -38.43292
  Beta  occ. eigenvalues --  -38.43225 -38.42704  -2.19750  -2.19669  -2.19591
  Beta  occ. eigenvalues --   -2.19291  -2.19195  -2.19088  -2.18743  -1.13456
  Beta  occ. eigenvalues --   -1.13410  -1.13373  -1.13346  -1.13342  -1.13298
  Beta  occ. eigenvalues --   -1.13296  -1.13265  -1.13215  -1.13040  -1.12942
  Beta  occ. eigenvalues --   -1.12920  -1.12900  -1.12851  -1.12829  -1.12792
  Beta  occ. eigenvalues --   -1.12724  -1.12705  -1.12452  -1.12398  -1.12383
  Beta  occ. eigenvalues --   -0.18008  -0.12771  -0.11983
  Beta virt. eigenvalues --   -0.06997  -0.05532  -0.04580  -0.04385  -0.02800
  Beta virt. eigenvalues --   -0.02276  -0.01467  -0.01350  -0.01030  -0.00304
  Beta virt. eigenvalues --    0.00228   0.00340   0.00407   0.00629   0.00852

 Mulliken charges and spin densities:
               1          2
     1  Na  -0.041558   0.297765
     2  Na   0.243330  -0.030037
     3  Na   0.168833   0.345893
     4  Na   0.529187  -0.055925
     5  Na  -0.799486   0.356377
     6  Na   0.141268  -0.006063
     7  Na  -0.241575   0.091990
 Sum of Mulliken charges =  -0.00000   1.00000

 Dipole moment (field-independent basis, Debye):
    X=             -0.0642    Y=             -0.2702    Z=              0.1347  Tot=              0.3087
 Quadrupole moment (field-independent basis, Debye-Ang):
   XX=            -57.5689   YY=            -64.0640   ZZ=            -69.6023
   XY=             -0.6059   XZ=              0.3042   YZ=             -0.8042

 Normal termination of Gaussian 16 at Tue Dec  5 12:39:36 2023.
