 Gaussian 16, Revision B.01,
 Gaussian 16:  ES64L-G16RevB.01 20-Dec-2017

 -------------------------
 #P B3LYP/6-311+g(d) force
 -------------------------

 -----
 DPGEN
 -----
 Symbolic Z-matrix:
 Charge =  0 Multiplicity = 2

                         Standard orientation:
 ---------------------------------------------------------------------
 Center     Atomic      Atomic             Coordinates (Angstroms)
 Number     Number       Type             X           Y           Z
 ---------------------------------------------------------------------
      1         11           0       -1.682036   -2.276075   -0.017846
      2         11           0       -3.471347    0.522773    0.202988
      3         11           0        0.282195   -0.083004    2.011482
      4         11           0        0.282671   -0.450593   -1.747126
      5         11           0       -0.701435    2.623915   -0.500541
      6         11           0        2.345238   -1.618082   -0.165901
      7         11           0        2.944715    1.281066    0.216943
 ---------------------------------------------------------------------

 SCF Done:  E(UB3LYP) =  -1136.12561990     A.U. after   21 cycles

 The electronic state is 2-A.
 Alpha  occ. eigenvalues --  -38.44872 -38.44359 -38.44063 -38.43947 -38.43590
 Alpha  occ. eigenvalues --  -38.43194 -38.42968  -2.20661  -2.20228  -2.19956
 Alpha  occ. eigenvalues --   -2.19917  -2.19590  -2.19061  -2.18786  -1.14333
 Alpha  occ. eigenvalues --   -1.14324  -1.14302  -1.13980  -1.13883  -1.13855
 Alpha  occ. eigenvalues --   -1.13737  -1.13640  -1.13594  -1.13573  -1.13524
 Alpha  occ. eigenvalues --   -1.13509  -1.13239  -1.13202  -1.13191  -1.12747
 Alpha  occ. eigenvalues --   -1.12724  -1.12686  -1.12478  -1.12451  -1.12409
 Alpha  occ. eigenvalues --   -0.18854  -0.13718  -0.11765  -0.11034
 Alpha virt. eigenvalues --   -0.06502  -0.05201  -0.03890  -0.03600  -0.02824
 Alpha virt. eigenvalues --   -0.02547  -0.02057  -0.01081  -0.00235  -0.00137
 Alpha virt. eigenvalues --   -0.00034   0.00319   0.00644   0.00743   0.00869

  Beta  occ. eigenvalues --  -38.44875 -38.44352 -38.43978 -38.43933 -38.43511
  Beta  occ. eigenvalues --  -38.43190 -38.42956  -2.20669  -2.20220  -2.19896
  Beta  occ. eigenvalues --   -2.19798  -2.19446  -2.19058  -2.18768  -1.14337
  Beta  occ. eigenvalues --   -1.14323  -1.14308  -1.13980  -1.13861  -1.13836
  Beta  occ. eigenvalues --   -1.13697  -1.13548  -1.13503  -1.13497  -1.13463
  Beta  occ. eigenvalues --   -1.13446  -1.13146  -1.13110  -1.13084  -1.12741
  Beta  occ. eigenvalues --   -1.12703  -1.12685  -1.12461  -1.12427  -1.12400
  Beta  occ. eigenvalues --   -0.18094  -0.13506  -0.11506
  Beta virt. eigenvalues --   -0.07106  -0.06386  -0.05199  -0.03828  -0.02840
  Beta virt. eigenvalues --   -0.01976  -0.01949  -0.01607  -0.01052  -0.00261
  Beta virt. eigenvalues --   -0.00120   0.00090   0.00343   0.00787   0.00861

 Mulliken charges and spin densities:
               1          2
     1  Na   0.169134  -0.080047
     2  Na  -0.159508  -0.055774
     3  Na  -0.507620   0.596444
     4  Na  -0.178593   0.524962
     5  Na  -0.022627  -0.041653
     6  Na   0.695526   0.022463
     7  Na   0.003687   0.033605
 Sum of Mulliken charges =  -0.00000   1.00000

 Dipole moment (field-independent basis, Debye):
    X=             -0.1564    Y=              0.0661    Z=              0.3516  Tot=              0.3905
 Quadrupole moment (field-independent basis, Debye-Ang):
   XX=            -50.9013   YY=            -70.3498   ZZ=            -73.1410
   XY=              0.8966   XZ=             -0.4931   YZ=             -0.4236

 Normal termination of Gaussian 16 at Tue Dec  5 15:18:50 2023.
