 Gaussian 16, Revision B.01,
 Gaussian 16:  ES64L-G16RevB.01 20-Dec-2017

 -------------------------
 #P B3LYP/6-311+g(d) force
 -------------------------

 -----
 DPGEN
 -----
 Symbolic Z-matrix:
 Charge =  0 Multiplicity = 2

                         Standard orientation:
 ---------------------------------------------------------------------
 Center     Atomic      Atomic             Coordinates (Angstroms)
 Number     Number       Type             X           Y           Z
 ---------------------------------------------------------------------
      1         11           0        2.434546    1.763987   -0.169676
      2         11           0       -0.771534   -2.592730    0.006219
      3         11           0       -0.061884   -0.117173   -1.617653
      4         11           0        0.170700   -0.202565    2.064877
      5         11           0       -3.335954   -0.057129   -0.169190
      6         11           0        2.549500   -1.490905   -0.201424
      7         11           0       -0.985375    2.696515    0.086848
 ---------------------------------------------------------------------

 SCF Done:  E(UB3LYP) =  -1136.13793991     A.U. after   19 cycles

 The electronic state is 2-A.
 Alpha  occ. eigenvalues --  -38.44302 -38.43617 -38.43560 -38.43556 -38.43303
 Alpha  occ. eigenvalues --  -38.43198 -38.43156  -2.20101  -2.19515  -2.19471
 Alpha  occ. eigenvalues --   -2.19419  -2.19214  -2.19140  -2.19070  -1.13775
 Alpha  occ. eigenvalues --   -1.13750  -1.13749  -1.13231  -1.13187  -1.13172
 Alpha  occ. eigenvalues --   -1.13136  -1.13104  -1.13092  -1.13082  -1.13066
 Alpha  occ. eigenvalues --   -1.13048  -1.12966  -1.12886  -1.12832  -1.12810
 Alpha  occ. eigenvalues --   -1.12797  -1.12764  -1.12735  -1.12712  -1.12667
 Alpha  occ. eigenvalues --   -0.18934  -0.13098  -0.12449  -0.10852
 Alpha virt. eigenvalues --   -0.05793  -0.05004  -0.04502  -0.03140  -0.02870
 Alpha virt. eigenvalues --   -0.02620  -0.01683  -0.00991  -0.00273  -0.00176
 Alpha virt. eigenvalues --   -0.00021   0.00345   0.00800   0.00913   0.00917

  Beta  occ. eigenvalues --  -38.44301 -38.43609 -38.43552 -38.43460 -38.43299
  Beta  occ. eigenvalues --  -38.43146 -38.43135  -2.20102  -2.19503  -2.19414
  Beta  occ. eigenvalues --   -2.19286  -2.19136  -2.19101  -2.19057  -1.13761
  Beta  occ. eigenvalues --   -1.13753  -1.13751  -1.13221  -1.13171  -1.13135
  Beta  occ. eigenvalues --   -1.13082  -1.13056  -1.13043  -1.13024  -1.12965
  Beta  occ. eigenvalues --   -1.12955  -1.12908  -1.12840  -1.12790  -1.12775
  Beta  occ. eigenvalues --   -1.12766  -1.12731  -1.12705  -1.12668  -1.12658
  Beta  occ. eigenvalues --   -0.18187  -0.12862  -0.12197
  Beta virt. eigenvalues --   -0.06886  -0.05757  -0.05018  -0.04469  -0.02376
  Beta virt. eigenvalues --   -0.02058  -0.01612  -0.01508  -0.00938  -0.00311
  Beta virt. eigenvalues --   -0.00235   0.00124   0.00370   0.00847   0.00903

 Mulliken charges and spin densities:
               1          2
     1  Na   0.091505  -0.035768
     2  Na   0.399587  -0.045422
     3  Na  -0.440436   0.457183
     4  Na  -0.589973   0.762238
     5  Na   0.043070  -0.080985
     6  Na   0.466619   0.017391
     7  Na   0.029627  -0.074636
 Sum of Mulliken charges =  -0.00000   1.00000

 Dipole moment (field-independent basis, Debye):
    X=             -0.2416    Y=              0.0205    Z=              0.1554  Tot=              0.2880
 Quadrupole moment (field-independent basis, Debye-Ang):
   XX=            -54.7133   YY=            -64.6218   ZZ=            -73.9339
   XY=             -0.0437   XZ=             -0.4097   YZ=              0.2355

 Normal termination of Gaussian 16 at Thu Dec  7 06:52:44 2023.
