 Gaussian 16, Revision B.01,
 Gaussian 16:  ES64L-G16RevB.01 20-Dec-2017

 -------------------------
 #P B3LYP/6-311+g(d) force
 -------------------------

 -----
 DPGEN
 -----
 Symbolic Z-matrix:
 Charge =  0 Multiplicity = 2

                         Standard orientation:
 ---------------------------------------------------------------------
 Center     Atomic      Atomic             Coordinates (Angstroms)
 Number     Number       Type             X           Y           Z
 ---------------------------------------------------------------------
      1         11           0        1.295946   -2.346979   -0.141665
      2         11           0        0.497408    2.809704    0.804840
      3         11           0       -2.732543    1.471342   -0.776970
      4         11           0       -0.009687   -0.430230    2.262349
      5         11           0        3.067064    0.554628   -0.730099
      6         11           0       -0.101074   -0.100684   -1.534340
      7         11           0       -2.017114   -1.957782    0.115886
 ---------------------------------------------------------------------

 SCF Done:  E(UB3LYP) =  -1136.13271101     A.U. after   20 cycles

 The electronic state is 2-A.
 Alpha  occ. eigenvalues --  -38.44312 -38.43680 -38.43646 -38.43607 -38.43380
 Alpha  occ. eigenvalues --  -38.43277 -38.43217  -2.20207  -2.19509  -2.19449
 Alpha  occ. eigenvalues --   -2.19438  -2.19338  -2.19295  -2.19161  -1.13863
 Alpha  occ. eigenvalues --   -1.13845  -1.13821  -1.13216  -1.13181  -1.13164
 Alpha  occ. eigenvalues --   -1.13145  -1.13135  -1.13132  -1.13099  -1.13086
 Alpha  occ. eigenvalues --   -1.13080  -1.13057  -1.13012  -1.12977  -1.12959
 Alpha  occ. eigenvalues --   -1.12912  -1.12891  -1.12822  -1.12804  -1.12744
 Alpha  occ. eigenvalues --   -0.18848  -0.12761  -0.12458  -0.11587
 Alpha virt. eigenvalues --   -0.05127  -0.04923  -0.04596  -0.03329  -0.03183
 Alpha virt. eigenvalues --   -0.03095  -0.01281  -0.00967  -0.00312   0.00072
 Alpha virt. eigenvalues --    0.00176   0.00349   0.00853   0.00902   0.00934

  Beta  occ. eigenvalues --  -38.44209 -38.43670 -38.43628 -38.43594 -38.43374
  Beta  occ. eigenvalues --  -38.43223 -38.43209  -2.20017  -2.19493  -2.19419
  Beta  occ. eigenvalues --   -2.19413  -2.19288  -2.19240  -2.19150  -1.13739
  Beta  occ. eigenvalues --   -1.13717  -1.13677  -1.13189  -1.13159  -1.13146
  Beta  occ. eigenvalues --   -1.13128  -1.13102  -1.13098  -1.13073  -1.13069
  Beta  occ. eigenvalues --   -1.13064  -1.13039  -1.12981  -1.12947  -1.12903
  Beta  occ. eigenvalues --   -1.12895  -1.12841  -1.12802  -1.12774  -1.12726
  Beta  occ. eigenvalues --   -0.18115  -0.12442  -0.12208
  Beta virt. eigenvalues --   -0.07639  -0.04999  -0.04880  -0.04483  -0.02595
  Beta virt. eigenvalues --   -0.02513  -0.02051  -0.01181  -0.00928  -0.00139
  Beta virt. eigenvalues --    0.00131   0.00137   0.00386   0.00899   0.00941

 Mulliken charges and spin densities:
               1          2
     1  Na   0.331871   0.061692
     2  Na  -0.025353   0.166818
     3  Na   0.129491   0.009923
     4  Na  -0.453071   0.506131
     5  Na   0.070312  -0.008031
     6  Na  -0.391560   0.162054
     7  Na   0.338309   0.101412
 Sum of Mulliken charges =  -0.00000   1.00000

 Dipole moment (field-independent basis, Debye):
    X=              0.0093    Y=              0.0539    Z=              0.3560  Tot=              0.3602
 Quadrupole moment (field-independent basis, Debye-Ang):
   XX=            -60.1142   YY=            -64.4261   ZZ=            -70.1274
   XY=              0.3558   XZ=             -0.3251   YZ=              0.2474

 Normal termination of Gaussian 16 at Tue Dec  5 17:32:50 2023.
