 Gaussian 16, Revision B.01,
 Gaussian 16:  ES64L-G16RevB.01 20-Dec-2017

 -------------------------
 #P B3LYP/6-311+g(d) force
 -------------------------

 -----
 DPGEN
 -----
 Symbolic Z-matrix:
 Charge =  0 Multiplicity = 2

                         Standard orientation:
 ---------------------------------------------------------------------
 Center     Atomic      Atomic             Coordinates (Angstroms)
 Number     Number       Type             X           Y           Z
 ---------------------------------------------------------------------
      1         11           0       -2.346124    1.858410   -0.226632
      2         11           0       -0.116129   -0.108952   -1.624711
      3         11           0       -2.995195   -1.363384    0.147680
      4         11           0        3.257387   -0.844820   -0.126681
      5         11           0        0.233373    0.526428    2.040752
      6         11           0        0.465279   -2.890060    0.024854
      7         11           0        1.501409    2.822377   -0.235262
 ---------------------------------------------------------------------

 SCF Done:  E(UB3LYP) =  -1136.13605102     A.U. after   20 cycles

 The electronic state is 2-A.
 Alpha  occ. eigenvalues --  -38.44495 -38.43974 -38.43897 -38.43757 -38.43454
 Alpha  occ. eigenvalues --  -38.43425 -38.43205  -2.20278  -2.19789  -2.19749
 Alpha  occ. eigenvalues --   -2.19555  -2.19317  -2.19260  -2.19151  -1.13954
 Alpha  occ. eigenvalues --   -1.13932  -1.13920  -1.13492  -1.13454  -1.13441
 Alpha  occ. eigenvalues --   -1.13433  -1.13404  -1.13354  -1.13232  -1.13221
 Alpha  occ. eigenvalues --   -1.13194  -1.12987  -1.12974  -1.12942  -1.12937
 Alpha  occ. eigenvalues --   -1.12921  -1.12884  -1.12834  -1.12784  -1.12764
 Alpha  occ. eigenvalues --   -0.18233  -0.12972  -0.12360  -0.10391
 Alpha virt. eigenvalues --   -0.05919  -0.05456  -0.04729  -0.03087  -0.02853
 Alpha virt. eigenvalues --   -0.02351  -0.01730  -0.01334  -0.00608  -0.00510
 Alpha virt. eigenvalues --   -0.00018   0.00339   0.00738   0.00799   0.00864

  Beta  occ. eigenvalues --  -38.44494 -38.43972 -38.43889 -38.43753 -38.43421
  Beta  occ. eigenvalues --  -38.43364 -38.43143  -2.20278  -2.19788  -2.19737
  Beta  occ. eigenvalues --   -2.19552  -2.19256  -2.19148  -2.19038  -1.13939
  Beta  occ. eigenvalues --   -1.13933  -1.13923  -1.13492  -1.13442  -1.13433
  Beta  occ. eigenvalues --   -1.13418  -1.13378  -1.13351  -1.13221  -1.13205
  Beta  occ. eigenvalues --   -1.13195  -1.12964  -1.12905  -1.12883  -1.12871
  Beta  occ. eigenvalues --   -1.12822  -1.12816  -1.12756  -1.12703  -1.12683
  Beta  occ. eigenvalues --   -0.17525  -0.12780  -0.12142
  Beta virt. eigenvalues --   -0.06518  -0.05900  -0.05416  -0.04668  -0.02350
  Beta virt. eigenvalues --   -0.02104  -0.01641  -0.01336  -0.01256  -0.00661
  Beta virt. eigenvalues --   -0.00542   0.00139   0.00372   0.00791   0.00799

 Mulliken charges and spin densities:
               1          2
     1  Na   0.324650  -0.037541
     2  Na  -0.095340   0.511658
     3  Na   0.018217   0.001335
     4  Na   0.071970  -0.087458
     5  Na  -0.489080   0.797641
     6  Na   0.064110  -0.049311
     7  Na   0.105473  -0.136324
 Sum of Mulliken charges =  -0.00000   1.00000

 Dipole moment (field-independent basis, Debye):
    X=              0.2101    Y=              0.0606    Z=              0.0449  Tot=              0.2233
 Quadrupole moment (field-independent basis, Debye-Ang):
   XX=            -54.1766   YY=            -62.0944   ZZ=            -76.2524
   XY=              0.7573   XZ=             -0.9279   YZ=             -1.6123

 Normal termination of Gaussian 16 at Thu Dec  7 19:21:16 2023.
