 Gaussian 16, Revision B.01,
 Gaussian 16:  ES64L-G16RevB.01 20-Dec-2017

 -------------------------
 #P B3LYP/6-311+g(d) force
 -------------------------

 -----
 DPGEN
 -----
 Symbolic Z-matrix:
 Charge =  0 Multiplicity = 2

                         Standard orientation:
 ---------------------------------------------------------------------
 Center     Atomic      Atomic             Coordinates (Angstroms)
 Number     Number       Type             X           Y           Z
 ---------------------------------------------------------------------
      1         11           0        2.334525   -2.415325    0.972716
      2         11           0        0.487368    2.636292   -0.594963
      3         11           0       -2.438563    1.276537    1.028958
      4         11           0       -3.754052   -1.464301   -0.707451
      5         11           0       -0.374632   -0.864811   -1.542847
      6         11           0        3.147029    0.450459   -1.259554
      7         11           0        0.598325    0.381147    2.103140
 ---------------------------------------------------------------------

 SCF Done:  E(UB3LYP) =  -1136.12846386     A.U. after   21 cycles

 The electronic state is 2-A.
 Alpha  occ. eigenvalues --  -38.44818 -38.44368 -38.44168 -38.43842 -38.43812
 Alpha  occ. eigenvalues --  -38.43606 -38.43088  -2.20624  -2.20181  -2.20046
 Alpha  occ. eigenvalues --   -2.19686  -2.19615  -2.19393  -2.18934  -1.14299
 Alpha  occ. eigenvalues --   -1.14276  -1.14243  -1.13877  -1.13858  -1.13782
 Alpha  occ. eigenvalues --   -1.13731  -1.13692  -1.13656  -1.13387  -1.13350
 Alpha  occ. eigenvalues --   -1.13291  -1.13285  -1.13269  -1.13237  -1.13059
 Alpha  occ. eigenvalues --   -1.13054  -1.13031  -1.12619  -1.12604  -1.12559
 Alpha  occ. eigenvalues --   -0.17879  -0.13331  -0.11804  -0.11444
 Alpha virt. eigenvalues --   -0.06193  -0.05115  -0.04786  -0.03245  -0.03048
 Alpha virt. eigenvalues --   -0.02762  -0.02100  -0.01082  -0.00692  -0.00155
 Alpha virt. eigenvalues --    0.00035   0.00207   0.00373   0.00512   0.00724

  Beta  occ. eigenvalues --  -38.44782 -38.44337 -38.44089 -38.43828 -38.43776
  Beta  occ. eigenvalues --  -38.43605 -38.43078  -2.20559  -2.20124  -2.19902
  Beta  occ. eigenvalues --   -2.19662  -2.19551  -2.19392  -2.18918  -1.14249
  Beta  occ. eigenvalues --   -1.14232  -1.14194  -1.13836  -1.13814  -1.13741
  Beta  occ. eigenvalues --   -1.13635  -1.13595  -1.13542  -1.13358  -1.13336
  Beta  occ. eigenvalues --   -1.13274  -1.13230  -1.13223  -1.13198  -1.13055
  Beta  occ. eigenvalues --   -1.13054  -1.13029  -1.12607  -1.12598  -1.12525
  Beta  occ. eigenvalues --   -0.17165  -0.13080  -0.11254
  Beta virt. eigenvalues --   -0.07884  -0.06011  -0.04891  -0.04315  -0.02881
  Beta virt. eigenvalues --   -0.02514  -0.02185  -0.01818  -0.00959  -0.00414
  Beta virt. eigenvalues --   -0.00071   0.00068   0.00254   0.00484   0.00685

 Mulliken charges and spin densities:
               1          2
     1  Na   0.130262   0.063435
     2  Na  -0.074727   0.038747
     3  Na   0.204446   0.013005
     4  Na   0.136399  -0.075805
     5  Na  -0.587051   0.374920
     6  Na   0.417116   0.109145
     7  Na  -0.226444   0.476553
 Sum of Mulliken charges =  -0.00000   1.00000

 Dipole moment (field-independent basis, Debye):
    X=              0.5150    Y=              0.1274    Z=             -0.0226  Tot=              0.5310
 Quadrupole moment (field-independent basis, Debye-Ang):
   XX=            -56.4906   YY=            -70.3960   ZZ=            -69.1026
   XY=             -0.3416   XZ=             -3.2013   YZ=             -2.2564

 Normal termination of Gaussian 16 at Thu Dec  7 10:53:57 2023.
