 Gaussian 16, Revision B.01,
 Gaussian 16:  ES64L-G16RevB.01 20-Dec-2017

 -------------------------
 #P B3LYP/6-311+g(d) force
 -------------------------

 -----
 DPGEN
 -----
 Symbolic Z-matrix:
 Charge =  0 Multiplicity = 2

                         Standard orientation:
 ---------------------------------------------------------------------
 Center     Atomic      Atomic             Coordinates (Angstroms)
 Number     Number       Type             X           Y           Z
 ---------------------------------------------------------------------
      1         11           0       -0.490129    0.549887   -1.616488
      2         11           0        1.167729    2.660353   -0.175950
      3         11           0       -2.402358    1.608851    0.355563
      4         11           0       -2.783681   -1.539210    0.167937
      5         11           0        0.465232   -0.644096    2.312842
      6         11           0        3.367928   -0.437169    0.135096
      7         11           0        0.675280   -2.198616   -1.179000
 ---------------------------------------------------------------------

 SCF Done:  E(UB3LYP) =  -1136.12716909     A.U. after   20 cycles

 The electronic state is 2-A.
 Alpha  occ. eigenvalues --  -38.44650 -38.44525 -38.43846 -38.43792 -38.43456
 Alpha  occ. eigenvalues --  -38.43392 -38.43098  -2.20459  -2.20314  -2.19745
 Alpha  occ. eigenvalues --   -2.19631  -2.19496  -2.19277  -2.18938  -1.14112
 Alpha  occ. eigenvalues --   -1.14096  -1.14080  -1.13987  -1.13967  -1.13958
 Alpha  occ. eigenvalues --   -1.13548  -1.13417  -1.13385  -1.13289  -1.13275
 Alpha  occ. eigenvalues --   -1.13260  -1.13222  -1.13156  -1.13105  -1.12943
 Alpha  occ. eigenvalues --   -1.12901  -1.12873  -1.12635  -1.12592  -1.12546
 Alpha  occ. eigenvalues --   -0.18507  -0.13221  -0.11915  -0.11425
 Alpha virt. eigenvalues --   -0.06042  -0.05004  -0.04056  -0.03673  -0.03126
 Alpha virt. eigenvalues --   -0.02892  -0.01724  -0.00902  -0.00270  -0.00079
 Alpha virt. eigenvalues --    0.00066   0.00370   0.00576   0.00784   0.00878

  Beta  occ. eigenvalues --  -38.44561 -38.44527 -38.43839 -38.43790 -38.43397
  Beta  occ. eigenvalues --  -38.43348 -38.43096  -2.20320  -2.20293  -2.19733
  Beta  occ. eigenvalues --   -2.19632  -2.19391  -2.19200  -2.18937  -1.14004
  Beta  occ. eigenvalues --   -1.13986  -1.13979  -1.13977  -1.13965  -1.13943
  Beta  occ. eigenvalues --   -1.13529  -1.13403  -1.13371  -1.13276  -1.13271
  Beta  occ. eigenvalues --   -1.13255  -1.13147  -1.13084  -1.13037  -1.12881
  Beta  occ. eigenvalues --   -1.12838  -1.12823  -1.12623  -1.12583  -1.12548
  Beta  occ. eigenvalues --   -0.17776  -0.13038  -0.11697
  Beta virt. eigenvalues --   -0.07455  -0.05839  -0.05029  -0.03855  -0.03018
  Beta virt. eigenvalues --   -0.02349  -0.01981  -0.01595  -0.00874  -0.00201
  Beta virt. eigenvalues --    0.00023   0.00094   0.00393   0.00758   0.00881

 Mulliken charges and spin densities:
               1          2
     1  Na   0.321382   0.030090
     2  Na  -0.000120  -0.013748
     3  Na  -0.025905   0.146375
     4  Na   0.052033   0.053451
     5  Na  -0.575750   0.623333
     6  Na   0.009145   0.023787
     7  Na   0.219215   0.136711
 Sum of Mulliken charges =  -0.00000   1.00000

 Dipole moment (field-independent basis, Debye):
    X=              0.2785    Y=             -0.2437    Z=              0.6490  Tot=              0.7471
 Quadrupole moment (field-independent basis, Debye-Ang):
   XX=            -55.0945   YY=            -69.6800   ZZ=            -70.4460
   XY=              0.8337   XZ=             -1.3077   YZ=              1.7490

 Normal termination of Gaussian 16 at Thu Dec  7 12:28:55 2023.
