 Gaussian 16, Revision B.01,
 Gaussian 16:  ES64L-G16RevB.01 20-Dec-2017

 -------------------------
 #P B3LYP/6-311+g(d) force
 -------------------------

 -----
 DPGEN
 -----
 Symbolic Z-matrix:
 Charge =  0 Multiplicity = 2

                         Standard orientation:
 ---------------------------------------------------------------------
 Center     Atomic      Atomic             Coordinates (Angstroms)
 Number     Number       Type             X           Y           Z
 ---------------------------------------------------------------------
      1         11           0       -0.229763   -0.747417    1.820731
      2         11           0        3.242205    0.494520    0.246364
      3         11           0        0.776703    2.663734    0.135375
      4         11           0       -2.728250    1.671966    0.070891
      5         11           0       -0.050666    0.298193   -1.749734
      6         11           0        1.378323   -2.583464   -0.433124
      7         11           0       -2.388552   -1.797533   -0.090502
 ---------------------------------------------------------------------

 SCF Done:  E(UB3LYP) =  -1136.13647426     A.U. after   19 cycles

 The electronic state is 2-A.
 Alpha  occ. eigenvalues --  -38.44188 -38.43946 -38.43925 -38.43544 -38.43397
 Alpha  occ. eigenvalues --  -38.43269 -38.43160  -2.20002  -2.19798  -2.19768
 Alpha  occ. eigenvalues --   -2.19389  -2.19325  -2.19144  -2.19118  -1.13676
 Alpha  occ. eigenvalues --   -1.13663  -1.13643  -1.13531  -1.13466  -1.13442
 Alpha  occ. eigenvalues --   -1.13434  -1.13422  -1.13387  -1.13088  -1.13066
 Alpha  occ. eigenvalues --   -1.13015  -1.12988  -1.12955  -1.12928  -1.12912
 Alpha  occ. eigenvalues --   -1.12804  -1.12778  -1.12767  -1.12724  -1.12718
 Alpha  occ. eigenvalues --   -0.18654  -0.13130  -0.12509  -0.10524
 Alpha virt. eigenvalues --   -0.05733  -0.05476  -0.04517  -0.03170  -0.02949
 Alpha virt. eigenvalues --   -0.02281  -0.01625  -0.01222  -0.00439  -0.00268
 Alpha virt. eigenvalues --   -0.00001   0.00355   0.00774   0.00844   0.00899

  Beta  occ. eigenvalues --  -38.44184 -38.43944 -38.43918 -38.43531 -38.43327
  Beta  occ. eigenvalues --  -38.43263 -38.43084  -2.19997  -2.19790  -2.19766
  Beta  occ. eigenvalues --   -2.19370  -2.19196  -2.19135  -2.18979  -1.13672
  Beta  occ. eigenvalues --   -1.13647  -1.13642  -1.13516  -1.13453  -1.13425
  Beta  occ. eigenvalues --   -1.13421  -1.13413  -1.13387  -1.13070  -1.13024
  Beta  occ. eigenvalues --   -1.13005  -1.12907  -1.12880  -1.12860  -1.12840
  Beta  occ. eigenvalues --   -1.12778  -1.12763  -1.12692  -1.12637  -1.12621
  Beta  occ. eigenvalues --   -0.17941  -0.12895  -0.12277
  Beta virt. eigenvalues --   -0.06667  -0.05671  -0.05464  -0.04450  -0.02411
  Beta virt. eigenvalues --   -0.02195  -0.01539  -0.01274  -0.01157  -0.00485
  Beta virt. eigenvalues --   -0.00296   0.00142   0.00382   0.00824   0.00848

 Mulliken charges and spin densities:
               1          2
     1  Na  -0.408021   0.668140
     2  Na  -0.026602  -0.027287
     3  Na   0.057004  -0.059526
     4  Na   0.026748  -0.093818
     5  Na  -0.179534   0.623628
     6  Na   0.115386  -0.056474
     7  Na   0.415018  -0.054665
 Sum of Mulliken charges =  -0.00000   1.00000

 Dipole moment (field-independent basis, Debye):
    X=             -0.0557    Y=             -0.1031    Z=              0.0510  Tot=              0.1278
 Quadrupole moment (field-independent basis, Debye-Ang):
   XX=            -54.4201   YY=            -63.6499   ZZ=            -75.0314
   XY=             -0.9139   XZ=              0.5545   YZ=              2.2314

 Normal termination of Gaussian 16 at Tue Dec  5 14:34:13 2023.
