 Gaussian 16, Revision B.01,
 Gaussian 16:  ES64L-G16RevB.01 20-Dec-2017

 -------------------------
 #P B3LYP/6-311+g(d) force
 -------------------------

 -----
 DPGEN
 -----
 Symbolic Z-matrix:
 Charge =  0 Multiplicity = 2

                         Standard orientation:
 ---------------------------------------------------------------------
 Center     Atomic      Atomic             Coordinates (Angstroms)
 Number     Number       Type             X           Y           Z
 ---------------------------------------------------------------------
      1         11           0       -0.123494   -0.497637   -1.865277
      2         11           0        2.416425   -1.776855    0.134392
      3         11           0        0.003273   -0.004248    1.884641
      4         11           0       -0.359479    2.817425   -0.099201
      5         11           0       -1.238584   -2.477443    0.078427
      6         11           0       -3.495081    0.515909    0.020320
      7         11           0        2.796940    1.422850   -0.153301
 ---------------------------------------------------------------------

 SCF Done:  E(UB3LYP) =  -1136.13458805     A.U. after   19 cycles

 The electronic state is 2-A.
 Alpha  occ. eigenvalues --  -38.44830 -38.43808 -38.43684 -38.43535 -38.43457
 Alpha  occ. eigenvalues --  -38.43398 -38.43254  -2.20586  -2.19652  -2.19554
 Alpha  occ. eigenvalues --   -2.19468  -2.19381  -2.19296  -2.19078  -1.14264
 Alpha  occ. eigenvalues --   -1.14240  -1.14225  -1.13358  -1.13313  -1.13303
 Alpha  occ. eigenvalues --   -1.13252  -1.13223  -1.13211  -1.13177  -1.13113
 Alpha  occ. eigenvalues --   -1.13069  -1.13063  -1.13033  -1.12992  -1.12940
 Alpha  occ. eigenvalues --   -1.12937  -1.12885  -1.12759  -1.12751  -1.12701
 Alpha  occ. eigenvalues --   -0.18606  -0.13071  -0.12297  -0.10704
 Alpha virt. eigenvalues --   -0.06215  -0.05068  -0.04423  -0.03216  -0.02849
 Alpha virt. eigenvalues --   -0.02524  -0.01957  -0.01051  -0.00338  -0.00293
 Alpha virt. eigenvalues --   -0.00041   0.00331   0.00762   0.00842   0.00867

  Beta  occ. eigenvalues --  -38.44833 -38.43805 -38.43677 -38.43456 -38.43387
  Beta  occ. eigenvalues --  -38.43373 -38.43250  -2.20593  -2.19649  -2.19545
  Beta  occ. eigenvalues --   -2.19325  -2.19281  -2.19226  -2.19073  -1.14256
  Beta  occ. eigenvalues --   -1.14246  -1.14231  -1.13359  -1.13304  -1.13289
  Beta  occ. eigenvalues --   -1.13219  -1.13184  -1.13181  -1.13160  -1.13016
  Beta  occ. eigenvalues --   -1.12984  -1.12964  -1.12935  -1.12893  -1.12885
  Beta  occ. eigenvalues --   -1.12876  -1.12869  -1.12754  -1.12728  -1.12702
  Beta  occ. eigenvalues --   -0.17856  -0.12869  -0.12054
  Beta virt. eigenvalues --   -0.06784  -0.06186  -0.05067  -0.04367  -0.02451
  Beta virt. eigenvalues --   -0.02061  -0.01879  -0.01468  -0.01002  -0.00395
  Beta virt. eigenvalues --   -0.00329   0.00103   0.00348   0.00801   0.00864

 Mulliken charges and spin densities:
               1          2
     1  Na  -0.370159   0.734329
     2  Na   0.419982  -0.019446
     3  Na  -0.306975   0.736264
     4  Na  -0.058706  -0.135862
     5  Na   0.403473  -0.129745
     6  Na  -0.041601  -0.133228
     7  Na  -0.046014  -0.052311
 Sum of Mulliken charges =  -0.00000   1.00000

 Dipole moment (field-independent basis, Debye):
    X=             -0.4104    Y=             -0.0019    Z=              0.0079  Tot=              0.4105
 Quadrupole moment (field-independent basis, Debye-Ang):
   XX=            -52.6785   YY=            -65.8939   ZZ=            -74.5360
   XY=             -0.6484   XZ=             -0.3028   YZ=             -1.1512

 Normal termination of Gaussian 16 at Fri Dec  8 02:33:22 2023.
