 Gaussian 16, Revision B.01,
 Gaussian 16:  ES64L-G16RevB.01 20-Dec-2017

 -------------------------
 #P B3LYP/6-311+g(d) force
 -------------------------

 -----
 DPGEN
 -----
 Symbolic Z-matrix:
 Charge =  0 Multiplicity = 2

                         Standard orientation:
 ---------------------------------------------------------------------
 Center     Atomic      Atomic             Coordinates (Angstroms)
 Number     Number       Type             X           Y           Z
 ---------------------------------------------------------------------
      1         11           0        3.946248    0.404751    0.896964
      2         11           0       -1.060857   -1.074350   -1.368170
      3         11           0        2.460092   -2.180907   -0.682330
      4         11           0        1.255447    1.939482   -1.036876
      5         11           0       -3.827075   -1.385859    0.670656
      6         11           0       -2.485044    2.024871   -0.452972
      7         11           0       -0.288811    0.272012    1.972728
 ---------------------------------------------------------------------

 SCF Done:  E(UB3LYP) =  -1136.11858812     A.U. after   25 cycles

 The electronic state is 2-A.
 Alpha  occ. eigenvalues --  -38.45676 -38.44836 -38.44360 -38.44137 -38.43860
 Alpha  occ. eigenvalues --  -38.43595 -38.43320  -2.21451  -2.20628  -2.20167
 Alpha  occ. eigenvalues --   -2.19918  -2.19650  -2.19466  -2.19131  -1.15149
 Alpha  occ. eigenvalues --   -1.15092  -1.15061  -1.14298  -1.14277  -1.14264
 Alpha  occ. eigenvalues --   -1.13856  -1.13825  -1.13784  -1.13590  -1.13586
 Alpha  occ. eigenvalues --   -1.13557  -1.13323  -1.13311  -1.13293  -1.13164
 Alpha  occ. eigenvalues --   -1.13102  -1.13087  -1.12816  -1.12802  -1.12749
 Alpha  occ. eigenvalues --   -0.17684  -0.13898  -0.11014  -0.10697
 Alpha virt. eigenvalues --   -0.07207  -0.05833  -0.04671  -0.03158  -0.02806
 Alpha virt. eigenvalues --   -0.02480  -0.02256  -0.01475  -0.01152  -0.00563
 Alpha virt. eigenvalues --    0.00025   0.00053   0.00229   0.00429   0.00541

  Beta  occ. eigenvalues --  -38.45632 -38.44813 -38.44350 -38.44139 -38.43840
  Beta  occ. eigenvalues --  -38.43539 -38.43302  -2.21369  -2.20585  -2.20151
  Beta  occ. eigenvalues --   -2.19923  -2.19617  -2.19364  -2.19100  -1.15088
  Beta  occ. eigenvalues --   -1.15038  -1.14996  -1.14265  -1.14251  -1.14234
  Beta  occ. eigenvalues --   -1.13835  -1.13816  -1.13770  -1.13593  -1.13589
  Beta  occ. eigenvalues --   -1.13557  -1.13301  -1.13284  -1.13257  -1.13099
  Beta  occ. eigenvalues --   -1.13022  -1.13004  -1.12794  -1.12766  -1.12727
  Beta  occ. eigenvalues --   -0.17031  -0.13770  -0.10717
  Beta virt. eigenvalues --   -0.07157  -0.06791  -0.05797  -0.04146  -0.02911
  Beta virt. eigenvalues --   -0.02545  -0.01944  -0.01566  -0.01326  -0.00825
  Beta virt. eigenvalues --   -0.00546   0.00042   0.00111   0.00376   0.00548

 Mulliken charges and spin densities:
               1          2
     1  Na   0.273814   0.221493
     2  Na  -0.410493   0.376765
     3  Na  -0.096942  -0.005493
     4  Na  -0.140832   0.078258
     5  Na   0.329112  -0.037260
     6  Na   0.382844  -0.024858
     7  Na  -0.337501   0.391094
 Sum of Mulliken charges =  -0.00000   1.00000

 Dipole moment (field-independent basis, Debye):
    X=             -0.1182    Y=              0.6684    Z=              0.5955  Tot=              0.9030
 Quadrupole moment (field-independent basis, Debye-Ang):
   XX=            -50.7609   YY=            -74.8810   ZZ=            -70.6160
   XY=             -0.9942   XZ=              0.9236   YZ=             -0.9834

 Normal termination of Gaussian 16 at Thu Dec  7 09:02:23 2023.
