 Gaussian 16, Revision B.01,
 Gaussian 16:  ES64L-G16RevB.01 20-Dec-2017

 -------------------------
 #P B3LYP/6-311+g(d) force
 -------------------------

 -----
 DPGEN
 -----
 Symbolic Z-matrix:
 Charge =  0 Multiplicity = 2

                         Standard orientation:
 ---------------------------------------------------------------------
 Center     Atomic      Atomic             Coordinates (Angstroms)
 Number     Number       Type             X           Y           Z
 ---------------------------------------------------------------------
      1         11           0       -0.671117   -2.774520   -0.314207
      2         11           0        2.833750   -1.562718   -0.040126
      3         11           0        0.383283   -0.505616    1.572315
      4         11           0       -1.885934    2.593161    0.195807
      5         11           0       -2.996738   -0.804688    0.006657
      6         11           0        0.309461    0.554718   -1.495539
      7         11           0        2.027294    2.499662    0.075093
 ---------------------------------------------------------------------

 SCF Done:  E(UB3LYP) =  -1136.13010475     A.U. after   21 cycles

 The electronic state is 2-A.
 Alpha  occ. eigenvalues --  -38.44445 -38.44236 -38.44166 -38.43726 -38.43597
 Alpha  occ. eigenvalues --  -38.42878 -38.42799  -2.20273  -2.20075  -2.19964
 Alpha  occ. eigenvalues --   -2.19581  -2.19507  -2.18877  -2.18795  -1.13993
 Alpha  occ. eigenvalues --   -1.13925  -1.13886  -1.13775  -1.13729  -1.13702
 Alpha  occ. eigenvalues --   -1.13645  -1.13624  -1.13599  -1.13348  -1.13237
 Alpha  occ. eigenvalues --   -1.13223  -1.13192  -1.13147  -1.13098  -1.12608
 Alpha  occ. eigenvalues --   -1.12506  -1.12491  -1.12461  -1.12435  -1.12398
 Alpha  occ. eigenvalues --   -0.18708  -0.13081  -0.12869  -0.09843
 Alpha virt. eigenvalues --   -0.06073  -0.05351  -0.05005  -0.02899  -0.02742
 Alpha virt. eigenvalues --   -0.01692  -0.01647  -0.01532  -0.00687  -0.00493
 Alpha virt. eigenvalues --    0.00056   0.00337   0.00746   0.00831   0.00876

  Beta  occ. eigenvalues --  -38.44440 -38.44229 -38.44161 -38.43723 -38.43584
  Beta  occ. eigenvalues --  -38.42810 -38.42736  -2.20266  -2.20066  -2.19956
  Beta  occ. eigenvalues --   -2.19578  -2.19487  -2.18752  -2.18682  -1.13982
  Beta  occ. eigenvalues --   -1.13903  -1.13886  -1.13763  -1.13704  -1.13698
  Beta  occ. eigenvalues --   -1.13634  -1.13609  -1.13596  -1.13344  -1.13224
  Beta  occ. eigenvalues --   -1.13211  -1.13177  -1.13108  -1.13090  -1.12520
  Beta  occ. eigenvalues --   -1.12418  -1.12400  -1.12374  -1.12350  -1.12318
  Beta  occ. eigenvalues --   -0.18037  -0.12823  -0.12631
  Beta virt. eigenvalues --   -0.06156  -0.05936  -0.05288  -0.04971  -0.02133
  Beta virt. eigenvalues --   -0.02034  -0.01591  -0.01469  -0.00778  -0.00717
  Beta virt. eigenvalues --   -0.00510   0.00202   0.00392   0.00754   0.00847

 Mulliken charges and spin densities:
               1          2
     1  Na   0.295646   0.063689
     2  Na   0.349088  -0.102533
     3  Na  -0.442673   0.720064
     4  Na   0.027352  -0.017836
     5  Na  -0.058787  -0.041405
     6  Na  -0.300286   0.534544
     7  Na   0.129661  -0.156524
 Sum of Mulliken charges =  -0.00000   1.00000

 Dipole moment (field-independent basis, Debye):
    X=              0.3983    Y=              0.3739    Z=              0.0225  Tot=              0.5468
 Quadrupole moment (field-independent basis, Debye-Ang):
   XX=            -54.7874   YY=            -57.3049   ZZ=            -78.7063
   XY=             -0.6430   XZ=             -0.2835   YZ=              2.4446

 Normal termination of Gaussian 16 at Tue Nov 28 19:09:03 2023.
