 Gaussian 16, Revision B.01,
 Gaussian 16:  ES64L-G16RevB.01 20-Dec-2017

 -------------------------
 #P B3LYP/6-311+g(d) force
 -------------------------

 -----
 DPGEN
 -----
 Symbolic Z-matrix:
 Charge =  0 Multiplicity = 2

                         Standard orientation:
 ---------------------------------------------------------------------
 Center     Atomic      Atomic             Coordinates (Angstroms)
 Number     Number       Type             X           Y           Z
 ---------------------------------------------------------------------
      1         11           0       -1.562284    2.197110    0.951788
      2         11           0        4.294373   -0.187169   -0.419600
      3         11           0       -1.834129   -2.442107   -0.226973
      4         11           0        7.347529    0.429179   -0.398147
      5         11           0        0.773681   -0.842080    1.211156
      6         11           0       -4.811842   -1.341097   -0.258380
      7         11           0       -4.207329    2.186163   -0.859844
 ---------------------------------------------------------------------

 SCF Done:  E(UB3LYP) =  -1136.10915331     A.U. after   22 cycles

 The electronic state is 2-A.
 Alpha  occ. eigenvalues --  -38.45856 -38.45580 -38.44554 -38.43942 -38.43910
 Alpha  occ. eigenvalues --  -38.43699 -38.43611  -2.21660  -2.21403  -2.20373
 Alpha  occ. eigenvalues --   -2.19734  -2.19714  -2.19485  -2.19413  -1.15325
 Alpha  occ. eigenvalues --   -1.15299  -1.15271  -1.15081  -1.15052  -1.14998
 Alpha  occ. eigenvalues --   -1.14052  -1.14036  -1.14005  -1.13418  -1.13399
 Alpha  occ. eigenvalues --   -1.13383  -1.13383  -1.13377  -1.13353  -1.13155
 Alpha  occ. eigenvalues --   -1.13154  -1.13106  -1.13078  -1.13076  -1.13050
 Alpha  occ. eigenvalues --   -0.16594  -0.13554  -0.12781  -0.11776
 Alpha virt. eigenvalues --   -0.06507  -0.05589  -0.04622  -0.03872  -0.03306
 Alpha virt. eigenvalues --   -0.02258  -0.02136  -0.01695  -0.01521  -0.00728
 Alpha virt. eigenvalues --   -0.00598  -0.00229  -0.00096   0.00144   0.00618

  Beta  occ. eigenvalues --  -38.45769 -38.45498 -38.44527 -38.43923 -38.43908
  Beta  occ. eigenvalues --  -38.43704 -38.43592  -2.21500  -2.21253  -2.20327
  Beta  occ. eigenvalues --   -2.19715  -2.19699  -2.19495  -2.19377  -1.15217
  Beta  occ. eigenvalues --   -1.15196  -1.15148  -1.14970  -1.14952  -1.14897
  Beta  occ. eigenvalues --   -1.14015  -1.14009  -1.13955  -1.13396  -1.13387
  Beta  occ. eigenvalues --   -1.13378  -1.13359  -1.13359  -1.13349  -1.13164
  Beta  occ. eigenvalues --   -1.13162  -1.13099  -1.13055  -1.13042  -1.13035
  Beta  occ. eigenvalues --   -0.15662  -0.13260  -0.11703
  Beta virt. eigenvalues --   -0.08908  -0.06176  -0.05021  -0.04171  -0.03468
  Beta virt. eigenvalues --   -0.02988  -0.02145  -0.02020  -0.01460  -0.01139
  Beta virt. eigenvalues --   -0.00617  -0.00297   0.00017   0.00035   0.00308

 Mulliken charges and spin densities:
               1          2
     1  Na   0.110288   0.469330
     2  Na  -0.398629  -0.011338
     3  Na   0.246635   0.097600
     4  Na   0.814150   0.038653
     5  Na  -1.042610   0.206871
     6  Na   0.055377   0.305449
     7  Na   0.214790  -0.106566
 Sum of Mulliken charges =  -0.00000   1.00000

 Dipole moment (field-independent basis, Debye):
    X=             -1.8422    Y=              0.2556    Z=              0.0875  Tot=              1.8619
 Quadrupole moment (field-independent basis, Debye-Ang):
   XX=            -57.6124   YY=            -69.0485   ZZ=            -71.0333
   XY=              5.5357   XZ=              2.1294   YZ=              1.7447

 Normal termination of Gaussian 16 at Sun Dec  3 21:48:30 2023.
