 Gaussian 16, Revision B.01,
 Gaussian 16:  ES64L-G16RevB.01 20-Dec-2017

 -------------------------
 #P B3LYP/6-311+g(d) force
 -------------------------

 -----
 DPGEN
 -----
 Symbolic Z-matrix:
 Charge =  0 Multiplicity = 2

                         Standard orientation:
 ---------------------------------------------------------------------
 Center     Atomic      Atomic             Coordinates (Angstroms)
 Number     Number       Type             X           Y           Z
 ---------------------------------------------------------------------
      1         11           0        2.262305   -2.056916   -0.958399
      2         11           0       -1.990345    2.252311   -0.359773
      3         11           0        1.273250    1.512305   -1.011070
      4         11           0        3.138184    0.774486    1.500493
      5         11           0       -3.806181   -1.095325    0.617785
      6         11           0       -0.283336   -0.683984    1.633689
      7         11           0       -0.593877   -0.702877   -1.422725
 ---------------------------------------------------------------------

 SCF Done:  E(UB3LYP) =  -1136.12087124     A.U. after   24 cycles

 The electronic state is 2-A.
 Alpha  occ. eigenvalues --  -38.44748 -38.44536 -38.44479 -38.43854 -38.43695
 Alpha  occ. eigenvalues --  -38.43180 -38.42667  -2.20585  -2.20343  -2.20304
 Alpha  occ. eigenvalues --   -2.19737  -2.19703  -2.19009  -2.18633  -1.14247
 Alpha  occ. eigenvalues --   -1.14233  -1.14190  -1.14107  -1.13987  -1.13983
 Alpha  occ. eigenvalues --   -1.13961  -1.13943  -1.13911  -1.13499  -1.13426
 Alpha  occ. eigenvalues --   -1.13381  -1.13344  -1.13321  -1.13281  -1.12690
 Alpha  occ. eigenvalues --   -1.12680  -1.12635  -1.12366  -1.12293  -1.12211
 Alpha  occ. eigenvalues --   -0.18676  -0.13684  -0.11669  -0.11042
 Alpha virt. eigenvalues --   -0.06555  -0.05134  -0.04395  -0.03121  -0.02599
 Alpha virt. eigenvalues --   -0.02445  -0.02363  -0.01269  -0.00778   0.00047
 Alpha virt. eigenvalues --    0.00132   0.00228   0.00397   0.00600   0.00766

  Beta  occ. eigenvalues --  -38.44676 -38.44529 -38.44452 -38.43816 -38.43631
  Beta  occ. eigenvalues --  -38.43184 -38.42649  -2.20452  -2.20294  -2.20290
  Beta  occ. eigenvalues --   -2.19638  -2.19624  -2.19017  -2.18607  -1.14159
  Beta  occ. eigenvalues --   -1.14134  -1.14104  -1.14066  -1.13971  -1.13955
  Beta  occ. eigenvalues --   -1.13950  -1.13926  -1.13881  -1.13430  -1.13350
  Beta  occ. eigenvalues --   -1.13307  -1.13286  -1.13275  -1.13193  -1.12693
  Beta  occ. eigenvalues --   -1.12683  -1.12640  -1.12328  -1.12249  -1.12203
  Beta  occ. eigenvalues --   -0.17970  -0.13341  -0.10833
  Beta virt. eigenvalues --   -0.07742  -0.06300  -0.05062  -0.03829  -0.02886
  Beta virt. eigenvalues --   -0.02317  -0.01849  -0.01669  -0.01133  -0.00480
  Beta virt. eigenvalues --    0.00066   0.00180   0.00298   0.00481   0.00679

 Mulliken charges and spin densities:
               1          2
     1  Na   0.050685   0.031843
     2  Na  -0.074658  -0.145698
     3  Na  -0.025880   0.185190
     4  Na   0.273559   0.144815
     5  Na   0.385700   0.060086
     6  Na  -0.496913   0.385999
     7  Na  -0.112492   0.337765
 Sum of Mulliken charges =  -0.00000   1.00000

 Dipole moment (field-independent basis, Debye):
    X=             -0.1344    Y=             -0.2324    Z=              0.5000  Tot=              0.5675
 Quadrupole moment (field-independent basis, Debye-Ang):
   XX=            -48.8787   YY=            -74.5127   ZZ=            -69.3210
   XY=             -1.4477   XZ=              0.5757   YZ=              3.7005

 Normal termination of Gaussian 16 at Tue Dec  5 12:33:38 2023.
