 Gaussian 16, Revision B.01,
 Gaussian 16:  ES64L-G16RevB.01 20-Dec-2017

 -------------------------
 #P B3LYP/6-311+g(d) force
 -------------------------

 -----
 DPGEN
 -----
 Symbolic Z-matrix:
 Charge =  0 Multiplicity = 2

                         Standard orientation:
 ---------------------------------------------------------------------
 Center     Atomic      Atomic             Coordinates (Angstroms)
 Number     Number       Type             X           Y           Z
 ---------------------------------------------------------------------
      1         11           0        3.196592   -0.267981   -0.297865
      2         11           0        1.589615    2.342093    0.092798
      3         11           0       -0.448492    0.313451   -1.731011
      4         11           0        0.859790   -2.241871   -0.285645
      5         11           0       -0.117759   -0.666912    2.399916
      6         11           0       -2.403673    1.901633    0.292377
      7         11           0       -2.676073   -1.380413   -0.470570
 ---------------------------------------------------------------------

 SCF Done:  E(UB3LYP) =  -1136.12884475     A.U. after   21 cycles

 The electronic state is 2-A.
 Alpha  occ. eigenvalues --  -38.44379 -38.44262 -38.44040 -38.43862 -38.43673
 Alpha  occ. eigenvalues --  -38.43268 -38.42770  -2.20222  -2.20139  -2.19918
 Alpha  occ. eigenvalues --   -2.19699  -2.19668  -2.19115  -2.18711  -1.13877
 Alpha  occ. eigenvalues --   -1.13847  -1.13838  -1.13833  -1.13809  -1.13774
 Alpha  occ. eigenvalues --   -1.13667  -1.13573  -1.13537  -1.13413  -1.13360
 Alpha  occ. eigenvalues --   -1.13340  -1.13330  -1.13289  -1.13268  -1.12795
 Alpha  occ. eigenvalues --   -1.12775  -1.12751  -1.12401  -1.12374  -1.12342
 Alpha  occ. eigenvalues --   -0.18789  -0.13528  -0.11885  -0.11425
 Alpha virt. eigenvalues --   -0.05831  -0.05335  -0.03785  -0.03618  -0.03355
 Alpha virt. eigenvalues --   -0.02790  -0.01622  -0.00972  -0.00164  -0.00134
 Alpha virt. eigenvalues --    0.00082   0.00341   0.00704   0.00867   0.00914

  Beta  occ. eigenvalues --  -38.44272 -38.44260 -38.44029 -38.43857 -38.43617
  Beta  occ. eigenvalues --  -38.43266 -38.42759  -2.20137  -2.20024  -2.19902
  Beta  occ. eigenvalues --   -2.19691  -2.19567  -2.19114  -2.18696  -1.13834
  Beta  occ. eigenvalues --   -1.13810  -1.13760  -1.13745  -1.13705  -1.13701
  Beta  occ. eigenvalues --   -1.13642  -1.13550  -1.13526  -1.13394  -1.13339
  Beta  occ. eigenvalues --   -1.13324  -1.13280  -1.13212  -1.13204  -1.12794
  Beta  occ. eigenvalues --   -1.12766  -1.12747  -1.12394  -1.12338  -1.12322
  Beta  occ. eigenvalues --   -0.18051  -0.13334  -0.11665
  Beta virt. eigenvalues --   -0.07398  -0.05737  -0.05319  -0.03713  -0.02858
  Beta virt. eigenvalues --   -0.02442  -0.01862  -0.01540  -0.00895  -0.00182
  Beta virt. eigenvalues --   -0.00000   0.00100   0.00380   0.00815   0.00916

 Mulliken charges and spin densities:
               1          2
     1  Na  -0.034477  -0.064406
     2  Na   0.122006   0.054562
     3  Na  -0.229846   0.190765
     4  Na   0.516285   0.086232
     5  Na  -0.776581   0.627895
     6  Na  -0.076829   0.104639
     7  Na   0.479441   0.000312
 Sum of Mulliken charges =  -0.00000   1.00000

 Dipole moment (field-independent basis, Debye):
    X=             -0.3270    Y=             -0.0010    Z=              0.3324  Tot=              0.4663
 Quadrupole moment (field-independent basis, Debye-Ang):
   XX=            -55.5031   YY=            -70.3669   ZZ=            -70.0797
   XY=             -0.0626   XZ=             -0.7840   YZ=              2.0495

 Normal termination of Gaussian 16 at Fri Dec  8 06:58:15 2023.
