 Gaussian 16, Revision B.01,
 Gaussian 16:  ES64L-G16RevB.01 20-Dec-2017

 -------------------------
 #P B3LYP/6-311+g(d) force
 -------------------------

 -----
 DPGEN
 -----
 Symbolic Z-matrix:
 Charge =  0 Multiplicity = 2

                         Standard orientation:
 ---------------------------------------------------------------------
 Center     Atomic      Atomic             Coordinates (Angstroms)
 Number     Number       Type             X           Y           Z
 ---------------------------------------------------------------------
      1         11           0        0.283731    1.887074   -0.619753
      2         11           0       -2.306662    3.479783    0.397709
      3         11           0       -3.045982   -0.069229   -0.346722
      4         11           0       -2.831884   -3.205342    0.276483
      5         11           0       -0.069365   -1.618652   -0.510686
      6         11           0        2.468520   -0.229703    1.197772
      7         11           0        5.501641   -0.243931   -0.394803
 ---------------------------------------------------------------------

 SCF Done:  E(UB3LYP) =  -1136.12485267     A.U. after   20 cycles

 The electronic state is 2-A.
 Alpha  occ. eigenvalues --  -38.44204 -38.44160 -38.44000 -38.43925 -38.43793
 Alpha  occ. eigenvalues --  -38.43656 -38.43569  -2.20064  -2.19964  -2.19845
 Alpha  occ. eigenvalues --   -2.19789  -2.19705  -2.19471  -2.19403  -1.13776
 Alpha  occ. eigenvalues --   -1.13760  -1.13680  -1.13598  -1.13597  -1.13577
 Alpha  occ. eigenvalues --   -1.13515  -1.13495  -1.13494  -1.13471  -1.13468
 Alpha  occ. eigenvalues --   -1.13413  -1.13399  -1.13378  -1.13286  -1.13129
 Alpha  occ. eigenvalues --   -1.13127  -1.13096  -1.13086  -1.13062  -1.13053
 Alpha  occ. eigenvalues --   -0.17307  -0.13765  -0.12793  -0.10625
 Alpha virt. eigenvalues --   -0.05912  -0.05373  -0.05077  -0.03598  -0.02798
 Alpha virt. eigenvalues --   -0.02347  -0.01557  -0.01469  -0.00949  -0.00771
 Alpha virt. eigenvalues --   -0.00460   0.00062   0.00370   0.00439   0.00632

  Beta  occ. eigenvalues --  -38.44185 -38.44044 -38.43988 -38.43907 -38.43758
  Beta  occ. eigenvalues --  -38.43642 -38.43570  -2.20031  -2.19824  -2.19759
  Beta  occ. eigenvalues --   -2.19747  -2.19642  -2.19443  -2.19415  -1.13746
  Beta  occ. eigenvalues --   -1.13738  -1.13653  -1.13495  -1.13481  -1.13473
  Beta  occ. eigenvalues --   -1.13454  -1.13450  -1.13448  -1.13444  -1.13436
  Beta  occ. eigenvalues --   -1.13386  -1.13360  -1.13335  -1.13235  -1.13109
  Beta  occ. eigenvalues --   -1.13108  -1.13100  -1.13078  -1.13073  -1.13005
  Beta  occ. eigenvalues --   -0.16822  -0.13094  -0.12542
  Beta virt. eigenvalues --   -0.07081  -0.05696  -0.05115  -0.04750  -0.03151
  Beta virt. eigenvalues --   -0.02519  -0.02286  -0.01437  -0.01109  -0.00607
  Beta virt. eigenvalues --   -0.00397  -0.00184   0.00277   0.00517   0.00606

 Mulliken charges and spin densities:
               1          2
     1  Na  -0.758960  -0.087998
     2  Na   0.557621   0.148644
     3  Na  -0.066857   0.300467
     4  Na   0.818674   0.118480
     5  Na  -1.111277  -0.059613
     6  Na   0.662450  -0.004567
     7  Na  -0.101649   0.584588
 Sum of Mulliken charges =  -0.00000   1.00000

 Dipole moment (field-independent basis, Debye):
    X=             -1.2047    Y=             -0.4000    Z=              0.1485  Tot=              1.2780
 Quadrupole moment (field-independent basis, Debye-Ang):
   XX=            -73.2312   YY=            -61.5583   ZZ=            -67.5279
   XY=              2.6156   XZ=             -3.7849   YZ=             -0.1368

 Normal termination of Gaussian 16 at Tue Nov 28 19:29:52 2023.
