 Gaussian 16, Revision B.01,
 Gaussian 16:  ES64L-G16RevB.01 20-Dec-2017

 -------------------------
 #P B3LYP/6-311+g(d) force
 -------------------------

 -----
 DPGEN
 -----
 Symbolic Z-matrix:
 Charge =  0 Multiplicity = 2

                         Standard orientation:
 ---------------------------------------------------------------------
 Center     Atomic      Atomic             Coordinates (Angstroms)
 Number     Number       Type             X           Y           Z
 ---------------------------------------------------------------------
      1         11           0       -0.262639   -0.118536    1.879308
      2         11           0       -2.157595    2.117843    0.283341
      3         11           0       -0.075126   -2.716805    0.267203
      4         11           0       -3.203110   -0.997468   -0.566068
      5         11           0        3.642112   -0.909545   -0.112661
      6         11           0        1.849377    2.379850    0.051499
      7         11           0        0.206980    0.244661   -1.802622
 ---------------------------------------------------------------------

 SCF Done:  E(UB3LYP) =  -1136.12978664     A.U. after   21 cycles

 The electronic state is 2-A.
 Alpha  occ. eigenvalues --  -38.45209 -38.44384 -38.43905 -38.43675 -38.43545
 Alpha  occ. eigenvalues --  -38.43359 -38.42996  -2.20943  -2.20197  -2.19789
 Alpha  occ. eigenvalues --   -2.19493  -2.19388  -2.19295  -2.18851  -1.14627
 Alpha  occ. eigenvalues --   -1.14596  -1.14578  -1.13864  -1.13857  -1.13831
 Alpha  occ. eigenvalues --   -1.13487  -1.13444  -1.13400  -1.13180  -1.13164
 Alpha  occ. eigenvalues --   -1.13106  -1.13089  -1.13048  -1.13020  -1.12997
 Alpha  occ. eigenvalues --   -1.12925  -1.12901  -1.12550  -1.12511  -1.12452
 Alpha  occ. eigenvalues --   -0.18246  -0.13142  -0.11907  -0.10616
 Alpha virt. eigenvalues --   -0.06592  -0.05322  -0.04097  -0.03287  -0.02725
 Alpha virt. eigenvalues --   -0.02463  -0.02252  -0.01313  -0.00448  -0.00301
 Alpha virt. eigenvalues --   -0.00090   0.00258   0.00646   0.00702   0.00801

  Beta  occ. eigenvalues --  -38.45213 -38.44365 -38.43846 -38.43673 -38.43536
  Beta  occ. eigenvalues --  -38.43268 -38.42985  -2.20952  -2.20164  -2.19679
  Beta  occ. eigenvalues --   -2.19491  -2.19375  -2.19129  -2.18835  -1.14627
  Beta  occ. eigenvalues --   -1.14601  -1.14584  -1.13841  -1.13823  -1.13809
  Beta  occ. eigenvalues --   -1.13411  -1.13369  -1.13319  -1.13169  -1.13152
  Beta  occ. eigenvalues --   -1.13103  -1.13069  -1.13023  -1.13009  -1.12886
  Beta  occ. eigenvalues --   -1.12810  -1.12790  -1.12527  -1.12478  -1.12445
  Beta  occ. eigenvalues --   -0.17526  -0.12934  -0.11645
  Beta virt. eigenvalues --   -0.06813  -0.06468  -0.05283  -0.04064  -0.02617
  Beta virt. eigenvalues --   -0.02148  -0.01947  -0.01473  -0.01223  -0.00496
  Beta virt. eigenvalues --   -0.00287   0.00047   0.00296   0.00738   0.00804

 Mulliken charges and spin densities:
               1          2
     1  Na   0.017659   0.602758
     2  Na   0.147909  -0.026645
     3  Na  -0.005668  -0.090342
     4  Na   0.025722   0.135065
     5  Na  -0.052184  -0.114214
     6  Na   0.035951  -0.138158
     7  Na  -0.169389   0.631537
 Sum of Mulliken charges =  -0.00000   1.00000

 Dipole moment (field-independent basis, Debye):
    X=              0.4779    Y=             -0.0187    Z=             -0.1571  Tot=              0.5034
 Quadrupole moment (field-independent basis, Debye-Ang):
   XX=            -49.9197   YY=            -67.3913   ZZ=            -74.8303
   XY=             -0.6598   XZ=              1.2424   YZ=              1.5243

 Normal termination of Gaussian 16 at Fri Dec  8 03:35:44 2023.
