 Gaussian 16, Revision B.01,
 Gaussian 16:  ES64L-G16RevB.01 20-Dec-2017

 -------------------------
 #P B3LYP/6-311+g(d) force
 -------------------------

 -----
 DPGEN
 -----
 Symbolic Z-matrix:
 Charge =  0 Multiplicity = 2

                         Standard orientation:
 ---------------------------------------------------------------------
 Center     Atomic      Atomic             Coordinates (Angstroms)
 Number     Number       Type             X           Y           Z
 ---------------------------------------------------------------------
      1         11           0        2.360726    1.025513   -1.509175
      2         11           0       -3.480451   -2.011544   -0.315391
      3         11           0       -0.110635    3.513742   -0.103042
      4         11           0       -2.619065    1.292398   -0.490942
      5         11           0        3.419848   -2.359900   -0.160359
      6         11           0        0.897183    1.274392    2.141102
      7         11           0       -0.467606   -2.734601    0.437806
 ---------------------------------------------------------------------

 SCF Done:  E(UB3LYP) =  -1136.11732591     A.U. after   21 cycles

 The electronic state is 2-A.
 Alpha  occ. eigenvalues --  -38.44815 -38.44643 -38.44565 -38.44521 -38.44169
 Alpha  occ. eigenvalues --  -38.44168 -38.43958  -2.20579  -2.20433  -2.20299
 Alpha  occ. eigenvalues --   -2.20294  -2.19999  -2.19988  -2.19775  -1.14260
 Alpha  occ. eigenvalues --   -1.14237  -1.14187  -1.14112  -1.14097  -1.14070
 Alpha  occ. eigenvalues --   -1.13979  -1.13977  -1.13967  -1.13959  -1.13943
 Alpha  occ. eigenvalues --   -1.13928  -1.13694  -1.13667  -1.13652  -1.13636
 Alpha  occ. eigenvalues --   -1.13616  -1.13581  -1.13439  -1.13430  -1.13423
 Alpha  occ. eigenvalues --   -0.16756  -0.13423  -0.12767  -0.10198
 Alpha virt. eigenvalues --   -0.06883  -0.06155  -0.04971  -0.03087  -0.03005
 Alpha virt. eigenvalues --   -0.02421  -0.01808  -0.01577  -0.01515  -0.01194
 Alpha virt. eigenvalues --   -0.00075   0.00145   0.00315   0.00522   0.00612

  Beta  occ. eigenvalues --  -38.44766 -38.44618 -38.44571 -38.44509 -38.44166
  Beta  occ. eigenvalues --  -38.44071 -38.43962  -2.20487  -2.20387  -2.20310
  Beta  occ. eigenvalues --   -2.20271  -2.19999  -2.19806  -2.19783  -1.14197
  Beta  occ. eigenvalues --   -1.14170  -1.14122  -1.14078  -1.14061  -1.14041
  Beta  occ. eigenvalues --   -1.13986  -1.13960  -1.13959  -1.13949  -1.13947
  Beta  occ. eigenvalues --   -1.13922  -1.13671  -1.13660  -1.13635  -1.13512
  Beta  occ. eigenvalues --   -1.13494  -1.13472  -1.13444  -1.13434  -1.13424
  Beta  occ. eigenvalues --   -0.16207  -0.13227  -0.12530
  Beta virt. eigenvalues --   -0.06830  -0.06587  -0.05642  -0.04771  -0.02720
  Beta virt. eigenvalues --   -0.02550  -0.01958  -0.01579  -0.01467  -0.01427
  Beta virt. eigenvalues --   -0.00883   0.00207   0.00298   0.00414   0.00607

 Mulliken charges and spin densities:
               1          2
     1  Na  -0.019712   0.233542
     2  Na   1.194981  -0.093485
     3  Na   0.063528   0.370499
     4  Na  -0.550574   0.034276
     5  Na   0.307116  -0.079316
     6  Na  -0.071183   0.436764
     7  Na  -0.924156   0.097719
 Sum of Mulliken charges =  -0.00000   1.00000

 Dipole moment (field-independent basis, Debye):
    X=             -0.0875    Y=             -0.0046    Z=             -0.1297  Tot=              0.1565
 Quadrupole moment (field-independent basis, Debye-Ang):
   XX=            -62.7381   YY=            -59.4235   ZZ=            -76.2539
   XY=             -0.7455   XZ=              1.2162   YZ=             -1.9198

 Normal termination of Gaussian 16 at Sun Dec  3 22:30:24 2023.
