 Gaussian 16, Revision B.01,
 Gaussian 16:  ES64L-G16RevB.01 20-Dec-2017

 -------------------------
 #P B3LYP/6-311+g(d) force
 -------------------------

 -----
 DPGEN
 -----
 Symbolic Z-matrix:
 Charge =  0 Multiplicity = 2

                         Standard orientation:
 ---------------------------------------------------------------------
 Center     Atomic      Atomic             Coordinates (Angstroms)
 Number     Number       Type             X           Y           Z
 ---------------------------------------------------------------------
      1         11           0        0.564205   -2.634340    0.106205
      2         11           0       -2.435394    1.764856    0.124681
      3         11           0        3.730867   -0.456765    0.061578
      4         11           0        0.235469    0.117794   -1.517809
      5         11           0        1.011734    3.051632    0.014707
      6         11           0       -2.677254   -1.593459   -0.390023
      7         11           0       -0.429627   -0.249717    1.600661
 ---------------------------------------------------------------------

 SCF Done:  E(UB3LYP) =  -1136.12766784     A.U. after   21 cycles

 The electronic state is 2-A.
 Alpha  occ. eigenvalues --  -38.45112 -38.43989 -38.43810 -38.43743 -38.43444
 Alpha  occ. eigenvalues --  -38.42963 -38.42909  -2.20841  -2.19777  -2.19683
 Alpha  occ. eigenvalues --   -2.19630  -2.19364  -2.18993  -2.18896  -1.14522
 Alpha  occ. eigenvalues --   -1.14501  -1.14473  -1.13461  -1.13441  -1.13411
 Alpha  occ. eigenvalues --   -1.13393  -1.13353  -1.13317  -1.13299  -1.13282
 Alpha  occ. eigenvalues --   -1.13263  -1.13144  -1.13042  -1.12945  -1.12718
 Alpha  occ. eigenvalues --   -1.12617  -1.12588  -1.12569  -1.12524  -1.12490
 Alpha  occ. eigenvalues --   -0.18777  -0.12877  -0.12612  -0.09997
 Alpha virt. eigenvalues --   -0.06448  -0.05286  -0.04650  -0.02803  -0.02635
 Alpha virt. eigenvalues --   -0.02138  -0.01744  -0.01331  -0.00675  -0.00413
 Alpha virt. eigenvalues --    0.00016   0.00280   0.00709   0.00777   0.00853

  Beta  occ. eigenvalues --  -38.45119 -38.43989 -38.43798 -38.43727 -38.43429
  Beta  occ. eigenvalues --  -38.42887 -38.42845  -2.20855  -2.19779  -2.19667
  Beta  occ. eigenvalues --   -2.19606  -2.19344  -2.18854  -2.18780  -1.14524
  Beta  occ. eigenvalues --   -1.14510  -1.14482  -1.13455  -1.13436  -1.13414
  Beta  occ. eigenvalues --   -1.13383  -1.13317  -1.13302  -1.13285  -1.13251
  Beta  occ. eigenvalues --   -1.13232  -1.13122  -1.12990  -1.12935  -1.12628
  Beta  occ. eigenvalues --   -1.12516  -1.12497  -1.12476  -1.12441  -1.12399
  Beta  occ. eigenvalues --   -0.18047  -0.12680  -0.12353
  Beta virt. eigenvalues --   -0.06420  -0.06092  -0.05239  -0.04637  -0.02156
  Beta virt. eigenvalues --   -0.02046  -0.01871  -0.01276  -0.00811  -0.00693
  Beta virt. eigenvalues --   -0.00437   0.00168   0.00328   0.00727   0.00792

 Mulliken charges and spin densities:
               1          2
     1  Na   0.221373  -0.012502
     2  Na   0.169290  -0.017884
     3  Na  -0.115461  -0.129398
     4  Na  -0.245669   0.594770
     5  Na  -0.178665  -0.169564
     6  Na   0.225981   0.112827
     7  Na  -0.076850   0.621750
 Sum of Mulliken charges =  -0.00000   1.00000

 Dipole moment (field-independent basis, Debye):
    X=              0.5575    Y=              0.2232    Z=             -0.0228  Tot=              0.6009
 Quadrupole moment (field-independent basis, Debye-Ang):
   XX=            -50.0139   YY=            -60.9100   ZZ=            -78.4868
   XY=              0.9383   XZ=              1.6144   YZ=              1.0137

 Normal termination of Gaussian 16 at Thu Dec  7 15:06:34 2023.
