 Gaussian 16, Revision B.01,
 Gaussian 16:  ES64L-G16RevB.01 20-Dec-2017

 -------------------------
 #P B3LYP/6-311+g(d) force
 -------------------------

 -----
 DPGEN
 -----
 Symbolic Z-matrix:
 Charge =  0 Multiplicity = 2

                         Standard orientation:
 ---------------------------------------------------------------------
 Center     Atomic      Atomic             Coordinates (Angstroms)
 Number     Number       Type             X           Y           Z
 ---------------------------------------------------------------------
      1         11           0       -3.393357   -1.031476   -1.347017
      2         11           0       -0.844937   -2.217831    0.117107
      3         11           0       -0.084275    3.243237   -0.564888
      4         11           0        3.004511    1.112728   -1.045675
      5         11           0        2.808733   -2.372839   -0.075846
      6         11           0        0.875995    0.375411    1.769276
      7         11           0       -2.366671    0.890770    1.147043
 ---------------------------------------------------------------------

 SCF Done:  E(UB3LYP) =  -1136.12901416     A.U. after   20 cycles

 The electronic state is 2-A.
 Alpha  occ. eigenvalues --  -38.44258 -38.44068 -38.43976 -38.43947 -38.43842
 Alpha  occ. eigenvalues --  -38.43776 -38.43742  -2.20056  -2.19851  -2.19818
 Alpha  occ. eigenvalues --   -2.19741  -2.19728  -2.19635  -2.19597  -1.13733
 Alpha  occ. eigenvalues --   -1.13712  -1.13669  -1.13536  -1.13529  -1.13507
 Alpha  occ. eigenvalues --   -1.13496  -1.13493  -1.13449  -1.13422  -1.13419
 Alpha  occ. eigenvalues --   -1.13391  -1.13386  -1.13371  -1.13353  -1.13324
 Alpha  occ. eigenvalues --   -1.13282  -1.13271  -1.13264  -1.13257  -1.13170
 Alpha  occ. eigenvalues --   -0.17563  -0.13685  -0.12267  -0.10658
 Alpha virt. eigenvalues --   -0.05954  -0.05854  -0.04471  -0.03848  -0.02910
 Alpha virt. eigenvalues --   -0.02066  -0.01608  -0.01326  -0.00928  -0.00415
 Alpha virt. eigenvalues --   -0.00282   0.00310   0.00443   0.00522   0.00707

  Beta  occ. eigenvalues --  -38.44211 -38.44069 -38.43975 -38.43925 -38.43776
  Beta  occ. eigenvalues --  -38.43734 -38.43720  -2.19968  -2.19854  -2.19783
  Beta  occ. eigenvalues --   -2.19740  -2.19614  -2.19588  -2.19530  -1.13673
  Beta  occ. eigenvalues --   -1.13655  -1.13606  -1.13531  -1.13498  -1.13495
  Beta  occ. eigenvalues --   -1.13488  -1.13458  -1.13428  -1.13420  -1.13390
  Beta  occ. eigenvalues --   -1.13374  -1.13346  -1.13308  -1.13279  -1.13264
  Beta  occ. eigenvalues --   -1.13253  -1.13238  -1.13195  -1.13190  -1.13134
  Beta  occ. eigenvalues --   -0.16914  -0.13231  -0.12071
  Beta virt. eigenvalues --   -0.07114  -0.05767  -0.05699  -0.03869  -0.03641
  Beta virt. eigenvalues --   -0.02400  -0.01597  -0.01347  -0.01190  -0.00731
  Beta virt. eigenvalues --   -0.00395   0.00039   0.00403   0.00543   0.00668

 Mulliken charges and spin densities:
               1          2
     1  Na   0.663331   0.231216
     2  Na  -1.045249   0.039330
     3  Na  -0.327487   0.053521
     4  Na  -0.253535   0.330719
     5  Na   0.269664   0.003833
     6  Na   0.444272   0.182348
     7  Na   0.249003   0.159034
 Sum of Mulliken charges =  -0.00000   1.00000

 Dipole moment (field-independent basis, Debye):
    X=              0.1410    Y=              0.0432    Z=             -0.2151  Tot=              0.2607
 Quadrupole moment (field-independent basis, Debye-Ang):
   XX=            -60.9474   YY=            -66.5356   ZZ=            -69.7342
   XY=             -5.3404   XZ=              0.1609   YZ=             -0.3667

 Normal termination of Gaussian 16 at Sun Dec  3 13:13:40 2023.
