 Gaussian 16, Revision B.01,
 Gaussian 16:  ES64L-G16RevB.01 20-Dec-2017

 -------------------------
 #P B3LYP/6-311+g(d) force
 -------------------------

 -----
 DPGEN
 -----
 Symbolic Z-matrix:
 Charge =  0 Multiplicity = 2

                         Standard orientation:
 ---------------------------------------------------------------------
 Center     Atomic      Atomic             Coordinates (Angstroms)
 Number     Number       Type             X           Y           Z
 ---------------------------------------------------------------------
      1         11           0       -0.115811   -0.050300   -1.604238
      2         11           0        1.549533   -2.550900   -0.035509
      3         11           0       -2.757906   -1.891283   -0.500948
      4         11           0        3.512205    0.517254   -0.019410
      5         11           0       -2.617801    1.992661    0.256300
      6         11           0        0.750953    2.581166   -0.150884
      7         11           0       -0.321172   -0.598597    2.054688
 ---------------------------------------------------------------------

 SCF Done:  E(UB3LYP) =  -1136.13200649     A.U. after   20 cycles

 The electronic state is 2-A.
 Alpha  occ. eigenvalues --  -38.44545 -38.44340 -38.44126 -38.43831 -38.43574
 Alpha  occ. eigenvalues --  -38.43358 -38.43048  -2.20326  -2.20130  -2.19924
 Alpha  occ. eigenvalues --   -2.19655  -2.19432  -2.19309  -2.18919  -1.14002
 Alpha  occ. eigenvalues --   -1.13985  -1.13966  -1.13809  -1.13779  -1.13766
 Alpha  occ. eigenvalues --   -1.13594  -1.13584  -1.13567  -1.13346  -1.13337
 Alpha  occ. eigenvalues --   -1.13272  -1.13100  -1.13057  -1.13050  -1.13016
 Alpha  occ. eigenvalues --   -1.12965  -1.12919  -1.12619  -1.12577  -1.12531
 Alpha  occ. eigenvalues --   -0.18168  -0.12968  -0.12260  -0.10478
 Alpha virt. eigenvalues --   -0.06194  -0.05678  -0.04279  -0.03095  -0.02816
 Alpha virt. eigenvalues --   -0.02393  -0.01989  -0.01488  -0.00646  -0.00243
 Alpha virt. eigenvalues --   -0.00057   0.00276   0.00670   0.00749   0.00846

  Beta  occ. eigenvalues --  -38.44549 -38.44323 -38.44121 -38.43826 -38.43484
  Beta  occ. eigenvalues --  -38.43298 -38.43043  -2.20333  -2.20102  -2.19918
  Beta  occ. eigenvalues --   -2.19649  -2.19266  -2.19200  -2.18913  -1.14004
  Beta  occ. eigenvalues --   -1.13983  -1.13972  -1.13775  -1.13756  -1.13750
  Beta  occ. eigenvalues --   -1.13582  -1.13570  -1.13566  -1.13343  -1.13304
  Beta  occ. eigenvalues --   -1.13273  -1.12991  -1.12943  -1.12935  -1.12927
  Beta  occ. eigenvalues --   -1.12891  -1.12840  -1.12606  -1.12559  -1.12526
  Beta  occ. eigenvalues --   -0.17486  -0.12776  -0.12009
  Beta virt. eigenvalues --   -0.06632  -0.06127  -0.05617  -0.04230  -0.02426
  Beta virt. eigenvalues --   -0.02089  -0.01876  -0.01413  -0.01354  -0.00690
  Beta virt. eigenvalues --   -0.00258   0.00104   0.00320   0.00720   0.00774

 Mulliken charges and spin densities:
               1          2
     1  Na  -0.124071   0.478806
     2  Na   0.269797  -0.057945
     3  Na   0.129664  -0.044553
     4  Na  -0.041355  -0.044631
     5  Na   0.074646   0.024742
     6  Na   0.125043  -0.024985
     7  Na  -0.433724   0.668567
 Sum of Mulliken charges =  -0.00000   1.00000

 Dipole moment (field-independent basis, Debye):
    X=             -0.0797    Y=             -0.2561    Z=              0.1394  Tot=              0.3023
 Quadrupole moment (field-independent basis, Debye-Ang):
   XX=            -51.2695   YY=            -65.1272   ZZ=            -75.8684
   XY=             -0.3084   XZ=              0.1534   YZ=              1.4340

 Normal termination of Gaussian 16 at Fri Dec  8 01:01:58 2023.
