 Gaussian 16, Revision B.01,
 Gaussian 16:  ES64L-G16RevB.01 20-Dec-2017

 -------------------------
 #P B3LYP/6-311+g(d) force
 -------------------------

 -----
 DPGEN
 -----
 Symbolic Z-matrix:
 Charge =  0 Multiplicity = 2

                         Standard orientation:
 ---------------------------------------------------------------------
 Center     Atomic      Atomic             Coordinates (Angstroms)
 Number     Number       Type             X           Y           Z
 ---------------------------------------------------------------------
      1         11           0       -1.912687   -1.881430    0.452136
      2         11           0        2.860794    0.201120   -0.303518
      3         11           0        0.388842    0.311587    2.084745
      4         11           0       -0.019678   -0.064851   -1.680325
      5         11           0       -3.198571    1.159913   -0.347768
      6         11           0        0.793823    3.010075   -0.000899
      7         11           0        1.087477   -2.736414   -0.204371
 ---------------------------------------------------------------------

 SCF Done:  E(UB3LYP) =  -1136.13630441     A.U. after   19 cycles

 The electronic state is 2-A.
 Alpha  occ. eigenvalues --  -38.43933 -38.43819 -38.43777 -38.43750 -38.43356
 Alpha  occ. eigenvalues --  -38.43342 -38.43161  -2.19719  -2.19669  -2.19645
 Alpha  occ. eigenvalues --   -2.19638  -2.19322  -2.19256  -2.19058  -1.13390
 Alpha  occ. eigenvalues --   -1.13381  -1.13376  -1.13361  -1.13347  -1.13330
 Alpha  occ. eigenvalues --   -1.13318  -1.13309  -1.13286  -1.13277  -1.13261
 Alpha  occ. eigenvalues --   -1.13238  -1.13032  -1.12975  -1.12949  -1.12929
 Alpha  occ. eigenvalues --   -1.12916  -1.12889  -1.12721  -1.12698  -1.12695
 Alpha  occ. eigenvalues --   -0.18758  -0.12983  -0.12431  -0.10989
 Alpha virt. eigenvalues --   -0.05656  -0.05003  -0.04637  -0.03291  -0.02953
 Alpha virt. eigenvalues --   -0.02695  -0.01411  -0.01192  -0.00347  -0.00116
 Alpha virt. eigenvalues --   -0.00014   0.00356   0.00828   0.00872   0.00931

  Beta  occ. eigenvalues --  -38.43931 -38.43817 -38.43738 -38.43683 -38.43345
  Beta  occ. eigenvalues --  -38.43277 -38.43156  -2.19716  -2.19637  -2.19627
  Beta  occ. eigenvalues --   -2.19495  -2.19238  -2.19203  -2.19053  -1.13382
  Beta  occ. eigenvalues --   -1.13376  -1.13361  -1.13353  -1.13312  -1.13300
  Beta  occ. eigenvalues --   -1.13283  -1.13282  -1.13233  -1.13209  -1.13175
  Beta  occ. eigenvalues --   -1.13150  -1.12983  -1.12916  -1.12899  -1.12883
  Beta  occ. eigenvalues --   -1.12866  -1.12840  -1.12710  -1.12697  -1.12668
  Beta  occ. eigenvalues --   -0.18008  -0.12754  -0.12190
  Beta virt. eigenvalues --   -0.07053  -0.05630  -0.04902  -0.04614  -0.02504
  Beta virt. eigenvalues --   -0.02212  -0.01678  -0.01313  -0.01118  -0.00378
  Beta virt. eigenvalues --   -0.00121   0.00112   0.00381   0.00829   0.00906

 Mulliken charges and spin densities:
               1          2
     1  Na   0.173998   0.111270
     2  Na   0.335656  -0.001020
     3  Na  -0.404301   0.593515
     4  Na  -0.274030   0.454450
     5  Na  -0.042071  -0.066297
     6  Na   0.027555  -0.105690
     7  Na   0.183194   0.013773
 Sum of Mulliken charges =  -0.00000   1.00000

 Dipole moment (field-independent basis, Debye):
    X=              0.0840    Y=              0.4271    Z=              0.1188  Tot=              0.4512
 Quadrupole moment (field-independent basis, Debye-Ang):
   XX=            -59.9291   YY=            -61.1687   ZZ=            -73.0392
   XY=             -1.1465   XZ=             -0.6331   YZ=             -0.9908

 Normal termination of Gaussian 16 at Tue Dec  5 09:55:18 2023.
