 Gaussian 16, Revision B.01,
 Gaussian 16:  ES64L-G16RevB.01 20-Dec-2017

 -------------------------
 #P B3LYP/6-311+g(d) force
 -------------------------

 -----
 DPGEN
 -----
 Symbolic Z-matrix:
 Charge =  0 Multiplicity = 2

                         Standard orientation:
 ---------------------------------------------------------------------
 Center     Atomic      Atomic             Coordinates (Angstroms)
 Number     Number       Type             X           Y           Z
 ---------------------------------------------------------------------
      1         11           0        0.837199   -1.147977    1.213267
      2         11           0       -2.812034    1.005607   -1.283164
      3         11           0       -1.166426    1.365514    1.928722
      4         11           0        0.941680    2.561726   -0.292157
      5         11           0        3.660538   -0.384618   -0.219698
      6         11           0       -1.900277   -2.509424    0.300587
      7         11           0        0.439320   -0.890829   -1.647557
 ---------------------------------------------------------------------

 SCF Done:  E(UB3LYP) =  -1136.12810168     A.U. after   20 cycles

 The electronic state is 2-A.
 Alpha  occ. eigenvalues --  -38.44558 -38.44225 -38.43856 -38.43641 -38.43494
 Alpha  occ. eigenvalues --  -38.43277 -38.43152  -2.20344  -2.20035  -2.19792
 Alpha  occ. eigenvalues --   -2.19449  -2.19371  -2.19174  -2.19115  -1.14019
 Alpha  occ. eigenvalues --   -1.13985  -1.13966  -1.13724  -1.13690  -1.13668
 Alpha  occ. eigenvalues --   -1.13589  -1.13427  -1.13371  -1.13160  -1.13131
 Alpha  occ. eigenvalues --   -1.13068  -1.13064  -1.12995  -1.12975  -1.12890
 Alpha  occ. eigenvalues --   -1.12840  -1.12802  -1.12769  -1.12748  -1.12715
 Alpha  occ. eigenvalues --   -0.18429  -0.12933  -0.11902  -0.11322
 Alpha virt. eigenvalues --   -0.06065  -0.04932  -0.03968  -0.03506  -0.03036
 Alpha virt. eigenvalues --   -0.02749  -0.01933  -0.00988  -0.00434  -0.00004
 Alpha virt. eigenvalues --    0.00253   0.00299   0.00486   0.00742   0.00881

  Beta  occ. eigenvalues --  -38.44515 -38.44227 -38.43814 -38.43638 -38.43435
  Beta  occ. eigenvalues --  -38.43274 -38.43106  -2.20265  -2.20038  -2.19716
  Beta  occ. eigenvalues --   -2.19446  -2.19266  -2.19113  -2.19093  -1.13954
  Beta  occ. eigenvalues --   -1.13935  -1.13912  -1.13723  -1.13688  -1.13670
  Beta  occ. eigenvalues --   -1.13537  -1.13369  -1.13315  -1.13146  -1.13115
  Beta  occ. eigenvalues --   -1.13067  -1.12986  -1.12924  -1.12904  -1.12855
  Beta  occ. eigenvalues --   -1.12795  -1.12760  -1.12747  -1.12718  -1.12675
  Beta  occ. eigenvalues --   -0.17693  -0.12698  -0.11742
  Beta virt. eigenvalues --   -0.07362  -0.05915  -0.04869  -0.03435  -0.03359
  Beta virt. eigenvalues --   -0.02367  -0.01924  -0.01638  -0.00915  -0.00161
  Beta virt. eigenvalues --    0.00007   0.00282   0.00334   0.00566   0.00787

 Mulliken charges and spin densities:
               1          2
     1  Na   0.232850   0.356056
     2  Na  -0.090471   0.144843
     3  Na   0.088805   0.126159
     4  Na  -0.216231  -0.032837
     5  Na   0.270009  -0.068541
     6  Na   0.104167  -0.168574
     7  Na  -0.389129   0.642894
 Sum of Mulliken charges =  -0.00000   1.00000

 Dipole moment (field-independent basis, Debye):
    X=              0.1183    Y=              0.2026    Z=             -0.3499  Tot=              0.4212
 Quadrupole moment (field-independent basis, Debye-Ang):
   XX=            -53.4279   YY=            -70.6272   ZZ=            -68.8569
   XY=              1.2029   XZ=             -0.0090   YZ=             -1.6862

 Normal termination of Gaussian 16 at Thu Dec  7 20:22:24 2023.
