 Gaussian 16, Revision B.01,
 Gaussian 16:  ES64L-G16RevB.01 20-Dec-2017

 -------------------------
 #P B3LYP/6-311+g(d) force
 -------------------------

 -----
 DPGEN
 -----
 Symbolic Z-matrix:
 Charge =  0 Multiplicity = 2

                         Standard orientation:
 ---------------------------------------------------------------------
 Center     Atomic      Atomic             Coordinates (Angstroms)
 Number     Number       Type             X           Y           Z
 ---------------------------------------------------------------------
      1         11           0       -1.809229   -2.520374   -0.100228
      2         11           0        0.054965    0.131084   -1.574779
      3         11           0       -0.512900    3.117323   -0.249674
      4         11           0       -3.207404    0.323818   -0.040698
      5         11           0        2.310736   -2.243389   -0.166341
      6         11           0       -0.014258    0.166834    2.112488
      7         11           0        3.178090    1.024706    0.019232
 ---------------------------------------------------------------------

 SCF Done:  E(UB3LYP) =  -1136.13428738     A.U. after   19 cycles

 The electronic state is 2-A.
 Alpha  occ. eigenvalues --  -38.44669 -38.44400 -38.43897 -38.43630 -38.43496
 Alpha  occ. eigenvalues --  -38.43320 -38.43229  -2.20462  -2.20231  -2.19701
 Alpha  occ. eigenvalues --   -2.19477  -2.19329  -2.19163  -2.19127  -1.14137
 Alpha  occ. eigenvalues --   -1.14122  -1.14102  -1.13914  -1.13898  -1.13865
 Alpha  occ. eigenvalues --   -1.13375  -1.13360  -1.13344  -1.13144  -1.13098
 Alpha  occ. eigenvalues --   -1.13095  -1.13005  -1.12987  -1.12974  -1.12871
 Alpha  occ. eigenvalues --   -1.12841  -1.12789  -1.12785  -1.12763  -1.12753
 Alpha  occ. eigenvalues --   -0.18129  -0.13239  -0.12035  -0.10428
 Alpha virt. eigenvalues --   -0.06101  -0.05372  -0.04755  -0.03224  -0.02615
 Alpha virt. eigenvalues --   -0.02463  -0.01861  -0.01253  -0.00705  -0.00621
 Alpha virt. eigenvalues --   -0.00027   0.00338   0.00722   0.00788   0.00842

  Beta  occ. eigenvalues --  -38.44668 -38.44398 -38.43894 -38.43528 -38.43493
  Beta  occ. eigenvalues --  -38.43316 -38.43173  -2.20462  -2.20229  -2.19698
  Beta  occ. eigenvalues --   -2.19327  -2.19288  -2.19122  -2.19060  -1.14125
  Beta  occ. eigenvalues --   -1.14117  -1.14105  -1.13915  -1.13873  -1.13868
  Beta  occ. eigenvalues --   -1.13366  -1.13349  -1.13345  -1.13019  -1.13003
  Beta  occ. eigenvalues --   -1.12977  -1.12969  -1.12964  -1.12957  -1.12831
  Beta  occ. eigenvalues --   -1.12778  -1.12766  -1.12763  -1.12714  -1.12699
  Beta  occ. eigenvalues --   -0.17423  -0.13062  -0.11821
  Beta virt. eigenvalues --   -0.06522  -0.06039  -0.05375  -0.04711  -0.02471
  Beta virt. eigenvalues --   -0.01907  -0.01755  -0.01390  -0.01176  -0.00757
  Beta virt. eigenvalues --   -0.00671   0.00136   0.00373   0.00768   0.00811

 Mulliken charges and spin densities:
               1          2
     1  Na   0.024257  -0.046304
     2  Na  -0.106770   0.445802
     3  Na   0.056713  -0.091694
     4  Na   0.257217  -0.001925
     5  Na   0.057225  -0.042666
     6  Na  -0.449690   0.791631
     7  Na   0.161048  -0.054844
 Sum of Mulliken charges =  -0.00000   1.00000

 Dipole moment (field-independent basis, Debye):
    X=              0.2672    Y=              0.1075    Z=              0.0864  Tot=              0.3007
 Quadrupole moment (field-independent basis, Debye-Ang):
   XX=            -53.8098   YY=            -62.4210   ZZ=            -76.6767
   XY=              0.1391   XZ=              0.1232   YZ=              0.1314

 Normal termination of Gaussian 16 at Thu Dec  7 16:40:03 2023.
