 Gaussian 16, Revision B.01,
 Gaussian 16:  ES64L-G16RevB.01 20-Dec-2017

 -------------------------
 #P B3LYP/6-311+g(d) force
 -------------------------

 -----
 DPGEN
 -----
 Symbolic Z-matrix:
 Charge =  0 Multiplicity = 2

                         Standard orientation:
 ---------------------------------------------------------------------
 Center     Atomic      Atomic             Coordinates (Angstroms)
 Number     Number       Type             X           Y           Z
 ---------------------------------------------------------------------
      1         11           0        2.787951    1.315424   -0.230026
      2         11           0        0.031573    0.101653   -1.676778
      3         11           0       -0.054269   -0.262453    2.104131
      4         11           0       -1.721522   -2.335069   -0.383446
      5         11           0       -0.345958    2.816819    0.102950
      6         11           0        2.557248   -2.074334    0.078223
      7         11           0       -3.255024    0.437961    0.004946
 ---------------------------------------------------------------------

 SCF Done:  E(UB3LYP) =  -1136.13597518     A.U. after   19 cycles

 The electronic state is 2-A.
 Alpha  occ. eigenvalues --  -38.44464 -38.43998 -38.43823 -38.43776 -38.43534
 Alpha  occ. eigenvalues --  -38.43389 -38.42857  -2.20291  -2.19847  -2.19637
 Alpha  occ. eigenvalues --   -2.19620  -2.19400  -2.19349  -2.18714  -1.13967
 Alpha  occ. eigenvalues --   -1.13955  -1.13932  -1.13539  -1.13509  -1.13482
 Alpha  occ. eigenvalues --   -1.13306  -1.13290  -1.13277  -1.13271  -1.13267
 Alpha  occ. eigenvalues --   -1.13244  -1.13121  -1.13056  -1.13032  -1.13027
 Alpha  occ. eigenvalues --   -1.12976  -1.12962  -1.12400  -1.12378  -1.12343
 Alpha  occ. eigenvalues --   -0.18498  -0.13341  -0.12024  -0.10784
 Alpha virt. eigenvalues --   -0.05959  -0.05342  -0.04338  -0.03348  -0.02786
 Alpha virt. eigenvalues --   -0.02622  -0.01789  -0.01137  -0.00430  -0.00284
 Alpha virt. eigenvalues --   -0.00041   0.00342   0.00721   0.00855   0.00883

  Beta  occ. eigenvalues --  -38.44463 -38.43993 -38.43823 -38.43678 -38.43523
  Beta  occ. eigenvalues --  -38.43326 -38.42853  -2.20291  -2.19840  -2.19623
  Beta  occ. eigenvalues --   -2.19456  -2.19383  -2.19234  -2.18709  -1.13970
  Beta  occ. eigenvalues --   -1.13940  -1.13928  -1.13527  -1.13491  -1.13483
  Beta  occ. eigenvalues --   -1.13283  -1.13273  -1.13270  -1.13184  -1.13144
  Beta  occ. eigenvalues --   -1.13118  -1.13092  -1.13034  -1.13009  -1.12953
  Beta  occ. eigenvalues --   -1.12901  -1.12880  -1.12397  -1.12358  -1.12336
  Beta  occ. eigenvalues --   -0.17766  -0.13128  -0.11799
  Beta virt. eigenvalues --   -0.06860  -0.05884  -0.05350  -0.04298  -0.02580
  Beta virt. eigenvalues --   -0.02003  -0.01702  -0.01571  -0.01058  -0.00484
  Beta virt. eigenvalues --   -0.00319   0.00110   0.00369   0.00799   0.00849

 Mulliken charges and spin densities:
               1          2
     1  Na   0.198579  -0.023650
     2  Na  -0.122152   0.410062
     3  Na  -0.538439   0.793348
     4  Na   0.216051  -0.044146
     5  Na   0.039176  -0.040450
     6  Na   0.064065  -0.084387
     7  Na   0.142720  -0.010777
 Sum of Mulliken charges =  -0.00000   1.00000

 Dipole moment (field-independent basis, Debye):
    X=             -0.1219    Y=             -0.0879    Z=              0.1266  Tot=              0.1965
 Quadrupole moment (field-independent basis, Debye-Ang):
   XX=            -53.9333   YY=            -65.4095   ZZ=            -74.3322
   XY=             -0.7634   XZ=             -0.1694   YZ=              0.7345

 Normal termination of Gaussian 16 at Thu Dec  7 03:56:19 2023.
