 Gaussian 16, Revision B.01,
 Gaussian 16:  ES64L-G16RevB.01 20-Dec-2017

 -------------------------
 #P B3LYP/6-311+g(d) force
 -------------------------

 -----
 DPGEN
 -----
 Symbolic Z-matrix:
 Charge =  0 Multiplicity = 2

                         Standard orientation:
 ---------------------------------------------------------------------
 Center     Atomic      Atomic             Coordinates (Angstroms)
 Number     Number       Type             X           Y           Z
 ---------------------------------------------------------------------
      1         11           0       -2.132043   -2.425097   -0.404278
      2         11           0        4.137147   -0.131631   -0.412270
      3         11           0       -0.494233   -0.532350    2.056590
      4         11           0       -3.606018    0.508105   -1.195450
      5         11           0        1.764234   -2.228671   -0.178864
      6         11           0       -1.094364    2.373306    0.923351
      7         11           0        1.425276    2.436338   -0.789080
 ---------------------------------------------------------------------

 SCF Done:  E(UB3LYP) =  -1136.12040663     A.U. after   20 cycles

 The electronic state is 2-A.
 Alpha  occ. eigenvalues --  -38.44729 -38.44501 -38.44420 -38.44157 -38.44129
 Alpha  occ. eigenvalues --  -38.43908 -38.43336  -2.20534  -2.20294  -2.20287
 Alpha  occ. eigenvalues --   -2.19958  -2.19935  -2.19716  -2.19218  -1.14188
 Alpha  occ. eigenvalues --   -1.14170  -1.14153  -1.13994  -1.13967  -1.13951
 Alpha  occ. eigenvalues --   -1.13931  -1.13923  -1.13906  -1.13642  -1.13626
 Alpha  occ. eigenvalues --   -1.13623  -1.13594  -1.13590  -1.13567  -1.13402
 Alpha  occ. eigenvalues --   -1.13389  -1.13331  -1.12896  -1.12887  -1.12838
 Alpha  occ. eigenvalues --   -0.17266  -0.13614  -0.12443  -0.11104
 Alpha virt. eigenvalues --   -0.06553  -0.05638  -0.04159  -0.03670  -0.03351
 Alpha virt. eigenvalues --   -0.02329  -0.01929  -0.01444  -0.00798  -0.00462
 Alpha virt. eigenvalues --   -0.00316   0.00281   0.00327   0.00586   0.00791

  Beta  occ. eigenvalues --  -38.44644 -38.44503 -38.44336 -38.44152 -38.44107
  Beta  occ. eigenvalues --  -38.43907 -38.43321  -2.20376  -2.20297  -2.20133
  Beta  occ. eigenvalues --   -2.19953  -2.19894  -2.19717  -2.19193  -1.14079
  Beta  occ. eigenvalues --   -1.14065  -1.14044  -1.13991  -1.13969  -1.13926
  Beta  occ. eigenvalues --   -1.13846  -1.13828  -1.13796  -1.13640  -1.13625
  Beta  occ. eigenvalues --   -1.13604  -1.13561  -1.13556  -1.13538  -1.13400
  Beta  occ. eigenvalues --   -1.13389  -1.13319  -1.12880  -1.12858  -1.12816
  Beta  occ. eigenvalues --   -0.16658  -0.13002  -0.12338
  Beta virt. eigenvalues --   -0.07538  -0.06328  -0.05353  -0.03939  -0.03150
  Beta virt. eigenvalues --   -0.02777  -0.01993  -0.01472  -0.01288  -0.00739
  Beta virt. eigenvalues --   -0.00404  -0.00056   0.00377   0.00411   0.00739

 Mulliken charges and spin densities:
               1          2
     1  Na  -0.081858   0.198075
     2  Na   0.330001   0.115030
     3  Na   0.275208   0.020933
     4  Na   0.127561   0.273149
     5  Na  -0.290769   0.006409
     6  Na  -0.325635   0.486069
     7  Na  -0.034509  -0.099664
 Sum of Mulliken charges =  -0.00000   1.00000

 Dipole moment (field-independent basis, Debye):
    X=              0.0648    Y=             -0.0333    Z=             -0.0774  Tot=              0.1063
 Quadrupole moment (field-independent basis, Debye-Ang):
   XX=            -62.4323   YY=            -67.9735   ZZ=            -69.6834
   XY=             -0.1700   XZ=             -0.2807   YZ=             -0.6909

 Normal termination of Gaussian 16 at Sun Dec  3 17:14:26 2023.
