 Gaussian 16, Revision B.01,
 Gaussian 16:  ES64L-G16RevB.01 20-Dec-2017

 -------------------------
 #P B3LYP/6-311+g(d) force
 -------------------------

 -----
 DPGEN
 -----
 Symbolic Z-matrix:
 Charge =  0 Multiplicity = 2

                         Standard orientation:
 ---------------------------------------------------------------------
 Center     Atomic      Atomic             Coordinates (Angstroms)
 Number     Number       Type             X           Y           Z
 ---------------------------------------------------------------------
      1         11           0        3.971431    0.899991   -0.451666
      2         11           0       -0.271914   -0.281092   -1.507253
      3         11           0        2.293068   -1.844469   -0.056593
      4         11           0       -2.693752    2.072453    0.222269
      5         11           0       -1.081715   -1.363022    2.038888
      6         11           0        1.060952    1.470152    0.809555
      7         11           0       -3.278070   -0.954012   -1.055201
 ---------------------------------------------------------------------

 SCF Done:  E(UB3LYP) =  -1136.11632044     A.U. after   29 cycles

 The electronic state is 2-A.
 Alpha  occ. eigenvalues --  -38.44690 -38.44634 -38.44630 -38.43845 -38.43757
 Alpha  occ. eigenvalues --  -38.43756 -38.43596  -2.20553  -2.20517  -2.20503
 Alpha  occ. eigenvalues --   -2.19704  -2.19582  -2.19560  -2.19502  -1.14320
 Alpha  occ. eigenvalues --   -1.14256  -1.14194  -1.14187  -1.14167  -1.14163
 Alpha  occ. eigenvalues --   -1.14145  -1.14115  -1.14100  -1.13395  -1.13368
 Alpha  occ. eigenvalues --   -1.13327  -1.13249  -1.13235  -1.13230  -1.13222
 Alpha  occ. eigenvalues --   -1.13219  -1.13210  -1.13191  -1.13139  -1.13101
 Alpha  occ. eigenvalues --   -0.18422  -0.14447  -0.11133  -0.10817
 Alpha virt. eigenvalues --   -0.07089  -0.05714  -0.04257  -0.03105  -0.02927
 Alpha virt. eigenvalues --   -0.02566  -0.02205  -0.01415  -0.00830  -0.00429
 Alpha virt. eigenvalues --   -0.00002   0.00235   0.00360   0.00570   0.00720

  Beta  occ. eigenvalues --  -38.44701 -38.44609 -38.44581 -38.43846 -38.43755
  Beta  occ. eigenvalues --  -38.43674 -38.43555  -2.20539  -2.20517  -2.20406
  Beta  occ. eigenvalues --   -2.19705  -2.19562  -2.19431  -2.19426  -1.14260
  Beta  occ. eigenvalues --   -1.14215  -1.14211  -1.14201  -1.14175  -1.14148
  Beta  occ. eigenvalues --   -1.14077  -1.14054  -1.14043  -1.13401  -1.13366
  Beta  occ. eigenvalues --   -1.13320  -1.13237  -1.13219  -1.13197  -1.13183
  Beta  occ. eigenvalues --   -1.13130  -1.13118  -1.13090  -1.13074  -1.13040
  Beta  occ. eigenvalues --   -0.17774  -0.14195  -0.10581
  Beta virt. eigenvalues --   -0.07306  -0.06815  -0.05679  -0.03720  -0.02816
  Beta virt. eigenvalues --   -0.02755  -0.01913  -0.01541  -0.01226  -0.00475
  Beta virt. eigenvalues --   -0.00408   0.00052   0.00244   0.00487   0.00631

 Mulliken charges and spin densities:
               1          2
     1  Na   0.437292  -0.035435
     2  Na  -0.555368   0.150743
     3  Na   0.387706   0.103553
     4  Na  -0.191319  -0.012298
     5  Na  -0.277291   0.421055
     6  Na  -0.452318   0.189546
     7  Na   0.651299   0.182836
 Sum of Mulliken charges =  -0.00000   1.00000

 Dipole moment (field-independent basis, Debye):
    X=              0.2632    Y=             -0.4792    Z=             -0.0410  Tot=              0.5483
 Quadrupole moment (field-independent basis, Debye-Ang):
   XX=            -48.7847   YY=            -75.8761   ZZ=            -70.5009
   XY=              0.1884   XZ=             -2.7417   YZ=             -0.0155

 Normal termination of Gaussian 16 at Thu Dec  7 11:05:22 2023.
