 Gaussian 16, Revision B.01,
 Gaussian 16:  ES64L-G16RevB.01 20-Dec-2017

 -------------------------
 #P B3LYP/6-311+g(d) force
 -------------------------

 -----
 DPGEN
 -----
 Symbolic Z-matrix:
 Charge =  0 Multiplicity = 2

                         Standard orientation:
 ---------------------------------------------------------------------
 Center     Atomic      Atomic             Coordinates (Angstroms)
 Number     Number       Type             X           Y           Z
 ---------------------------------------------------------------------
      1         11           0        3.742987    1.858805    0.534198
      2         11           0        0.224712    3.921386    0.108330
      3         11           0       -2.356729   -2.495418    0.832938
      4         11           0        1.302164   -3.297540   -0.197258
      5         11           0       -4.370527   -0.850425   -0.278705
      6         11           0       -2.414967    2.621964   -0.453034
      7         11           0        3.872360   -1.758772   -0.546468
 ---------------------------------------------------------------------

 SCF Done:  E(UB3LYP) =  -1136.10307455     A.U. after   20 cycles

 The electronic state is 2-A.
 Alpha  occ. eigenvalues --  -38.45055 -38.44762 -38.44730 -38.44727 -38.44400
 Alpha  occ. eigenvalues --  -38.44153 -38.44098  -2.20884  -2.20607  -2.20524
 Alpha  occ. eigenvalues --   -2.20507  -2.20216  -2.19978  -2.19899  -1.14718
 Alpha  occ. eigenvalues --   -1.14526  -1.14518  -1.14249  -1.14233  -1.14221
 Alpha  occ. eigenvalues --   -1.14209  -1.14191  -1.14172  -1.14155  -1.14136
 Alpha  occ. eigenvalues --   -1.14118  -1.13943  -1.13866  -1.13844  -1.13623
 Alpha  occ. eigenvalues --   -1.13616  -1.13607  -1.13556  -1.13553  -1.13530
 Alpha  occ. eigenvalues --   -0.15647  -0.14106  -0.13548  -0.11039
 Alpha virt. eigenvalues --   -0.07577  -0.04779  -0.04413  -0.03676  -0.03491
 Alpha virt. eigenvalues --   -0.02522  -0.02188  -0.01889  -0.01426  -0.00880
 Alpha virt. eigenvalues --   -0.00538  -0.00193   0.00216   0.00321   0.00575

  Beta  occ. eigenvalues --  -38.45048 -38.44737 -38.44734 -38.44621 -38.44360
  Beta  occ. eigenvalues --  -38.44100 -38.44095  -2.20874  -2.20563  -2.20543
  Beta  occ. eigenvalues --   -2.20304  -2.20144  -2.19900  -2.19879  -1.14690
  Beta  occ. eigenvalues --   -1.14522  -1.14508  -1.14244  -1.14210  -1.14204
  Beta  occ. eigenvalues --   -1.14191  -1.14177  -1.14160  -1.14017  -1.14001
  Beta  occ. eigenvalues --   -1.13985  -1.13892  -1.13818  -1.13793  -1.13563
  Beta  occ. eigenvalues --   -1.13561  -1.13554  -1.13550  -1.13539  -1.13500
  Beta  occ. eigenvalues --   -0.15215  -0.13417  -0.12867
  Beta virt. eigenvalues --   -0.07744  -0.07574  -0.04391  -0.04016  -0.03432
  Beta virt. eigenvalues --   -0.03093  -0.02228  -0.02032  -0.01733  -0.01345
  Beta virt. eigenvalues --   -0.00498  -0.00295   0.00026   0.00348   0.00428

 Mulliken charges and spin densities:
               1          2
     1  Na  -0.226651   0.545620
     2  Na   0.747671  -0.075046
     3  Na  -0.580104   0.040072
     4  Na  -0.297590   0.227602
     5  Na   0.568951   0.101844
     6  Na  -0.670275   0.175892
     7  Na   0.457997  -0.015983
 Sum of Mulliken charges =  -0.00000   1.00000

 Dipole moment (field-independent basis, Debye):
    X=             -0.7593    Y=             -0.4476    Z=             -0.0285  Tot=              0.8819
 Quadrupole moment (field-independent basis, Debye-Ang):
   XX=            -59.4467   YY=            -70.4190   ZZ=            -72.3367
   XY=              0.5722   XZ=              1.4182   YZ=             -0.4071

 Normal termination of Gaussian 16 at Sun Dec  3 23:25:00 2023.
