 Gaussian 16, Revision B.01,
 Gaussian 16:  ES64L-G16RevB.01 20-Dec-2017

 -------------------------
 #P B3LYP/6-311+g(d) force
 -------------------------

 -----
 DPGEN
 -----
 Symbolic Z-matrix:
 Charge =  0 Multiplicity = 2

                         Standard orientation:
 ---------------------------------------------------------------------
 Center     Atomic      Atomic             Coordinates (Angstroms)
 Number     Number       Type             X           Y           Z
 ---------------------------------------------------------------------
      1         11           0        3.166517    1.531676    1.221177
      2         11           0       -0.253634   -1.647179   -1.844749
      3         11           0        0.482634    2.267996   -1.557210
      4         11           0       -3.063588    1.920400    0.090699
      5         11           0        0.476327   -0.861180    2.029389
      6         11           0       -3.548430   -1.388496    0.705770
      7         11           0        2.740174   -1.823217   -0.645077
 ---------------------------------------------------------------------

 SCF Done:  E(UB3LYP) =  -1136.11561029     A.U. after   23 cycles

 The electronic state is 2-A.
 Alpha  occ. eigenvalues --  -38.45354 -38.44506 -38.44469 -38.44369 -38.44148
 Alpha  occ. eigenvalues --  -38.43938 -38.43870  -2.21130  -2.20257  -2.20241
 Alpha  occ. eigenvalues --   -2.20182  -2.19917  -2.19758  -2.19634  -1.14804
 Alpha  occ. eigenvalues --   -1.14777  -1.14747  -1.13942  -1.13941  -1.13913
 Alpha  occ. eigenvalues --   -1.13908  -1.13881  -1.13874  -1.13857  -1.13842
 Alpha  occ. eigenvalues --   -1.13816  -1.13596  -1.13565  -1.13558  -1.13426
 Alpha  occ. eigenvalues --   -1.13392  -1.13389  -1.13304  -1.13286  -1.13256
 Alpha  occ. eigenvalues --   -0.17001  -0.13314  -0.11464  -0.11337
 Alpha virt. eigenvalues --   -0.06441  -0.06000  -0.04447  -0.03443  -0.03270
 Alpha virt. eigenvalues --   -0.02878  -0.02061  -0.01396  -0.00725  -0.00559
 Alpha virt. eigenvalues --   -0.00072   0.00052   0.00198   0.00333   0.00591

  Beta  occ. eigenvalues --  -38.45300 -38.44512 -38.44450 -38.44362 -38.44133
  Beta  occ. eigenvalues --  -38.43883 -38.43819  -2.21030  -2.20269  -2.20205
  Beta  occ. eigenvalues --   -2.20173  -2.19892  -2.19659  -2.19540  -1.14738
  Beta  occ. eigenvalues --   -1.14712  -1.14667  -1.13950  -1.13941  -1.13911
  Beta  occ. eigenvalues --   -1.13879  -1.13858  -1.13855  -1.13844  -1.13838
  Beta  occ. eigenvalues --   -1.13799  -1.13578  -1.13549  -1.13534  -1.13359
  Beta  occ. eigenvalues --   -1.13323  -1.13312  -1.13238  -1.13219  -1.13194
  Beta  occ. eigenvalues --   -0.16301  -0.13090  -0.11037
  Beta virt. eigenvalues --   -0.07821  -0.06124  -0.05944  -0.03882  -0.03119
  Beta virt. eigenvalues --   -0.02856  -0.02084  -0.01907  -0.01315  -0.00642
  Beta virt. eigenvalues --   -0.00365  -0.00006   0.00224   0.00283   0.00403

 Mulliken charges and spin densities:
               1          2
     1  Na   0.251622  -0.003250
     2  Na  -0.007583   0.279190
     3  Na  -0.373636   0.243957
     4  Na   0.064441  -0.057469
     5  Na  -0.323908   0.397738
     6  Na   0.130731   0.144585
     7  Na   0.258331  -0.004751
 Sum of Mulliken charges =  -0.00000   1.00000

 Dipole moment (field-independent basis, Debye):
    X=              0.0428    Y=             -0.5742    Z=              0.5277  Tot=              0.7810
 Quadrupole moment (field-independent basis, Debye-Ang):
   XX=            -55.5474   YY=            -73.7613   ZZ=            -69.1225
   XY=             -0.0285   XZ=             -0.6119   YZ=             -0.3199

 Normal termination of Gaussian 16 at Mon Dec  4 05:13:10 2023.
