 Gaussian 16, Revision B.01,
 Gaussian 16:  ES64L-G16RevB.01 20-Dec-2017

 -------------------------
 #P B3LYP/6-311+g(d) force
 -------------------------

 -----
 DPGEN
 -----
 Symbolic Z-matrix:
 Charge =  0 Multiplicity = 2

                         Standard orientation:
 ---------------------------------------------------------------------
 Center     Atomic      Atomic             Coordinates (Angstroms)
 Number     Number       Type             X           Y           Z
 ---------------------------------------------------------------------
      1         11           0       -1.087310   -1.227532   -0.614116
      2         11           0        1.278598    1.548336   -0.255395
      3         11           0       -5.258732   -1.761629   -0.713063
      4         11           0       -3.917144    0.008013    1.519587
      5         11           0       -2.402159    2.620975   -0.412827
      6         11           0        7.036019   -0.402777   -0.447012
      7         11           0        4.350727   -0.785387    0.922825
 ---------------------------------------------------------------------

 SCF Done:  E(UB3LYP) =  -1136.11093224     A.U. after   20 cycles

 The electronic state is 2-A.
 Alpha  occ. eigenvalues --  -38.44950 -38.44644 -38.44541 -38.44185 -38.44176
 Alpha  occ. eigenvalues --  -38.43949 -38.43827  -2.20733  -2.20478  -2.20331
 Alpha  occ. eigenvalues --   -2.19992  -2.19936  -2.19750  -2.19627  -1.14433
 Alpha  occ. eigenvalues --   -1.14390  -1.14320  -1.14177  -1.14142  -1.14130
 Alpha  occ. eigenvalues --   -1.13990  -1.13981  -1.13946  -1.13656  -1.13639
 Alpha  occ. eigenvalues --   -1.13625  -1.13603  -1.13594  -1.13554  -1.13485
 Alpha  occ. eigenvalues --   -1.13397  -1.13396  -1.13291  -1.13279  -1.13223
 Alpha  occ. eigenvalues --   -0.16427  -0.13689  -0.11948  -0.10710
 Alpha virt. eigenvalues --   -0.06497  -0.06106  -0.04638  -0.03350  -0.02925
 Alpha virt. eigenvalues --   -0.02487  -0.02267  -0.01747  -0.01297  -0.00920
 Alpha virt. eigenvalues --   -0.00470  -0.00134   0.00172   0.00290   0.00365

  Beta  occ. eigenvalues --  -38.44892 -38.44626 -38.44532 -38.44174 -38.44101
  Beta  occ. eigenvalues --  -38.43931 -38.43831  -2.20625  -2.20450  -2.20314
  Beta  occ. eigenvalues --   -2.19934  -2.19837  -2.19716  -2.19636  -1.14360
  Beta  occ. eigenvalues --   -1.14315  -1.14238  -1.14164  -1.14124  -1.14084
  Beta  occ. eigenvalues --   -1.13979  -1.13963  -1.13932  -1.13626  -1.13586
  Beta  occ. eigenvalues --   -1.13564  -1.13548  -1.13533  -1.13482  -1.13469
  Beta  occ. eigenvalues --   -1.13375  -1.13373  -1.13298  -1.13284  -1.13213
  Beta  occ. eigenvalues --   -0.15748  -0.13507  -0.11740
  Beta virt. eigenvalues --   -0.07138  -0.06136  -0.05801  -0.04381  -0.02983
  Beta virt. eigenvalues --   -0.02662  -0.02188  -0.01885  -0.01531  -0.00941
  Beta virt. eigenvalues --   -0.00795  -0.00297   0.00057   0.00291   0.00373

 Mulliken charges and spin densities:
               1          2
     1  Na  -0.285955   0.419171
     2  Na  -0.265267  -0.168145
     3  Na   0.135920   0.014104
     4  Na   0.174848   0.152789
     5  Na   0.266571   0.534454
     6  Na   0.297431   0.080610
     7  Na  -0.323548  -0.032982
 Sum of Mulliken charges =  -0.00000   1.00000

 Dipole moment (field-independent basis, Debye):
    X=             -1.1642    Y=             -0.2215    Z=             -0.4333  Tot=              1.2618
 Quadrupole moment (field-independent basis, Debye-Ang):
   XX=            -61.4787   YY=            -71.4807   ZZ=            -66.0816
   XY=              5.4715   XZ=             -0.9538   YZ=             -0.4143

 Normal termination of Gaussian 16 at Sun Dec  3 21:01:28 2023.
