 Gaussian 16, Revision B.01,
 Gaussian 16:  ES64L-G16RevB.01 20-Dec-2017

 -------------------------
 #P B3LYP/6-311+g(d) force
 -------------------------

 -----
 DPGEN
 -----
 Symbolic Z-matrix:
 Charge =  0 Multiplicity = 2

                         Standard orientation:
 ---------------------------------------------------------------------
 Center     Atomic      Atomic             Coordinates (Angstroms)
 Number     Number       Type             X           Y           Z
 ---------------------------------------------------------------------
      1         11           0       -0.080250   -2.857610   -0.416840
      2         11           0       -3.592403   -0.364550   -0.102802
      3         11           0       -0.076454   -0.742971    2.066204
      4         11           0        3.248890   -1.071430   -0.086159
      5         11           0       -0.566042    0.034205   -1.537151
      6         11           0       -1.579558    2.681593    0.245663
      7         11           0        2.645817    2.320763   -0.168916
 ---------------------------------------------------------------------

 SCF Done:  E(UB3LYP) =  -1136.12593408     A.U. after   21 cycles

 The electronic state is 2-A.
 Alpha  occ. eigenvalues --  -38.45345 -38.44643 -38.44011 -38.43911 -38.43487
 Alpha  occ. eigenvalues --  -38.43433 -38.43223  -2.21122  -2.20417  -2.19803
 Alpha  occ. eigenvalues --   -2.19668  -2.19421  -2.19294  -2.19093  -1.14801
 Alpha  occ. eigenvalues --   -1.14771  -1.14761  -1.14098  -1.14079  -1.14051
 Alpha  occ. eigenvalues --   -1.13500  -1.13469  -1.13425  -1.13345  -1.13328
 Alpha  occ. eigenvalues --   -1.13313  -1.13126  -1.13088  -1.13036  -1.12966
 Alpha  occ. eigenvalues --   -1.12935  -1.12905  -1.12774  -1.12744  -1.12703
 Alpha  occ. eigenvalues --   -0.17843  -0.13151  -0.12036  -0.10240
 Alpha virt. eigenvalues --   -0.06564  -0.05608  -0.04600  -0.03160  -0.02585
 Alpha virt. eigenvalues --   -0.02321  -0.02259  -0.01274  -0.00843  -0.00664
 Alpha virt. eigenvalues --   -0.00081   0.00249   0.00677   0.00718   0.00754

  Beta  occ. eigenvalues --  -38.45342 -38.44642 -38.44005 -38.43913 -38.43434
  Beta  occ. eigenvalues --  -38.43336 -38.43211  -2.21119  -2.20416  -2.19794
  Beta  occ. eigenvalues --   -2.19672  -2.19325  -2.19114  -2.19075  -1.14782
  Beta  occ. eigenvalues --   -1.14768  -1.14760  -1.14086  -1.14078  -1.14053
  Beta  occ. eigenvalues --   -1.13491  -1.13449  -1.13422  -1.13341  -1.13331
  Beta  occ. eigenvalues --   -1.13316  -1.13065  -1.13006  -1.12967  -1.12856
  Beta  occ. eigenvalues --   -1.12811  -1.12780  -1.12750  -1.12702  -1.12685
  Beta  occ. eigenvalues --   -0.17163  -0.12990  -0.11834
  Beta virt. eigenvalues --   -0.06523  -0.06330  -0.05589  -0.04496  -0.02465
  Beta virt. eigenvalues --   -0.02190  -0.01957  -0.01320  -0.01200  -0.00823
  Beta virt. eigenvalues --   -0.00693   0.00116   0.00308   0.00744   0.00768

 Mulliken charges and spin densities:
               1          2
     1  Na   0.185609  -0.128748
     2  Na   0.250151  -0.065810
     3  Na  -0.367796   0.750329
     4  Na   0.037771  -0.020296
     5  Na   0.269929   0.526432
     6  Na  -0.231645   0.000791
     7  Na  -0.144020  -0.062697
 Sum of Mulliken charges =  -0.00000   1.00000

 Dipole moment (field-independent basis, Debye):
    X=             -0.6952    Y=             -0.1500    Z=              0.0877  Tot=              0.7165
 Quadrupole moment (field-independent basis, Debye-Ang):
   XX=            -51.1494   YY=            -64.1594   ZZ=            -77.3997
   XY=             -0.7716   XZ=             -0.8482   YZ=              1.4268

 Normal termination of Gaussian 16 at Thu Dec  7 14:38:23 2023.
