 Gaussian 16, Revision B.01,
 Gaussian 16:  ES64L-G16RevB.01 20-Dec-2017

 -------------------------
 #P B3LYP/6-311+g(d) force
 -------------------------

 -----
 DPGEN
 -----
 Symbolic Z-matrix:
 Charge =  0 Multiplicity = 2

                         Standard orientation:
 ---------------------------------------------------------------------
 Center     Atomic      Atomic             Coordinates (Angstroms)
 Number     Number       Type             X           Y           Z
 ---------------------------------------------------------------------
      1         11           0       -1.151620    2.523772   -0.564521
      2         11           0       -2.131412   -0.617732    2.229553
      3         11           0        3.136699    1.371838   -0.613178
      4         11           0        1.216217    0.435595    1.895859
      5         11           0       -3.877036   -0.716711   -1.197933
      6         11           0       -0.044240   -0.871377   -1.403645
      7         11           0        2.851392   -2.125384   -0.346135
 ---------------------------------------------------------------------

 SCF Done:  E(UB3LYP) =  -1136.11824344     A.U. after   26 cycles

 The electronic state is 2-A.
 Alpha  occ. eigenvalues --  -38.45257 -38.44673 -38.44537 -38.44226 -38.44000
 Alpha  occ. eigenvalues --  -38.43516 -38.43276  -2.21060  -2.20469  -2.20293
 Alpha  occ. eigenvalues --   -2.20003  -2.19823  -2.19376  -2.19106  -1.14751
 Alpha  occ. eigenvalues --   -1.14718  -1.14676  -1.14141  -1.14107  -1.14081
 Alpha  occ. eigenvalues --   -1.13960  -1.13956  -1.13918  -1.13690  -1.13643
 Alpha  occ. eigenvalues --   -1.13612  -1.13542  -1.13505  -1.13430  -1.13069
 Alpha  occ. eigenvalues --   -1.13032  -1.13004  -1.12779  -1.12765  -1.12745
 Alpha  occ. eigenvalues --   -0.17652  -0.13683  -0.11510  -0.10725
 Alpha virt. eigenvalues --   -0.06806  -0.05278  -0.05186  -0.03181  -0.02753
 Alpha virt. eigenvalues --   -0.02490  -0.02305  -0.01219  -0.01068  -0.00458
 Alpha virt. eigenvalues --    0.00004   0.00137   0.00208   0.00343   0.00682

  Beta  occ. eigenvalues --  -38.45254 -38.44597 -38.44516 -38.44169 -38.43997
  Beta  occ. eigenvalues --  -38.43489 -38.43280  -2.21054  -2.20330  -2.20254
  Beta  occ. eigenvalues --   -2.19897  -2.19819  -2.19328  -2.19112  -1.14751
  Beta  occ. eigenvalues --   -1.14712  -1.14669  -1.14042  -1.14015  -1.13977
  Beta  occ. eigenvalues --   -1.13930  -1.13924  -1.13894  -1.13612  -1.13571
  Beta  occ. eigenvalues --   -1.13539  -1.13527  -1.13494  -1.13432  -1.13039
  Beta  occ. eigenvalues --   -1.12976  -1.12969  -1.12783  -1.12768  -1.12749
  Beta  occ. eigenvalues --   -0.17070  -0.13373  -0.10603
  Beta virt. eigenvalues --   -0.07623  -0.06675  -0.05001  -0.04662  -0.02848
  Beta virt. eigenvalues --   -0.02387  -0.02181  -0.01808  -0.00972  -0.00734
  Beta virt. eigenvalues --   -0.00327   0.00108   0.00166   0.00266   0.00487

 Mulliken charges and spin densities:
               1          2
     1  Na  -0.197868   0.296797
     2  Na  -0.107038   0.205334
     3  Na   0.519122   0.131478
     4  Na  -0.037799   0.209079
     5  Na   0.309898   0.084363
     6  Na  -0.754930   0.192514
     7  Na   0.268614  -0.119563
 Sum of Mulliken charges =  -0.00000   1.00000

 Dipole moment (field-independent basis, Debye):
    X=              0.0237    Y=              0.5587    Z=             -0.0530  Tot=              0.5617
 Quadrupole moment (field-independent basis, Debye-Ang):
   XX=            -50.0656   YY=            -73.4565   ZZ=            -71.4186
   XY=              1.6756   XZ=             -0.8842   YZ=             -6.3582

 Normal termination of Gaussian 16 at Fri Dec  8 00:44:31 2023.
