 Gaussian 16, Revision B.01,
 Gaussian 16:  ES64L-G16RevB.01 20-Dec-2017

 -------------------------
 #P B3LYP/6-311+g(d) force
 -------------------------

 -----
 DPGEN
 -----
 Symbolic Z-matrix:
 Charge =  0 Multiplicity = 2

                         Standard orientation:
 ---------------------------------------------------------------------
 Center     Atomic      Atomic             Coordinates (Angstroms)
 Number     Number       Type             X           Y           Z
 ---------------------------------------------------------------------
      1         11           0        2.347653    2.278467    0.025143
      2         11           0        0.243221   -1.317288   -1.588081
      3         11           0        0.864788   -0.894865    1.716509
      4         11           0        3.420905   -0.831714   -0.388231
      5         11           0       -3.907471    0.964990   -0.306714
      6         11           0       -2.112515   -1.743823    0.448938
      7         11           0       -0.856581    1.544234    0.092435
 ---------------------------------------------------------------------

 SCF Done:  E(UB3LYP) =  -1136.11988905     A.U. after   25 cycles

 The electronic state is 2-A.
 Alpha  occ. eigenvalues --  -38.44816 -38.44561 -38.44153 -38.43761 -38.43580
 Alpha  occ. eigenvalues --  -38.43356 -38.43219  -2.20679  -2.20399  -2.20053
 Alpha  occ. eigenvalues --   -2.19683  -2.19416  -2.19312  -2.19158  -1.14353
 Alpha  occ. eigenvalues --   -1.14327  -1.14310  -1.14070  -1.14055  -1.14032
 Alpha  occ. eigenvalues --   -1.13755  -1.13712  -1.13678  -1.13363  -1.13357
 Alpha  occ. eigenvalues --   -1.13299  -1.13107  -1.13072  -1.13062  -1.13011
 Alpha  occ. eigenvalues --   -1.12959  -1.12901  -1.12858  -1.12821  -1.12774
 Alpha  occ. eigenvalues --   -0.18855  -0.14363  -0.11593  -0.10560
 Alpha virt. eigenvalues --   -0.07318  -0.05611  -0.03806  -0.03423  -0.02942
 Alpha virt. eigenvalues --   -0.02240  -0.01992  -0.01431  -0.00540  -0.00501
 Alpha virt. eigenvalues --   -0.00044   0.00216   0.00425   0.00608   0.00690

  Beta  occ. eigenvalues --  -38.44782 -38.44539 -38.44122 -38.43749 -38.43577
  Beta  occ. eigenvalues --  -38.43284 -38.43203  -2.20617  -2.20358  -2.19997
  Beta  occ. eigenvalues --   -2.19665  -2.19413  -2.19181  -2.19135  -1.14303
  Beta  occ. eigenvalues --   -1.14284  -1.14265  -1.14045  -1.14028  -1.14000
  Beta  occ. eigenvalues --   -1.13712  -1.13669  -1.13639  -1.13353  -1.13321
  Beta  occ. eigenvalues --   -1.13274  -1.13106  -1.13065  -1.13049  -1.12919
  Beta  occ. eigenvalues --   -1.12864  -1.12847  -1.12809  -1.12778  -1.12747
  Beta  occ. eigenvalues --   -0.18214  -0.14024  -0.11357
  Beta virt. eigenvalues --   -0.07140  -0.06736  -0.05569  -0.03311  -0.03116
  Beta virt. eigenvalues --   -0.02735  -0.01680  -0.01397  -0.01239  -0.00448
  Beta virt. eigenvalues --   -0.00185   0.00048   0.00252   0.00587   0.00667

 Mulliken charges and spin densities:
               1          2
     1  Na  -0.218180  -0.121104
     2  Na  -0.423283   0.192976
     3  Na  -0.150954   0.261626
     4  Na   0.444586   0.297665
     5  Na   0.901004   0.167145
     6  Na   0.892808   0.149609
     7  Na  -1.445981   0.052083
 Sum of Mulliken charges =  -0.00000   1.00000

 Dipole moment (field-independent basis, Debye):
    X=             -0.0459    Y=             -0.5953    Z=              0.2646  Tot=              0.6531
 Quadrupole moment (field-independent basis, Debye-Ang):
   XX=            -49.8114   YY=            -74.0382   ZZ=            -71.5398
   XY=              1.3880   XZ=              1.2540   YZ=             -2.0831

 Normal termination of Gaussian 16 at Tue Dec  5 19:27:24 2023.
