 Gaussian 16, Revision B.01,
 Gaussian 16:  ES64L-G16RevB.01 20-Dec-2017

 -------------------------
 #P B3LYP/6-311+g(d) force
 -------------------------

 -----
 DPGEN
 -----
 Symbolic Z-matrix:
 Charge =  0 Multiplicity = 2

                         Standard orientation:
 ---------------------------------------------------------------------
 Center     Atomic      Atomic             Coordinates (Angstroms)
 Number     Number       Type             X           Y           Z
 ---------------------------------------------------------------------
      1         11           0       -0.191166    0.279863    1.642115
      2         11           0       -1.239295   -1.498807   -1.033698
      3         11           0       -4.253787   -0.958696    0.445363
      4         11           0       -2.647840    1.785153   -0.250129
      5         11           0        4.375334    0.163923    0.616527
      6         11           0        1.339525    1.933689   -1.005283
      7         11           0        2.617228   -1.705125   -0.414895
 ---------------------------------------------------------------------

 SCF Done:  E(UB3LYP) =  -1136.11257717     A.U. after   27 cycles

 The electronic state is 2-A.
 Alpha  occ. eigenvalues --  -38.45709 -38.44176 -38.43940 -38.43865 -38.43782
 Alpha  occ. eigenvalues --  -38.43683 -38.43488  -2.21551  -2.20037  -2.19831
 Alpha  occ. eigenvalues --   -2.19660  -2.19656  -2.19566  -2.19335  -1.15231
 Alpha  occ. eigenvalues --   -1.15197  -1.15165  -1.13739  -1.13718  -1.13708
 Alpha  occ. eigenvalues --   -1.13637  -1.13451  -1.13426  -1.13361  -1.13349
 Alpha  occ. eigenvalues --   -1.13329  -1.13310  -1.13271  -1.13270  -1.13221
 Alpha  occ. eigenvalues --   -1.13185  -1.13143  -1.12996  -1.12989  -1.12962
 Alpha  occ. eigenvalues --   -0.18015  -0.14707  -0.10908  -0.10736
 Alpha virt. eigenvalues --   -0.07109  -0.05620  -0.04500  -0.03368  -0.02996
 Alpha virt. eigenvalues --   -0.02221  -0.01758  -0.01310  -0.01265  -0.00561
 Alpha virt. eigenvalues --   -0.00375   0.00115   0.00314   0.00541   0.00693

  Beta  occ. eigenvalues --  -38.45682 -38.44148 -38.43881 -38.43872 -38.43726
  Beta  occ. eigenvalues --  -38.43673 -38.43456  -2.21505  -2.19987  -2.19722
  Beta  occ. eigenvalues --   -2.19673  -2.19558  -2.19555  -2.19276  -1.15189
  Beta  occ. eigenvalues --   -1.15165  -1.15132  -1.13704  -1.13681  -1.13657
  Beta  occ. eigenvalues --   -1.13581  -1.13376  -1.13365  -1.13352  -1.13334
  Beta  occ. eigenvalues --   -1.13283  -1.13280  -1.13244  -1.13221  -1.13182
  Beta  occ. eigenvalues --   -1.13172  -1.13079  -1.12952  -1.12942  -1.12924
  Beta  occ. eigenvalues --   -0.17367  -0.14154  -0.10667
  Beta virt. eigenvalues --   -0.07145  -0.06936  -0.05415  -0.03967  -0.03127
  Beta virt. eigenvalues --   -0.02807  -0.01837  -0.01403  -0.01157  -0.00826
  Beta virt. eigenvalues --   -0.00365  -0.00116   0.00185   0.00408   0.00594

 Mulliken charges and spin densities:
               1          2
     1  Na  -0.219235  -0.093070
     2  Na  -0.457454   0.138812
     3  Na   0.554570   0.280019
     4  Na   0.196493   0.284896
     5  Na   0.527220   0.418342
     6  Na  -0.171489  -0.014481
     7  Na  -0.430107  -0.014518
 Sum of Mulliken charges =  -0.00000   1.00000

 Dipole moment (field-independent basis, Debye):
    X=             -0.3755    Y=              0.6998    Z=              0.5551  Tot=              0.9690
 Quadrupole moment (field-independent basis, Debye-Ang):
   XX=            -70.8846   YY=            -76.2030   ZZ=            -60.3429
   XY=              1.9279   XZ=             -0.4261   YZ=             -2.3627

 Normal termination of Gaussian 16 at Tue Dec  5 11:19:07 2023.
