 Gaussian 16, Revision B.01,
 Gaussian 16:  ES64L-G16RevB.01 20-Dec-2017

 -------------------------
 #P B3LYP/6-311+g(d) force
 -------------------------

 -----
 DPGEN
 -----
 Symbolic Z-matrix:
 Charge =  0 Multiplicity = 2

                         Standard orientation:
 ---------------------------------------------------------------------
 Center     Atomic      Atomic             Coordinates (Angstroms)
 Number     Number       Type             X           Y           Z
 ---------------------------------------------------------------------
      1         11           0       -3.259234   -1.569982   -0.726311
      2         11           0       -1.370479    0.200159    1.958511
      3         11           0        0.021440   -0.531659   -1.594721
      4         11           0        1.568090   -1.377324    1.362408
      5         11           0        1.302111    1.668302    0.038100
      6         11           0       -2.423661    1.753314   -0.377335
      7         11           0        4.161734   -0.142809   -0.660650
 ---------------------------------------------------------------------

 SCF Done:  E(UB3LYP) =  -1136.11640575     A.U. after   30 cycles

 The electronic state is 2-A.
 Alpha  occ. eigenvalues --  -38.45284 -38.44597 -38.44543 -38.44224 -38.43452
 Alpha  occ. eigenvalues --  -38.43034 -38.42909  -2.21068  -2.20486  -2.20447
 Alpha  occ. eigenvalues --   -2.20131  -2.19411  -2.18858  -2.18838  -1.14749
 Alpha  occ. eigenvalues --   -1.14737  -1.14690  -1.14225  -1.14191  -1.14170
 Alpha  occ. eigenvalues --   -1.14112  -1.14054  -1.14025  -1.13823  -1.13770
 Alpha  occ. eigenvalues --   -1.13728  -1.13160  -1.13055  -1.12972  -1.12540
 Alpha  occ. eigenvalues --   -1.12526  -1.12522  -1.12502  -1.12494  -1.12439
 Alpha  occ. eigenvalues --   -0.18922  -0.14314  -0.11486  -0.10570
 Alpha virt. eigenvalues --   -0.07357  -0.05190  -0.04414  -0.03120  -0.02996
 Alpha virt. eigenvalues --   -0.02300  -0.02105  -0.01258  -0.00931  -0.00150
 Alpha virt. eigenvalues --    0.00014   0.00222   0.00385   0.00646   0.00710

  Beta  occ. eigenvalues --  -38.45289 -38.44568 -38.44512 -38.44156 -38.43413
  Beta  occ. eigenvalues --  -38.43029 -38.42886  -2.21079  -2.20439  -2.20390
  Beta  occ. eigenvalues --   -2.20005  -2.19342  -2.18849  -2.18798  -1.14751
  Beta  occ. eigenvalues --   -1.14742  -1.14699  -1.14191  -1.14134  -1.14122
  Beta  occ. eigenvalues --   -1.14066  -1.14022  -1.13984  -1.13740  -1.13686
  Beta  occ. eigenvalues --   -1.13629  -1.13114  -1.12986  -1.12924  -1.12522
  Beta  occ. eigenvalues --   -1.12510  -1.12493  -1.12485  -1.12473  -1.12408
  Beta  occ. eigenvalues --   -0.18151  -0.14203  -0.10337
  Beta virt. eigenvalues --   -0.07513  -0.07188  -0.04676  -0.04180  -0.02909
  Beta virt. eigenvalues --   -0.02653  -0.01780  -0.01531  -0.00950  -0.00639
  Beta virt. eigenvalues --   -0.00056   0.00043   0.00313   0.00411   0.00718

 Mulliken charges and spin densities:
               1          2
     1  Na  -0.195699  -0.122581
     2  Na   0.188304   0.345301
     3  Na  -0.357087   0.460114
     4  Na  -0.357881   0.102338
     5  Na  -0.395553   0.214099
     6  Na   0.358216   0.003732
     7  Na   0.759702  -0.003003
 Sum of Mulliken charges =  -0.00000   1.00000

 Dipole moment (field-independent basis, Debye):
    X=              1.3680    Y=              0.4623    Z=              0.2911  Tot=              1.4730
 Quadrupole moment (field-independent basis, Debye-Ang):
   XX=            -48.9742   YY=            -69.8735   ZZ=            -76.0725
   XY=             -3.1306   XZ=             -3.1526   YZ=             -5.6725

 Normal termination of Gaussian 16 at Thu Dec  7 23:39:35 2023.
