 Gaussian 16, Revision B.01,
 Gaussian 16:  ES64L-G16RevB.01 20-Dec-2017

 -------------------------
 #P B3LYP/6-311+g(d) force
 -------------------------

 -----
 DPGEN
 -----
 Symbolic Z-matrix:
 Charge =  0 Multiplicity = 2

                         Standard orientation:
 ---------------------------------------------------------------------
 Center     Atomic      Atomic             Coordinates (Angstroms)
 Number     Number       Type             X           Y           Z
 ---------------------------------------------------------------------
      1         11           0       -0.143702   -0.068540   -1.532639
      2         11           0       -2.997178   -1.167555   -0.166953
      3         11           0       -0.014285   -2.941873    0.438214
      4         11           0        2.977716   -1.243499   -0.549732
      5         11           0        0.804993    0.263346    1.853645
      6         11           0        2.182979    2.891070   -0.138007
      7         11           0       -2.810522    2.267051    0.095473
 ---------------------------------------------------------------------

 SCF Done:  E(UB3LYP) =  -1136.12837477     A.U. after   22 cycles

 The electronic state is 2-A.
 Alpha  occ. eigenvalues --  -38.44688 -38.44482 -38.44411 -38.44000 -38.43459
 Alpha  occ. eigenvalues --  -38.43267 -38.43216  -2.20441  -2.20300  -2.20159
 Alpha  occ. eigenvalues --   -2.19831  -2.19371  -2.19141  -2.19069  -1.14119
 Alpha  occ. eigenvalues --   -1.14092  -1.14090  -1.13974  -1.13959  -1.13927
 Alpha  occ. eigenvalues --   -1.13835  -1.13818  -1.13801  -1.13523  -1.13492
 Alpha  occ. eigenvalues --   -1.13460  -1.13080  -1.13010  -1.12990  -1.12823
 Alpha  occ. eigenvalues --   -1.12781  -1.12759  -1.12733  -1.12721  -1.12710
 Alpha  occ. eigenvalues --   -0.17934  -0.13125  -0.12085  -0.10055
 Alpha virt. eigenvalues --   -0.06492  -0.05567  -0.04811  -0.03058  -0.02667
 Alpha virt. eigenvalues --   -0.02082  -0.01912  -0.01580  -0.00993  -0.00625
 Alpha virt. eigenvalues --   -0.00019   0.00301   0.00620   0.00661   0.00766

  Beta  occ. eigenvalues --  -38.44693 -38.44457 -38.44413 -38.43997 -38.43406
  Beta  occ. eigenvalues --  -38.43203 -38.43189  -2.20450  -2.20257  -2.20165
  Beta  occ. eigenvalues --   -2.19828  -2.19274  -2.19048  -2.18997  -1.14121
  Beta  occ. eigenvalues --   -1.14098  -1.14095  -1.13936  -1.13914  -1.13900
  Beta  occ. eigenvalues --   -1.13829  -1.13819  -1.13806  -1.13516  -1.13482
  Beta  occ. eigenvalues --   -1.13458  -1.13007  -1.12944  -1.12912  -1.12737
  Beta  occ. eigenvalues --   -1.12718  -1.12703  -1.12684  -1.12680  -1.12632
  Beta  occ. eigenvalues --   -0.17258  -0.12919  -0.11902
  Beta virt. eigenvalues --   -0.06489  -0.06219  -0.05412  -0.04780  -0.02421
  Beta virt. eigenvalues --   -0.02010  -0.01797  -0.01594  -0.01068  -0.00962
  Beta virt. eigenvalues --   -0.00639   0.00146   0.00364   0.00633   0.00749

 Mulliken charges and spin densities:
               1          2
     1  Na   0.114102   0.379151
     2  Na   0.077349   0.002318
     3  Na   0.102370   0.109363
     4  Na   0.155785   0.094189
     5  Na  -0.213404   0.639066
     6  Na  -0.160184  -0.126296
     7  Na  -0.076017  -0.097790
 Sum of Mulliken charges =  -0.00000   1.00000

 Dipole moment (field-independent basis, Debye):
    X=              0.0042    Y=              0.4139    Z=             -0.0583  Tot=              0.4180
 Quadrupole moment (field-independent basis, Debye-Ang):
   XX=            -54.9547   YY=            -58.9587   ZZ=            -77.8243
   XY=             -0.6801   XZ=             -1.9165   YZ=             -0.7798

 Normal termination of Gaussian 16 at Tue Dec  5 19:23:48 2023.
