 Gaussian 16, Revision B.01,
 Gaussian 16:  ES64L-G16RevB.01 20-Dec-2017

 -------------------------
 #P B3LYP/6-311+g(d) force
 -------------------------

 -----
 DPGEN
 -----
 Symbolic Z-matrix:
 Charge =  0 Multiplicity = 2

                         Standard orientation:
 ---------------------------------------------------------------------
 Center     Atomic      Atomic             Coordinates (Angstroms)
 Number     Number       Type             X           Y           Z
 ---------------------------------------------------------------------
      1         11           0       -1.437494    1.556939    1.814821
      2         11           0        1.862776    2.316099    0.196543
      3         11           0        3.111569   -0.891475   -1.199242
      4         11           0        1.110261   -1.545388    1.728697
      5         11           0        0.161624   -0.080361   -1.070354
      6         11           0       -2.727626    0.611308   -1.806125
      7         11           0       -2.081110   -1.967122    0.335658
 ---------------------------------------------------------------------

 SCF Done:  E(UB3LYP) =  -1136.12578627     A.U. after   23 cycles

 The electronic state is 2-A.
 Alpha  occ. eigenvalues --  -38.44377 -38.44298 -38.44175 -38.43583 -38.43317
 Alpha  occ. eigenvalues --  -38.43279 -38.42842  -2.20240  -2.20146  -2.19986
 Alpha  occ. eigenvalues --   -2.19439  -2.19180  -2.19098  -2.18950  -1.13954
 Alpha  occ. eigenvalues --   -1.13863  -1.13857  -1.13844  -1.13774  -1.13755
 Alpha  occ. eigenvalues --   -1.13658  -1.13621  -1.13611  -1.13140  -1.13077
 Alpha  occ. eigenvalues --   -1.13062  -1.12889  -1.12844  -1.12820  -1.12803
 Alpha  occ. eigenvalues --   -1.12768  -1.12716  -1.12641  -1.12611  -1.12548
 Alpha  occ. eigenvalues --   -0.18474  -0.13485  -0.11744  -0.11188
 Alpha virt. eigenvalues --   -0.05448  -0.04961  -0.04905  -0.03239  -0.02927
 Alpha virt. eigenvalues --   -0.02645  -0.01669  -0.00924  -0.00745   0.00109
 Alpha virt. eigenvalues --    0.00292   0.00376   0.00544   0.00614   0.00844

  Beta  occ. eigenvalues --  -38.44323 -38.44274 -38.44117 -38.43547 -38.43311
  Beta  occ. eigenvalues --  -38.43281 -38.42809  -2.20141  -2.20101  -2.19881
  Beta  occ. eigenvalues --   -2.19375  -2.19175  -2.19104  -2.18894  -1.13879
  Beta  occ. eigenvalues --   -1.13824  -1.13795  -1.13776  -1.13747  -1.13726
  Beta  occ. eigenvalues --   -1.13579  -1.13548  -1.13538  -1.13098  -1.13030
  Beta  occ. eigenvalues --   -1.13007  -1.12887  -1.12829  -1.12823  -1.12785
  Beta  occ. eigenvalues --   -1.12765  -1.12711  -1.12573  -1.12567  -1.12522
  Beta  occ. eigenvalues --   -0.17748  -0.13160  -0.10942
  Beta virt. eigenvalues --   -0.07923  -0.05209  -0.04883  -0.04328  -0.02967
  Beta virt. eigenvalues --   -0.02329  -0.01903  -0.01522  -0.00713  -0.00496
  Beta virt. eigenvalues --    0.00250   0.00339   0.00475   0.00578   0.00743

 Mulliken charges and spin densities:
               1          2
     1  Na  -0.098261   0.346212
     2  Na  -0.256010   0.143159
     3  Na   0.613893   0.046006
     4  Na   0.106743   0.293326
     5  Na  -1.067762   0.059058
     6  Na   0.702713  -0.049669
     7  Na  -0.001316   0.161908
 Sum of Mulliken charges =  -0.00000   1.00000

 Dipole moment (field-independent basis, Debye):
    X=             -0.0671    Y=              0.0072    Z=              0.0532  Tot=              0.0859
 Quadrupole moment (field-independent basis, Debye-Ang):
   XX=            -53.7938   YY=            -74.2431   ZZ=            -64.3341
   XY=             -1.2165   XZ=             -0.5522   YZ=              0.5574

 Normal termination of Gaussian 16 at Thu Dec  7 23:22:06 2023.
