 Gaussian 16, Revision B.01,
 Gaussian 16:  ES64L-G16RevB.01 20-Dec-2017

 -------------------------
 #P B3LYP/6-311+g(d) force
 -------------------------

 -----
 DPGEN
 -----
 Symbolic Z-matrix:
 Charge =  0 Multiplicity = 2

                         Standard orientation:
 ---------------------------------------------------------------------
 Center     Atomic      Atomic             Coordinates (Angstroms)
 Number     Number       Type             X           Y           Z
 ---------------------------------------------------------------------
      1         11           0        2.855589    1.819161   -0.910977
      2         11           0        3.365315   -1.758281   -0.475992
      3         11           0       -0.156179   -1.274960   -0.376048
      4         11           0       -1.188536    1.980083   -0.402406
      5         11           0       -3.416903   -0.110779    1.404558
      6         11           0       -3.160024   -0.743200   -1.475374
      7         11           0        1.700738    0.087976    2.236238
 ---------------------------------------------------------------------

 SCF Done:  E(UB3LYP) =  -1136.10841122     A.U. after   34 cycles

 The electronic state is 2-A.
 Alpha  occ. eigenvalues --  -38.45955 -38.44772 -38.44632 -38.44344 -38.44182
 Alpha  occ. eigenvalues --  -38.43864 -38.43030  -2.21802  -2.20584  -2.20548
 Alpha  occ. eigenvalues --   -2.20109  -2.20056  -2.19670  -2.18872  -1.15509
 Alpha  occ. eigenvalues --   -1.15440  -1.15431  -1.14273  -1.14228  -1.14212
 Alpha  occ. eigenvalues --   -1.14204  -1.14194  -1.14154  -1.13793  -1.13775
 Alpha  occ. eigenvalues --   -1.13764  -1.13747  -1.13741  -1.13674  -1.13341
 Alpha  occ. eigenvalues --   -1.13326  -1.13304  -1.12587  -1.12541  -1.12472
 Alpha  occ. eigenvalues --   -0.18164  -0.14823  -0.10556  -0.10362
 Alpha virt. eigenvalues --   -0.07468  -0.05950  -0.05484  -0.03002  -0.02907
 Alpha virt. eigenvalues --   -0.02223  -0.01981  -0.01357  -0.01203  -0.00681
 Alpha virt. eigenvalues --   -0.00126   0.00068   0.00227   0.00265   0.00484

  Beta  occ. eigenvalues --  -38.45929 -38.44706 -38.44598 -38.44339 -38.44181
  Beta  occ. eigenvalues --  -38.43855 -38.43005  -2.21755  -2.20486  -2.20462
  Beta  occ. eigenvalues --   -2.20101  -2.20059  -2.19653  -2.18830  -1.15467
  Beta  occ. eigenvalues --   -1.15409  -1.15392  -1.14188  -1.14177  -1.14166
  Beta  occ. eigenvalues --   -1.14127  -1.14108  -1.14106  -1.13783  -1.13759
  Beta  occ. eigenvalues --   -1.13746  -1.13737  -1.13727  -1.13684  -1.13325
  Beta  occ. eigenvalues --   -1.13315  -1.13293  -1.12559  -1.12487  -1.12448
  Beta  occ. eigenvalues --   -0.17551  -0.14564  -0.10218
  Beta virt. eigenvalues --   -0.07156  -0.07011  -0.05634  -0.04942  -0.02885
  Beta virt. eigenvalues --   -0.02683  -0.01692  -0.01527  -0.01125  -0.00747
  Beta virt. eigenvalues --   -0.00403   0.00015   0.00166   0.00301   0.00370

 Mulliken charges and spin densities:
               1          2
     1  Na  -0.134504  -0.004391
     2  Na   0.447449   0.153924
     3  Na  -1.761495   0.084660
     4  Na  -0.513828   0.142990
     5  Na   0.343513   0.215441
     6  Na   1.574414   0.058681
     7  Na   0.044451   0.348695
 Sum of Mulliken charges =  -0.00000   1.00000

 Dipole moment (field-independent basis, Debye):
    X=             -0.9102    Y=              0.0551    Z=              0.5020  Tot=              1.0409
 Quadrupole moment (field-independent basis, Debye-Ang):
   XX=            -45.1133   YY=            -82.3350   ZZ=            -67.1959
   XY=              0.5774   XZ=             -1.9519   YZ=              0.5844

 Normal termination of Gaussian 16 at Tue Dec  5 16:29:30 2023.
