 Gaussian 16, Revision B.01,
 Gaussian 16:  ES64L-G16RevB.01 20-Dec-2017

 -------------------------
 #P B3LYP/6-311+g(d) force
 -------------------------

 -----
 DPGEN
 -----
 Symbolic Z-matrix:
 Charge =  0 Multiplicity = 2

                         Standard orientation:
 ---------------------------------------------------------------------
 Center     Atomic      Atomic             Coordinates (Angstroms)
 Number     Number       Type             X           Y           Z
 ---------------------------------------------------------------------
      1         11           0       -1.331921    2.706723   -0.099942
      2         11           0       -3.235897   -0.641507   -0.212880
      3         11           0        0.128520    0.004561   -1.646965
      4         11           0        2.773546   -1.149029   -0.032303
      5         11           0       -0.287553   -0.073994    2.038399
      6         11           0       -0.162166   -2.847511   -0.071743
      7         11           0        2.115470    2.000758    0.025433
 ---------------------------------------------------------------------

 SCF Done:  E(UB3LYP) =  -1136.13912585     A.U. after   19 cycles

 The electronic state is 2-A.
 Alpha  occ. eigenvalues --  -38.44281 -38.43617 -38.43577 -38.43490 -38.43435
 Alpha  occ. eigenvalues --  -38.43379 -38.43117  -2.20066  -2.19463  -2.19445
 Alpha  occ. eigenvalues --   -2.19379  -2.19318  -2.19249  -2.19110  -1.13743
 Alpha  occ. eigenvalues --   -1.13716  -1.13710  -1.13174  -1.13136  -1.13132
 Alpha  occ. eigenvalues --   -1.13118  -1.13114  -1.13079  -1.13051  -1.13012
 Alpha  occ. eigenvalues --   -1.13004  -1.12996  -1.12967  -1.12953  -1.12939
 Alpha  occ. eigenvalues --   -1.12909  -1.12864  -1.12784  -1.12732  -1.12723
 Alpha  occ. eigenvalues --   -0.18753  -0.12909  -0.12591  -0.10690
 Alpha virt. eigenvalues --   -0.05742  -0.05046  -0.04729  -0.03111  -0.02917
 Alpha virt. eigenvalues --   -0.02508  -0.01564  -0.01124  -0.00352  -0.00317
 Alpha virt. eigenvalues --   -0.00009   0.00359   0.00797   0.00877   0.00916

  Beta  occ. eigenvalues --  -38.44279 -38.43613 -38.43572 -38.43430 -38.43395
  Beta  occ. eigenvalues --  -38.43373 -38.43051  -2.20064  -2.19459  -2.19441
  Beta  occ. eigenvalues --   -2.19313  -2.19240  -2.19205  -2.18991  -1.13724
  Beta  occ. eigenvalues --   -1.13717  -1.13712  -1.13172  -1.13131  -1.13127
  Beta  occ. eigenvalues --   -1.13094  -1.13087  -1.13080  -1.12996  -1.12959
  Beta  occ. eigenvalues --   -1.12947  -1.12939  -1.12923  -1.12897  -1.12872
  Beta  occ. eigenvalues --   -1.12865  -1.12856  -1.12705  -1.12649  -1.12637
  Beta  occ. eigenvalues --   -0.18014  -0.12685  -0.12347
  Beta virt. eigenvalues --   -0.06762  -0.05731  -0.05030  -0.04698  -0.02329
  Beta virt. eigenvalues --   -0.02114  -0.01501  -0.01426  -0.01055  -0.00405
  Beta virt. eigenvalues --   -0.00379   0.00131   0.00381   0.00827   0.00883

 Mulliken charges and spin densities:
               1          2
     1  Na   0.089647  -0.099852
     2  Na   0.043882  -0.116205
     3  Na  -0.341108   0.506387
     4  Na   0.279344   0.015261
     5  Na  -0.551401   0.770078
     6  Na   0.243226  -0.066979
     7  Na   0.236411  -0.008691
 Sum of Mulliken charges =  -0.00000   1.00000

 Dipole moment (field-independent basis, Debye):
    X=             -0.3831    Y=             -0.0094    Z=              0.1106  Tot=              0.3988
 Quadrupole moment (field-independent basis, Debye-Ang):
   XX=            -56.2988   YY=            -62.0717   ZZ=            -74.6826
   XY=             -0.0967   XZ=              0.9592   YZ=              0.2084

 Normal termination of Gaussian 16 at Fri Dec  8 02:04:39 2023.
