 Gaussian 16, Revision B.01,
 Gaussian 16:  ES64L-G16RevB.01 20-Dec-2017

 -------------------------
 #P B3LYP/6-311+g(d) force
 -------------------------

 -----
 DPGEN
 -----
 Symbolic Z-matrix:
 Charge =  0 Multiplicity = 2

                         Standard orientation:
 ---------------------------------------------------------------------
 Center     Atomic      Atomic             Coordinates (Angstroms)
 Number     Number       Type             X           Y           Z
 ---------------------------------------------------------------------
      1         11           0        2.884847    1.696530   -0.011720
      2         11           0        2.614445   -1.495134   -0.318511
      3         11           0       -0.056140   -0.363006    2.025310
      4         11           0       -1.584923    2.750143    0.393020
      5         11           0       -0.984815   -2.702838    0.151249
      6         11           0       -2.973998   -0.221107   -0.643125
      7         11           0        0.100583    0.335412   -1.596223
 ---------------------------------------------------------------------

 SCF Done:  E(UB3LYP) =  -1136.13454861     A.U. after   20 cycles

 The electronic state is 2-A.
 Alpha  occ. eigenvalues --  -38.44280 -38.43986 -38.43944 -38.43582 -38.43505
 Alpha  occ. eigenvalues --  -38.43393 -38.42924  -2.20094  -2.19845  -2.19825
 Alpha  occ. eigenvalues --   -2.19483  -2.19346  -2.19312  -2.18812  -1.13776
 Alpha  occ. eigenvalues --   -1.13761  -1.13738  -1.13533  -1.13522  -1.13504
 Alpha  occ. eigenvalues --   -1.13476  -1.13461  -1.13457  -1.13164  -1.13120
 Alpha  occ. eigenvalues --   -1.13095  -1.13034  -1.12995  -1.12979  -1.12976
 Alpha  occ. eigenvalues --   -1.12961  -1.12949  -1.12498  -1.12464  -1.12448
 Alpha  occ. eigenvalues --   -0.18562  -0.13426  -0.12067  -0.10773
 Alpha virt. eigenvalues --   -0.05784  -0.05353  -0.04445  -0.03357  -0.02860
 Alpha virt. eigenvalues --   -0.02516  -0.01665  -0.01159  -0.00475  -0.00259
 Alpha virt. eigenvalues --    0.00011   0.00347   0.00753   0.00820   0.00889

  Beta  occ. eigenvalues --  -38.44281 -38.43979 -38.43925 -38.43497 -38.43488
  Beta  occ. eigenvalues --  -38.43340 -38.42917  -2.20098  -2.19835  -2.19792
  Beta  occ. eigenvalues --   -2.19311  -2.19300  -2.19250  -2.18805  -1.13781
  Beta  occ. eigenvalues --   -1.13758  -1.13734  -1.13518  -1.13491  -1.13490
  Beta  occ. eigenvalues --   -1.13452  -1.13447  -1.13432  -1.13052  -1.13000
  Beta  occ. eigenvalues --   -1.12980  -1.12969  -1.12961  -1.12958  -1.12943
  Beta  occ. eigenvalues --   -1.12903  -1.12899  -1.12489  -1.12449  -1.12429
  Beta  occ. eigenvalues --   -0.17846  -0.13181  -0.11842
  Beta virt. eigenvalues --   -0.06889  -0.05715  -0.05315  -0.04365  -0.02642
  Beta virt. eigenvalues --   -0.02126  -0.01597  -0.01457  -0.01077  -0.00481
  Beta virt. eigenvalues --   -0.00260   0.00138   0.00388   0.00813   0.00844

 Mulliken charges and spin densities:
               1          2
     1  Na  -0.024059  -0.055387
     2  Na   0.164891  -0.034189
     3  Na  -0.438217   0.739128
     4  Na  -0.149345   0.009807
     5  Na   0.218355  -0.004040
     6  Na   0.277084   0.059700
     7  Na  -0.048707   0.284981
 Sum of Mulliken charges =  -0.00000   1.00000

 Dipole moment (field-independent basis, Debye):
    X=              0.4407    Y=              0.2229    Z=              0.0531  Tot=              0.4967
 Quadrupole moment (field-independent basis, Debye-Ang):
   XX=            -56.2350   YY=            -63.5040   ZZ=            -74.1394
   XY=              0.7442   XZ=              0.7811   YZ=              2.1828

 Normal termination of Gaussian 16 at Thu Dec  7 18:19:38 2023.
