 Gaussian 16, Revision B.01,
 Gaussian 16:  ES64L-G16RevB.01 20-Dec-2017

 -------------------------
 #P B3LYP/6-311+g(d) force
 -------------------------

 -----
 DPGEN
 -----
 Symbolic Z-matrix:
 Charge =  0 Multiplicity = 2

                         Standard orientation:
 ---------------------------------------------------------------------
 Center     Atomic      Atomic             Coordinates (Angstroms)
 Number     Number       Type             X           Y           Z
 ---------------------------------------------------------------------
      1         11           0        1.983085   -3.295461   -0.247454
      2         11           0       -4.557653   -1.047827   -0.329696
      3         11           0        2.830180    2.533908    0.378784
      4         11           0        0.043140    3.873328    0.652824
      5         11           0        3.912773   -1.106393   -0.756863
      6         11           0       -1.431718   -2.901675    1.253591
      7         11           0       -2.779806    1.944121   -0.951186
 ---------------------------------------------------------------------

 SCF Done:  E(UB3LYP) =  -1136.10483758     A.U. after   23 cycles

 The electronic state is 2-A.
 Alpha  occ. eigenvalues --  -38.45209 -38.45033 -38.44952 -38.44563 -38.44427
 Alpha  occ. eigenvalues --  -38.44207 -38.43811  -2.20993  -2.20795  -2.20693
 Alpha  occ. eigenvalues --   -2.20371  -2.20205  -2.20014  -2.19648  -1.14669
 Alpha  occ. eigenvalues --   -1.14657  -1.14634  -1.14469  -1.14454  -1.14417
 Alpha  occ. eigenvalues --   -1.14375  -1.14349  -1.14334  -1.14096  -1.14036
 Alpha  occ. eigenvalues --   -1.14020  -1.13858  -1.13847  -1.13811  -1.13680
 Alpha  occ. eigenvalues --   -1.13668  -1.13658  -1.13307  -1.13282  -1.13269
 Alpha  occ. eigenvalues --   -0.15465  -0.13744  -0.13545  -0.10748
 Alpha virt. eigenvalues --   -0.07768  -0.05066  -0.04464  -0.03623  -0.03395
 Alpha virt. eigenvalues --   -0.02218  -0.02010  -0.01831  -0.01560  -0.01224
 Alpha virt. eigenvalues --   -0.00773  -0.00133   0.00032   0.00317   0.00698

  Beta  occ. eigenvalues --  -38.45190 -38.44987 -38.44960 -38.44562 -38.44332
  Beta  occ. eigenvalues --  -38.44195 -38.43762  -2.20961  -2.20713  -2.20708
  Beta  occ. eigenvalues --   -2.20375  -2.20027  -2.19994  -2.19556  -1.14643
  Beta  occ. eigenvalues --   -1.14638  -1.14599  -1.14412  -1.14400  -1.14390
  Beta  occ. eigenvalues --   -1.14374  -1.14354  -1.14315  -1.14080  -1.14045
  Beta  occ. eigenvalues --   -1.13999  -1.13737  -1.13728  -1.13691  -1.13661
  Beta  occ. eigenvalues --   -1.13656  -1.13638  -1.13250  -1.13219  -1.13206
  Beta  occ. eigenvalues --   -0.14970  -0.13176  -0.12872
  Beta virt. eigenvalues --   -0.07852  -0.07451  -0.04693  -0.03919  -0.03433
  Beta virt. eigenvalues --   -0.03033  -0.02160  -0.01903  -0.01645  -0.01383
  Beta virt. eigenvalues --   -0.00832  -0.00474   0.00066   0.00260   0.00379

 Mulliken charges and spin densities:
               1          2
     1  Na  -0.218541  -0.032130
     2  Na   0.410186  -0.062178
     3  Na   0.001201   0.119146
     4  Na   0.077468   0.001579
     5  Na   0.409878   0.238873
     6  Na  -0.218385   0.494249
     7  Na  -0.461807   0.240462
 Sum of Mulliken charges =  -0.00000   1.00000

 Dipole moment (field-independent basis, Debye):
    X=             -0.4492    Y=              0.6116    Z=             -0.0547  Tot=              0.7608
 Quadrupole moment (field-independent basis, Debye-Ang):
   XX=            -61.0198   YY=            -66.9605   ZZ=            -72.9131
   XY=              3.8134   XZ=             -0.1040   YZ=              0.6360

 Normal termination of Gaussian 16 at Sun Dec  3 12:00:50 2023.
