 Gaussian 16, Revision B.01,
 Gaussian 16:  ES64L-G16RevB.01 20-Dec-2017

 -------------------------
 #P B3LYP/6-311+g(d) force
 -------------------------

 -----
 DPGEN
 -----
 Symbolic Z-matrix:
 Charge =  0 Multiplicity = 2

                         Standard orientation:
 ---------------------------------------------------------------------
 Center     Atomic      Atomic             Coordinates (Angstroms)
 Number     Number       Type             X           Y           Z
 ---------------------------------------------------------------------
      1         11           0        2.590653    0.213292   -0.169200
      2         11           0        2.876799   -3.313759    0.456341
      3         11           0       -2.487938   -0.063993   -1.059053
      4         11           0        2.080391    3.464091    0.965665
      5         11           0       -4.758992   -0.672333    1.231501
      6         11           0        0.205769   -1.959728   -0.532985
      7         11           0       -0.506681    2.332430   -0.892269
 ---------------------------------------------------------------------

 SCF Done:  E(UB3LYP) =  -1136.12307060     A.U. after   21 cycles

 The electronic state is 2-A.
 Alpha  occ. eigenvalues --  -38.44596 -38.44560 -38.44263 -38.44244 -38.43934
 Alpha  occ. eigenvalues --  -38.43685 -38.42775  -2.20417  -2.20399  -2.20150
 Alpha  occ. eigenvalues --   -2.20098  -2.19753  -2.19502  -2.18677  -1.14138
 Alpha  occ. eigenvalues --   -1.14106  -1.14103  -1.14071  -1.14058  -1.13968
 Alpha  occ. eigenvalues --   -1.13836  -1.13821  -1.13777  -1.13766  -1.13744
 Alpha  occ. eigenvalues --   -1.13734  -1.13384  -1.13380  -1.13374  -1.13162
 Alpha  occ. eigenvalues --   -1.13158  -1.13128  -1.12370  -1.12344  -1.12324
 Alpha  occ. eigenvalues --   -0.17203  -0.13778  -0.13125  -0.10532
 Alpha virt. eigenvalues --   -0.06257  -0.05628  -0.04299  -0.04087  -0.02615
 Alpha virt. eigenvalues --   -0.02017  -0.01749  -0.01599  -0.01426  -0.00842
 Alpha virt. eigenvalues --   -0.00114   0.00102   0.00228   0.00488   0.00604

  Beta  occ. eigenvalues --  -38.44591 -38.44554 -38.44249 -38.44219 -38.43815
  Beta  occ. eigenvalues --  -38.43661 -38.42761  -2.20406  -2.20389  -2.20125
  Beta  occ. eigenvalues --   -2.20056  -2.19532  -2.19458  -2.18663  -1.14120
  Beta  occ. eigenvalues --   -1.14097  -1.14093  -1.14063  -1.14050  -1.13963
  Beta  occ. eigenvalues --   -1.13819  -1.13802  -1.13753  -1.13725  -1.13720
  Beta  occ. eigenvalues --   -1.13700  -1.13237  -1.13229  -1.13227  -1.13129
  Beta  occ. eigenvalues --   -1.13128  -1.13102  -1.12367  -1.12336  -1.12251
  Beta  occ. eigenvalues --   -0.16767  -0.13349  -0.12639
  Beta virt. eigenvalues --   -0.06933  -0.06084  -0.05409  -0.04040  -0.03669
  Beta virt. eigenvalues --   -0.02516  -0.01898  -0.01411  -0.01148  -0.01061
  Beta virt. eigenvalues --   -0.00571   0.00164   0.00332   0.00399   0.00653

 Mulliken charges and spin densities:
               1          2
     1  Na  -0.561847   0.100509
     2  Na   1.032445   0.071027
     3  Na   0.165872  -0.529851
     4  Na   0.627925   0.176867
     5  Na   0.180918   0.659094
     6  Na  -0.904968   0.207746
     7  Na  -0.540345   0.314607
 Sum of Mulliken charges =  -0.00000   1.00000

 Dipole moment (field-independent basis, Debye):
    X=              1.9466    Y=             -0.5150    Z=              0.3119  Tot=              2.0376
 Quadrupole moment (field-independent basis, Debye-Ang):
   XX=            -70.4896   YY=            -57.5890   ZZ=            -70.1929
   XY=             -6.6236   XZ=              1.9774   YZ=             -0.6638

 Normal termination of Gaussian 16 at Tue Nov 28 22:09:53 2023.
