 Gaussian 16, Revision B.01,
 Gaussian 16:  ES64L-G16RevB.01 20-Dec-2017

 -------------------------
 #P B3LYP/6-311+g(d) force
 -------------------------

 -----
 DPGEN
 -----
 Symbolic Z-matrix:
 Charge =  0 Multiplicity = 2

                         Standard orientation:
 ---------------------------------------------------------------------
 Center     Atomic      Atomic             Coordinates (Angstroms)
 Number     Number       Type             X           Y           Z
 ---------------------------------------------------------------------
      1         11           0        0.312086    0.075989   -0.641963
      2         11           0       -1.435357    2.817289    0.660207
      3         11           0        3.572490   -0.650171   -0.647329
      4         11           0       -3.713072    0.202516   -0.511629
      5         11           0        2.096877    2.510778    0.156766
      6         11           0        1.100200   -2.555475    1.033260
      7         11           0       -1.933224   -2.400926   -0.049312
 ---------------------------------------------------------------------

 SCF Done:  E(UB3LYP) =  -1136.12716619     A.U. after   21 cycles

 The electronic state is 2-A.
 Alpha  occ. eigenvalues --  -38.44328 -38.43901 -38.43843 -38.43824 -38.43614
 Alpha  occ. eigenvalues --  -38.43567 -38.43360  -2.20169  -2.19811  -2.19731
 Alpha  occ. eigenvalues --   -2.19716  -2.19503  -2.19430  -2.19211  -1.13899
 Alpha  occ. eigenvalues --   -1.13844  -1.13778  -1.13539  -1.13490  -1.13460
 Alpha  occ. eigenvalues --   -1.13410  -1.13396  -1.13389  -1.13388  -1.13367
 Alpha  occ. eigenvalues --   -1.13342  -1.13162  -1.13141  -1.13132  -1.13091
 Alpha  occ. eigenvalues --   -1.13058  -1.13053  -1.12867  -1.12858  -1.12825
 Alpha  occ. eigenvalues --   -0.17814  -0.13936  -0.13234  -0.09779
 Alpha virt. eigenvalues --   -0.06339  -0.05714  -0.04346  -0.03389  -0.02766
 Alpha virt. eigenvalues --   -0.02325  -0.01827  -0.01106  -0.00728  -0.00589
 Alpha virt. eigenvalues --   -0.00189   0.00192   0.00576   0.00681   0.00783

  Beta  occ. eigenvalues --  -38.44321 -38.43877 -38.43828 -38.43827 -38.43575
  Beta  occ. eigenvalues --  -38.43509 -38.43296  -2.20163  -2.19819  -2.19710
  Beta  occ. eigenvalues --   -2.19674  -2.19434  -2.19322  -2.19093  -1.13902
  Beta  occ. eigenvalues --   -1.13845  -1.13729  -1.13530  -1.13499  -1.13464
  Beta  occ. eigenvalues --   -1.13393  -1.13387  -1.13360  -1.13345  -1.13331
  Beta  occ. eigenvalues --   -1.13297  -1.13117  -1.13097  -1.13069  -1.13017
  Beta  occ. eigenvalues --   -1.12990  -1.12976  -1.12787  -1.12776  -1.12747
  Beta  occ. eigenvalues --   -0.17472  -0.13221  -0.12660
  Beta virt. eigenvalues --   -0.06510  -0.06387  -0.05479  -0.04106  -0.02787
  Beta virt. eigenvalues --   -0.02262  -0.02080  -0.01613  -0.00934  -0.00584
  Beta virt. eigenvalues --   -0.00381   0.00146   0.00397   0.00624   0.00788

 Mulliken charges and spin densities:
               1          2
     1  Na  -2.529251  -0.071868
     2  Na   0.246220   0.094853
     3  Na   0.887498   0.304052
     4  Na   0.631944   0.440841
     5  Na   0.288827   0.034112
     6  Na   0.295238   0.071579
     7  Na   0.179524   0.126432
 Sum of Mulliken charges =  -0.00000   1.00000

 Dipole moment (field-independent basis, Debye):
    X=              0.6033    Y=              0.2527    Z=              0.7336  Tot=              0.9828
 Quadrupole moment (field-independent basis, Debye-Ang):
   XX=            -65.6668   YY=            -62.5111   ZZ=            -70.4961
   XY=             -1.4760   XZ=              0.5861   YZ=              0.7059

 Normal termination of Gaussian 16 at Wed Nov 29 16:01:56 2023.
