 Gaussian 16, Revision B.01,
 Gaussian 16:  ES64L-G16RevB.01 20-Dec-2017

 -------------------------
 #P B3LYP/6-311+g(d) force
 -------------------------

 -----
 DPGEN
 -----
 Symbolic Z-matrix:
 Charge =  0 Multiplicity = 2

                         Standard orientation:
 ---------------------------------------------------------------------
 Center     Atomic      Atomic             Coordinates (Angstroms)
 Number     Number       Type             X           Y           Z
 ---------------------------------------------------------------------
      1         11           0        0.430642   -2.969468   -0.112308
      2         11           0       -1.378328    2.147153   -1.131314
      3         11           0        3.655032    1.224882    0.207355
      4         11           0        3.359411   -2.512774   -0.578018
      5         11           0       -5.014689    0.294591   -0.371659
      6         11           0       -2.687776   -1.552031    1.258066
      7         11           0        1.635709    3.367646    0.727878
 ---------------------------------------------------------------------

 SCF Done:  E(UB3LYP) =  -1136.10535697     A.U. after   25 cycles

 The electronic state is 2-A.
 Alpha  occ. eigenvalues --  -38.46010 -38.45457 -38.44356 -38.44167 -38.44095
 Alpha  occ. eigenvalues --  -38.44031 -38.43535  -2.21742  -2.21223  -2.20158
 Alpha  occ. eigenvalues --   -2.19985  -2.19905  -2.19837  -2.19364  -1.15423
 Alpha  occ. eigenvalues --   -1.15404  -1.15338  -1.14909  -1.14889  -1.14859
 Alpha  occ. eigenvalues --   -1.13877  -1.13823  -1.13798  -1.13769  -1.13646
 Alpha  occ. eigenvalues --   -1.13622  -1.13564  -1.13536  -1.13495  -1.13488
 Alpha  occ. eigenvalues --   -1.13485  -1.13453  -1.13019  -1.13017  -1.13002
 Alpha  occ. eigenvalues --   -0.15836  -0.13885  -0.13099  -0.10282
 Alpha virt. eigenvalues --   -0.07865  -0.05317  -0.04441  -0.03573  -0.03177
 Alpha virt. eigenvalues --   -0.02687  -0.02047  -0.01470  -0.01062  -0.00913
 Alpha virt. eigenvalues --   -0.00856  -0.00295   0.00239   0.00462   0.00544

  Beta  occ. eigenvalues --  -38.45958 -38.45444 -38.44369 -38.44131 -38.44108
  Beta  occ. eigenvalues --  -38.43960 -38.43505  -2.21646  -2.21205  -2.20183
  Beta  occ. eigenvalues --   -2.19936  -2.19913  -2.19704  -2.19307  -1.15358
  Beta  occ. eigenvalues --   -1.15340  -1.15263  -1.14901  -1.14878  -1.14808
  Beta  occ. eigenvalues --   -1.13893  -1.13841  -1.13801  -1.13759  -1.13608
  Beta  occ. eigenvalues --   -1.13585  -1.13570  -1.13537  -1.13479  -1.13396
  Beta  occ. eigenvalues --   -1.13393  -1.13369  -1.12986  -1.12977  -1.12963
  Beta  occ. eigenvalues --   -0.15337  -0.13374  -0.12892
  Beta virt. eigenvalues --   -0.07586  -0.06968  -0.04793  -0.04081  -0.03379
  Beta virt. eigenvalues --   -0.02806  -0.02489  -0.01821  -0.01266  -0.01043
  Beta virt. eigenvalues --   -0.00690  -0.00505  -0.00034   0.00353   0.00514

 Mulliken charges and spin densities:
               1          2
     1  Na  -0.781821   0.046903
     2  Na  -0.309483   0.293340
     3  Na  -0.260241   0.195465
     4  Na   0.660254   0.086689
     5  Na   0.271732   0.329433
     6  Na   0.291235   0.029483
     7  Na   0.128325   0.018688
 Sum of Mulliken charges =  -0.00000   1.00000

 Dipole moment (field-independent basis, Debye):
    X=             -0.6956    Y=              0.5021    Z=             -0.1203  Tot=              0.8663
 Quadrupole moment (field-independent basis, Debye-Ang):
   XX=            -68.7794   YY=            -67.9364   ZZ=            -67.3365
   XY=             -2.5701   XZ=              0.5321   YZ=             -1.0584

 Normal termination of Gaussian 16 at Sun Dec  3 13:40:34 2023.
