 Gaussian 16, Revision B.01,
 Gaussian 16:  ES64L-G16RevB.01 20-Dec-2017

 -------------------------
 #P B3LYP/6-311+g(d) force
 -------------------------

 -----
 DPGEN
 -----
 Symbolic Z-matrix:
 Charge =  0 Multiplicity = 2

                         Standard orientation:
 ---------------------------------------------------------------------
 Center     Atomic      Atomic             Coordinates (Angstroms)
 Number     Number       Type             X           Y           Z
 ---------------------------------------------------------------------
      1         11           0        0.229315   -0.398091    2.065450
      2         11           0       -2.540824    2.028944   -0.142041
      3         11           0        1.012234    1.615358   -0.704809
      4         11           0       -1.139467   -0.745450   -1.582855
      5         11           0        2.164805   -1.790604   -0.871427
      6         11           0        3.781619    0.568950    0.589374
      7         11           0       -3.507681   -1.279107    0.646307
 ---------------------------------------------------------------------

 SCF Done:  E(UB3LYP) =  -1136.11725832     A.U. after   31 cycles

 The electronic state is 2-A.
 Alpha  occ. eigenvalues --  -38.45568 -38.45438 -38.44491 -38.43724 -38.43581
 Alpha  occ. eigenvalues --  -38.43575 -38.42562  -2.21356  -2.21276  -2.20306
 Alpha  occ. eigenvalues --   -2.19594  -2.19505  -2.19401  -2.18489  -1.15053
 Alpha  occ. eigenvalues --   -1.15003  -1.14963  -1.14952  -1.14936  -1.14906
 Alpha  occ. eigenvalues --   -1.13981  -1.13952  -1.13937  -1.13276  -1.13244
 Alpha  occ. eigenvalues --   -1.13235  -1.13206  -1.13154  -1.13126  -1.13076
 Alpha  occ. eigenvalues --   -1.13049  -1.13045  -1.12197  -1.12166  -1.12096
 Alpha  occ. eigenvalues --   -0.18540  -0.14438  -0.11232  -0.10598
 Alpha virt. eigenvalues --   -0.07448  -0.05454  -0.04619  -0.03102  -0.02950
 Alpha virt. eigenvalues --   -0.02300  -0.02241  -0.01267  -0.01023  -0.00292
 Alpha virt. eigenvalues --    0.00043   0.00177   0.00244   0.00557   0.00674

  Beta  occ. eigenvalues --  -38.45521 -38.45432 -38.44462 -38.43691 -38.43589
  Beta  occ. eigenvalues --  -38.43516 -38.42536  -2.21269  -2.21263  -2.20251
  Beta  occ. eigenvalues --   -2.19535  -2.19419  -2.19400  -2.18448  -1.14990
  Beta  occ. eigenvalues --   -1.14945  -1.14942  -1.14927  -1.14901  -1.14886
  Beta  occ. eigenvalues --   -1.13941  -1.13917  -1.13900  -1.13224  -1.13212
  Beta  occ. eigenvalues --   -1.13178  -1.13134  -1.13106  -1.13079  -1.13056
  Beta  occ. eigenvalues --   -1.13046  -1.13020  -1.12174  -1.12095  -1.12072
  Beta  occ. eigenvalues --   -0.17808  -0.14240  -0.10357
  Beta virt. eigenvalues --   -0.07399  -0.07148  -0.05466  -0.03969  -0.02779
  Beta virt. eigenvalues --   -0.02732  -0.01749  -0.01611  -0.01178  -0.00635
  Beta virt. eigenvalues --   -0.00251   0.00064   0.00216   0.00391   0.00640

 Mulliken charges and spin densities:
               1          2
     1  Na  -0.528837   0.302691
     2  Na   0.003748  -0.024397
     3  Na  -0.672832   0.119268
     4  Na   0.027354   0.046950
     5  Na  -0.093462   0.137449
     6  Na   1.000464   0.150937
     7  Na   0.263564   0.267102
 Sum of Mulliken charges =  -0.00000   1.00000

 Dipole moment (field-independent basis, Debye):
    X=              0.6023    Y=             -0.0839    Z=              0.8130  Tot=              1.0152
 Quadrupole moment (field-independent basis, Debye-Ang):
   XX=            -45.0420   YY=            -79.0925   ZZ=            -69.9555
   XY=             -0.2655   XZ=              0.3379   YZ=              1.9673

 Normal termination of Gaussian 16 at Thu Dec  7 04:44:44 2023.
