 Gaussian 16, Revision B.01,
 Gaussian 16:  ES64L-G16RevB.01 20-Dec-2017

 -------------------------
 #P B3LYP/6-311+g(d) force
 -------------------------

 -----
 DPGEN
 -----
 Symbolic Z-matrix:
 Charge =  0 Multiplicity = 2

                         Standard orientation:
 ---------------------------------------------------------------------
 Center     Atomic      Atomic             Coordinates (Angstroms)
 Number     Number       Type             X           Y           Z
 ---------------------------------------------------------------------
      1         11           0       -2.624638    0.958535    0.040877
      2         11           0        2.659687    0.522496   -1.555164
      3         11           0        0.353230    2.635981   -0.124936
      4         11           0        3.240345   -2.304280    0.080978
      5         11           0        1.611624    0.396203    2.065016
      6         11           0       -0.522994   -0.809904   -0.403725
      7         11           0       -4.717252   -1.399031   -0.103047
 ---------------------------------------------------------------------

 SCF Done:  E(UB3LYP) =  -1136.11736274     A.U. after   22 cycles

 The electronic state is 2-A.
 Alpha  occ. eigenvalues --  -38.45531 -38.44642 -38.44177 -38.44002 -38.43778
 Alpha  occ. eigenvalues --  -38.43601 -38.42749  -2.21435  -2.20425  -2.20119
 Alpha  occ. eigenvalues --   -2.19880  -2.19666  -2.19407  -2.18645  -1.15214
 Alpha  occ. eigenvalues --   -1.15123  -1.15024  -1.14117  -1.14087  -1.14062
 Alpha  occ. eigenvalues --   -1.13869  -1.13758  -1.13668  -1.13555  -1.13528
 Alpha  occ. eigenvalues --   -1.13472  -1.13339  -1.13313  -1.13288  -1.13078
 Alpha  occ. eigenvalues --   -1.13064  -1.13041  -1.12327  -1.12300  -1.12288
 Alpha  occ. eigenvalues --   -0.18313  -0.14171  -0.11660  -0.10599
 Alpha virt. eigenvalues --   -0.07038  -0.05647  -0.03818  -0.03342  -0.02972
 Alpha virt. eigenvalues --   -0.02375  -0.02340  -0.01570  -0.00869  -0.00639
 Alpha virt. eigenvalues --   -0.00002   0.00117   0.00391   0.00604   0.00708

  Beta  occ. eigenvalues --  -38.45519 -38.44652 -38.44178 -38.43913 -38.43704
  Beta  occ. eigenvalues --  -38.43597 -38.42736  -2.21417  -2.20444  -2.20120
  Beta  occ. eigenvalues --   -2.19715  -2.19531  -2.19403  -2.18626  -1.15207
  Beta  occ. eigenvalues --   -1.15071  -1.15018  -1.14130  -1.14099  -1.14074
  Beta  occ. eigenvalues --   -1.13869  -1.13749  -1.13677  -1.13437  -1.13418
  Beta  occ. eigenvalues --   -1.13353  -1.13244  -1.13224  -1.13192  -1.13077
  Beta  occ. eigenvalues --   -1.13040  -1.13036  -1.12317  -1.12288  -1.12243
  Beta  occ. eigenvalues --   -0.17664  -0.13996  -0.11498
  Beta virt. eigenvalues --   -0.06828  -0.06575  -0.05598  -0.03660  -0.02963
  Beta virt. eigenvalues --   -0.02803  -0.01756  -0.01705  -0.01280  -0.00784
  Beta virt. eigenvalues --   -0.00195   0.00073   0.00157   0.00548   0.00642

 Mulliken charges and spin densities:
               1          2
     1  Na   0.014487  -0.067375
     2  Na   0.257446   0.224643
     3  Na   0.266183   0.171278
     4  Na   0.244880  -0.017708
     5  Na  -0.109087   0.401142
     6  Na  -1.299635   0.326906
     7  Na   0.625726  -0.038886
 Sum of Mulliken charges =  -0.00000   1.00000

 Dipole moment (field-independent basis, Debye):
    X=             -0.8751    Y=             -0.2330    Z=              0.3108  Tot=              0.9575
 Quadrupole moment (field-independent basis, Debye-Ang):
   XX=            -55.2521   YY=            -64.7016   ZZ=            -74.7304
   XY=              2.4239   XZ=              1.0644   YZ=              0.8859

 Normal termination of Gaussian 16 at Tue Dec  5 13:19:25 2023.
