 Gaussian 16, Revision B.01,
 Gaussian 16:  ES64L-G16RevB.01 20-Dec-2017

 -------------------------
 #P B3LYP/6-311+g(d) force
 -------------------------

 -----
 DPGEN
 -----
 Symbolic Z-matrix:
 Charge =  0 Multiplicity = 2

                         Standard orientation:
 ---------------------------------------------------------------------
 Center     Atomic      Atomic             Coordinates (Angstroms)
 Number     Number       Type             X           Y           Z
 ---------------------------------------------------------------------
      1         11           0       -1.979629   -2.622053    0.825411
      2         11           0        0.692256    3.271977   -0.912954
      3         11           0       -4.773917   -0.890559   -0.126600
      4         11           0       -3.150210    2.562845    0.074143
      5         11           0        1.726596   -3.044983   -0.862079
      6         11           0        4.068727   -1.295465   -0.060725
      7         11           0        3.416176    2.018238    1.062805
 ---------------------------------------------------------------------

 SCF Done:  E(UB3LYP) =  -1136.10258357     A.U. after   24 cycles

 The electronic state is 2-A.
 Alpha  occ. eigenvalues --  -38.45322 -38.45057 -38.44894 -38.44840 -38.44624
 Alpha  occ. eigenvalues --  -38.43939 -38.43896  -2.21076  -2.20772  -2.20658
 Alpha  occ. eigenvalues --   -2.20652  -2.20384  -2.19738  -2.19714  -1.14748
 Alpha  occ. eigenvalues --   -1.14738  -1.14697  -1.14468  -1.14458  -1.14407
 Alpha  occ. eigenvalues --   -1.14356  -1.14333  -1.14316  -1.14309  -1.14305
 Alpha  occ. eigenvalues --   -1.14294  -1.14048  -1.14029  -1.13995  -1.13391
 Alpha  occ. eigenvalues --   -1.13383  -1.13378  -1.13362  -1.13357  -1.13345
 Alpha  occ. eigenvalues --   -0.15390  -0.14048  -0.12940  -0.10616
 Alpha virt. eigenvalues --   -0.07799  -0.05335  -0.04400  -0.03511  -0.03232
 Alpha virt. eigenvalues --   -0.02784  -0.02354  -0.01981  -0.00986  -0.00920
 Alpha virt. eigenvalues --   -0.00611  -0.00268  -0.00095   0.00297   0.00559

  Beta  occ. eigenvalues --  -38.45284 -38.45080 -38.44887 -38.44829 -38.44547
  Beta  occ. eigenvalues --  -38.43875 -38.43855  -2.21009  -2.20819  -2.20649
  Beta  occ. eigenvalues --   -2.20638  -2.20241  -2.19641  -2.19617  -1.14704
  Beta  occ. eigenvalues --   -1.14694  -1.14640  -1.14504  -1.14493  -1.14412
  Beta  occ. eigenvalues --   -1.14332  -1.14330  -1.14312  -1.14307  -1.14277
  Beta  occ. eigenvalues --   -1.14261  -1.13950  -1.13933  -1.13899  -1.13327
  Beta  occ. eigenvalues --   -1.13308  -1.13308  -1.13301  -1.13293  -1.13287
  Beta  occ. eigenvalues --   -0.14883  -0.13381  -0.12299
  Beta virt. eigenvalues --   -0.07892  -0.07476  -0.04906  -0.03943  -0.03333
  Beta virt. eigenvalues --   -0.02899  -0.02563  -0.02156  -0.01715  -0.00879
  Beta virt. eigenvalues --   -0.00679  -0.00328  -0.00149   0.00145   0.00394

 Mulliken charges and spin densities:
               1          2
     1  Na  -0.208030   0.213299
     2  Na  -0.112752  -0.126938
     3  Na   0.215962  -0.007308
     4  Na  -0.046525   0.396632
     5  Na  -0.023885   0.152561
     6  Na   0.093630   0.069513
     7  Na   0.081599   0.302241
 Sum of Mulliken charges =  -0.00000   1.00000

 Dipole moment (field-independent basis, Debye):
    X=             -0.6331    Y=             -0.4061    Z=              0.0127  Tot=              0.7522
 Quadrupole moment (field-independent basis, Debye-Ang):
   XX=            -57.4834   YY=            -73.9001   ZZ=            -70.4474
   XY=              0.4009   XZ=              2.0906   YZ=             -1.2141

 Normal termination of Gaussian 16 at Sun Dec  3 21:18:08 2023.
