 Gaussian 16, Revision B.01,
 Gaussian 16:  ES64L-G16RevB.01 20-Dec-2017

 -------------------------
 #P B3LYP/6-311+g(d) force
 -------------------------

 -----
 DPGEN
 -----
 Symbolic Z-matrix:
 Charge =  0 Multiplicity = 2

                         Standard orientation:
 ---------------------------------------------------------------------
 Center     Atomic      Atomic             Coordinates (Angstroms)
 Number     Number       Type             X           Y           Z
 ---------------------------------------------------------------------
      1         11           0       -3.020058   -0.872217   -0.702034
      2         11           0       -3.139993    2.218742    0.642168
      3         11           0        2.794319    2.353897   -0.560707
      4         11           0       -0.075076   -2.356546   -1.239803
      5         11           0        2.951314   -0.641140    0.228366
      6         11           0        0.109982    0.975295   -0.284157
      7         11           0        0.379511   -1.678030    1.916167
 ---------------------------------------------------------------------

 SCF Done:  E(UB3LYP) =  -1136.12540313     A.U. after   21 cycles

 The electronic state is 2-A.
 Alpha  occ. eigenvalues --  -38.44316 -38.44194 -38.43798 -38.43601 -38.43538
 Alpha  occ. eigenvalues --  -38.43476 -38.43242  -2.20239  -2.20039  -2.19602
 Alpha  occ. eigenvalues --   -2.19506  -2.19455  -2.19419  -2.19147  -1.13934
 Alpha  occ. eigenvalues --   -1.13913  -1.13878  -1.13719  -1.13702  -1.13674
 Alpha  occ. eigenvalues --   -1.13261  -1.13255  -1.13239  -1.13228  -1.13190
 Alpha  occ. eigenvalues --   -1.13154  -1.13140  -1.13131  -1.13106  -1.13064
 Alpha  occ. eigenvalues --   -1.13043  -1.12979  -1.12820  -1.12801  -1.12761
 Alpha  occ. eigenvalues --   -0.18353  -0.13875  -0.12348  -0.10452
 Alpha virt. eigenvalues --   -0.06079  -0.05700  -0.04436  -0.03194  -0.02826
 Alpha virt. eigenvalues --   -0.02102  -0.01815  -0.01322  -0.00773  -0.00281
 Alpha virt. eigenvalues --   -0.00171   0.00218   0.00556   0.00684   0.00759

  Beta  occ. eigenvalues --  -38.44304 -38.44172 -38.43771 -38.43536 -38.43527
  Beta  occ. eigenvalues --  -38.43465 -38.43201  -2.20222  -2.20001  -2.19551
  Beta  occ. eigenvalues --   -2.19439  -2.19398  -2.19384  -2.19074  -1.13925
  Beta  occ. eigenvalues --   -1.13890  -1.13849  -1.13688  -1.13684  -1.13622
  Beta  occ. eigenvalues --   -1.13227  -1.13221  -1.13218  -1.13201  -1.13141
  Beta  occ. eigenvalues --   -1.13107  -1.13074  -1.13055  -1.13053  -1.13042
  Beta  occ. eigenvalues --   -1.13023  -1.12968  -1.12771  -1.12753  -1.12689
  Beta  occ. eigenvalues --   -0.17811  -0.13511  -0.12007
  Beta virt. eigenvalues --   -0.06833  -0.05952  -0.05372  -0.04232  -0.02664
  Beta virt. eigenvalues --   -0.02317  -0.02030  -0.01341  -0.01017  -0.00609
  Beta virt. eigenvalues --   -0.00213   0.00082   0.00328   0.00697   0.00757

 Mulliken charges and spin densities:
               1          2
     1  Na   0.506384   0.033055
     2  Na   0.598769   0.096516
     3  Na   0.735551  -0.042082
     4  Na   0.314896   0.223468
     5  Na   0.743618   0.213704
     6  Na  -2.790867   0.209589
     7  Na  -0.108351   0.265750
 Sum of Mulliken charges =  -0.00000   1.00000

 Dipole moment (field-independent basis, Debye):
    X=              0.1758    Y=             -0.2630    Z=              0.2156  Tot=              0.3828
 Quadrupole moment (field-independent basis, Debye-Ang):
   XX=            -55.9203   YY=            -66.2685   ZZ=            -72.4322
   XY=             -0.2552   XZ=             -1.7567   YZ=              1.2948

 Normal termination of Gaussian 16 at Tue Nov 28 22:37:16 2023.
