 Gaussian 16, Revision B.01,
 Gaussian 16:  ES64L-G16RevB.01 20-Dec-2017

 -------------------------
 #P B3LYP/6-311+g(d) force
 -------------------------

 -----
 DPGEN
 -----
 Symbolic Z-matrix:
 Charge =  0 Multiplicity = 2

                         Standard orientation:
 ---------------------------------------------------------------------
 Center     Atomic      Atomic             Coordinates (Angstroms)
 Number     Number       Type             X           Y           Z
 ---------------------------------------------------------------------
      1         11           0        1.162685    2.453258    0.483027
      2         11           0        2.605529   -0.273368   -1.577260
      3         11           0       -3.668790   -0.325818   -0.107027
      4         11           0       -1.179940    1.065537   -1.780475
      5         11           0       -1.393493    0.152826    1.853977
      6         11           0        0.105496   -2.391443   -0.427247
      7         11           0        2.368514   -0.680991    1.555005
 ---------------------------------------------------------------------

 SCF Done:  E(UB3LYP) =  -1136.12783444     A.U. after   23 cycles

 The electronic state is 2-A.
 Alpha  occ. eigenvalues --  -38.44685 -38.44570 -38.44291 -38.44213 -38.43954
 Alpha  occ. eigenvalues --  -38.43023 -38.42318  -2.20529  -2.20427  -2.20179
 Alpha  occ. eigenvalues --   -2.20090  -2.19807  -2.18854  -2.18158  -1.14260
 Alpha  occ. eigenvalues --   -1.14190  -1.14148  -1.14127  -1.14092  -1.14027
 Alpha  occ. eigenvalues --   -1.13845  -1.13815  -1.13794  -1.13760  -1.13748
 Alpha  occ. eigenvalues --   -1.13700  -1.13481  -1.13452  -1.13432  -1.12549
 Alpha  occ. eigenvalues --   -1.12535  -1.12463  -1.11839  -1.11815  -1.11808
 Alpha  occ. eigenvalues --   -0.18394  -0.13805  -0.11718  -0.11059
 Alpha virt. eigenvalues --   -0.06343  -0.05350  -0.04087  -0.03300  -0.03261
 Alpha virt. eigenvalues --   -0.02730  -0.01931  -0.00954  -0.00347  -0.00147
 Alpha virt. eigenvalues --    0.00125   0.00288   0.00352   0.00753   0.00847

  Beta  occ. eigenvalues --  -38.44684 -38.44537 -38.44236 -38.44185 -38.43904
  Beta  occ. eigenvalues --  -38.43012 -38.42310  -2.20529  -2.20366  -2.20078
  Beta  occ. eigenvalues --   -2.20039  -2.19717  -2.18836  -2.18148  -1.14250
  Beta  occ. eigenvalues --   -1.14182  -1.14151  -1.14085  -1.14043  -1.13985
  Beta  occ. eigenvalues --   -1.13778  -1.13741  -1.13723  -1.13719  -1.13711
  Beta  occ. eigenvalues --   -1.13657  -1.13421  -1.13382  -1.13369  -1.12540
  Beta  occ. eigenvalues --   -1.12498  -1.12454  -1.11831  -1.11806  -1.11785
  Beta  occ. eigenvalues --   -0.17625  -0.13655  -0.10873
  Beta virt. eigenvalues --   -0.07834  -0.06187  -0.04606  -0.03983  -0.03202
  Beta virt. eigenvalues --   -0.02476  -0.02048  -0.01793  -0.00467  -0.00316
  Beta virt. eigenvalues --    0.00004   0.00264   0.00310   0.00367   0.00838

 Mulliken charges and spin densities:
               1          2
     1  Na  -0.161619   0.096315
     2  Na   0.197283   0.208198
     3  Na   0.426346  -0.010163
     4  Na  -0.263908   0.310676
     5  Na  -0.137311   0.198573
     6  Na  -0.384545   0.085170
     7  Na   0.323755   0.111230
 Sum of Mulliken charges =  -0.00000   1.00000

 Dipole moment (field-independent basis, Debye):
    X=             -0.4782    Y=             -0.2498    Z=             -0.1714  Tot=              0.5660
 Quadrupole moment (field-independent basis, Debye-Ang):
   XX=            -52.3875   YY=            -78.8953   ZZ=            -64.1801
   XY=              1.0186   XZ=              0.4819   YZ=              0.7660

 Normal termination of Gaussian 16 at Mon Dec  4 05:28:40 2023.
