 Gaussian 16, Revision B.01,
 Gaussian 16:  ES64L-G16RevB.01 20-Dec-2017

 -------------------------
 #P B3LYP/6-311+g(d) force
 -------------------------

 -----
 DPGEN
 -----
 Symbolic Z-matrix:
 Charge =  0 Multiplicity = 2

                         Standard orientation:
 ---------------------------------------------------------------------
 Center     Atomic      Atomic             Coordinates (Angstroms)
 Number     Number       Type             X           Y           Z
 ---------------------------------------------------------------------
      1         11           0        1.488988   -2.208412   -0.687817
      2         11           0       -5.392606   -0.575209    0.190369
      3         11           0       -2.179219   -1.271287   -0.031665
      4         11           0       -2.871423    2.426059   -0.236649
      5         11           0        0.149515    0.945329   -0.076698
      6         11           0        3.239580   -0.187909    1.451141
      7         11           0        5.565165    0.871431   -0.608681
 ---------------------------------------------------------------------

 SCF Done:  E(UB3LYP) =  -1136.11710634     A.U. after   24 cycles

 The electronic state is 2-A.
 Alpha  occ. eigenvalues --  -38.44544 -38.44228 -38.44121 -38.44087 -38.44056
 Alpha  occ. eigenvalues --  -38.43960 -38.43592  -2.20360  -2.20054  -2.19994
 Alpha  occ. eigenvalues --   -2.19959  -2.19927  -2.19772  -2.19358  -1.14033
 Alpha  occ. eigenvalues --   -1.14029  -1.13963  -1.13739  -1.13729  -1.13721
 Alpha  occ. eigenvalues --   -1.13683  -1.13672  -1.13648  -1.13625  -1.13617
 Alpha  occ. eigenvalues --   -1.13596  -1.13575  -1.13565  -1.13533  -1.13421
 Alpha  occ. eigenvalues --   -1.13416  -1.13373  -1.13026  -1.13025  -1.13000
 Alpha  occ. eigenvalues --   -0.17163  -0.14377  -0.11586  -0.11070
 Alpha virt. eigenvalues --   -0.06158  -0.05909  -0.04604  -0.03410  -0.03046
 Alpha virt. eigenvalues --   -0.02468  -0.01897  -0.01537  -0.01092  -0.00675
 Alpha virt. eigenvalues --   -0.00432  -0.00062   0.00358   0.00418   0.00598

  Beta  occ. eigenvalues --  -38.44486 -38.44205 -38.44116 -38.44041 -38.44028
  Beta  occ. eigenvalues --  -38.43899 -38.43604  -2.20258  -2.20011  -2.19951
  Beta  occ. eigenvalues --   -2.19914  -2.19879  -2.19660  -2.19379  -1.13963
  Beta  occ. eigenvalues --   -1.13951  -1.13881  -1.13709  -1.13693  -1.13678
  Beta  occ. eigenvalues --   -1.13648  -1.13638  -1.13625  -1.13608  -1.13595
  Beta  occ. eigenvalues --   -1.13568  -1.13541  -1.13497  -1.13475  -1.13346
  Beta  occ. eigenvalues --   -1.13334  -1.13309  -1.13040  -1.13040  -1.13013
  Beta  occ. eigenvalues --   -0.16574  -0.13995  -0.10934
  Beta virt. eigenvalues --   -0.07607  -0.06099  -0.05519  -0.04291  -0.03196
  Beta virt. eigenvalues --   -0.02542  -0.01958  -0.01595  -0.01295  -0.00946
  Beta virt. eigenvalues --   -0.00350  -0.00320   0.00082   0.00424   0.00527

 Mulliken charges and spin densities:
               1          2
     1  Na   0.560944   0.103063
     2  Na   1.069129   0.206534
     3  Na  -1.380545   0.240499
     4  Na  -0.010425   0.021819
     5  Na  -1.038861   0.485080
     6  Na   0.658095   0.004464
     7  Na   0.141663  -0.061458
 Sum of Mulliken charges =  -0.00000   1.00000

 Dipole moment (field-independent basis, Debye):
    X=             -0.6513    Y=             -0.1968    Z=             -0.3596  Tot=              0.7696
 Quadrupole moment (field-independent basis, Debye-Ang):
   XX=            -69.3623   YY=            -66.2752   ZZ=            -67.4276
   XY=             -5.5158   XZ=             -4.2076   YZ=             -0.5334

 Normal termination of Gaussian 16 at Wed Nov 29 02:33:20 2023.
