 Gaussian 16, Revision B.01,
 Gaussian 16:  ES64L-G16RevB.01 20-Dec-2017

 -------------------------
 #P B3LYP/6-311+g(d) force
 -------------------------

 -----
 DPGEN
 -----
 Symbolic Z-matrix:
 Charge =  0 Multiplicity = 2

                         Standard orientation:
 ---------------------------------------------------------------------
 Center     Atomic      Atomic             Coordinates (Angstroms)
 Number     Number       Type             X           Y           Z
 ---------------------------------------------------------------------
      1         11           0        2.733832   -1.307226    0.201717
      2         11           0        6.037563   -1.325019   -0.025029
      3         11           0        3.824724    1.822298   -0.123396
      4         11           0        0.408782    2.197560    0.136753
      5         11           0       -1.219251   -0.980019   -0.159642
      6         11           0       -4.310726   -0.169427   -0.128370
      7         11           0       -7.474924   -0.238166    0.097968
 ---------------------------------------------------------------------

 SCF Done:  E(UB3LYP) =  -1136.11703763     A.U. after   23 cycles

 The electronic state is 2-A.
 Alpha  occ. eigenvalues --  -38.45103 -38.44970 -38.44433 -38.44428 -38.43966
 Alpha  occ. eigenvalues --  -38.43907 -38.43350  -2.20933  -2.20810  -2.20228
 Alpha  occ. eigenvalues --   -2.20225  -2.19761  -2.19744  -2.19176  -1.14639
 Alpha  occ. eigenvalues --   -1.14628  -1.14527  -1.14483  -1.14478  -1.14395
 Alpha  occ. eigenvalues --   -1.13907  -1.13894  -1.13890  -1.13884  -1.13857
 Alpha  occ. eigenvalues --   -1.13848  -1.13428  -1.13408  -1.13405  -1.13404
 Alpha  occ. eigenvalues --   -1.13399  -1.13361  -1.12852  -1.12842  -1.12821
 Alpha  occ. eigenvalues --   -0.16741  -0.14183  -0.12276  -0.11283
 Alpha virt. eigenvalues --   -0.06918  -0.05537  -0.04136  -0.03724  -0.03278
 Alpha virt. eigenvalues --   -0.02557  -0.02091  -0.01593  -0.01319  -0.00809
 Alpha virt. eigenvalues --   -0.00666  -0.00262   0.00121   0.00361   0.00641

  Beta  occ. eigenvalues --  -38.45081 -38.44905 -38.44422 -38.44400 -38.43923
  Beta  occ. eigenvalues --  -38.43860 -38.43357  -2.20893  -2.20693  -2.20208
  Beta  occ. eigenvalues --   -2.20180  -2.19680  -2.19654  -2.19193  -1.14603
  Beta  occ. eigenvalues --   -1.14596  -1.14499  -1.14407  -1.14406  -1.14292
  Beta  occ. eigenvalues --   -1.13880  -1.13878  -1.13874  -1.13854  -1.13840
  Beta  occ. eigenvalues --   -1.13797  -1.13373  -1.13353  -1.13350  -1.13349
  Beta  occ. eigenvalues --   -1.13336  -1.13309  -1.12860  -1.12858  -1.12807
  Beta  occ. eigenvalues --   -0.16152  -0.13895  -0.11657
  Beta virt. eigenvalues --   -0.07952  -0.06503  -0.05172  -0.03962  -0.03421
  Beta virt. eigenvalues --   -0.02663  -0.02472  -0.01807  -0.01418  -0.01167
  Beta virt. eigenvalues --   -0.00467  -0.00294  -0.00011   0.00235   0.00417

 Mulliken charges and spin densities:
               1          2
     1  Na  -1.572061   0.378492
     2  Na   0.935564   0.025488
     3  Na   0.439255   0.075495
     4  Na  -0.491213   0.338826
     5  Na  -0.223161   0.068388
     6  Na   0.622189   0.141849
     7  Na   0.289426  -0.028538
 Sum of Mulliken charges =  -0.00000   1.00000

 Dipole moment (field-independent basis, Debye):
    X=              2.5635    Y=              0.2846    Z=              0.0393  Tot=              2.5795
 Quadrupole moment (field-independent basis, Debye-Ang):
   XX=            -52.4852   YY=            -67.6652   ZZ=            -74.1071
   XY=             -1.6979   XZ=             -1.4327   YZ=             -0.0830

 Normal termination of Gaussian 16 at Wed Nov 29 03:02:34 2023.
