 Gaussian 16, Revision B.01,
 Gaussian 16:  ES64L-G16RevB.01 20-Dec-2017

 -------------------------
 #P B3LYP/6-311+g(d) force
 -------------------------

 -----
 DPGEN
 -----
 Symbolic Z-matrix:
 Charge =  0 Multiplicity = 2

                         Standard orientation:
 ---------------------------------------------------------------------
 Center     Atomic      Atomic             Coordinates (Angstroms)
 Number     Number       Type             X           Y           Z
 ---------------------------------------------------------------------
      1         11           0       -2.121979   -1.889039    0.074018
      2         11           0        0.074706   -0.195323   -1.855088
      3         11           0        2.973280    1.093057    0.362994
      4         11           0        0.280788    2.700197   -0.174770
      5         11           0       -0.222614   -0.451345    2.305492
      6         11           0        1.875186   -2.470839   -0.477139
      7         11           0       -2.859366    1.213293   -0.235507
 ---------------------------------------------------------------------

 SCF Done:  E(UB3LYP) =  -1136.13431893     A.U. after   19 cycles

 The electronic state is 2-A.
 Alpha  occ. eigenvalues --  -38.44442 -38.44060 -38.43743 -38.43701 -38.43672
 Alpha  occ. eigenvalues --  -38.43594 -38.42926  -2.20285  -2.19877  -2.19643
 Alpha  occ. eigenvalues --   -2.19593  -2.19557  -2.19408  -2.18800  -1.13946
 Alpha  occ. eigenvalues --   -1.13916  -1.13900  -1.13560  -1.13541  -1.13510
 Alpha  occ. eigenvalues --   -1.13343  -1.13316  -1.13300  -1.13279  -1.13255
 Alpha  occ. eigenvalues --   -1.13240  -1.13230  -1.13198  -1.13149  -1.13084
 Alpha  occ. eigenvalues --   -1.13052  -1.13036  -1.12487  -1.12459  -1.12437
 Alpha  occ. eigenvalues --   -0.18484  -0.13024  -0.12232  -0.11352
 Alpha virt. eigenvalues --   -0.05552  -0.05301  -0.04290  -0.03491  -0.03203
 Alpha virt. eigenvalues --   -0.02985  -0.01421  -0.01075  -0.00255  -0.00100
 Alpha virt. eigenvalues --   -0.00065   0.00367   0.00744   0.00857   0.00876

  Beta  occ. eigenvalues --  -38.44341 -38.44056 -38.43740 -38.43665 -38.43631
  Beta  occ. eigenvalues --  -38.43585 -38.42923  -2.20099  -2.19871  -2.19590
  Beta  occ. eigenvalues --   -2.19548  -2.19515  -2.19394  -2.18797  -1.13822
  Beta  occ. eigenvalues --   -1.13784  -1.13770  -1.13558  -1.13523  -1.13508
  Beta  occ. eigenvalues --   -1.13323  -1.13262  -1.13247  -1.13233  -1.13215
  Beta  occ. eigenvalues --   -1.13204  -1.13195  -1.13158  -1.13147  -1.13050
  Beta  occ. eigenvalues --   -1.13039  -1.13031  -1.12483  -1.12445  -1.12432
  Beta  occ. eigenvalues --   -0.17740  -0.12821  -0.11972
  Beta virt. eigenvalues --   -0.07423  -0.05436  -0.05276  -0.04219  -0.02714
  Beta virt. eigenvalues --   -0.02338  -0.02079  -0.01320  -0.00997  -0.00287
  Beta virt. eigenvalues --   -0.00118   0.00071   0.00398   0.00840   0.00881

 Mulliken charges and spin densities:
               1          2
     1  Na   0.447733   0.040034
     2  Na  -0.128435   0.435471
     3  Na  -0.032774   0.018086
     4  Na   0.063527   0.002626
     5  Na  -0.558506   0.597363
     6  Na   0.119582  -0.055515
     7  Na   0.088874  -0.038064
 Sum of Mulliken charges =  -0.00000   1.00000

 Dipole moment (field-independent basis, Debye):
    X=              0.0616    Y=             -0.2247    Z=              0.2895  Tot=              0.3716
 Quadrupole moment (field-independent basis, Debye-Ang):
   XX=            -58.1564   YY=            -66.9915   ZZ=            -70.8336
   XY=             -0.8551   XZ=              1.2366   YZ=              0.3779

 Normal termination of Gaussian 16 at Thu Dec  7 19:36:09 2023.
