 Gaussian 16, Revision B.01,
 Gaussian 16:  ES64L-G16RevB.01 20-Dec-2017

 -------------------------
 #P B3LYP/6-311+g(d) force
 -------------------------

 -----
 DPGEN
 -----
 Symbolic Z-matrix:
 Charge =  0 Multiplicity = 2

                         Standard orientation:
 ---------------------------------------------------------------------
 Center     Atomic      Atomic             Coordinates (Angstroms)
 Number     Number       Type             X           Y           Z
 ---------------------------------------------------------------------
      1         11           0        0.380792   -0.120461    1.816054
      2         11           0       -2.653121    1.360367   -0.112717
      3         11           0        0.494736    2.484292    0.029745
      4         11           0       -0.314413   -0.237179   -1.791081
      5         11           0       -2.260010   -1.809363    0.418502
      6         11           0        1.489301   -2.231605   -0.298080
      7         11           0        2.862714    0.553949   -0.062422
 ---------------------------------------------------------------------

 SCF Done:  E(UB3LYP) =  -1136.13226915     A.U. after   19 cycles

 The electronic state is 2-A.
 Alpha  occ. eigenvalues --  -38.43898 -38.43761 -38.43676 -38.43439 -38.43362
 Alpha  occ. eigenvalues --  -38.43218 -38.42789  -2.19852  -2.19648  -2.19557
 Alpha  occ. eigenvalues --   -2.19460  -2.19380  -2.19167  -2.18746  -1.13561
 Alpha  occ. eigenvalues --   -1.13529  -1.13494  -1.13357  -1.13323  -1.13298
 Alpha  occ. eigenvalues --   -1.13232  -1.13224  -1.13171  -1.13148  -1.13111
 Alpha  occ. eigenvalues --   -1.13086  -1.13064  -1.13029  -1.12986  -1.12824
 Alpha  occ. eigenvalues --   -1.12811  -1.12774  -1.12434  -1.12400  -1.12373
 Alpha  occ. eigenvalues --   -0.19646  -0.13609  -0.12417  -0.11172
 Alpha virt. eigenvalues --   -0.05542  -0.05109  -0.04111  -0.03518  -0.02873
 Alpha virt. eigenvalues --   -0.02595  -0.01450  -0.00897  -0.00055   0.00086
 Alpha virt. eigenvalues --    0.00138   0.00373   0.00832   0.00958   0.00981

  Beta  occ. eigenvalues --  -38.43892 -38.43758 -38.43666 -38.43358 -38.43283
  Beta  occ. eigenvalues --  -38.43205 -38.42781  -2.19844  -2.19645  -2.19540
  Beta  occ. eigenvalues --   -2.19311  -2.19236  -2.19149  -2.18736  -1.13554
  Beta  occ. eigenvalues --   -1.13530  -1.13455  -1.13354  -1.13311  -1.13284
  Beta  occ. eigenvalues --   -1.13216  -1.13187  -1.13165  -1.13062  -1.13013
  Beta  occ. eigenvalues --   -1.12994  -1.12957  -1.12930  -1.12885  -1.12804
  Beta  occ. eigenvalues --   -1.12764  -1.12750  -1.12429  -1.12383  -1.12345
  Beta  occ. eigenvalues --   -0.18885  -0.13343  -0.12124
  Beta virt. eigenvalues --   -0.07185  -0.05492  -0.05107  -0.04107  -0.02681
  Beta virt. eigenvalues --   -0.02059  -0.01524  -0.01357  -0.00835  -0.00010
  Beta virt. eigenvalues --    0.00096   0.00131   0.00395   0.00896   0.00949

 Mulliken charges and spin densities:
               1          2
     1  Na  -0.639660   0.607652
     2  Na   0.079066  -0.049850
     3  Na   0.249906  -0.046263
     4  Na  -0.567398   0.537782
     5  Na   0.159337  -0.044407
     6  Na   0.457168  -0.017622
     7  Na   0.261582   0.012708
 Sum of Mulliken charges =  -0.00000   1.00000

 Dipole moment (field-independent basis, Debye):
    X=             -0.2193    Y=             -0.1465    Z=              0.0330  Tot=              0.2658
 Quadrupole moment (field-independent basis, Debye-Ang):
   XX=            -55.8827   YY=            -66.5164   ZZ=            -72.2798
   XY=             -0.0247   XZ=             -1.2500   YZ=             -0.5357

 Normal termination of Gaussian 16 at Thu Dec  7 02:38:53 2023.
