 Gaussian 16, Revision B.01,
 Gaussian 16:  ES64L-G16RevB.01 20-Dec-2017

 -------------------------
 #P B3LYP/6-311+g(d) force
 -------------------------

 -----
 DPGEN
 -----
 Symbolic Z-matrix:
 Charge =  0 Multiplicity = 2

                         Standard orientation:
 ---------------------------------------------------------------------
 Center     Atomic      Atomic             Coordinates (Angstroms)
 Number     Number       Type             X           Y           Z
 ---------------------------------------------------------------------
      1         11           0        1.271975    2.774631    0.036868
      2         11           0       -2.500727   -1.700912    0.094639
      3         11           0        3.049669   -0.078000   -0.042589
      4         11           0       -0.208221   -0.290673   -1.781868
      5         11           0        1.093094   -2.810537    0.076990
      6         11           0       -0.411060    0.158354    1.896651
      7         11           0       -2.294730    1.947137   -0.280691
 ---------------------------------------------------------------------

 SCF Done:  E(UB3LYP) =  -1136.14030939     A.U. after   19 cycles

 The electronic state is 2-A.
 Alpha  occ. eigenvalues --  -38.43827 -38.43799 -38.43637 -38.43581 -38.43551
 Alpha  occ. eigenvalues --  -38.43372 -38.43255  -2.19690  -2.19649  -2.19474
 Alpha  occ. eigenvalues --   -2.19423  -2.19377  -2.19293  -2.19204  -1.13383
 Alpha  occ. eigenvalues --   -1.13371  -1.13332  -1.13326  -1.13311  -1.13270
 Alpha  occ. eigenvalues --   -1.13162  -1.13155  -1.13140  -1.13100  -1.13080
 Alpha  occ. eigenvalues --   -1.13049  -1.13047  -1.13035  -1.13010  -1.12963
 Alpha  occ. eigenvalues --   -1.12917  -1.12911  -1.12875  -1.12830  -1.12823
 Alpha  occ. eigenvalues --   -0.18672  -0.12947  -0.12628  -0.10670
 Alpha virt. eigenvalues --   -0.05521  -0.05188  -0.04915  -0.03101  -0.02958
 Alpha virt. eigenvalues --   -0.02488  -0.01327  -0.01242  -0.00418  -0.00391
 Alpha virt. eigenvalues --   -0.00002   0.00371   0.00854   0.00866   0.00905

  Beta  occ. eigenvalues --  -38.43819 -38.43790 -38.43636 -38.43578 -38.43550
  Beta  occ. eigenvalues --  -38.43288 -38.43179  -2.19679  -2.19636  -2.19475
  Beta  occ. eigenvalues --   -2.19420  -2.19377  -2.19139  -2.19066  -1.13378
  Beta  occ. eigenvalues --   -1.13329  -1.13325  -1.13307  -1.13286  -1.13265
  Beta  occ. eigenvalues --   -1.13165  -1.13157  -1.13123  -1.13089  -1.13066
  Beta  occ. eigenvalues --   -1.13048  -1.13037  -1.13026  -1.13014  -1.12863
  Beta  occ. eigenvalues --   -1.12809  -1.12799  -1.12783  -1.12732  -1.12721
  Beta  occ. eigenvalues --   -0.17939  -0.12716  -0.12400
  Beta virt. eigenvalues --   -0.06754  -0.05526  -0.05163  -0.04850  -0.02319
  Beta virt. eigenvalues --   -0.02185  -0.01438  -0.01243  -0.01164  -0.00468
  Beta virt. eigenvalues --   -0.00457   0.00136   0.00400   0.00857   0.00885

 Mulliken charges and spin densities:
               1          2
     1  Na  -0.009953  -0.092616
     2  Na   0.330917  -0.096541
     3  Na  -0.057065  -0.088983
     4  Na  -0.213356   0.683722
     5  Na   0.093991  -0.092116
     6  Na  -0.339664   0.778377
     7  Na   0.195131  -0.091843
 Sum of Mulliken charges =  -0.00000   1.00000

 Dipole moment (field-independent basis, Debye):
    X=             -0.2305    Y=             -0.0382    Z=              0.0300  Tot=              0.2355
 Quadrupole moment (field-independent basis, Debye-Ang):
   XX=            -58.7250   YY=            -60.1405   ZZ=            -74.7460
   XY=             -0.0225   XZ=              0.4486   YZ=             -1.0121

 Normal termination of Gaussian 16 at Thu Dec  7 15:58:54 2023.
