 Gaussian 16, Revision B.01,
 Gaussian 16:  ES64L-G16RevB.01 20-Dec-2017

 -------------------------
 #P B3LYP/6-311+g(d) force
 -------------------------

 -----
 DPGEN
 -----
 Symbolic Z-matrix:
 Charge =  0 Multiplicity = 2

                         Standard orientation:
 ---------------------------------------------------------------------
 Center     Atomic      Atomic             Coordinates (Angstroms)
 Number     Number       Type             X           Y           Z
 ---------------------------------------------------------------------
      1         11           0        2.949541    1.503681   -0.274928
      2         11           0       -1.126767   -2.696400   -0.728161
      3         11           0       -1.007780    2.892537   -0.162605
      4         11           0       -0.258554   -0.335746    2.250714
      5         11           0       -2.977038    0.298806    0.064167
      6         11           0        2.366034   -1.585511    0.286498
      7         11           0        0.054563   -0.077367   -1.435685
 ---------------------------------------------------------------------

 SCF Done:  E(UB3LYP) =  -1136.13359531     A.U. after   19 cycles

 The electronic state is 2-A.
 Alpha  occ. eigenvalues --  -38.44040 -38.43943 -38.43923 -38.43689 -38.43459
 Alpha  occ. eigenvalues --  -38.43274 -38.43072  -2.19901  -2.19796  -2.19760
 Alpha  occ. eigenvalues --   -2.19577  -2.19285  -2.19157  -2.19113  -1.13559
 Alpha  occ. eigenvalues --   -1.13540  -1.13517  -1.13478  -1.13458  -1.13457
 Alpha  occ. eigenvalues --   -1.13430  -1.13427  -1.13400  -1.13264  -1.13240
 Alpha  occ. eigenvalues --   -1.13187  -1.12998  -1.12966  -1.12942  -1.12922
 Alpha  occ. eigenvalues --   -1.12802  -1.12779  -1.12762  -1.12730  -1.12677
 Alpha  occ. eigenvalues --   -0.18662  -0.13229  -0.12235  -0.11035
 Alpha virt. eigenvalues --   -0.05603  -0.05126  -0.04606  -0.03353  -0.02820
 Alpha virt. eigenvalues --   -0.02729  -0.01472  -0.01097  -0.00398  -0.00255
 Alpha virt. eigenvalues --   -0.00014   0.00354   0.00808   0.00873   0.00903

  Beta  occ. eigenvalues --  -38.43942 -38.43933 -38.43918 -38.43681 -38.43459
  Beta  occ. eigenvalues --  -38.43253 -38.43019  -2.19790  -2.19761  -2.19704
  Beta  occ. eigenvalues --   -2.19565  -2.19286  -2.19121  -2.19021  -1.13482
  Beta  occ. eigenvalues --   -1.13461  -1.13447  -1.13427  -1.13423  -1.13415
  Beta  occ. eigenvalues --   -1.13401  -1.13384  -1.13377  -1.13257  -1.13202
  Beta  occ. eigenvalues --   -1.13185  -1.12972  -1.12941  -1.12935  -1.12922
  Beta  occ. eigenvalues --   -1.12757  -1.12747  -1.12706  -1.12671  -1.12619
  Beta  occ. eigenvalues --   -0.17949  -0.13029  -0.11988
  Beta virt. eigenvalues --   -0.07036  -0.05555  -0.05063  -0.04552  -0.02563
  Beta virt. eigenvalues --   -0.02086  -0.01694  -0.01391  -0.01011  -0.00417
  Beta virt. eigenvalues --   -0.00259   0.00134   0.00392   0.00858   0.00900

 Mulliken charges and spin densities:
               1          2
     1  Na  -0.064689  -0.044445
     2  Na   0.275745   0.088045
     3  Na  -0.092747  -0.027418
     4  Na  -0.448713   0.646096
     5  Na   0.288433   0.081145
     6  Na   0.307356   0.130817
     7  Na  -0.265385   0.125761
 Sum of Mulliken charges =  -0.00000   1.00000

 Dipole moment (field-independent basis, Debye):
    X=              0.0299    Y=              0.0848    Z=              0.3429  Tot=              0.3545
 Quadrupole moment (field-independent basis, Debye-Ang):
   XX=            -57.7408   YY=            -62.9265   ZZ=            -73.5289
   XY=              1.1016   XZ=              0.2583   YZ=              0.2189

 Normal termination of Gaussian 16 at Thu Dec  7 05:03:25 2023.
