 Gaussian 16, Revision B.01,
 Gaussian 16:  ES64L-G16RevB.01 20-Dec-2017

 -------------------------
 #P B3LYP/6-311+g(d) force
 -------------------------

 -----
 DPGEN
 -----
 Symbolic Z-matrix:
 Charge =  0 Multiplicity = 2

                         Standard orientation:
 ---------------------------------------------------------------------
 Center     Atomic      Atomic             Coordinates (Angstroms)
 Number     Number       Type             X           Y           Z
 ---------------------------------------------------------------------
      1         11           0        2.761920   -2.113027   -0.012300
      2         11           0        0.280464   -0.446874   -1.431283
      3         11           0        3.051581    1.185719   -0.242803
      4         11           0        0.168919    2.605047    0.688167
      5         11           0       -3.008034   -1.856166   -0.209840
      6         11           0       -0.585585   -0.965278    1.753391
      7         11           0       -2.669266    1.590580   -0.545332
 ---------------------------------------------------------------------

 SCF Done:  E(UB3LYP) =  -1136.12828510     A.U. after   21 cycles

 The electronic state is 2-A.
 Alpha  occ. eigenvalues --  -38.44627 -38.44347 -38.44277 -38.44156 -38.43903
 Alpha  occ. eigenvalues --  -38.43153 -38.42542  -2.20470  -2.20171  -2.20101
 Alpha  occ. eigenvalues --   -2.20000  -2.19826  -2.19053  -2.18411  -1.14150
 Alpha  occ. eigenvalues --   -1.14134  -1.14115  -1.13851  -1.13830  -1.13819
 Alpha  occ. eigenvalues --   -1.13781  -1.13756  -1.13742  -1.13671  -1.13665
 Alpha  occ. eigenvalues --   -1.13628  -1.13544  -1.13471  -1.13434  -1.12731
 Alpha  occ. eigenvalues --   -1.12680  -1.12663  -1.12081  -1.12076  -1.12054
 Alpha  occ. eigenvalues --   -0.18351  -0.13894  -0.11972  -0.10181
 Alpha virt. eigenvalues --   -0.06383  -0.06095  -0.03978  -0.03461  -0.02727
 Alpha virt. eigenvalues --   -0.02192  -0.01959  -0.01523  -0.00767  -0.00162
 Alpha virt. eigenvalues --    0.00041   0.00245   0.00540   0.00650   0.00770

  Beta  occ. eigenvalues --  -38.44623 -38.44341 -38.44275 -38.44134 -38.43868
  Beta  occ. eigenvalues --  -38.43067 -38.42526  -2.20466  -2.20165  -2.20101
  Beta  occ. eigenvalues --   -2.19961  -2.19763  -2.18893  -2.18384  -1.14145
  Beta  occ. eigenvalues --   -1.14128  -1.14102  -1.13840  -1.13826  -1.13798
  Beta  occ. eigenvalues --   -1.13779  -1.13758  -1.13725  -1.13647  -1.13621
  Beta  occ. eigenvalues --   -1.13602  -1.13485  -1.13431  -1.13387  -1.12624
  Beta  occ. eigenvalues --   -1.12569  -1.12548  -1.12066  -1.12060  -1.12016
  Beta  occ. eigenvalues --   -0.17712  -0.13593  -0.11780
  Beta virt. eigenvalues --   -0.06462  -0.06325  -0.05948  -0.03899  -0.02758
  Beta virt. eigenvalues --   -0.02097  -0.02003  -0.01555  -0.01011  -0.00778
  Beta virt. eigenvalues --   -0.00055   0.00165   0.00316   0.00615   0.00727

 Mulliken charges and spin densities:
               1          2
     1  Na   0.360998   0.111660
     2  Na  -0.346481   0.037086
     3  Na   0.122375   0.030747
     4  Na  -0.173067   0.057727
     5  Na   0.344793   0.166888
     6  Na  -0.427246   0.453375
     7  Na   0.118628   0.142517
 Sum of Mulliken charges =  -0.00000   1.00000

 Dipole moment (field-independent basis, Debye):
    X=              0.2966    Y=             -0.5390    Z=             -0.0940  Tot=              0.6224
 Quadrupole moment (field-independent basis, Debye-Ang):
   XX=            -50.5498   YY=            -66.5609   ZZ=            -75.9270
   XY=              0.6003   XZ=              1.6015   YZ=              0.3239

 Normal termination of Gaussian 16 at Mon Dec  4 04:11:17 2023.
