 Gaussian 16, Revision B.01,
 Gaussian 16:  ES64L-G16RevB.01 20-Dec-2017

 -------------------------
 #P B3LYP/6-311+g(d) force
 -------------------------

 -----
 DPGEN
 -----
 Symbolic Z-matrix:
 Charge =  0 Multiplicity = 2

                         Standard orientation:
 ---------------------------------------------------------------------
 Center     Atomic      Atomic             Coordinates (Angstroms)
 Number     Number       Type             X           Y           Z
 ---------------------------------------------------------------------
      1         11           0       -1.513330   -1.779194   -1.094595
      2         11           0       -4.847358   -1.126162   -0.469721
      3         11           0       -4.755363    1.892964   -0.508403
      4         11           0       -2.055113    1.550876    0.932699
      5         11           0        0.622458   -1.071075    1.707701
      6         11           0        5.114623   -0.321156    0.550562
      7         11           0        7.434084    0.853747   -1.118243
 ---------------------------------------------------------------------

 SCF Done:  E(UB3LYP) =  -1136.11067727     A.U. after   19 cycles

 The electronic state is 2-A.
 Alpha  occ. eigenvalues --  -38.44921 -38.44882 -38.44653 -38.44106 -38.43913
 Alpha  occ. eigenvalues --  -38.43883 -38.43848  -2.20769  -2.20689  -2.20517
 Alpha  occ. eigenvalues --   -2.19995  -2.19681  -2.19670  -2.19629  -1.14453
 Alpha  occ. eigenvalues --   -1.14427  -1.14383  -1.14367  -1.14354  -1.14293
 Alpha  occ. eigenvalues --   -1.14205  -1.14162  -1.14154  -1.13662  -1.13634
 Alpha  occ. eigenvalues --   -1.13624  -1.13408  -1.13351  -1.13349  -1.13327
 Alpha  occ. eigenvalues --   -1.13326  -1.13313  -1.13288  -1.13284  -1.13203
 Alpha  occ. eigenvalues --   -0.17070  -0.13209  -0.12202  -0.11662
 Alpha virt. eigenvalues --   -0.06663  -0.05468  -0.04555  -0.03687  -0.03207
 Alpha virt. eigenvalues --   -0.02560  -0.02044  -0.01706  -0.01369  -0.01277
 Alpha virt. eigenvalues --   -0.00424  -0.00140   0.00208   0.00312   0.00383

  Beta  occ. eigenvalues --  -38.44846 -38.44826 -38.44603 -38.44085 -38.43908
  Beta  occ. eigenvalues --  -38.43882 -38.43849  -2.20632  -2.20589  -2.20426
  Beta  occ. eigenvalues --   -2.19960  -2.19673  -2.19668  -2.19629  -1.14361
  Beta  occ. eigenvalues --   -1.14338  -1.14297  -1.14291  -1.14269  -1.14208
  Beta  occ. eigenvalues --   -1.14148  -1.14100  -1.14076  -1.13623  -1.13612
  Beta  occ. eigenvalues --   -1.13588  -1.13407  -1.13346  -1.13336  -1.13326
  Beta  occ. eigenvalues --   -1.13325  -1.13310  -1.13288  -1.13285  -1.13202
  Beta  occ. eigenvalues --   -0.16227  -0.13163  -0.12082
  Beta virt. eigenvalues --   -0.07611  -0.06464  -0.05079  -0.04355  -0.03221
  Beta virt. eigenvalues --   -0.02524  -0.02405  -0.01965  -0.01567  -0.01256
  Beta virt. eigenvalues --   -0.00811  -0.00132  -0.00022   0.00353   0.00379

 Mulliken charges and spin densities:
               1          2
     1  Na  -0.027023   0.320355
     2  Na   0.019799   0.238423
     3  Na   0.454545  -0.090305
     4  Na  -0.226861   0.495124
     5  Na  -0.301574   0.054235
     6  Na  -0.609188  -0.022412
     7  Na   0.690303   0.004581
 Sum of Mulliken charges =  -0.00000   1.00000

 Dipole moment (field-independent basis, Debye):
    X=             -1.6062    Y=              0.0715    Z=             -0.3442  Tot=              1.6443
 Quadrupole moment (field-independent basis, Debye-Ang):
   XX=            -64.1797   YY=            -69.3086   ZZ=            -67.0466
   XY=              2.1617   XZ=             -2.7344   YZ=             -2.8191

 Normal termination of Gaussian 16 at Tue Nov 28 19:06:11 2023.
