 Gaussian 16, Revision B.01,
 Gaussian 16:  ES64L-G16RevB.01 20-Dec-2017

 -------------------------
 #P B3LYP/6-311+g(d) force
 -------------------------

 -----
 DPGEN
 -----
 Symbolic Z-matrix:
 Charge =  0 Multiplicity = 2

                         Standard orientation:
 ---------------------------------------------------------------------
 Center     Atomic      Atomic             Coordinates (Angstroms)
 Number     Number       Type             X           Y           Z
 ---------------------------------------------------------------------
      1         11           0        0.140181   -0.404238    2.623084
      2         11           0       -0.175311   -0.095557   -1.023725
      3         11           0        2.370297   -2.138229   -0.799129
      4         11           0       -1.518763   -2.606517    0.212491
      5         11           0        2.727213    1.695825   -0.474237
      6         11           0       -3.114312    0.726972   -1.017461
      7         11           0       -0.429306    2.821745    0.478978
 ---------------------------------------------------------------------

 SCF Done:  E(UB3LYP) =  -1136.12975166     A.U. after   19 cycles

 The electronic state is 2-A.
 Alpha  occ. eigenvalues --  -38.44677 -38.43918 -38.43903 -38.43813 -38.43733
 Alpha  occ. eigenvalues --  -38.43420 -38.42565  -2.20496  -2.19745  -2.19701
 Alpha  occ. eigenvalues --   -2.19614  -2.19569  -2.19258  -2.18649  -1.14138
 Alpha  occ. eigenvalues --   -1.14120  -1.14105  -1.13460  -1.13410  -1.13395
 Alpha  occ. eigenvalues --   -1.13358  -1.13352  -1.13320  -1.13300  -1.13288
 Alpha  occ. eigenvalues --   -1.13275  -1.13246  -1.13208  -1.13180  -1.12953
 Alpha  occ. eigenvalues --   -1.12923  -1.12878  -1.12344  -1.12296  -1.12292
 Alpha  occ. eigenvalues --   -0.18080  -0.12521  -0.12356  -0.11314
 Alpha virt. eigenvalues --   -0.05531  -0.05030  -0.04724  -0.03198  -0.03043
 Alpha virt. eigenvalues --   -0.02806  -0.01390  -0.01232  -0.00500  -0.00236
 Alpha virt. eigenvalues --   -0.00050   0.00329   0.00769   0.00824   0.00879

  Beta  occ. eigenvalues --  -38.44554 -38.43915 -38.43887 -38.43812 -38.43711
  Beta  occ. eigenvalues --  -38.43414 -38.42539  -2.20269  -2.19742  -2.19672
  Beta  occ. eigenvalues --   -2.19613  -2.19529  -2.19250  -2.18605  -1.13985
  Beta  occ. eigenvalues --   -1.13967  -1.13942  -1.13460  -1.13386  -1.13370
  Beta  occ. eigenvalues --   -1.13355  -1.13335  -1.13300  -1.13295  -1.13273
  Beta  occ. eigenvalues --   -1.13255  -1.13241  -1.13181  -1.13155  -1.12949
  Beta  occ. eigenvalues --   -1.12903  -1.12873  -1.12295  -1.12269  -1.12258
  Beta  occ. eigenvalues --   -0.17423  -0.12313  -0.12102
  Beta virt. eigenvalues --   -0.07334  -0.05439  -0.04793  -0.04617  -0.02478
  Beta virt. eigenvalues --   -0.02392  -0.01927  -0.01280  -0.01196  -0.00389
  Beta virt. eigenvalues --   -0.00194   0.00095   0.00379   0.00826   0.00894

 Mulliken charges and spin densities:
               1          2
     1  Na  -0.461311   0.654719
     2  Na  -0.303775  -0.299335
     3  Na   0.099282   0.117900
     4  Na   0.097290   0.161758
     5  Na  -0.042877   0.051473
     6  Na   0.421418   0.117337
     7  Na   0.189972   0.196148
 Sum of Mulliken charges =  -0.00000   1.00000

 Dipole moment (field-independent basis, Debye):
    X=              0.0789    Y=             -0.2181    Z=              0.4264  Tot=              0.4854
 Quadrupole moment (field-independent basis, Debye-Ang):
   XX=            -59.3394   YY=            -61.9834   ZZ=            -71.3424
   XY=              0.2379   XZ=              0.1238   YZ=              0.4686

 Normal termination of Gaussian 16 at Thu Dec  7 20:57:02 2023.
