 Gaussian 16, Revision B.01,
 Gaussian 16:  ES64L-G16RevB.01 20-Dec-2017

 -------------------------
 #P B3LYP/6-311+g(d) force
 -------------------------

 -----
 DPGEN
 -----
 Symbolic Z-matrix:
 Charge =  0 Multiplicity = 2

                         Standard orientation:
 ---------------------------------------------------------------------
 Center     Atomic      Atomic             Coordinates (Angstroms)
 Number     Number       Type             X           Y           Z
 ---------------------------------------------------------------------
      1         11           0       -3.603807   -0.147343   -0.533779
      2         11           0       -0.031070    0.088370   -1.815126
      3         11           0        3.518902   -1.540252   -0.413720
      4         11           0       -1.255314    2.237139    0.639993
      5         11           0        2.120495    2.067230   -0.160695
      6         11           0       -1.463315   -2.410314    0.464123
      7         11           0        0.714109   -0.294830    1.819205
 ---------------------------------------------------------------------

 SCF Done:  E(UB3LYP) =  -1136.12832570     A.U. after   22 cycles

 The electronic state is 2-A.
 Alpha  occ. eigenvalues --  -38.44635 -38.44602 -38.44323 -38.43773 -38.43517
 Alpha  occ. eigenvalues --  -38.43358 -38.42911  -2.20451  -2.20349  -2.20197
 Alpha  occ. eigenvalues --   -2.19635  -2.19360  -2.19283  -2.18785  -1.14116
 Alpha  occ. eigenvalues --   -1.14110  -1.14093  -1.14025  -1.14010  -1.13980
 Alpha  occ. eigenvalues --   -1.13891  -1.13846  -1.13807  -1.13322  -1.13318
 Alpha  occ. eigenvalues --   -1.13241  -1.13068  -1.13020  -1.12993  -1.12954
 Alpha  occ. eigenvalues --   -1.12910  -1.12890  -1.12469  -1.12447  -1.12413
 Alpha  occ. eigenvalues --   -0.18349  -0.13461  -0.11612  -0.10832
 Alpha virt. eigenvalues --   -0.06657  -0.05405  -0.04068  -0.03289  -0.02823
 Alpha virt. eigenvalues --   -0.02464  -0.02223  -0.01293  -0.00592  -0.00169
 Alpha virt. eigenvalues --    0.00036   0.00205   0.00509   0.00689   0.00789

  Beta  occ. eigenvalues --  -38.44625 -38.44598 -38.44267 -38.43766 -38.43501
  Beta  occ. eigenvalues --  -38.43274 -38.42897  -2.20435  -2.20342  -2.20092
  Beta  occ. eigenvalues --   -2.19626  -2.19336  -2.19131  -2.18763  -1.14102
  Beta  occ. eigenvalues --   -1.14099  -1.14079  -1.14018  -1.14000  -1.13977
  Beta  occ. eigenvalues --   -1.13818  -1.13773  -1.13727  -1.13315  -1.13295
  Beta  occ. eigenvalues --   -1.13232  -1.13035  -1.12992  -1.12974  -1.12862
  Beta  occ. eigenvalues --   -1.12802  -1.12776  -1.12454  -1.12412  -1.12394
  Beta  occ. eigenvalues --   -0.17625  -0.13244  -0.11362
  Beta virt. eigenvalues --   -0.07057  -0.06431  -0.05377  -0.03849  -0.02828
  Beta virt. eigenvalues --   -0.02238  -0.01910  -0.01526  -0.01230  -0.00513
  Beta virt. eigenvalues --   -0.00056   0.00044   0.00235   0.00654   0.00745

 Mulliken charges and spin densities:
               1          2
     1  Na   0.170342   0.105025
     2  Na  -0.265488   0.554461
     3  Na  -0.118525  -0.032399
     4  Na  -0.114790   0.039130
     5  Na   0.217143   0.033691
     6  Na  -0.032291  -0.034691
     7  Na   0.143608   0.334783
 Sum of Mulliken charges =  -0.00000   1.00000

 Dipole moment (field-independent basis, Debye):
    X=              0.0214    Y=              0.0532    Z=             -0.3151  Tot=              0.3203
 Quadrupole moment (field-independent basis, Debye-Ang):
   XX=            -50.6902   YY=            -69.6655   ZZ=            -72.9796
   XY=             -0.4539   XZ=             -0.3262   YZ=              0.9682

 Normal termination of Gaussian 16 at Tue Dec  5 17:06:56 2023.
