 Gaussian 16, Revision B.01,
 Gaussian 16:  ES64L-G16RevB.01 20-Dec-2017

 -------------------------
 #P B3LYP/6-311+g(d) force
 -------------------------

 -----
 DPGEN
 -----
 Symbolic Z-matrix:
 Charge =  0 Multiplicity = 2

                         Standard orientation:
 ---------------------------------------------------------------------
 Center     Atomic      Atomic             Coordinates (Angstroms)
 Number     Number       Type             X           Y           Z
 ---------------------------------------------------------------------
      1         11           0       -1.661349   -2.460405   -0.171790
      2         11           0        2.913808    1.259680    0.030954
      3         11           0        0.091437   -0.082739   -1.422901
      4         11           0       -0.078697    2.833378   -0.103186
      5         11           0       -3.266754    0.683522   -0.426340
      6         11           0        2.564013   -2.095280   -0.150005
      7         11           0       -0.562460   -0.138156    2.243268
 ---------------------------------------------------------------------

 SCF Done:  E(UB3LYP) =  -1136.13404994     A.U. after   19 cycles

 The electronic state is 2-A.
 Alpha  occ. eigenvalues --  -38.44593 -38.44014 -38.43868 -38.43729 -38.43694
 Alpha  occ. eigenvalues --  -38.43152 -38.43005  -2.20395  -2.19854  -2.19671
 Alpha  occ. eigenvalues --   -2.19574  -2.19546  -2.19148  -2.18862  -1.14068
 Alpha  occ. eigenvalues --   -1.14042  -1.14039  -1.13533  -1.13521  -1.13503
 Alpha  occ. eigenvalues --   -1.13345  -1.13329  -1.13307  -1.13286  -1.13249
 Alpha  occ. eigenvalues --   -1.13194  -1.13192  -1.13165  -1.13159  -1.12850
 Alpha  occ. eigenvalues --   -1.12817  -1.12762  -1.12547  -1.12518  -1.12486
 Alpha  occ. eigenvalues --   -0.18350  -0.13291  -0.12086  -0.10602
 Alpha virt. eigenvalues --   -0.06061  -0.05445  -0.04407  -0.03216  -0.02603
 Alpha virt. eigenvalues --   -0.02579  -0.01910  -0.01184  -0.00600  -0.00377
 Alpha virt. eigenvalues --   -0.00053   0.00298   0.00710   0.00801   0.00867

  Beta  occ. eigenvalues --  -38.44581 -38.44014 -38.43868 -38.43722 -38.43583
  Beta  occ. eigenvalues --  -38.43108 -38.43001  -2.20376  -2.19856  -2.19674
  Beta  occ. eigenvalues --   -2.19565  -2.19340  -2.19068  -2.18858  -1.14037
  Beta  occ. eigenvalues --   -1.14030  -1.14028  -1.13532  -1.13516  -1.13502
  Beta  occ. eigenvalues --   -1.13339  -1.13329  -1.13310  -1.13277  -1.13210
  Beta  occ. eigenvalues --   -1.13188  -1.13059  -1.13024  -1.13017  -1.12791
  Beta  occ. eigenvalues --   -1.12763  -1.12700  -1.12540  -1.12494  -1.12487
  Beta  occ. eigenvalues --   -0.17665  -0.13084  -0.11887
  Beta virt. eigenvalues --   -0.06630  -0.05992  -0.05419  -0.04388  -0.02497
  Beta virt. eigenvalues --   -0.01883  -0.01815  -0.01460  -0.01121  -0.00643
  Beta virt. eigenvalues --   -0.00407   0.00135   0.00353   0.00792   0.00808

 Mulliken charges and spin densities:
               1          2
     1  Na   0.226048   0.017830
     2  Na   0.106025   0.009042
     3  Na  -0.280113   0.174871
     4  Na   0.120252   0.015390
     5  Na   0.250386   0.045942
     6  Na   0.188823  -0.019124
     7  Na  -0.611421   0.756049
 Sum of Mulliken charges =  -0.00000   1.00000

 Dipole moment (field-independent basis, Debye):
    X=             -0.2311    Y=             -0.1084    Z=              0.1250  Tot=              0.2843
 Quadrupole moment (field-independent basis, Debye-Ang):
   XX=            -53.1111   YY=            -64.2885   ZZ=            -75.5586
   XY=             -0.5600   XZ=              1.6405   YZ=              0.2048

 Normal termination of Gaussian 16 at Thu Dec  7 17:21:10 2023.
