 Gaussian 16, Revision B.01,
 Gaussian 16:  ES64L-G16RevB.01 20-Dec-2017

 -------------------------
 #P B3LYP/6-311+g(d) force
 -------------------------

 -----
 DPGEN
 -----
 Symbolic Z-matrix:
 Charge =  0 Multiplicity = 2

                         Standard orientation:
 ---------------------------------------------------------------------
 Center     Atomic      Atomic             Coordinates (Angstroms)
 Number     Number       Type             X           Y           Z
 ---------------------------------------------------------------------
      1         11           0       -0.240329   -0.170712   -1.653408
      2         11           0        2.346737    1.422517    0.346980
      3         11           0       -0.781223   -2.560963    0.250453
      4         11           0       -3.396697   -0.148800   -0.044799
      5         11           0       -0.582225    2.776330   -0.466926
      6         11           0       -0.096599    0.225856    2.020312
      7         11           0        2.750337   -1.544228   -0.452612
 ---------------------------------------------------------------------

 SCF Done:  E(UB3LYP) =  -1136.13427815     A.U. after   20 cycles

 The electronic state is 2-A.
 Alpha  occ. eigenvalues --  -38.44645 -38.43673 -38.43644 -38.43437 -38.43364
 Alpha  occ. eigenvalues --  -38.43276 -38.43108  -2.20434  -2.19599  -2.19495
 Alpha  occ. eigenvalues --   -2.19365  -2.19275  -2.19248  -2.18979  -1.14112
 Alpha  occ. eigenvalues --   -1.14081  -1.14079  -1.13290  -1.13248  -1.13234
 Alpha  occ. eigenvalues --   -1.13211  -1.13156  -1.13127  -1.13054  -1.13029
 Alpha  occ. eigenvalues --   -1.13016  -1.12977  -1.12955  -1.12921  -1.12881
 Alpha  occ. eigenvalues --   -1.12862  -1.12837  -1.12660  -1.12625  -1.12601
 Alpha  occ. eigenvalues --   -0.18905  -0.13145  -0.12310  -0.11004
 Alpha virt. eigenvalues --   -0.06024  -0.04652  -0.04451  -0.03322  -0.02909
 Alpha virt. eigenvalues --   -0.02652  -0.01857  -0.00912  -0.00218  -0.00063
 Alpha virt. eigenvalues --    0.00034   0.00344   0.00811   0.00889   0.00921

  Beta  occ. eigenvalues --  -38.44645 -38.43638 -38.43578 -38.43427 -38.43354
  Beta  occ. eigenvalues --  -38.43211 -38.43097  -2.20437  -2.19486  -2.19424
  Beta  occ. eigenvalues --   -2.19351  -2.19235  -2.19155  -2.18963  -1.14101
  Beta  occ. eigenvalues --   -1.14084  -1.14079  -1.13233  -1.13181  -1.13133
  Beta  occ. eigenvalues --   -1.13128  -1.13118  -1.13091  -1.13012  -1.13006
  Beta  occ. eigenvalues --   -1.12980  -1.12964  -1.12893  -1.12873  -1.12837
  Beta  occ. eigenvalues --   -1.12808  -1.12783  -1.12638  -1.12603  -1.12588
  Beta  occ. eigenvalues --   -0.18160  -0.12920  -0.12039
  Beta virt. eigenvalues --   -0.07055  -0.05995  -0.04618  -0.04409  -0.02537
  Beta virt. eigenvalues --   -0.02151  -0.01789  -0.01574  -0.00846  -0.00190
  Beta virt. eigenvalues --   -0.00093   0.00120   0.00361   0.00837   0.00915

 Mulliken charges and spin densities:
               1          2
     1  Na  -0.334966   0.517085
     2  Na   0.401319   0.138318
     3  Na   0.166839   0.034770
     4  Na   0.018680  -0.116145
     5  Na   0.040656  -0.069082
     6  Na  -0.308913   0.535807
     7  Na   0.016385  -0.040752
 Sum of Mulliken charges =  -0.00000   1.00000

 Dipole moment (field-independent basis, Debye):
    X=             -0.6576    Y=             -0.0925    Z=              0.1225  Tot=              0.6752
 Quadrupole moment (field-independent basis, Debye-Ang):
   XX=            -54.3402   YY=            -65.8159   ZZ=            -73.1511
   XY=             -0.8861   XZ=             -0.4653   YZ=             -0.5138

 Normal termination of Gaussian 16 at Thu Dec  7 12:24:46 2023.
