 Gaussian 16, Revision B.01,
 Gaussian 16:  ES64L-G16RevB.01 20-Dec-2017

 -------------------------
 #P B3LYP/6-311+g(d) force
 -------------------------

 -----
 DPGEN
 -----
 Symbolic Z-matrix:
 Charge =  0 Multiplicity = 2

                         Standard orientation:
 ---------------------------------------------------------------------
 Center     Atomic      Atomic             Coordinates (Angstroms)
 Number     Number       Type             X           Y           Z
 ---------------------------------------------------------------------
      1         11           0        0.149836   -0.214548    2.068747
      2         11           0        2.355943   -2.104711   -0.369643
      3         11           0       -2.024412   -2.730012   -0.021277
      4         11           0        2.773106    1.144027    0.121777
      5         11           0       -0.509157    3.071876   -0.134888
      6         11           0        0.000722    0.052453   -1.623709
      7         11           0       -2.746037    0.780915   -0.041007
 ---------------------------------------------------------------------

 SCF Done:  E(UB3LYP) =  -1136.13683127     A.U. after   19 cycles

 The electronic state is 2-A.
 Alpha  occ. eigenvalues --  -38.44052 -38.43843 -38.43840 -38.43665 -38.43638
 Alpha  occ. eigenvalues --  -38.43331 -38.43240  -2.19878  -2.19694  -2.19618
 Alpha  occ. eigenvalues --   -2.19550  -2.19506  -2.19202  -2.19183  -1.13559
 Alpha  occ. eigenvalues --   -1.13540  -1.13521  -1.13368  -1.13365  -1.13320
 Alpha  occ. eigenvalues --   -1.13291  -1.13281  -1.13271  -1.13258  -1.13221
 Alpha  occ. eigenvalues --   -1.13175  -1.13169  -1.13131  -1.13119  -1.12898
 Alpha  occ. eigenvalues --   -1.12865  -1.12843  -1.12836  -1.12823  -1.12798
 Alpha  occ. eigenvalues --   -0.18475  -0.13126  -0.12267  -0.10638
 Alpha virt. eigenvalues --   -0.05631  -0.05239  -0.04902  -0.03230  -0.02759
 Alpha virt. eigenvalues --   -0.02518  -0.01455  -0.01376  -0.00537  -0.00358
 Alpha virt. eigenvalues --   -0.00016   0.00351   0.00796   0.00820   0.00846

  Beta  occ. eigenvalues --  -38.44043 -38.43845 -38.43833 -38.43659 -38.43541
  Beta  occ. eigenvalues --  -38.43329 -38.43179  -2.19864  -2.19686  -2.19625
  Beta  occ. eigenvalues --   -2.19542  -2.19328  -2.19182  -2.19090  -1.13548
  Beta  occ. eigenvalues --   -1.13520  -1.13508  -1.13364  -1.13330  -1.13316
  Beta  occ. eigenvalues --   -1.13288  -1.13280  -1.13274  -1.13253  -1.13197
  Beta  occ. eigenvalues --   -1.13167  -1.13055  -1.13007  -1.12989  -1.12861
  Beta  occ. eigenvalues --   -1.12841  -1.12811  -1.12803  -1.12756  -1.12729
  Beta  occ. eigenvalues --   -0.17745  -0.12888  -0.12075
  Beta virt. eigenvalues --   -0.06719  -0.05623  -0.05132  -0.04909  -0.02421
  Beta virt. eigenvalues --   -0.02055  -0.01507  -0.01340  -0.01278  -0.00595
  Beta virt. eigenvalues --   -0.00391   0.00131   0.00376   0.00808   0.00848

 Mulliken charges and spin densities:
               1          2
     1  Na  -0.463453   0.726344
     2  Na   0.077560  -0.079243
     3  Na  -0.017706  -0.107339
     4  Na   0.258505   0.044186
     5  Na   0.134534  -0.005074
     6  Na  -0.175707   0.427958
     7  Na   0.186267  -0.006831
 Sum of Mulliken charges =  -0.00000   1.00000

 Dipole moment (field-independent basis, Debye):
    X=              0.2548    Y=             -0.2486    Z=              0.0985  Tot=              0.3693
 Quadrupole moment (field-independent basis, Debye-Ang):
   XX=            -59.1169   YY=            -59.0483   ZZ=            -75.1869
   XY=              0.1728   XZ=             -0.3428   YZ=              0.7016

 Normal termination of Gaussian 16 at Thu Dec  7 07:19:17 2023.
