 Gaussian 16, Revision B.01,
 Gaussian 16:  ES64L-G16RevB.01 20-Dec-2017

 -------------------------
 #P B3LYP/6-311+g(d) force
 -------------------------

 -----
 DPGEN
 -----
 Symbolic Z-matrix:
 Charge =  0 Multiplicity = 2

                         Standard orientation:
 ---------------------------------------------------------------------
 Center     Atomic      Atomic             Coordinates (Angstroms)
 Number     Number       Type             X           Y           Z
 ---------------------------------------------------------------------
      1         11           0       -1.240950   -0.362756   -1.461458
      2         11           0       -3.670317   -2.350273   -0.326859
      3         11           0       -2.444597    0.676377    1.851781
      4         11           0       -0.006228    3.592272    0.812921
      5         11           0        1.640028    1.954555   -1.632127
      6         11           0        2.086473   -1.391415   -0.934607
      7         11           0        3.635591   -2.118760    1.690348
 ---------------------------------------------------------------------

 SCF Done:  E(UB3LYP) =  -1136.11786910     A.U. after   20 cycles

 The electronic state is 2-A.
 Alpha  occ. eigenvalues --  -38.45154 -38.44619 -38.44236 -38.44124 -38.44073
 Alpha  occ. eigenvalues --  -38.43807 -38.43156  -2.20918  -2.20395  -2.20087
 Alpha  occ. eigenvalues --   -2.19949  -2.19889  -2.19579  -2.19002  -1.14600
 Alpha  occ. eigenvalues --   -1.14587  -1.14507  -1.14071  -1.14059  -1.14020
 Alpha  occ. eigenvalues --   -1.13783  -1.13758  -1.13688  -1.13621  -1.13605
 Alpha  occ. eigenvalues --   -1.13583  -1.13540  -1.13518  -1.13518  -1.13256
 Alpha  occ. eigenvalues --   -1.13230  -1.13226  -1.12680  -1.12677  -1.12663
 Alpha  occ. eigenvalues --   -0.16736  -0.13419  -0.12290  -0.11188
 Alpha virt. eigenvalues --   -0.06530  -0.05361  -0.04536  -0.03662  -0.02741
 Alpha virt. eigenvalues --   -0.02558  -0.02094  -0.01238  -0.01053  -0.00490
 Alpha virt. eigenvalues --   -0.00192  -0.00078   0.00185   0.00399   0.00583

  Beta  occ. eigenvalues --  -38.45100 -38.44613 -38.44199 -38.44101 -38.43992
  Beta  occ. eigenvalues --  -38.43804 -38.43160  -2.20818  -2.20386  -2.20021
  Beta  occ. eigenvalues --   -2.19908  -2.19737  -2.19574  -2.19018  -1.14532
  Beta  occ. eigenvalues --   -1.14521  -1.14429  -1.14060  -1.14053  -1.14016
  Beta  occ. eigenvalues --   -1.13745  -1.13709  -1.13628  -1.13594  -1.13578
  Beta  occ. eigenvalues --   -1.13554  -1.13442  -1.13415  -1.13414  -1.13254
  Beta  occ. eigenvalues --   -1.13230  -1.13212  -1.12699  -1.12691  -1.12616
  Beta  occ. eigenvalues --   -0.16156  -0.13011  -0.11889
  Beta virt. eigenvalues --   -0.07807  -0.06216  -0.04938  -0.04136  -0.03426
  Beta virt. eigenvalues --   -0.02556  -0.02090  -0.01984  -0.00995  -0.00710
  Beta virt. eigenvalues --   -0.00399   0.00109   0.00144   0.00268   0.00556

 Mulliken charges and spin densities:
               1          2
     1  Na  -0.698281   0.183466
     2  Na   0.360283   0.054036
     3  Na  -0.047477   0.357782
     4  Na  -0.326827   0.091659
     5  Na   0.874824  -0.087044
     6  Na  -0.297874   0.031366
     7  Na   0.135352   0.368735
 Sum of Mulliken charges =  -0.00000   1.00000

 Dipole moment (field-independent basis, Debye):
    X=             -1.1404    Y=             -0.2176    Z=              0.4833  Tot=              1.2576
 Quadrupole moment (field-independent basis, Debye-Ang):
   XX=            -63.6700   YY=            -67.1976   ZZ=            -65.3904
   XY=              8.6526   XZ=             -0.1774   YZ=             -1.3475

 Normal termination of Gaussian 16 at Sun Dec  3 16:18:35 2023.
