 Gaussian 16, Revision B.01,
 Gaussian 16:  ES64L-G16RevB.01 20-Dec-2017

 -------------------------
 #P B3LYP/6-311+g(d) force
 -------------------------

 -----
 DPGEN
 -----
 Symbolic Z-matrix:
 Charge =  0 Multiplicity = 2

                         Standard orientation:
 ---------------------------------------------------------------------
 Center     Atomic      Atomic             Coordinates (Angstroms)
 Number     Number       Type             X           Y           Z
 ---------------------------------------------------------------------
      1         11           0        0.258602   -0.064463    1.953802
      2         11           0       -2.404104    1.701458    0.174274
      3         11           0        0.795277    2.532263   -0.144600
      4         11           0        3.143367   -0.019058   -0.127027
      5         11           0       -2.565127   -1.570599   -0.166802
      6         11           0        0.743281   -2.521120    0.068065
      7         11           0        0.028705   -0.058481   -1.757712
 ---------------------------------------------------------------------

 SCF Done:  E(UB3LYP) =  -1136.13832726     A.U. after   18 cycles

 The electronic state is 2-A.
 Alpha  occ. eigenvalues --  -38.44045 -38.43601 -38.43536 -38.43500 -38.43305
 Alpha  occ. eigenvalues --  -38.43070 -38.43007  -2.19899  -2.19492  -2.19466
 Alpha  occ. eigenvalues --   -2.19373  -2.19319  -2.19003  -2.18926  -1.13568
 Alpha  occ. eigenvalues --   -1.13560  -1.13546  -1.13189  -1.13163  -1.13142
 Alpha  occ. eigenvalues --   -1.13138  -1.13117  -1.13093  -1.13047  -1.13030
 Alpha  occ. eigenvalues --   -1.13007  -1.13007  -1.12991  -1.12917  -1.12687
 Alpha  occ. eigenvalues --   -1.12670  -1.12611  -1.12600  -1.12588  -1.12539
 Alpha  occ. eigenvalues --   -0.19274  -0.13183  -0.12541  -0.11044
 Alpha virt. eigenvalues --   -0.05621  -0.04911  -0.04361  -0.03249  -0.02966
 Alpha virt. eigenvalues --   -0.02672  -0.01581  -0.00889  -0.00072  -0.00013
 Alpha virt. eigenvalues --    0.00017   0.00360   0.00842   0.00950   0.00961

  Beta  occ. eigenvalues --  -38.44041 -38.43598 -38.43497 -38.43445 -38.43228
  Beta  occ. eigenvalues --  -38.43060 -38.42998  -2.19894  -2.19464  -2.19370
  Beta  occ. eigenvalues --   -2.19325  -2.19179  -2.18989  -2.18915  -1.13560
  Beta  occ. eigenvalues --   -1.13550  -1.13533  -1.13165  -1.13128  -1.13105
  Beta  occ. eigenvalues --   -1.13074  -1.13049  -1.13019  -1.13010  -1.13003
  Beta  occ. eigenvalues --   -1.12972  -1.12920  -1.12900  -1.12816  -1.12673
  Beta  occ. eigenvalues --   -1.12620  -1.12600  -1.12595  -1.12548  -1.12534
  Beta  occ. eigenvalues --   -0.18512  -0.12940  -0.12256
  Beta virt. eigenvalues --   -0.07075  -0.05591  -0.04917  -0.04357  -0.02444
  Beta virt. eigenvalues --   -0.02116  -0.01584  -0.01498  -0.00833  -0.00090
  Beta virt. eigenvalues --   -0.00065   0.00112   0.00377   0.00895   0.00931

 Mulliken charges and spin densities:
               1          2
     1  Na  -0.576689   0.727731
     2  Na   0.074132  -0.045303
     3  Na   0.232415  -0.063805
     4  Na   0.252469  -0.085802
     5  Na   0.143445  -0.068284
     6  Na   0.352273  -0.080817
     7  Na  -0.478044   0.616281
 Sum of Mulliken charges =  -0.00000   1.00000

 Dipole moment (field-independent basis, Debye):
    X=              0.1545    Y=             -0.0365    Z=              0.0957  Tot=              0.1854
 Quadrupole moment (field-independent basis, Debye-Ang):
   XX=            -55.2790   YY=            -65.7370   ZZ=            -72.8170
   XY=              0.1603   XZ=             -0.5636   YZ=              0.2165

 Normal termination of Gaussian 16 at Thu Dec  7 12:20:18 2023.
