 Gaussian 16, Revision B.01,
 Gaussian 16:  ES64L-G16RevB.01 20-Dec-2017

 -------------------------
 #P B3LYP/6-311+g(d) force
 -------------------------

 -----
 DPGEN
 -----
 Symbolic Z-matrix:
 Charge =  0 Multiplicity = 2

                         Standard orientation:
 ---------------------------------------------------------------------
 Center     Atomic      Atomic             Coordinates (Angstroms)
 Number     Number       Type             X           Y           Z
 ---------------------------------------------------------------------
      1         11           0       -3.166690   -0.402098    0.146524
      2         11           0        2.967277   -1.052494    0.536095
      3         11           0       -0.356455   -2.906449   -0.752758
      4         11           0        2.002489    2.272592   -0.007223
      5         11           0       -0.492514   -0.426371    1.986666
      6         11           0       -1.507227    2.590887   -0.317389
      7         11           0        0.553121   -0.076067   -1.591914
 ---------------------------------------------------------------------

 SCF Done:  E(UB3LYP) =  -1136.13599491     A.U. after   20 cycles

 The electronic state is 2-A.
 Alpha  occ. eigenvalues --  -38.44106 -38.44047 -38.43788 -38.43555 -38.43540
 Alpha  occ. eigenvalues --  -38.43437 -38.43147  -2.19932  -2.19876  -2.19665
 Alpha  occ. eigenvalues --   -2.19407  -2.19389  -2.19264  -2.19136  -1.13603
 Alpha  occ. eigenvalues --   -1.13596  -1.13580  -1.13565  -1.13535  -1.13509
 Alpha  occ. eigenvalues --   -1.13330  -1.13296  -1.13282  -1.13144  -1.13112
 Alpha  occ. eigenvalues --   -1.13068  -1.13035  -1.13026  -1.13004  -1.12945
 Alpha  occ. eigenvalues --   -1.12927  -1.12895  -1.12801  -1.12766  -1.12747
 Alpha  occ. eigenvalues --   -0.18434  -0.13062  -0.12448  -0.10762
 Alpha virt. eigenvalues --   -0.05675  -0.05153  -0.04759  -0.03320  -0.02925
 Alpha virt. eigenvalues --   -0.02459  -0.01547  -0.01127  -0.00498  -0.00319
 Alpha virt. eigenvalues --   -0.00003   0.00353   0.00805   0.00839   0.00885

  Beta  occ. eigenvalues --  -38.44091 -38.44043 -38.43712 -38.43553 -38.43512
  Beta  occ. eigenvalues --  -38.43433 -38.43086  -2.19905  -2.19873  -2.19524
  Beta  occ. eigenvalues --   -2.19405  -2.19341  -2.19259  -2.19027  -1.13587
  Beta  occ. eigenvalues --   -1.13563  -1.13561  -1.13548  -1.13529  -1.13505
  Beta  occ. eigenvalues --   -1.13236  -1.13201  -1.13178  -1.13120  -1.13079
  Beta  occ. eigenvalues --   -1.13063  -1.13025  -1.12982  -1.12975  -1.12935
  Beta  occ. eigenvalues --   -1.12922  -1.12887  -1.12728  -1.12687  -1.12668
  Beta  occ. eigenvalues --   -0.17760  -0.12835  -0.12157
  Beta virt. eigenvalues --   -0.06936  -0.05559  -0.05141  -0.04648  -0.02599
  Beta virt. eigenvalues --   -0.02246  -0.01514  -0.01378  -0.01034  -0.00493
  Beta virt. eigenvalues --   -0.00344   0.00132   0.00401   0.00844   0.00857

 Mulliken charges and spin densities:
               1          2
     1  Na   0.220915  -0.001521
     2  Na   0.080236   0.106806
     3  Na   0.051853  -0.028001
     4  Na   0.040935  -0.007971
     5  Na  -0.339141   0.623393
     6  Na  -0.101720  -0.078884
     7  Na   0.046921   0.386177
 Sum of Mulliken charges =  -0.00000   1.00000

 Dipole moment (field-independent basis, Debye):
    X=              0.0225    Y=             -0.1677    Z=              0.2621  Tot=              0.3120
 Quadrupole moment (field-independent basis, Debye-Ang):
   XX=            -56.7472   YY=            -63.0394   ZZ=            -74.0162
   XY=              0.0168   XZ=              2.3659   YZ=              0.3799

 Normal termination of Gaussian 16 at Thu Dec  7 13:52:55 2023.
