 Gaussian 16, Revision B.01,
 Gaussian 16:  ES64L-G16RevB.01 20-Dec-2017

 -------------------------
 #P B3LYP/6-311+g(d) force
 -------------------------

 -----
 DPGEN
 -----
 Symbolic Z-matrix:
 Charge =  0 Multiplicity = 2

                         Standard orientation:
 ---------------------------------------------------------------------
 Center     Atomic      Atomic             Coordinates (Angstroms)
 Number     Number       Type             X           Y           Z
 ---------------------------------------------------------------------
      1         11           0       -2.004214    2.110404    0.357446
      2         11           0        1.199755   -2.405322   -0.515507
      3         11           0        0.033821   -0.703831    2.253504
      4         11           0        1.236541    2.521259   -0.360790
      5         11           0        3.160888   -0.101291   -0.013822
      6         11           0       -0.519263   -0.028840   -1.390525
      7         11           0       -3.107528   -1.392378   -0.330307
 ---------------------------------------------------------------------

 SCF Done:  E(UB3LYP) =  -1136.12886597     A.U. after   20 cycles

 The electronic state is 2-A.
 Alpha  occ. eigenvalues --  -38.44422 -38.44253 -38.43931 -38.43807 -38.43573
 Alpha  occ. eigenvalues --  -38.43101 -38.42961  -2.20233  -2.20119  -2.19779
 Alpha  occ. eigenvalues --   -2.19669  -2.19484  -2.19157  -2.18837  -1.13936
 Alpha  occ. eigenvalues --   -1.13876  -1.13866  -1.13818  -1.13778  -1.13764
 Alpha  occ. eigenvalues --   -1.13435  -1.13412  -1.13393  -1.13386  -1.13327
 Alpha  occ. eigenvalues --   -1.13288  -1.13222  -1.13121  -1.13106  -1.12826
 Alpha  occ. eigenvalues --   -1.12800  -1.12791  -1.12515  -1.12489  -1.12477
 Alpha  occ. eigenvalues --   -0.18724  -0.13360  -0.12258  -0.10879
 Alpha virt. eigenvalues --   -0.06031  -0.05305  -0.04171  -0.03379  -0.02879
 Alpha virt. eigenvalues --   -0.02579  -0.01832  -0.01068  -0.00319  -0.00129
 Alpha virt. eigenvalues --   -0.00009   0.00303   0.00743   0.00843   0.00908

  Beta  occ. eigenvalues --  -38.44417 -38.44252 -38.43824 -38.43801 -38.43561
  Beta  occ. eigenvalues --  -38.43053 -38.42957  -2.20226  -2.20118  -2.19660
  Beta  occ. eigenvalues --   -2.19581  -2.19466  -2.19071  -2.18832  -1.13923
  Beta  occ. eigenvalues --   -1.13864  -1.13863  -1.13821  -1.13779  -1.13743
  Beta  occ. eigenvalues --   -1.13380  -1.13308  -1.13301  -1.13286  -1.13272
  Beta  occ. eigenvalues --   -1.13253  -1.13200  -1.13100  -1.13078  -1.12758
  Beta  occ. eigenvalues --   -1.12742  -1.12728  -1.12506  -1.12483  -1.12466
  Beta  occ. eigenvalues --   -0.18024  -0.13165  -0.12031
  Beta virt. eigenvalues --   -0.06896  -0.05971  -0.05244  -0.04138  -0.02610
  Beta virt. eigenvalues --   -0.02088  -0.01769  -0.01541  -0.00993  -0.00346
  Beta virt. eigenvalues --   -0.00109   0.00139   0.00352   0.00804   0.00869

 Mulliken charges and spin densities:
               1          2
     1  Na   0.064346   0.156448
     2  Na   0.578841   0.117950
     3  Na  -0.681629   0.646662
     4  Na   0.182496   0.046658
     5  Na   0.048516   0.067702
     6  Na  -0.426427  -0.067692
     7  Na   0.233858   0.032271
 Sum of Mulliken charges =  -0.00000   1.00000

 Dipole moment (field-independent basis, Debye):
    X=             -0.3600    Y=             -0.2621    Z=              0.3746  Tot=              0.5819
 Quadrupole moment (field-independent basis, Debye-Ang):
   XX=            -53.6136   YY=            -66.4261   ZZ=            -73.8601
   XY=              0.5722   XZ=             -0.9475   YZ=              1.3390

 Normal termination of Gaussian 16 at Thu Dec  7 04:01:28 2023.
