 Gaussian 16, Revision B.01,
 Gaussian 16:  ES64L-G16RevB.01 20-Dec-2017

 -------------------------
 #P B3LYP/6-311+g(d) force
 -------------------------

 -----
 DPGEN
 -----
 Symbolic Z-matrix:
 Charge =  0 Multiplicity = 2

                         Standard orientation:
 ---------------------------------------------------------------------
 Center     Atomic      Atomic             Coordinates (Angstroms)
 Number     Number       Type             X           Y           Z
 ---------------------------------------------------------------------
      1         11           0       -0.014424   -0.591977   -1.836413
      2         11           0       -1.673823   -2.403707    0.243983
      3         11           0       -3.770590    0.485192   -0.463608
      4         11           0        0.546807   -0.749043    1.923664
      5         11           0        3.736004   -1.022643   -0.245634
      6         11           0       -1.420723    2.263119    0.617791
      7         11           0        2.596749    2.019059   -0.239782
 ---------------------------------------------------------------------

 SCF Done:  E(UB3LYP) =  -1136.11947484     A.U. after   23 cycles

 The electronic state is 2-A.
 Alpha  occ. eigenvalues --  -38.45444 -38.44871 -38.44833 -38.44317 -38.43455
 Alpha  occ. eigenvalues --  -38.43031 -38.42972  -2.21229  -2.20693  -2.20641
 Alpha  occ. eigenvalues --   -2.20111  -2.19330  -2.18899  -2.18796  -1.14896
 Alpha  occ. eigenvalues --   -1.14891  -1.14863  -1.14380  -1.14352  -1.14320
 Alpha  occ. eigenvalues --   -1.14308  -1.14304  -1.14267  -1.13789  -1.13770
 Alpha  occ. eigenvalues --   -1.13758  -1.13003  -1.12961  -1.12953  -1.12577
 Alpha  occ. eigenvalues --   -1.12564  -1.12531  -1.12468  -1.12456  -1.12445
 Alpha  occ. eigenvalues --   -0.17836  -0.13873  -0.11350  -0.10673
 Alpha virt. eigenvalues --   -0.07213  -0.05623  -0.04022  -0.03321  -0.03058
 Alpha virt. eigenvalues --   -0.02523  -0.02400  -0.01429  -0.00757  -0.00347
 Alpha virt. eigenvalues --    0.00004   0.00088   0.00355   0.00591   0.00686

  Beta  occ. eigenvalues --  -38.45433 -38.44829 -38.44826 -38.44314 -38.43362
  Beta  occ. eigenvalues --  -38.43027 -38.42957  -2.21209  -2.20627  -2.20615
  Beta  occ. eigenvalues --   -2.20108  -2.19158  -2.18896  -2.18771  -1.14884
  Beta  occ. eigenvalues --   -1.14864  -1.14851  -1.14323  -1.14311  -1.14301
  Beta  occ. eigenvalues --   -1.14294  -1.14257  -1.14245  -1.13785  -1.13771
  Beta  occ. eigenvalues --   -1.13738  -1.12891  -1.12841  -1.12827  -1.12579
  Beta  occ. eigenvalues --   -1.12546  -1.12512  -1.12454  -1.12439  -1.12413
  Beta  occ. eigenvalues --   -0.17165  -0.13654  -0.11145
  Beta virt. eigenvalues --   -0.07121  -0.06820  -0.05583  -0.03596  -0.02992
  Beta virt. eigenvalues --   -0.02748  -0.01892  -0.01596  -0.01389  -0.00724
  Beta virt. eigenvalues --   -0.00133   0.00009   0.00133   0.00509   0.00687

 Mulliken charges and spin densities:
               1          2
     1  Na  -0.194953   0.301593
     2  Na   0.357187   0.032380
     3  Na   0.071193   0.083746
     4  Na  -0.170411   0.503986
     5  Na   0.273383   0.057795
     6  Na  -0.198351  -0.035243
     7  Na  -0.138048   0.055743
 Sum of Mulliken charges =  -0.00000   1.00000

 Dipole moment (field-independent basis, Debye):
    X=              0.8595    Y=             -0.6105    Z=             -0.3997  Tot=              1.1275
 Quadrupole moment (field-independent basis, Debye-Ang):
   XX=            -49.2498   YY=            -73.0253   ZZ=            -73.0901
   XY=              0.6617   XZ=              0.6643   YZ=             -0.5899

 Normal termination of Gaussian 16 at Tue Dec  5 21:06:27 2023.
