 Gaussian 16, Revision B.01,
 Gaussian 16:  ES64L-G16RevB.01 20-Dec-2017

 -------------------------
 #P B3LYP/6-311+g(d) force
 -------------------------

 -----
 DPGEN
 -----
 Symbolic Z-matrix:
 Charge =  0 Multiplicity = 2

                         Standard orientation:
 ---------------------------------------------------------------------
 Center     Atomic      Atomic             Coordinates (Angstroms)
 Number     Number       Type             X           Y           Z
 ---------------------------------------------------------------------
      1         11           0       -2.575006    1.669085   -0.135315
      2         11           0        0.180093   -0.354858    2.028639
      3         11           0        0.239986    0.369019   -1.620708
      4         11           0       -2.557558   -1.748901   -0.297176
      5         11           0        3.472267    0.020592   -0.378282
      6         11           0        0.675770   -2.664356    0.011092
      7         11           0        0.564448    2.709418    0.391750
 ---------------------------------------------------------------------

 SCF Done:  E(UB3LYP) =  -1136.13586342     A.U. after   19 cycles

 The electronic state is 2-A.
 Alpha  occ. eigenvalues --  -38.44406 -38.43629 -38.43616 -38.43582 -38.43423
 Alpha  occ. eigenvalues --  -38.43376 -38.43341  -2.20186  -2.19495  -2.19480
 Alpha  occ. eigenvalues --   -2.19454  -2.19313  -2.19303  -2.19261  -1.13862
 Alpha  occ. eigenvalues --   -1.13835  -1.13824  -1.13207  -1.13178  -1.13161
 Alpha  occ. eigenvalues --   -1.13151  -1.13136  -1.13127  -1.13113  -1.13093
 Alpha  occ. eigenvalues --   -1.13085  -1.13084  -1.12991  -1.12964  -1.12931
 Alpha  occ. eigenvalues --   -1.12928  -1.12917  -1.12899  -1.12895  -1.12859
 Alpha  occ. eigenvalues --   -0.18652  -0.12844  -0.12628  -0.10778
 Alpha virt. eigenvalues --   -0.05883  -0.04950  -0.04660  -0.03090  -0.03019
 Alpha virt. eigenvalues --   -0.02503  -0.01832  -0.01023  -0.00283  -0.00258
 Alpha virt. eigenvalues --   -0.00034   0.00313   0.00791   0.00877   0.00885

  Beta  occ. eigenvalues --  -38.44396 -38.43626 -38.43611 -38.43486 -38.43410
  Beta  occ. eigenvalues --  -38.43368 -38.43287  -2.20171  -2.19479  -2.19447
  Beta  occ. eigenvalues --   -2.19317  -2.19288  -2.19251  -2.19210  -1.13836
  Beta  occ. eigenvalues --   -1.13827  -1.13816  -1.13172  -1.13160  -1.13125
  Beta  occ. eigenvalues --   -1.13123  -1.13104  -1.13088  -1.13077  -1.13061
  Beta  occ. eigenvalues --   -1.13016  -1.12978  -1.12940  -1.12922  -1.12904
  Beta  occ. eigenvalues --   -1.12895  -1.12877  -1.12859  -1.12844  -1.12830
  Beta  occ. eigenvalues --   -0.17941  -0.12579  -0.12393
  Beta virt. eigenvalues --   -0.06906  -0.05794  -0.04941  -0.04589  -0.02354
  Beta virt. eigenvalues --   -0.02277  -0.01710  -0.01469  -0.00967  -0.00300
  Beta virt. eigenvalues --   -0.00288   0.00107   0.00354   0.00840   0.00871

 Mulliken charges and spin densities:
               1          2
     1  Na   0.132886  -0.026164
     2  Na  -0.347302   0.573998
     3  Na  -0.397793   0.568571
     4  Na   0.000584  -0.032464
     5  Na   0.108581  -0.060555
     6  Na   0.274757  -0.027913
     7  Na   0.228286   0.004526
 Sum of Mulliken charges =  -0.00000   1.00000

 Dipole moment (field-independent basis, Debye):
    X=              0.3171    Y=              0.0387    Z=              0.0770  Tot=              0.3286
 Quadrupole moment (field-independent basis, Debye-Ang):
   XX=            -55.0035   YY=            -64.3533   ZZ=            -74.0098
   XY=              0.0115   XZ=              0.1383   YZ=              1.5355

 Normal termination of Gaussian 16 at Thu Dec  7 07:04:03 2023.
