 Gaussian 16, Revision B.01,
 Gaussian 16:  ES64L-G16RevB.01 20-Dec-2017

 -------------------------
 #P B3LYP/6-311+g(d) force
 -------------------------

 -----
 DPGEN
 -----
 Symbolic Z-matrix:
 Charge =  0 Multiplicity = 2

                         Standard orientation:
 ---------------------------------------------------------------------
 Center     Atomic      Atomic             Coordinates (Angstroms)
 Number     Number       Type             X           Y           Z
 ---------------------------------------------------------------------
      1         11           0       -3.910492   -1.494725   -0.541283
      2         11           0        5.226664    1.302979   -0.769045
      3         11           0       -0.460808   -2.074270    0.527499
      4         11           0       -1.153768    0.695560   -0.088206
      5         11           0       -4.765708    2.299245    0.019489
      6         11           0        2.537923   -0.859598   -1.203853
      7         11           0        2.526189    0.130810    2.055400
 ---------------------------------------------------------------------

 SCF Done:  E(UB3LYP) =  -1136.11058888     A.U. after   23 cycles

 The electronic state is 2-A.
 Alpha  occ. eigenvalues --  -38.45303 -38.45036 -38.44940 -38.44601 -38.43632
 Alpha  occ. eigenvalues --  -38.43375 -38.43324  -2.21096  -2.20893  -2.20767
 Alpha  occ. eigenvalues --   -2.20392  -2.19396  -2.19223  -2.19156  -1.14782
 Alpha  occ. eigenvalues --   -1.14754  -1.14692  -1.14644  -1.14582  -1.14479
 Alpha  occ. eigenvalues --   -1.14470  -1.14440  -1.14351  -1.14078  -1.14050
 Alpha  occ. eigenvalues --   -1.14001  -1.13062  -1.13056  -1.13008  -1.12956
 Alpha  occ. eigenvalues --   -1.12883  -1.12824  -1.12818  -1.12815  -1.12783
 Alpha  occ. eigenvalues --   -0.17173  -0.14249  -0.11350  -0.10314
 Alpha virt. eigenvalues --   -0.07087  -0.06038  -0.04692  -0.03239  -0.02967
 Alpha virt. eigenvalues --   -0.02423  -0.02166  -0.01564  -0.01190  -0.00954
 Alpha virt. eigenvalues --   -0.00290  -0.00108   0.00112   0.00300   0.00440

  Beta  occ. eigenvalues --  -38.45254 -38.45028 -38.44931 -38.44568 -38.43589
  Beta  occ. eigenvalues --  -38.43355 -38.43312  -2.21005  -2.20881  -2.20749
  Beta  occ. eigenvalues --   -2.20334  -2.19315  -2.19206  -2.19120  -1.14719
  Beta  occ. eigenvalues --   -1.14693  -1.14628  -1.14626  -1.14559  -1.14467
  Beta  occ. eigenvalues --   -1.14462  -1.14421  -1.14342  -1.14041  -1.14012
  Beta  occ. eigenvalues --   -1.13945  -1.13006  -1.12997  -1.12958  -1.12950
  Beta  occ. eigenvalues --   -1.12878  -1.12800  -1.12788  -1.12763  -1.12762
  Beta  occ. eigenvalues --   -0.16804  -0.13831  -0.10955
  Beta virt. eigenvalues --   -0.07040  -0.06574  -0.05851  -0.04401  -0.02994
  Beta virt. eigenvalues --   -0.02757  -0.01976  -0.01775  -0.01376  -0.00846
  Beta virt. eigenvalues --   -0.00803  -0.00184   0.00105   0.00268   0.00425

 Mulliken charges and spin densities:
               1          2
     1  Na   0.212931   0.103312
     2  Na   0.072705  -0.011844
     3  Na   0.438875   0.209784
     4  Na  -1.597961   0.265060
     5  Na   0.134127   0.218547
     6  Na   0.478493   0.069556
     7  Na   0.260830   0.145585
 Sum of Mulliken charges =  -0.00000   1.00000

 Dipole moment (field-independent basis, Debye):
    X=              0.1794    Y=             -0.8165    Z=              0.6568  Tot=              1.0631
 Quadrupole moment (field-independent basis, Debye-Ang):
   XX=            -70.2625   YY=            -67.5351   ZZ=            -67.7932
   XY=              3.8974   XZ=              4.5401   YZ=              0.5567

 Normal termination of Gaussian 16 at Tue Dec  5 17:09:23 2023.
