 Gaussian 16, Revision B.01,
 Gaussian 16:  ES64L-G16RevB.01 20-Dec-2017

 -------------------------
 #P B3LYP/6-311+g(d) force
 -------------------------

 -----
 DPGEN
 -----
 Symbolic Z-matrix:
 Charge =  0 Multiplicity = 2

                         Standard orientation:
 ---------------------------------------------------------------------
 Center     Atomic      Atomic             Coordinates (Angstroms)
 Number     Number       Type             X           Y           Z
 ---------------------------------------------------------------------
      1         11           0        0.579648   -2.674590   -0.057653
      2         11           0       -1.972403    2.169288    0.006120
      3         11           0        1.847866    2.672419   -0.104218
      4         11           0        3.207799   -0.602568   -0.155105
      5         11           0       -0.161386   -0.407686   -1.563977
      6         11           0       -0.027532   -0.365897    2.030015
      7         11           0       -3.473993   -0.790965   -0.155182
 ---------------------------------------------------------------------

 SCF Done:  E(UB3LYP) =  -1136.12814566     A.U. after   21 cycles

 The electronic state is 2-A.
 Alpha  occ. eigenvalues --  -38.44800 -38.44606 -38.43800 -38.43615 -38.43507
 Alpha  occ. eigenvalues --  -38.43315 -38.43271  -2.20593  -2.20428  -2.19629
 Alpha  occ. eigenvalues --   -2.19593  -2.19403  -2.19220  -2.19096  -1.14260
 Alpha  occ. eigenvalues --   -1.14258  -1.14230  -1.14101  -1.14085  -1.14072
 Alpha  occ. eigenvalues --   -1.13436  -1.13321  -1.13302  -1.13255  -1.13241
 Alpha  occ. eigenvalues --   -1.13173  -1.13097  -1.13036  -1.13008  -1.12866
 Alpha  occ. eigenvalues --   -1.12846  -1.12807  -1.12770  -1.12757  -1.12745
 Alpha  occ. eigenvalues --   -0.18476  -0.13406  -0.12057  -0.10526
 Alpha virt. eigenvalues --   -0.06353  -0.05320  -0.04448  -0.03265  -0.02544
 Alpha virt. eigenvalues --   -0.02440  -0.02187  -0.01144  -0.00459  -0.00429
 Alpha virt. eigenvalues --   -0.00047   0.00280   0.00710   0.00800   0.00845

  Beta  occ. eigenvalues --  -38.44798 -38.44601 -38.43796 -38.43558 -38.43404
  Beta  occ. eigenvalues --  -38.43317 -38.43258  -2.20591  -2.20422  -2.19624
  Beta  occ. eigenvalues --   -2.19490  -2.19214  -2.19201  -2.19101  -1.14260
  Beta  occ. eigenvalues --   -1.14242  -1.14230  -1.14084  -1.14074  -1.14072
  Beta  occ. eigenvalues --   -1.13376  -1.13312  -1.13281  -1.13254  -1.13164
  Beta  occ. eigenvalues --   -1.13097  -1.12982  -1.12904  -1.12877  -1.12839
  Beta  occ. eigenvalues --   -1.12802  -1.12776  -1.12765  -1.12761  -1.12748
  Beta  occ. eigenvalues --   -0.17756  -0.13194  -0.11845
  Beta virt. eigenvalues --   -0.06604  -0.06273  -0.05321  -0.04398  -0.02509
  Beta virt. eigenvalues --   -0.02090  -0.01843  -0.01367  -0.01104  -0.00484
  Beta virt. eigenvalues --   -0.00456   0.00126   0.00324   0.00769   0.00813

 Mulliken charges and spin densities:
               1          2
     1  Na   0.598286  -0.031800
     2  Na  -0.136750  -0.024296
     3  Na  -0.191401  -0.068212
     4  Na   0.114765   0.007006
     5  Na  -0.239726   0.471212
     6  Na  -0.440272   0.700408
     7  Na   0.295099  -0.054318
 Sum of Mulliken charges =  -0.00000   1.00000

 Dipole moment (field-independent basis, Debye):
    X=             -0.3855    Y=             -0.2799    Z=              0.1141  Tot=              0.4898
 Quadrupole moment (field-independent basis, Debye-Ang):
   XX=            -51.0746   YY=            -66.0097   ZZ=            -75.9784
   XY=             -0.1292   XZ=             -0.1830   YZ=              0.0224

 Normal termination of Gaussian 16 at Tue Dec  5 14:28:41 2023.
