 Gaussian 16, Revision B.01,
 Gaussian 16:  ES64L-G16RevB.01 20-Dec-2017

 -------------------------
 #P B3LYP/6-311+g(d) force
 -------------------------

 -----
 DPGEN
 -----
 Symbolic Z-matrix:
 Charge =  0 Multiplicity = 2

                         Standard orientation:
 ---------------------------------------------------------------------
 Center     Atomic      Atomic             Coordinates (Angstroms)
 Number     Number       Type             X           Y           Z
 ---------------------------------------------------------------------
      1         11           0        3.263687   -2.025960   -0.034911
      2         11           0        0.555265   -3.361801   -1.005537
      3         11           0        3.310626    1.429205    1.144047
      4         11           0        1.428600    2.888997   -0.758135
      5         11           0       -1.976414    3.426092   -0.197061
      6         11           0       -2.829025   -2.654573    0.838117
      7         11           0       -3.752739    0.298040    0.013479
 ---------------------------------------------------------------------

 SCF Done:  E(UB3LYP) =  -1136.11069444     A.U. after   20 cycles

 The electronic state is 2-A.
 Alpha  occ. eigenvalues --  -38.44791 -38.44686 -38.44614 -38.44518 -38.44231
 Alpha  occ. eigenvalues --  -38.44203 -38.43844  -2.20597  -2.20470  -2.20411
 Alpha  occ. eigenvalues --   -2.20312  -2.20041  -2.20037  -2.19647  -1.14313
 Alpha  occ. eigenvalues --   -1.14260  -1.14246  -1.14156  -1.14145  -1.14126
 Alpha  occ. eigenvalues --   -1.14121  -1.14079  -1.14052  -1.13973  -1.13955
 Alpha  occ. eigenvalues --   -1.13922  -1.13697  -1.13689  -1.13684  -1.13675
 Alpha  occ. eigenvalues --   -1.13665  -1.13659  -1.13298  -1.13287  -1.13281
 Alpha  occ. eigenvalues --   -0.15786  -0.13908  -0.13598  -0.10810
 Alpha virt. eigenvalues --   -0.07324  -0.04705  -0.04427  -0.03692  -0.03332
 Alpha virt. eigenvalues --   -0.02363  -0.02082  -0.01647  -0.01447  -0.01031
 Alpha virt. eigenvalues --   -0.00385   0.00036   0.00060   0.00492   0.00773

  Beta  occ. eigenvalues --  -38.44787 -38.44676 -38.44594 -38.44482 -38.44181
  Beta  occ. eigenvalues --  -38.44148 -38.43779  -2.20596  -2.20459  -2.20379
  Beta  occ. eigenvalues --   -2.20250  -2.19946  -2.19939  -2.19526  -1.14296
  Beta  occ. eigenvalues --   -1.14266  -1.14221  -1.14148  -1.14141  -1.14086
  Beta  occ. eigenvalues --   -1.14076  -1.14062  -1.14018  -1.13934  -1.13918
  Beta  occ. eigenvalues --   -1.13863  -1.13630  -1.13628  -1.13622  -1.13605
  Beta  occ. eigenvalues --   -1.13599  -1.13594  -1.13214  -1.13207  -1.13201
  Beta  occ. eigenvalues --   -0.15266  -0.13152  -0.12766
  Beta virt. eigenvalues --   -0.07714  -0.07488  -0.04370  -0.03944  -0.03463
  Beta virt. eigenvalues --   -0.02929  -0.02082  -0.01835  -0.01511  -0.01279
  Beta virt. eigenvalues --   -0.00707  -0.00175   0.00204   0.00276   0.00473

 Mulliken charges and spin densities:
               1          2
     1  Na   0.045675   0.072580
     2  Na  -0.027479   0.125583
     3  Na   0.181600   0.234365
     4  Na  -0.258592   0.008004
     5  Na   0.098662   0.315273
     6  Na   0.095074   0.204967
     7  Na  -0.134940   0.039227
 Sum of Mulliken charges =  -0.00000   1.00000

 Dipole moment (field-independent basis, Debye):
    X=              0.4068    Y=             -0.2701    Z=              0.1197  Tot=              0.5028
 Quadrupole moment (field-independent basis, Debye-Ang):
   XX=            -64.9637   YY=            -67.9681   ZZ=            -69.0074
   XY=              0.1376   XZ=              1.7507   YZ=             -1.0023

 Normal termination of Gaussian 16 at Sun Dec  3 15:38:22 2023.
