 Gaussian 16, Revision B.01,
 Gaussian 16:  ES64L-G16RevB.01 20-Dec-2017

 -------------------------
 #P B3LYP/6-311+g(d) force
 -------------------------

 -----
 DPGEN
 -----
 Symbolic Z-matrix:
 Charge =  0 Multiplicity = 2

                         Standard orientation:
 ---------------------------------------------------------------------
 Center     Atomic      Atomic             Coordinates (Angstroms)
 Number     Number       Type             X           Y           Z
 ---------------------------------------------------------------------
      1         11           0       -3.548736   -1.371830   -0.599500
      2         11           0       -0.020879   -0.729774   -1.523195
      3         11           0        1.053056    2.457734    0.589753
      4         11           0       -2.179170    1.974797   -0.346408
      5         11           0       -0.861272   -0.657100    1.934836
      6         11           0        2.048470   -1.464682    1.146598
      7         11           0        3.508530   -0.209146   -1.202084
 ---------------------------------------------------------------------

 SCF Done:  E(UB3LYP) =  -1136.12689609     A.U. after   23 cycles

 The electronic state is 2-A.
 Alpha  occ. eigenvalues --  -38.44617 -38.44611 -38.44201 -38.44043 -38.43866
 Alpha  occ. eigenvalues --  -38.43467 -38.42488  -2.20476  -2.20462  -2.20105
 Alpha  occ. eigenvalues --   -2.19837  -2.19794  -2.19308  -2.18303  -1.14196
 Alpha  occ. eigenvalues --   -1.14162  -1.14135  -1.14118  -1.14082  -1.14063
 Alpha  occ. eigenvalues --   -1.13838  -1.13728  -1.13702  -1.13508  -1.13500
 Alpha  occ. eigenvalues --   -1.13473  -1.13466  -1.13428  -1.13415  -1.13000
 Alpha  occ. eigenvalues --   -1.12976  -1.12920  -1.11977  -1.11973  -1.11940
 Alpha  occ. eigenvalues --   -0.18412  -0.13915  -0.11653  -0.11062
 Alpha virt. eigenvalues --   -0.06469  -0.05072  -0.04676  -0.03301  -0.02913
 Alpha virt. eigenvalues --   -0.02405  -0.02334  -0.00921  -0.00842  -0.00197
 Alpha virt. eigenvalues --    0.00145   0.00359   0.00385   0.00549   0.00789

  Beta  occ. eigenvalues --  -38.44588 -38.44577 -38.44110 -38.44036 -38.43828
  Beta  occ. eigenvalues --  -38.43460 -38.42485  -2.20424  -2.20398  -2.19943
  Beta  occ. eigenvalues --   -2.19825  -2.19730  -2.19297  -2.18299  -1.14151
  Beta  occ. eigenvalues --   -1.14124  -1.14100  -1.14069  -1.14037  -1.14020
  Beta  occ. eigenvalues --   -1.13720  -1.13606  -1.13590  -1.13498  -1.13486
  Beta  occ. eigenvalues --   -1.13460  -1.13416  -1.13380  -1.13346  -1.12988
  Beta  occ. eigenvalues --   -1.12970  -1.12911  -1.11972  -1.11960  -1.11940
  Beta  occ. eigenvalues --   -0.17663  -0.13654  -0.10947
  Beta virt. eigenvalues --   -0.07613  -0.06263  -0.05013  -0.04093  -0.03101
  Beta virt. eigenvalues --   -0.02295  -0.01963  -0.01763  -0.00883  -0.00468
  Beta virt. eigenvalues --   -0.00126   0.00196   0.00405   0.00487   0.00673

 Mulliken charges and spin densities:
               1          2
     1  Na   0.492047   0.009116
     2  Na  -0.841824   0.347427
     3  Na  -0.579070   0.016905
     4  Na   0.127920  -0.009393
     5  Na   0.059883   0.341227
     6  Na  -0.113608   0.058304
     7  Na   0.854651   0.236414
 Sum of Mulliken charges =  -0.00000   1.00000

 Dipole moment (field-independent basis, Debye):
    X=              0.0748    Y=             -0.2830    Z=             -0.3472  Tot=              0.4542
 Quadrupole moment (field-independent basis, Debye-Ang):
   XX=            -50.5920   YY=            -77.1072   ZZ=            -67.8403
   XY=              0.9263   XZ=             -0.8898   YZ=             -1.4100

 Normal termination of Gaussian 16 at Fri Dec  8 06:55:13 2023.
