 Gaussian 16, Revision B.01,
 Gaussian 16:  ES64L-G16RevB.01 20-Dec-2017

 -------------------------
 #P B3LYP/6-311+g(d) force
 -------------------------

 -----
 DPGEN
 -----
 Symbolic Z-matrix:
 Charge =  0 Multiplicity = 2

                         Standard orientation:
 ---------------------------------------------------------------------
 Center     Atomic      Atomic             Coordinates (Angstroms)
 Number     Number       Type             X           Y           Z
 ---------------------------------------------------------------------
      1         11           0       -2.129483    1.372030   -0.402490
      2         11           0        1.127856   -1.749899   -0.723537
      3         11           0        0.678793    1.433107    0.978094
      4         11           0        3.848233   -1.607312    0.135076
      5         11           0       -1.915426   -0.982878    1.089602
      6         11           0        3.454129    1.878136   -0.538900
      7         11           0       -5.064102   -0.343184   -0.537845
 ---------------------------------------------------------------------

 SCF Done:  E(UB3LYP) =  -1136.11089102     A.U. after   24 cycles

 The electronic state is 2-A.
 Alpha  occ. eigenvalues --  -38.44948 -38.44654 -38.44617 -38.44119 -38.43794
 Alpha  occ. eigenvalues --  -38.43689 -38.42395  -2.20876  -2.20604  -2.20447
 Alpha  occ. eigenvalues --   -2.19948  -2.19690  -2.19545  -2.18322  -1.14761
 Alpha  occ. eigenvalues --   -1.14529  -1.14470  -1.14258  -1.14242  -1.14182
 Alpha  occ. eigenvalues --   -1.14112  -1.14095  -1.14055  -1.13601  -1.13591
 Alpha  occ. eigenvalues --   -1.13559  -1.13538  -1.13338  -1.13314  -1.13185
 Alpha  occ. eigenvalues --   -1.13161  -1.13125  -1.12007  -1.11994  -1.11971
 Alpha  occ. eigenvalues --   -0.18060  -0.14911  -0.11467  -0.11144
 Alpha virt. eigenvalues --   -0.06167  -0.05683  -0.04787  -0.03247  -0.03064
 Alpha virt. eigenvalues --   -0.02286  -0.01871  -0.01318  -0.00901  -0.00614
 Alpha virt. eigenvalues --   -0.00066   0.00097   0.00321   0.00521   0.00653

  Beta  occ. eigenvalues --  -38.44922 -38.44648 -38.44548 -38.44048 -38.43755
  Beta  occ. eigenvalues --  -38.43688 -38.42391  -2.20835  -2.20597  -2.20319
  Beta  occ. eigenvalues --   -2.19816  -2.19623  -2.19543  -2.18320  -1.14744
  Beta  occ. eigenvalues --   -1.14500  -1.14402  -1.14256  -1.14215  -1.14169
  Beta  occ. eigenvalues --   -1.14028  -1.14009  -1.13964  -1.13510  -1.13508
  Beta  occ. eigenvalues --   -1.13500  -1.13477  -1.13281  -1.13271  -1.13184
  Beta  occ. eigenvalues --   -1.13147  -1.13103  -1.12009  -1.11986  -1.11941
  Beta  occ. eigenvalues --   -0.17368  -0.14305  -0.10884
  Beta virt. eigenvalues --   -0.07917  -0.05904  -0.05406  -0.04207  -0.03030
  Beta virt. eigenvalues --   -0.02789  -0.01838  -0.01340  -0.01262  -0.00621
  Beta virt. eigenvalues --   -0.00283   0.00012   0.00155   0.00398   0.00618

 Mulliken charges and spin densities:
               1          2
     1  Na  -0.202499   0.107722
     2  Na  -0.799919   0.126603
     3  Na  -0.298434   0.109161
     4  Na   0.429485   0.091373
     5  Na   0.618377  -0.005468
     6  Na   0.050649   0.321930
     7  Na   0.202342   0.248678
 Sum of Mulliken charges =  -0.00000   1.00000

 Dipole moment (field-independent basis, Debye):
    X=             -0.5088    Y=              0.1989    Z=             -0.0335  Tot=              0.5474
 Quadrupole moment (field-independent basis, Debye-Ang):
   XX=            -58.6781   YY=            -75.7289   ZZ=            -66.1489
   XY=              3.3310   XZ=              0.6536   YZ=             -5.1174

 Normal termination of Gaussian 16 at Tue Dec  5 21:24:45 2023.
