 Gaussian 16, Revision B.01,
 Gaussian 16:  ES64L-G16RevB.01 20-Dec-2017

 -------------------------
 #P B3LYP/6-311+g(d) force
 -------------------------

 -----
 DPGEN
 -----
 Symbolic Z-matrix:
 Charge =  0 Multiplicity = 2

                         Standard orientation:
 ---------------------------------------------------------------------
 Center     Atomic      Atomic             Coordinates (Angstroms)
 Number     Number       Type             X           Y           Z
 ---------------------------------------------------------------------
      1         11           0        0.230385    0.067877    1.902320
      2         11           0       -2.907472   -1.334794    0.138904
      3         11           0       -2.050635    2.000549    0.097616
      4         11           0        0.242600   -2.560762   -0.158043
      5         11           0        1.445981    2.874099   -0.198862
      6         11           0       -0.233128   -0.027725   -1.803685
      7         11           0        3.272269   -1.019243    0.021749
 ---------------------------------------------------------------------

 SCF Done:  E(UB3LYP) =  -1136.13616532     A.U. after   19 cycles

 The electronic state is 2-A.
 Alpha  occ. eigenvalues --  -38.44290 -38.43828 -38.43686 -38.43640 -38.43486
 Alpha  occ. eigenvalues --  -38.43394 -38.43153  -2.20073  -2.19616  -2.19533
 Alpha  occ. eigenvalues --   -2.19507  -2.19393  -2.19350  -2.19085  -1.13743
 Alpha  occ. eigenvalues --   -1.13733  -1.13717  -1.13292  -1.13277  -1.13261
 Alpha  occ. eigenvalues --   -1.13229  -1.13202  -1.13196  -1.13189  -1.13176
 Alpha  occ. eigenvalues --   -1.13110  -1.13096  -1.13065  -1.13024  -1.13001
 Alpha  occ. eigenvalues --   -1.12991  -1.12945  -1.12764  -1.12747  -1.12679
 Alpha  occ. eigenvalues --   -0.18649  -0.12824  -0.12506  -0.10674
 Alpha virt. eigenvalues --   -0.05788  -0.05331  -0.04494  -0.03066  -0.02937
 Alpha virt. eigenvalues --   -0.02481  -0.01687  -0.01285  -0.00393  -0.00185
 Alpha virt. eigenvalues --   -0.00022   0.00338   0.00747   0.00826   0.00924

  Beta  occ. eigenvalues --  -38.44292 -38.43827 -38.43682 -38.43632 -38.43404
  Beta  occ. eigenvalues --  -38.43315 -38.43140  -2.20079  -2.19615  -2.19529
  Beta  occ. eigenvalues --   -2.19497  -2.19242  -2.19205  -2.19066  -1.13740
  Beta  occ. eigenvalues --   -1.13732  -1.13723  -1.13278  -1.13274  -1.13263
  Beta  occ. eigenvalues --   -1.13225  -1.13201  -1.13176  -1.13164  -1.13149
  Beta  occ. eigenvalues --   -1.13107  -1.13007  -1.12967  -1.12919  -1.12891
  Beta  occ. eigenvalues --   -1.12890  -1.12842  -1.12742  -1.12691  -1.12671
  Beta  occ. eigenvalues --   -0.17891  -0.12611  -0.12272
  Beta virt. eigenvalues --   -0.06756  -0.05760  -0.05294  -0.04474  -0.02305
  Beta virt. eigenvalues --   -0.02152  -0.01625  -0.01418  -0.01226  -0.00444
  Beta virt. eigenvalues --   -0.00222   0.00116   0.00357   0.00793   0.00816

 Mulliken charges and spin densities:
               1          2
     1  Na  -0.398303   0.727958
     2  Na   0.164526  -0.011277
     3  Na   0.198928  -0.050691
     4  Na   0.337189  -0.000829
     5  Na  -0.079737  -0.156162
     6  Na  -0.223416   0.632950
     7  Na   0.000812  -0.141948
 Sum of Mulliken charges =  -0.00000   1.00000

 Dipole moment (field-independent basis, Debye):
    X=              0.2913    Y=              0.1990    Z=              0.0705  Tot=              0.3598
 Quadrupole moment (field-independent basis, Debye-Ang):
   XX=            -54.3699   YY=            -63.5403   ZZ=            -74.7177
   XY=              1.0341   XZ=             -1.0783   YZ=             -0.3728

 Normal termination of Gaussian 16 at Thu Dec  7 17:16:59 2023.
