 Gaussian 16, Revision B.01,
 Gaussian 16:  ES64L-G16RevB.01 20-Dec-2017

 -------------------------
 #P B3LYP/6-311+g(d) force
 -------------------------

 -----
 DPGEN
 -----
 Symbolic Z-matrix:
 Charge =  0 Multiplicity = 2

                         Standard orientation:
 ---------------------------------------------------------------------
 Center     Atomic      Atomic             Coordinates (Angstroms)
 Number     Number       Type             X           Y           Z
 ---------------------------------------------------------------------
      1         11           0        2.647486   -1.913207    0.008090
      2         11           0        0.578454    0.410906    2.286543
      3         11           0       -1.130748   -2.783292   -0.037384
      4         11           0       -3.389765   -0.120505   -0.021121
      5         11           0       -0.976208    2.917182   -0.100374
      6         11           0        0.022473   -0.346857   -1.458284
      7         11           0        2.248308    1.835773   -0.677469
 ---------------------------------------------------------------------

 SCF Done:  E(UB3LYP) =  -1136.13449623     A.U. after   19 cycles

 The electronic state is 2-A.
 Alpha  occ. eigenvalues --  -38.44051 -38.43970 -38.43861 -38.43808 -38.43728
 Alpha  occ. eigenvalues --  -38.43688 -38.43154  -2.19833  -2.19774  -2.19694
 Alpha  occ. eigenvalues --   -2.19651  -2.19590  -2.19496  -2.19144  -1.13510
 Alpha  occ. eigenvalues --   -1.13491  -1.13480  -1.13450  -1.13435  -1.13418
 Alpha  occ. eigenvalues --   -1.13395  -1.13344  -1.13329  -1.13309  -1.13306
 Alpha  occ. eigenvalues --   -1.13300  -1.13249  -1.13239  -1.13218  -1.13168
 Alpha  occ. eigenvalues --   -1.13157  -1.13128  -1.12825  -1.12799  -1.12749
 Alpha  occ. eigenvalues --   -0.18175  -0.12825  -0.12452  -0.10683
 Alpha virt. eigenvalues --   -0.05617  -0.05383  -0.04909  -0.03071  -0.02882
 Alpha virt. eigenvalues --   -0.02646  -0.01534  -0.01252  -0.00627  -0.00498
 Alpha virt. eigenvalues --   -0.00042   0.00327   0.00772   0.00829   0.00843

  Beta  occ. eigenvalues --  -38.44053 -38.43968 -38.43805 -38.43753 -38.43708
  Beta  occ. eigenvalues --  -38.43686 -38.43106  -2.19838  -2.19772  -2.19648
  Beta  occ. eigenvalues --   -2.19557  -2.19497  -2.19493  -2.19059  -1.13506
  Beta  occ. eigenvalues --   -1.13494  -1.13484  -1.13443  -1.13421  -1.13419
  Beta  occ. eigenvalues --   -1.13387  -1.13295  -1.13273  -1.13251  -1.13217
  Beta  occ. eigenvalues --   -1.13205  -1.13201  -1.13178  -1.13169  -1.13158
  Beta  occ. eigenvalues --   -1.13142  -1.13126  -1.12762  -1.12736  -1.12689
  Beta  occ. eigenvalues --   -0.17489  -0.12615  -0.12287
  Beta virt. eigenvalues --   -0.06688  -0.05600  -0.05368  -0.04796  -0.02360
  Beta virt. eigenvalues --   -0.02183  -0.01557  -0.01462  -0.01162  -0.00649
  Beta virt. eigenvalues --   -0.00540   0.00146   0.00376   0.00825   0.00833

 Mulliken charges and spin densities:
               1          2
     1  Na   0.155920   0.012859
     2  Na  -0.659667   0.802783
     3  Na   0.164659   0.002883
     4  Na  -0.045646  -0.031250
     5  Na   0.042839   0.002909
     6  Na  -0.010217   0.164546
     7  Na   0.352113   0.045270
 Sum of Mulliken charges =  -0.00000   1.00000

 Dipole moment (field-independent basis, Debye):
    X=              0.0079    Y=             -0.1081    Z=              0.1614  Tot=              0.1945
 Quadrupole moment (field-independent basis, Debye-Ang):
   XX=            -57.2072   YY=            -61.1367   ZZ=            -75.1828
   XY=             -1.4403   XZ=             -1.2065   YZ=             -1.4758

 Normal termination of Gaussian 16 at Fri Dec  8 06:09:08 2023.
