 Gaussian 16, Revision B.01,
 Gaussian 16:  ES64L-G16RevB.01 20-Dec-2017

 -------------------------
 #P B3LYP/6-311+g(d) force
 -------------------------

 -----
 DPGEN
 -----
 Symbolic Z-matrix:
 Charge =  0 Multiplicity = 2

                         Standard orientation:
 ---------------------------------------------------------------------
 Center     Atomic      Atomic             Coordinates (Angstroms)
 Number     Number       Type             X           Y           Z
 ---------------------------------------------------------------------
      1         11           0        2.889920    0.981933   -0.913045
      2         11           0        3.647433   -1.392123    0.295691
      3         11           0       -4.299485   -0.963303   -0.756690
      4         11           0       -0.086450   -1.734833   -0.631921
      5         11           0       -2.269579    0.535840    1.566052
      6         11           0        0.735398    0.556136    1.536199
      7         11           0       -0.617236    2.016351   -1.096287
 ---------------------------------------------------------------------

 SCF Done:  E(UB3LYP) =  -1136.10954743     A.U. after   34 cycles

 The electronic state is 2-A.
 Alpha  occ. eigenvalues --  -38.46112 -38.44643 -38.44351 -38.44191 -38.43896
 Alpha  occ. eigenvalues --  -38.43198 -38.42999  -2.21895  -2.20585  -2.20228
 Alpha  occ. eigenvalues --   -2.20108  -2.19666  -2.19071  -2.19035  -1.15614
 Alpha  occ. eigenvalues --   -1.15586  -1.15471  -1.14435  -1.14232  -1.14206
 Alpha  occ. eigenvalues --   -1.13856  -1.13850  -1.13834  -1.13821  -1.13761
 Alpha  occ. eigenvalues --   -1.13721  -1.13341  -1.13328  -1.13291  -1.12771
 Alpha  occ. eigenvalues --   -1.12742  -1.12722  -1.12701  -1.12684  -1.12599
 Alpha  occ. eigenvalues --   -0.18769  -0.14351  -0.11241  -0.10874
 Alpha virt. eigenvalues --   -0.07600  -0.05165  -0.04685  -0.03178  -0.03154
 Alpha virt. eigenvalues --   -0.02414  -0.01996  -0.01452  -0.00980  -0.00306
 Alpha virt. eigenvalues --   -0.00070   0.00205   0.00343   0.00541   0.00702

  Beta  occ. eigenvalues --  -38.46091 -38.44612 -38.44355 -38.44158 -38.43884
  Beta  occ. eigenvalues --  -38.43166 -38.42940  -2.21859  -2.20528  -2.20237
  Beta  occ. eigenvalues --   -2.20052  -2.19643  -2.19011  -2.18932  -1.15581
  Beta  occ. eigenvalues --   -1.15546  -1.15447  -1.14403  -1.14193  -1.14172
  Beta  occ. eigenvalues --   -1.13860  -1.13840  -1.13820  -1.13774  -1.13722
  Beta  occ. eigenvalues --   -1.13678  -1.13327  -1.13310  -1.13276  -1.12732
  Beta  occ. eigenvalues --   -1.12685  -1.12654  -1.12651  -1.12597  -1.12525
  Beta  occ. eigenvalues --   -0.18108  -0.14188  -0.10863
  Beta virt. eigenvalues --   -0.07484  -0.07078  -0.05056  -0.04076  -0.03083
  Beta virt. eigenvalues --   -0.02847  -0.01915  -0.01395  -0.01215  -0.00542
  Beta virt. eigenvalues --   -0.00254  -0.00032   0.00227   0.00443   0.00683

 Mulliken charges and spin densities:
               1          2
     1  Na  -0.036164   0.161455
     2  Na   1.269640  -0.040454
     3  Na   0.205190   0.080787
     4  Na  -0.793519   0.156292
     5  Na   0.063003  -0.003434
     6  Na  -0.389313   0.333320
     7  Na  -0.318836   0.312033
 Sum of Mulliken charges =  -0.00000   1.00000

 Dipole moment (field-independent basis, Debye):
    X=              0.6741    Y=              0.1410    Z=             -0.0114  Tot=              0.6888
 Quadrupole moment (field-independent basis, Debye-Ang):
   XX=            -57.1745   YY=            -73.3136   ZZ=            -70.0475
   XY=             -3.1110   XZ=             -0.0784   YZ=              0.4093

 Normal termination of Gaussian 16 at Tue Dec  5 16:43:53 2023.
