 Gaussian 16, Revision B.01,
 Gaussian 16:  ES64L-G16RevB.01 20-Dec-2017

 -------------------------
 #P B3LYP/6-311+g(d) force
 -------------------------

 -----
 DPGEN
 -----
 Symbolic Z-matrix:
 Charge =  0 Multiplicity = 2

                         Standard orientation:
 ---------------------------------------------------------------------
 Center     Atomic      Atomic             Coordinates (Angstroms)
 Number     Number       Type             X           Y           Z
 ---------------------------------------------------------------------
      1         11           0       -3.026832   -0.825837   -0.033408
      2         11           0       -0.227074   -2.713490    0.373348
      3         11           0        3.257843   -0.908372   -0.011553
      4         11           0       -0.843275    0.636238    1.671318
      5         11           0        1.947424    2.340581    0.385892
      6         11           0        0.636041   -0.677549   -1.462755
      7         11           0       -1.744126    2.148429   -0.922842
 ---------------------------------------------------------------------

 SCF Done:  E(UB3LYP) =  -1136.12865684     A.U. after   21 cycles

 The electronic state is 2-A.
 Alpha  occ. eigenvalues --  -38.44589 -38.44240 -38.43723 -38.43465 -38.43448
 Alpha  occ. eigenvalues --  -38.43299 -38.43184  -2.20424  -2.20126  -2.19538
 Alpha  occ. eigenvalues --   -2.19352  -2.19347  -2.19297  -2.19150  -1.14148
 Alpha  occ. eigenvalues --   -1.14071  -1.14046  -1.13829  -1.13779  -1.13763
 Alpha  occ. eigenvalues --   -1.13245  -1.13216  -1.13198  -1.13173  -1.13061
 Alpha  occ. eigenvalues --   -1.13004  -1.12999  -1.12971  -1.12961  -1.12932
 Alpha  occ. eigenvalues --   -1.12908  -1.12847  -1.12813  -1.12790  -1.12755
 Alpha  occ. eigenvalues --   -0.18765  -0.13568  -0.12446  -0.10333
 Alpha virt. eigenvalues --   -0.06069  -0.05357  -0.04483  -0.03342  -0.02853
 Alpha virt. eigenvalues --   -0.01952  -0.01772  -0.01116  -0.00380  -0.00319
 Alpha virt. eigenvalues --    0.00008   0.00338   0.00772   0.00832   0.00878

  Beta  occ. eigenvalues --  -38.44589 -38.44232 -38.43712 -38.43439 -38.43430
  Beta  occ. eigenvalues --  -38.43251 -38.43124  -2.20426  -2.20115  -2.19519
  Beta  occ. eigenvalues --   -2.19335  -2.19285  -2.19213  -2.19040  -1.14143
  Beta  occ. eigenvalues --   -1.14065  -1.14048  -1.13820  -1.13763  -1.13735
  Beta  occ. eigenvalues --   -1.13214  -1.13196  -1.13176  -1.13165  -1.13019
  Beta  occ. eigenvalues --   -1.12973  -1.12947  -1.12940  -1.12921  -1.12876
  Beta  occ. eigenvalues --   -1.12853  -1.12800  -1.12741  -1.12712  -1.12669
  Beta  occ. eigenvalues --   -0.18102  -0.13330  -0.12192
  Beta virt. eigenvalues --   -0.06537  -0.05975  -0.05298  -0.04356  -0.02667
  Beta virt. eigenvalues --   -0.02142  -0.01721  -0.01070  -0.01002  -0.00363
  Beta virt. eigenvalues --   -0.00306   0.00168   0.00401   0.00836   0.00858

 Mulliken charges and spin densities:
               1          2
     1  Na   0.522006   0.118175
     2  Na  -0.233680  -0.086413
     3  Na   0.015895  -0.090729
     4  Na  -0.215135   0.503483
     5  Na  -0.113827  -0.027151
     6  Na   0.201806   0.390948
     7  Na  -0.177065   0.191687
 Sum of Mulliken charges =  -0.00000   1.00000

 Dipole moment (field-independent basis, Debye):
    X=              0.3028    Y=             -0.1258    Z=              0.1224  Tot=              0.3500
 Quadrupole moment (field-independent basis, Debye-Ang):
   XX=            -52.8293   YY=            -64.9743   ZZ=            -75.2455
   XY=              0.5881   XZ=              2.1381   YZ=             -2.1455

 Normal termination of Gaussian 16 at Wed Nov 29 01:30:40 2023.
