 Gaussian 16, Revision B.01,
 Gaussian 16:  ES64L-G16RevB.01 20-Dec-2017

 -------------------------
 #P B3LYP/6-311+g(d) force
 -------------------------

 -----
 DPGEN
 -----
 Symbolic Z-matrix:
 Charge =  0 Multiplicity = 2

                         Standard orientation:
 ---------------------------------------------------------------------
 Center     Atomic      Atomic             Coordinates (Angstroms)
 Number     Number       Type             X           Y           Z
 ---------------------------------------------------------------------
      1         11           0       -2.819053    1.038581   -0.228436
      2         11           0       -0.103653    2.723925   -0.662153
      3         11           0       -0.567103    0.105248    1.986883
      4         11           0        3.578716   -1.725389   -0.211923
      5         11           0       -2.891875   -2.350569    0.007458
      6         11           0        2.752624    0.975652    0.458516
      7         11           0        0.050344   -0.767448   -1.350344
 ---------------------------------------------------------------------

 SCF Done:  E(UB3LYP) =  -1136.12495761     A.U. after   22 cycles

 The electronic state is 2-A.
 Alpha  occ. eigenvalues --  -38.44557 -38.44508 -38.44171 -38.44082 -38.43767
 Alpha  occ. eigenvalues --  -38.43755 -38.42592  -2.20459  -2.20334  -2.20064
 Alpha  occ. eigenvalues --   -2.19962  -2.19643  -2.19571  -2.18471  -1.14153
 Alpha  occ. eigenvalues --   -1.14132  -1.14129  -1.14082  -1.13973  -1.13963
 Alpha  occ. eigenvalues --   -1.13719  -1.13716  -1.13677  -1.13670  -1.13613
 Alpha  occ. eigenvalues --   -1.13566  -1.13317  -1.13291  -1.13247  -1.13233
 Alpha  occ. eigenvalues --   -1.13228  -1.13207  -1.12150  -1.12135  -1.12103
 Alpha  occ. eigenvalues --   -0.18458  -0.14016  -0.11767  -0.10448
 Alpha virt. eigenvalues --   -0.06635  -0.05839  -0.04028  -0.03494  -0.02476
 Alpha virt. eigenvalues --   -0.02275  -0.02252  -0.01456  -0.00861  -0.00181
 Alpha virt. eigenvalues --   -0.00029   0.00230   0.00509   0.00634   0.00740

  Beta  occ. eigenvalues --  -38.44544 -38.44512 -38.44163 -38.44035 -38.43768
  Beta  occ. eigenvalues --  -38.43660 -38.42576  -2.20440  -2.20344  -2.20051
  Beta  occ. eigenvalues --   -2.19877  -2.19577  -2.19468  -2.18446  -1.14138
  Beta  occ. eigenvalues --   -1.14136  -1.14088  -1.14071  -1.13976  -1.13966
  Beta  occ. eigenvalues --   -1.13708  -1.13692  -1.13663  -1.13612  -1.13546
  Beta  occ. eigenvalues --   -1.13506  -1.13252  -1.13222  -1.13212  -1.13197
  Beta  occ. eigenvalues --   -1.13170  -1.13100  -1.12133  -1.12117  -1.12066
  Beta  occ. eigenvalues --   -0.17741  -0.13866  -0.11564
  Beta virt. eigenvalues --   -0.06562  -0.06488  -0.05762  -0.03903  -0.02880
  Beta virt. eigenvalues --   -0.02240  -0.01788  -0.01551  -0.01067  -0.00892
  Beta virt. eigenvalues --   -0.00070   0.00120   0.00268   0.00662   0.00683

 Mulliken charges and spin densities:
               1          2
     1  Na   0.565915   0.161762
     2  Na  -0.083450   0.013832
     3  Na  -0.354764   0.496633
     4  Na   0.058223  -0.086343
     5  Na   0.087746  -0.048910
     6  Na   0.263003   0.124355
     7  Na  -0.536673   0.338671
 Sum of Mulliken charges =  -0.00000   1.00000

 Dipole moment (field-independent basis, Debye):
    X=              0.0214    Y=             -0.3776    Z=              0.0046  Tot=              0.3782
 Quadrupole moment (field-independent basis, Debye-Ang):
   XX=            -53.0587   YY=            -65.1111   ZZ=            -76.0832
   XY=             -1.0679   XZ=              0.4349   YZ=             -0.2220

 Normal termination of Gaussian 16 at Tue Dec  5 23:45:35 2023.
