 Gaussian 16, Revision B.01,
 Gaussian 16:  ES64L-G16RevB.01 20-Dec-2017

 -------------------------
 #P B3LYP/6-311+g(d) force
 -------------------------

 -----
 DPGEN
 -----
 Symbolic Z-matrix:
 Charge =  0 Multiplicity = 2

                         Standard orientation:
 ---------------------------------------------------------------------
 Center     Atomic      Atomic             Coordinates (Angstroms)
 Number     Number       Type             X           Y           Z
 ---------------------------------------------------------------------
      1         11           0        2.627249    1.352161    0.078506
      2         11           0       -1.381701   -2.366228    0.025640
      3         11           0        2.461329   -1.842235   -0.278053
      4         11           0       -0.318147    2.633105    0.023194
      5         11           0        0.048172    0.054805   -1.692720
      6         11           0        0.075582   -0.239957    1.972511
      7         11           0       -3.512484    0.408350   -0.129079
 ---------------------------------------------------------------------

 SCF Done:  E(UB3LYP) =  -1136.13421157     A.U. after   21 cycles

 The electronic state is 2-A.
 Alpha  occ. eigenvalues --  -38.44828 -38.43714 -38.43609 -38.43479 -38.43357
 Alpha  occ. eigenvalues --  -38.43347 -38.42855  -2.20598  -2.19628  -2.19470
 Alpha  occ. eigenvalues --   -2.19409  -2.19341  -2.19232  -2.18757  -1.14273
 Alpha  occ. eigenvalues --   -1.14256  -1.14235  -1.13327  -1.13300  -1.13285
 Alpha  occ. eigenvalues --   -1.13148  -1.13126  -1.13110  -1.13094  -1.13055
 Alpha  occ. eigenvalues --   -1.13031  -1.13016  -1.13015  -1.12945  -1.12900
 Alpha  occ. eigenvalues --   -1.12890  -1.12832  -1.12454  -1.12414  -1.12371
 Alpha  occ. eigenvalues --   -0.18951  -0.13293  -0.12198  -0.10814
 Alpha virt. eigenvalues --   -0.06229  -0.04984  -0.04159  -0.03279  -0.02754
 Alpha virt. eigenvalues --   -0.02523  -0.02007  -0.01012  -0.00239  -0.00093
 Alpha virt. eigenvalues --   -0.00040   0.00313   0.00760   0.00877   0.00894

  Beta  occ. eigenvalues --  -38.44830 -38.43708 -38.43601 -38.43385 -38.43349
  Beta  occ. eigenvalues --  -38.43278 -38.42848  -2.20603  -2.19620  -2.19459
  Beta  occ. eigenvalues --   -2.19236  -2.19222  -2.19215  -2.18748  -1.14266
  Beta  occ. eigenvalues --   -1.14260  -1.14239  -1.13324  -1.13299  -1.13245
  Beta  occ. eigenvalues --   -1.13129  -1.13108  -1.13088  -1.13014  -1.12953
  Beta  occ. eigenvalues --   -1.12944  -1.12932  -1.12897  -1.12867  -1.12849
  Beta  occ. eigenvalues --   -1.12837  -1.12828  -1.12447  -1.12379  -1.12369
  Beta  occ. eigenvalues --   -0.18196  -0.13071  -0.11930
  Beta virt. eigenvalues --   -0.06869  -0.06178  -0.04990  -0.04150  -0.02501
  Beta virt. eigenvalues --   -0.01960  -0.01911  -0.01450  -0.00957  -0.00278
  Beta virt. eigenvalues --   -0.00136   0.00101   0.00337   0.00810   0.00890

 Mulliken charges and spin densities:
               1          2
     1  Na   0.324709   0.038796
     2  Na   0.208589  -0.111068
     3  Na   0.283005  -0.035362
     4  Na   0.096317  -0.100244
     5  Na  -0.435549   0.617687
     6  Na  -0.441903   0.687345
     7  Na  -0.035167  -0.097154
 Sum of Mulliken charges =  -0.00000   1.00000

 Dipole moment (field-independent basis, Debye):
    X=             -0.4613    Y=             -0.0744    Z=              0.0968  Tot=              0.4772
 Quadrupole moment (field-independent basis, Debye-Ang):
   XX=            -51.6787   YY=            -66.9397   ZZ=            -74.1123
   XY=             -0.9847   XZ=              0.1101   YZ=              0.7908

 Normal termination of Gaussian 16 at Thu Dec  7 23:12:16 2023.
