 Gaussian 16, Revision B.01,
 Gaussian 16:  ES64L-G16RevB.01 20-Dec-2017

 -------------------------
 #P B3LYP/6-311+g(d) force
 -------------------------

 -----
 DPGEN
 -----
 Symbolic Z-matrix:
 Charge =  0 Multiplicity = 2

                         Standard orientation:
 ---------------------------------------------------------------------
 Center     Atomic      Atomic             Coordinates (Angstroms)
 Number     Number       Type             X           Y           Z
 ---------------------------------------------------------------------
      1         11           0       -3.381644   -1.809474   -0.911659
      2         11           0        1.391699    0.608614    1.795776
      3         11           0       -1.394336    2.952352   -0.405359
      4         11           0        0.738078   -2.013945   -0.054301
      5         11           0        3.899235   -0.654677   -0.675405
      6         11           0        0.523439    1.225704   -1.316509
      7         11           0       -1.776472   -0.308574    1.567456
 ---------------------------------------------------------------------

 SCF Done:  E(UB3LYP) =  -1136.12176980     A.U. after   21 cycles

 The electronic state is 2-A.
 Alpha  occ. eigenvalues --  -38.44619 -38.44114 -38.44113 -38.43991 -38.43544
 Alpha  occ. eigenvalues --  -38.43362 -38.43329  -2.20414  -2.20045  -2.19984
 Alpha  occ. eigenvalues --   -2.19774  -2.19514  -2.19267  -2.19199  -1.14084
 Alpha  occ. eigenvalues --   -1.14075  -1.14035  -1.13787  -1.13699  -1.13689
 Alpha  occ. eigenvalues --   -1.13678  -1.13627  -1.13549  -1.13445  -1.13424
 Alpha  occ. eigenvalues --   -1.13398  -1.13392  -1.13168  -1.13142  -1.12968
 Alpha  occ. eigenvalues --   -1.12916  -1.12883  -1.12813  -1.12809  -1.12771
 Alpha  occ. eigenvalues --   -0.18454  -0.13262  -0.11922  -0.11101
 Alpha virt. eigenvalues --   -0.06361  -0.05140  -0.04358  -0.03196  -0.02749
 Alpha virt. eigenvalues --   -0.02468  -0.02220  -0.01190  -0.00857  -0.00002
 Alpha virt. eigenvalues --    0.00113   0.00236   0.00549   0.00632   0.00773

  Beta  occ. eigenvalues --  -38.44603 -38.44107 -38.44036 -38.43961 -38.43515
  Beta  occ. eigenvalues --  -38.43328 -38.43321  -2.20384  -2.19976  -2.19908
  Beta  occ. eigenvalues --   -2.19717  -2.19462  -2.19209  -2.19186  -1.14061
  Beta  occ. eigenvalues --   -1.14050  -1.14018  -1.13736  -1.13669  -1.13621
  Beta  occ. eigenvalues --   -1.13572  -1.13561  -1.13526  -1.13407  -1.13383
  Beta  occ. eigenvalues --   -1.13362  -1.13359  -1.13127  -1.13103  -1.12923
  Beta  occ. eigenvalues --   -1.12869  -1.12826  -1.12802  -1.12788  -1.12758
  Beta  occ. eigenvalues --   -0.17742  -0.13008  -0.11670
  Beta virt. eigenvalues --   -0.07302  -0.06118  -0.04945  -0.04008  -0.02960
  Beta virt. eigenvalues --   -0.02269  -0.02101  -0.01600  -0.01009  -0.00509
  Beta virt. eigenvalues --    0.00072   0.00177   0.00303   0.00685   0.00694

 Mulliken charges and spin densities:
               1          2
     1  Na  -0.089432   0.098812
     2  Na   0.193605   0.137840
     3  Na  -0.052063  -0.044113
     4  Na  -0.666197   0.134128
     5  Na   0.668728   0.094566
     6  Na  -0.386354   0.429433
     7  Na   0.331713   0.149334
 Sum of Mulliken charges =  -0.00000   1.00000

 Dipole moment (field-independent basis, Debye):
    X=              0.9724    Y=             -0.1371    Z=              0.0411  Tot=              0.9829
 Quadrupole moment (field-independent basis, Debye-Ang):
   XX=            -52.6160   YY=            -71.9851   ZZ=            -69.4044
   XY=             -2.3103   XZ=              0.6446   YZ=              4.2856

 Normal termination of Gaussian 16 at Tue Dec  5 17:57:09 2023.
