 Gaussian 16, Revision B.01,
 Gaussian 16:  ES64L-G16RevB.01 20-Dec-2017

 -------------------------
 #P B3LYP/6-311+g(d) force
 -------------------------

 -----
 DPGEN
 -----
 Symbolic Z-matrix:
 Charge =  0 Multiplicity = 2

                         Standard orientation:
 ---------------------------------------------------------------------
 Center     Atomic      Atomic             Coordinates (Angstroms)
 Number     Number       Type             X           Y           Z
 ---------------------------------------------------------------------
      1         11           0       -0.484236    2.375702    0.683989
      2         11           0       -3.287837    1.788703   -0.201414
      3         11           0        1.556868   -1.021947    1.541358
      4         11           0        4.157156   -1.396624   -0.423609
      5         11           0       -1.008615   -1.500822   -0.323152
      6         11           0       -4.089208   -1.889262   -0.377493
      7         11           0        3.155873    1.644250   -0.899678
 ---------------------------------------------------------------------

 SCF Done:  E(UB3LYP) =  -1136.11469251     A.U. after   24 cycles

 The electronic state is 2-A.
 Alpha  occ. eigenvalues --  -38.45339 -38.44953 -38.44635 -38.44238 -38.43741
 Alpha  occ. eigenvalues --  -38.43535 -38.42629  -2.21139  -2.20787  -2.20456
 Alpha  occ. eigenvalues --   -2.20119  -2.19606  -2.19359  -2.18467  -1.14814
 Alpha  occ. eigenvalues --   -1.14790  -1.14769  -1.14453  -1.14431  -1.14426
 Alpha  occ. eigenvalues --   -1.14162  -1.14127  -1.14064  -1.13814  -1.13755
 Alpha  occ. eigenvalues --   -1.13730  -1.13309  -1.13290  -1.13242  -1.13008
 Alpha  occ. eigenvalues --   -1.13003  -1.12986  -1.12159  -1.12121  -1.12107
 Alpha  occ. eigenvalues --   -0.17284  -0.14538  -0.11539  -0.11034
 Alpha virt. eigenvalues --   -0.07105  -0.05374  -0.03901  -0.03702  -0.03248
 Alpha virt. eigenvalues --   -0.02720  -0.01788  -0.01395  -0.01016  -0.00577
 Alpha virt. eigenvalues --   -0.00045   0.00053   0.00184   0.00459   0.00594

  Beta  occ. eigenvalues --  -38.45288 -38.44924 -38.44626 -38.44168 -38.43722
  Beta  occ. eigenvalues --  -38.43511 -38.42621  -2.21047  -2.20737  -2.20438
  Beta  occ. eigenvalues --   -2.19993  -2.19577  -2.19313  -2.18454  -1.14753
  Beta  occ. eigenvalues --   -1.14733  -1.14684  -1.14419  -1.14402  -1.14366
  Beta  occ. eigenvalues --   -1.14148  -1.14116  -1.14050  -1.13713  -1.13667
  Beta  occ. eigenvalues --   -1.13644  -1.13286  -1.13246  -1.13222  -1.12976
  Beta  occ. eigenvalues --   -1.12975  -1.12948  -1.12155  -1.12112  -1.12087
  Beta  occ. eigenvalues --   -0.16547  -0.14041  -0.11396
  Beta virt. eigenvalues --   -0.07387  -0.06962  -0.05026  -0.03670  -0.03223
  Beta virt. eigenvalues --   -0.02700  -0.02522  -0.01616  -0.01058  -0.00806
  Beta virt. eigenvalues --   -0.00226   0.00021   0.00141   0.00278   0.00596

 Mulliken charges and spin densities:
               1          2
     1  Na  -0.472666   0.004457
     2  Na   0.301497   0.147967
     3  Na   0.356245   0.389319
     4  Na   0.401469   0.182186
     5  Na  -1.346812  -0.202814
     6  Na   0.701772   0.198018
     7  Na   0.058494   0.280867
 Sum of Mulliken charges =  -0.00000   1.00000

 Dipole moment (field-independent basis, Debye):
    X=              1.1087    Y=             -0.2700    Z=             -0.1100  Tot=              1.1464
 Quadrupole moment (field-independent basis, Debye-Ang):
   XX=            -56.3190   YY=            -71.7825   ZZ=            -69.3845
   XY=             -4.2183   XZ=              0.2468   YZ=             -1.0827

 Normal termination of Gaussian 16 at Mon Dec  4 05:38:20 2023.
