 Gaussian 16, Revision B.01,
 Gaussian 16:  ES64L-G16RevB.01 20-Dec-2017

 -------------------------
 #P B3LYP/6-311+g(d) force
 -------------------------

 -----
 DPGEN
 -----
 Symbolic Z-matrix:
 Charge =  0 Multiplicity = 2

                         Standard orientation:
 ---------------------------------------------------------------------
 Center     Atomic      Atomic             Coordinates (Angstroms)
 Number     Number       Type             X           Y           Z
 ---------------------------------------------------------------------
      1         11           0       -0.345415    0.553694    2.225574
      2         11           0        0.722060   -2.528852   -0.489607
      3         11           0       -3.449493   -1.644160    0.242689
      4         11           0       -1.612449    0.292828   -1.289626
      5         11           0        1.511090    0.928120   -0.778012
      6         11           0       -0.299026    3.423594   -0.197908
      7         11           0        3.473233   -1.025224    0.286891
 ---------------------------------------------------------------------

 SCF Done:  E(UB3LYP) =  -1136.12598519     A.U. after   19 cycles

 The electronic state is 2-A.
 Alpha  occ. eigenvalues --  -38.44455 -38.44247 -38.44120 -38.43907 -38.43576
 Alpha  occ. eigenvalues --  -38.43129 -38.43126  -2.20277  -2.20113  -2.19914
 Alpha  occ. eigenvalues --   -2.19741  -2.19418  -2.19143  -2.19068  -1.13974
 Alpha  occ. eigenvalues --   -1.13961  -1.13906  -1.13843  -1.13737  -1.13724
 Alpha  occ. eigenvalues --   -1.13625  -1.13560  -1.13547  -1.13405  -1.13367
 Alpha  occ. eigenvalues --   -1.13350  -1.13121  -1.13072  -1.13057  -1.12892
 Alpha  occ. eigenvalues --   -1.12802  -1.12751  -1.12733  -1.12725  -1.12657
 Alpha  occ. eigenvalues --   -0.18314  -0.13199  -0.12430  -0.10612
 Alpha virt. eigenvalues --   -0.06189  -0.05269  -0.04380  -0.03185  -0.02893
 Alpha virt. eigenvalues --   -0.02578  -0.01846  -0.01474  -0.00445  -0.00171
 Alpha virt. eigenvalues --    0.00049   0.00221   0.00709   0.00810   0.00859

  Beta  occ. eigenvalues --  -38.44447 -38.44247 -38.44123 -38.43800 -38.43573
  Beta  occ. eigenvalues --  -38.43101 -38.43093  -2.20263  -2.20114  -2.19922
  Beta  occ. eigenvalues --   -2.19542  -2.19417  -2.19103  -2.19004  -1.13965
  Beta  occ. eigenvalues --   -1.13936  -1.13900  -1.13844  -1.13730  -1.13722
  Beta  occ. eigenvalues --   -1.13629  -1.13558  -1.13551  -1.13271  -1.13229
  Beta  occ. eigenvalues --   -1.13211  -1.13120  -1.13070  -1.13038  -1.12857
  Beta  occ. eigenvalues --   -1.12745  -1.12711  -1.12705  -1.12666  -1.12612
  Beta  occ. eigenvalues --   -0.17598  -0.13057  -0.12263
  Beta virt. eigenvalues --   -0.06612  -0.06068  -0.05207  -0.04322  -0.02597
  Beta virt. eigenvalues --   -0.02215  -0.01798  -0.01481  -0.01393  -0.00389
  Beta virt. eigenvalues --   -0.00076   0.00165   0.00284   0.00735   0.00872

 Mulliken charges and spin densities:
               1          2
     1  Na  -0.676659   0.725352
     2  Na  -0.147544  -0.011361
     3  Na   0.111880  -0.077335
     4  Na  -0.114357   0.137501
     5  Na  -0.474067   0.264770
     6  Na   0.462830  -0.050391
     7  Na   0.837917   0.011464
 Sum of Mulliken charges =  -0.00000   1.00000

 Dipole moment (field-independent basis, Debye):
    X=              0.2179    Y=             -0.3520    Z=              0.3564  Tot=              0.5463
 Quadrupole moment (field-independent basis, Debye-Ang):
   XX=            -57.4610   YY=            -60.3620   ZZ=            -74.8899
   XY=             -0.5837   XZ=              0.0752   YZ=             -0.8549

 Normal termination of Gaussian 16 at Thu Dec  7 23:23:56 2023.
