 Gaussian 16, Revision B.01,
 Gaussian 16:  ES64L-G16RevB.01 20-Dec-2017

 -------------------------
 #P B3LYP/6-311+g(d) force
 -------------------------

 -----
 DPGEN
 -----
 Symbolic Z-matrix:
 Charge =  0 Multiplicity = 2

                         Standard orientation:
 ---------------------------------------------------------------------
 Center     Atomic      Atomic             Coordinates (Angstroms)
 Number     Number       Type             X           Y           Z
 ---------------------------------------------------------------------
      1         11           0        1.446673   -2.326037    0.075168
      2         11           0       -2.787098    0.835225   -0.524621
      3         11           0        0.126093    2.937320    0.233678
      4         11           0       -0.025985    0.400523    1.878639
      5         11           0       -1.787378   -2.230443    0.371942
      6         11           0        0.053505   -0.070503   -1.768468
      7         11           0        2.974190    0.453915   -0.266337
 ---------------------------------------------------------------------

 SCF Done:  E(UB3LYP) =  -1136.13796537     A.U. after   19 cycles

 The electronic state is 2-A.
 Alpha  occ. eigenvalues --  -38.43700 -38.43681 -38.43480 -38.43472 -38.43352
 Alpha  occ. eigenvalues --  -38.43262 -38.43218  -2.19571  -2.19555  -2.19437
 Alpha  occ. eigenvalues --   -2.19351  -2.19347  -2.19154  -2.19144  -1.13276
 Alpha  occ. eigenvalues --   -1.13265  -1.13244  -1.13221  -1.13211  -1.13195
 Alpha  occ. eigenvalues --   -1.13177  -1.13099  -1.13046  -1.13034  -1.13008
 Alpha  occ. eigenvalues --   -1.12977  -1.12965  -1.12959  -1.12958  -1.12866
 Alpha  occ. eigenvalues --   -1.12814  -1.12802  -1.12797  -1.12793  -1.12737
 Alpha  occ. eigenvalues --   -0.19174  -0.13024  -0.12723  -0.11099
 Alpha virt. eigenvalues --   -0.05306  -0.04831  -0.04722  -0.03245  -0.03135
 Alpha virt. eigenvalues --   -0.02645  -0.01301  -0.01045  -0.00179   0.00010
 Alpha virt. eigenvalues --    0.00062   0.00366   0.00897   0.00926   0.00976

  Beta  occ. eigenvalues --  -38.43694 -38.43666 -38.43472 -38.43390 -38.43276
  Beta  occ. eigenvalues --  -38.43253 -38.43211  -2.19562  -2.19530  -2.19340
  Beta  occ. eigenvalues --   -2.19284  -2.19212  -2.19142  -2.19136  -1.13264
  Beta  occ. eigenvalues --   -1.13239  -1.13226  -1.13189  -1.13187  -1.13168
  Beta  occ. eigenvalues --   -1.13140  -1.13006  -1.12975  -1.12965  -1.12949
  Beta  occ. eigenvalues --   -1.12935  -1.12899  -1.12895  -1.12869  -1.12848
  Beta  occ. eigenvalues --   -1.12801  -1.12790  -1.12768  -1.12763  -1.12725
  Beta  occ. eigenvalues --   -0.18440  -0.12744  -0.12440
  Beta virt. eigenvalues --   -0.07168  -0.05283  -0.04773  -0.04717  -0.02454
  Beta virt. eigenvalues --   -0.02329  -0.01597  -0.01204  -0.00961  -0.00175
  Beta virt. eigenvalues --   -0.00018   0.00130   0.00390   0.00913   0.00933

 Mulliken charges and spin densities:
               1          2
     1  Na   0.119399  -0.006796
     2  Na   0.169623   0.014598
     3  Na   0.154103  -0.089960
     4  Na  -0.400568   0.617846
     5  Na   0.104470   0.013859
     6  Na  -0.316549   0.522584
     7  Na   0.169521  -0.072132
 Sum of Mulliken charges =  -0.00000   1.00000

 Dipole moment (field-independent basis, Debye):
    X=              0.0220    Y=              0.2338    Z=              0.0088  Tot=              0.2350
 Quadrupole moment (field-independent basis, Debye-Ang):
   XX=            -59.1484   YY=            -62.5542   ZZ=            -72.6661
   XY=              0.4122   XZ=              0.1423   YZ=             -1.3814

 Normal termination of Gaussian 16 at Fri Dec  8 05:44:30 2023.
