 Gaussian 16, Revision B.01,
 Gaussian 16:  ES64L-G16RevB.01 20-Dec-2017

 -------------------------
 #P B3LYP/6-311+g(d) force
 -------------------------

 -----
 DPGEN
 -----
 Symbolic Z-matrix:
 Charge =  0 Multiplicity = 2

                         Standard orientation:
 ---------------------------------------------------------------------
 Center     Atomic      Atomic             Coordinates (Angstroms)
 Number     Number       Type             X           Y           Z
 ---------------------------------------------------------------------
      1         11           0        1.771013   -2.473160    0.478705
      2         11           0       -2.950208    1.563426    0.466518
      3         11           0        0.943365    2.790186    0.067848
      4         11           0       -3.587475   -1.515000   -1.014384
      5         11           0        0.604826   -0.435063    2.468195
      6         11           0       -0.222650   -0.258978   -1.043044
      7         11           0        3.441128    0.328590   -1.423838
 ---------------------------------------------------------------------

 SCF Done:  E(UB3LYP) =  -1136.12306628     A.U. after   23 cycles

 The electronic state is 2-A.
 Alpha  occ. eigenvalues --  -38.44767 -38.44649 -38.44456 -38.44196 -38.43835
 Alpha  occ. eigenvalues --  -38.43042 -38.42845  -2.20557  -2.20427  -2.20317
 Alpha  occ. eigenvalues --   -2.19987  -2.19743  -2.18905  -2.18640  -1.14226
 Alpha  occ. eigenvalues --   -1.14185  -1.14175  -1.14113  -1.14095  -1.14053
 Alpha  occ. eigenvalues --   -1.13978  -1.13954  -1.13927  -1.13654  -1.13636
 Alpha  occ. eigenvalues --   -1.13613  -1.13466  -1.13412  -1.13359  -1.12596
 Alpha  occ. eigenvalues --   -1.12571  -1.12533  -1.12326  -1.12317  -1.12269
 Alpha  occ. eigenvalues --   -0.17606  -0.13469  -0.11483  -0.11213
 Alpha virt. eigenvalues --   -0.06152  -0.05660  -0.04306  -0.03174  -0.03007
 Alpha virt. eigenvalues --   -0.02685  -0.02202  -0.01199  -0.00767  -0.00303
 Alpha virt. eigenvalues --   -0.00117   0.00192   0.00490   0.00674   0.00756

  Beta  occ. eigenvalues --  -38.44704 -38.44650 -38.44363 -38.44167 -38.43824
  Beta  occ. eigenvalues --  -38.43042 -38.42848  -2.20440  -2.20430  -2.20145
  Beta  occ. eigenvalues --   -2.19934  -2.19725  -2.18910  -2.18647  -1.14141
  Beta  occ. eigenvalues --   -1.14114  -1.14107  -1.14099  -1.14098  -1.14043
  Beta  occ. eigenvalues --   -1.13866  -1.13838  -1.13801  -1.13614  -1.13599
  Beta  occ. eigenvalues --   -1.13580  -1.13432  -1.13404  -1.13346  -1.12593
  Beta  occ. eigenvalues --   -1.12568  -1.12524  -1.12334  -1.12319  -1.12261
  Beta  occ. eigenvalues --   -0.16986  -0.13084  -0.11176
  Beta virt. eigenvalues --   -0.07714  -0.05845  -0.05277  -0.04012  -0.02898
  Beta virt. eigenvalues --   -0.02495  -0.02089  -0.01842  -0.01090  -0.00576
  Beta virt. eigenvalues --   -0.00156  -0.00002   0.00248   0.00639   0.00759

 Mulliken charges and spin densities:
               1          2
     1  Na  -0.017013   0.159289
     2  Na   0.035550   0.082990
     3  Na  -0.060536   0.072985
     4  Na   0.681780   0.158382
     5  Na  -0.181254   0.387758
     6  Na  -1.227839  -0.029784
     7  Na   0.769312   0.168380
 Sum of Mulliken charges =  -0.00000   1.00000

 Dipole moment (field-independent basis, Debye):
    X=             -0.3293    Y=             -0.0939    Z=              0.3337  Tot=              0.4782
 Quadrupole moment (field-independent basis, Debye-Ang):
   XX=            -54.8068   YY=            -70.4116   ZZ=            -69.0778
   XY=             -0.9719   XZ=             -2.7515   YZ=              4.4029

 Normal termination of Gaussian 16 at Tue Dec  5 23:17:46 2023.
