 Gaussian 16, Revision B.01,
 Gaussian 16:  ES64L-G16RevB.01 20-Dec-2017

 -------------------------
 #P B3LYP/6-311+g(d) force
 -------------------------

 -----
 DPGEN
 -----
 Symbolic Z-matrix:
 Charge =  0 Multiplicity = 2

                         Standard orientation:
 ---------------------------------------------------------------------
 Center     Atomic      Atomic             Coordinates (Angstroms)
 Number     Number       Type             X           Y           Z
 ---------------------------------------------------------------------
      1         11           0        0.136062   -1.506059   -0.751363
      2         11           0       -0.090109   -0.405951    1.856356
      3         11           0       -2.322644    1.371693    0.035060
      4         11           0       -4.273586   -1.249008   -0.572297
      5         11           0        3.368658   -1.607938    0.505902
      6         11           0        2.764431    0.858813   -1.427681
      7         11           0        0.417188    2.538450    0.354022
 ---------------------------------------------------------------------

 SCF Done:  E(UB3LYP) =  -1136.11640107     A.U. after   21 cycles

 The electronic state is 2-A.
 Alpha  occ. eigenvalues --  -38.44968 -38.44758 -38.44403 -38.44040 -38.43992
 Alpha  occ. eigenvalues --  -38.43680 -38.42375  -2.20853  -2.20585  -2.20364
 Alpha  occ. eigenvalues --   -2.19918  -2.19785  -2.19603  -2.18289  -1.14716
 Alpha  occ. eigenvalues --   -1.14515  -1.14413  -1.14269  -1.14248  -1.14213
 Alpha  occ. eigenvalues --   -1.14041  -1.13963  -1.13939  -1.13588  -1.13556
 Alpha  occ. eigenvalues --   -1.13532  -1.13460  -1.13437  -1.13401  -1.13298
 Alpha  occ. eigenvalues --   -1.13279  -1.13227  -1.11977  -1.11945  -1.11931
 Alpha  occ. eigenvalues --   -0.18533  -0.14079  -0.11752  -0.10980
 Alpha virt. eigenvalues --   -0.06761  -0.05422  -0.04271  -0.03354  -0.02834
 Alpha virt. eigenvalues --   -0.02701  -0.01934  -0.01428  -0.00578  -0.00318
 Alpha virt. eigenvalues --   -0.00008   0.00138   0.00487   0.00503   0.00741

  Beta  occ. eigenvalues --  -38.44965 -38.44752 -38.44312 -38.43977 -38.43941
  Beta  occ. eigenvalues --  -38.43673 -38.42375  -2.20853  -2.20580  -2.20198
  Beta  occ. eigenvalues --   -2.19801  -2.19690  -2.19593  -2.18293  -1.14675
  Beta  occ. eigenvalues --   -1.14507  -1.14426  -1.14262  -1.14237  -1.14195
  Beta  occ. eigenvalues --   -1.13940  -1.13858  -1.13812  -1.13509  -1.13483
  Beta  occ. eigenvalues --   -1.13449  -1.13395  -1.13371  -1.13343  -1.13289
  Beta  occ. eigenvalues --   -1.13256  -1.13215  -1.11983  -1.11946  -1.11910
  Beta  occ. eigenvalues --   -0.17952  -0.13557  -0.11403
  Beta virt. eigenvalues --   -0.07497  -0.06541  -0.05122  -0.03785  -0.03133
  Beta virt. eigenvalues --   -0.02676  -0.02047  -0.01444  -0.01242  -0.00319
  Beta virt. eigenvalues --   -0.00186   0.00107   0.00200   0.00598   0.00653

 Mulliken charges and spin densities:
               1          2
     1  Na  -0.863376   0.338222
     2  Na   0.616339  -0.012221
     3  Na  -0.043194  -0.095350
     4  Na   0.201026   0.251322
     5  Na   0.328431  -0.031992
     6  Na   0.289702   0.179323
     7  Na  -0.528928   0.370696
 Sum of Mulliken charges =  -0.00000   1.00000

 Dipole moment (field-independent basis, Debye):
    X=              0.9684    Y=             -0.7505    Z=              0.5840  Tot=              1.3572
 Quadrupole moment (field-independent basis, Debye-Ang):
   XX=            -58.8375   YY=            -72.3888   ZZ=            -67.7877
   XY=             -2.3599   XZ=              2.1726   YZ=             -0.1020

 Normal termination of Gaussian 16 at Tue Dec  5 14:14:44 2023.
