 Gaussian 16, Revision B.01,
 Gaussian 16:  ES64L-G16RevB.01 20-Dec-2017

 -------------------------
 #P B3LYP/6-311+g(d) force
 -------------------------

 -----
 DPGEN
 -----
 Symbolic Z-matrix:
 Charge =  0 Multiplicity = 2

                         Standard orientation:
 ---------------------------------------------------------------------
 Center     Atomic      Atomic             Coordinates (Angstroms)
 Number     Number       Type             X           Y           Z
 ---------------------------------------------------------------------
      1         11           0       -3.703889    0.280248   -0.239571
      2         11           0        2.145895    3.032338    0.685462
      3         11           0        1.804775   -0.391615   -1.699742
      4         11           0       -1.357974   -2.168414   -0.352447
      5         11           0       -0.577043   -0.571137    2.017168
      6         11           0       -0.873635    2.203965   -0.712370
      7         11           0        2.561872   -2.385386    0.301500
 ---------------------------------------------------------------------

 SCF Done:  E(UB3LYP) =  -1136.12280993     A.U. after   19 cycles

 The electronic state is 2-A.
 Alpha  occ. eigenvalues --  -38.44384 -38.44360 -38.44161 -38.44057 -38.43964
 Alpha  occ. eigenvalues --  -38.43846 -38.43440  -2.20254  -2.20187  -2.19981
 Alpha  occ. eigenvalues --   -2.19933  -2.19729  -2.19712  -2.19266  -1.14053
 Alpha  occ. eigenvalues --   -1.13959  -1.13922  -1.13847  -1.13833  -1.13803
 Alpha  occ. eigenvalues --   -1.13649  -1.13639  -1.13605  -1.13591  -1.13551
 Alpha  occ. eigenvalues --   -1.13522  -1.13392  -1.13390  -1.13380  -1.13365
 Alpha  occ. eigenvalues --   -1.13357  -1.13303  -1.12956  -1.12949  -1.12878
 Alpha  occ. eigenvalues --   -0.17757  -0.13205  -0.12387  -0.10457
 Alpha virt. eigenvalues --   -0.06130  -0.05677  -0.04590  -0.03348  -0.03021
 Alpha virt. eigenvalues --   -0.02392  -0.01920  -0.01525  -0.00439  -0.00312
 Alpha virt. eigenvalues --   -0.00101   0.00223   0.00564   0.00665   0.00711

  Beta  occ. eigenvalues --  -38.44377 -38.44363 -38.44144 -38.43966 -38.43950
  Beta  occ. eigenvalues --  -38.43801 -38.43429  -2.20245  -2.20195  -2.19949
  Beta  occ. eigenvalues --   -2.19765  -2.19703  -2.19628  -2.19249  -1.14019
  Beta  occ. eigenvalues --   -1.13951  -1.13897  -1.13849  -1.13832  -1.13801
  Beta  occ. eigenvalues --   -1.13629  -1.13607  -1.13585  -1.13486  -1.13430
  Beta  occ. eigenvalues --   -1.13408  -1.13376  -1.13367  -1.13349  -1.13325
  Beta  occ. eigenvalues --   -1.13304  -1.13242  -1.12945  -1.12931  -1.12856
  Beta  occ. eigenvalues --   -0.17137  -0.12888  -0.12163
  Beta virt. eigenvalues --   -0.06908  -0.05917  -0.05432  -0.04412  -0.02801
  Beta virt. eigenvalues --   -0.02498  -0.01944  -0.01488  -0.01333  -0.00370
  Beta virt. eigenvalues --   -0.00263   0.00066   0.00336   0.00651   0.00769

 Mulliken charges and spin densities:
               1          2
     1  Na   0.506448  -0.055919
     2  Na  -0.105665   0.045234
     3  Na   0.313435   0.128890
     4  Na  -0.273377   0.277724
     5  Na  -0.022693   0.517700
     6  Na  -0.499625   0.129454
     7  Na   0.081476  -0.043084
 Sum of Mulliken charges =  -0.00000   1.00000

 Dipole moment (field-independent basis, Debye):
    X=             -0.0464    Y=             -0.4833    Z=              0.3323  Tot=              0.5883
 Quadrupole moment (field-independent basis, Debye-Ang):
   XX=            -56.6972   YY=            -66.8574   ZZ=            -72.3311
   XY=             -0.4397   XZ=              3.6595   YZ=              0.8924

 Normal termination of Gaussian 16 at Sun Dec  3 19:49:05 2023.
