 Gaussian 16, Revision B.01,
 Gaussian 16:  ES64L-G16RevB.01 20-Dec-2017

 -------------------------
 #P B3LYP/6-311+g(d) force
 -------------------------

 -----
 DPGEN
 -----
 Symbolic Z-matrix:
 Charge =  0 Multiplicity = 2

                         Standard orientation:
 ---------------------------------------------------------------------
 Center     Atomic      Atomic             Coordinates (Angstroms)
 Number     Number       Type             X           Y           Z
 ---------------------------------------------------------------------
      1         11           0        1.035755   -2.849092   -0.412228
      2         11           0        3.040894   -0.166868    0.109730
      3         11           0       -2.773919   -1.523542    0.067864
      4         11           0       -0.019944    0.040361   -1.473273
      5         11           0        1.421425    2.817899   -0.096684
      6         11           0       -0.095113   -0.153500    2.027832
      7         11           0       -2.609098    1.834743   -0.223241
 ---------------------------------------------------------------------

 SCF Done:  E(UB3LYP) =  -1136.13748277     A.U. after   19 cycles

 The electronic state is 2-A.
 Alpha  occ. eigenvalues --  -38.44133 -38.44088 -38.43981 -38.43479 -38.43466
 Alpha  occ. eigenvalues --  -38.43268 -38.42942  -2.19961  -2.19908  -2.19843
 Alpha  occ. eigenvalues --   -2.19360  -2.19285  -2.19117  -2.18940  -1.13644
 Alpha  occ. eigenvalues --   -1.13632  -1.13609  -1.13584  -1.13560  -1.13526
 Alpha  occ. eigenvalues --   -1.13520  -1.13511  -1.13483  -1.13038  -1.12980
 Alpha  occ. eigenvalues --   -1.12976  -1.12965  -1.12940  -1.12928  -1.12822
 Alpha  occ. eigenvalues --   -1.12767  -1.12752  -1.12632  -1.12566  -1.12562
 Alpha  occ. eigenvalues --   -0.18529  -0.13275  -0.12218  -0.10457
 Alpha virt. eigenvalues --   -0.05635  -0.05543  -0.04708  -0.03200  -0.02609
 Alpha virt. eigenvalues --   -0.02342  -0.01631  -0.01285  -0.00555  -0.00495
 Alpha virt. eigenvalues --    0.00006   0.00347   0.00765   0.00814   0.00869

  Beta  occ. eigenvalues --  -38.44129 -38.44082 -38.43977 -38.43466 -38.43381
  Beta  occ. eigenvalues --  -38.43258 -38.42886  -2.19956  -2.19901  -2.19838
  Beta  occ. eigenvalues --   -2.19286  -2.19180  -2.19102  -2.18839  -1.13644
  Beta  occ. eigenvalues --   -1.13609  -1.13603  -1.13568  -1.13549  -1.13524
  Beta  occ. eigenvalues --   -1.13517  -1.13490  -1.13476  -1.12963  -1.12935
  Beta  occ. eigenvalues --   -1.12928  -1.12916  -1.12856  -1.12844  -1.12801
  Beta  occ. eigenvalues --   -1.12751  -1.12734  -1.12557  -1.12495  -1.12489
  Beta  occ. eigenvalues --   -0.17820  -0.13055  -0.11981
  Beta virt. eigenvalues --   -0.06560  -0.05576  -0.05532  -0.04677  -0.02412
  Beta virt. eigenvalues --   -0.01915  -0.01532  -0.01289  -0.01199  -0.00602
  Beta virt. eigenvalues --   -0.00535   0.00155   0.00382   0.00811   0.00834

 Mulliken charges and spin densities:
               1          2
     1  Na   0.170204   0.003913
     2  Na   0.270966   0.047781
     3  Na   0.215292  -0.006508
     4  Na  -0.315038   0.353821
     5  Na   0.006292  -0.073038
     6  Na  -0.415540   0.737225
     7  Na   0.067824  -0.063194
 Sum of Mulliken charges =  -0.00000   1.00000

 Dipole moment (field-independent basis, Debye):
    X=             -0.3048    Y=              0.0338    Z=              0.1643  Tot=              0.3479
 Quadrupole moment (field-independent basis, Debye-Ang):
   XX=            -55.0427   YY=            -61.0308   ZZ=            -76.2679
   XY=              0.0984   XZ=              0.3859   YZ=              0.3669

 Normal termination of Gaussian 16 at Thu Dec  7 14:00:45 2023.
