 Gaussian 16, Revision B.01,
 Gaussian 16:  ES64L-G16RevB.01 20-Dec-2017

 -------------------------
 #P B3LYP/6-311+g(d) force
 -------------------------

 -----
 DPGEN
 -----
 Symbolic Z-matrix:
 Charge =  0 Multiplicity = 2

                         Standard orientation:
 ---------------------------------------------------------------------
 Center     Atomic      Atomic             Coordinates (Angstroms)
 Number     Number       Type             X           Y           Z
 ---------------------------------------------------------------------
      1         11           0        3.076718   -1.516709   -0.128612
      2         11           0       -1.836084   -2.542705   -0.038421
      3         11           0       -2.737174    0.526961    0.235844
      4         11           0       -0.085661   -0.289226    1.820756
      5         11           0       -0.608989    2.949807   -0.436718
      6         11           0        2.262799    1.402629    0.324142
      7         11           0       -0.071609   -0.530758   -1.776992
 ---------------------------------------------------------------------

 SCF Done:  E(UB3LYP) =  -1136.13299416     A.U. after   20 cycles

 The electronic state is 2-A.
 Alpha  occ. eigenvalues --  -38.44204 -38.43947 -38.43619 -38.43591 -38.43586
 Alpha  occ. eigenvalues --  -38.43461 -38.42887  -2.20030  -2.19875  -2.19545
 Alpha  occ. eigenvalues --   -2.19508  -2.19506  -2.19396  -2.18742  -1.13740
 Alpha  occ. eigenvalues --   -1.13683  -1.13666  -1.13590  -1.13540  -1.13515
 Alpha  occ. eigenvalues --   -1.13263  -1.13232  -1.13203  -1.13171  -1.13162
 Alpha  occ. eigenvalues --   -1.13147  -1.13145  -1.13133  -1.13116  -1.13064
 Alpha  occ. eigenvalues --   -1.13012  -1.13007  -1.12415  -1.12399  -1.12387
 Alpha  occ. eigenvalues --   -0.18938  -0.13560  -0.12260  -0.10835
 Alpha virt. eigenvalues --   -0.05806  -0.05202  -0.04414  -0.03495  -0.02781
 Alpha virt. eigenvalues --   -0.02478  -0.01630  -0.01150  -0.00321  -0.00096
 Alpha virt. eigenvalues --    0.00094   0.00352   0.00803   0.00837   0.00912

  Beta  occ. eigenvalues --  -38.44206 -38.43936 -38.43614 -38.43578 -38.43509
  Beta  occ. eigenvalues --  -38.43384 -38.42882  -2.20035  -2.19859  -2.19500
  Beta  occ. eigenvalues --   -2.19496  -2.19394  -2.19254  -2.18734  -1.13746
  Beta  occ. eigenvalues --   -1.13671  -1.13669  -1.13574  -1.13515  -1.13492
  Beta  occ. eigenvalues --   -1.13215  -1.13203  -1.13150  -1.13139  -1.13135
  Beta  occ. eigenvalues --   -1.13128  -1.13103  -1.13051  -1.13036  -1.12972
  Beta  occ. eigenvalues --   -1.12915  -1.12906  -1.12412  -1.12392  -1.12366
  Beta  occ. eigenvalues --   -0.18193  -0.13314  -0.12035
  Beta virt. eigenvalues --   -0.06916  -0.05758  -0.05153  -0.04372  -0.02658
  Beta virt. eigenvalues --   -0.02058  -0.01601  -0.01418  -0.01065  -0.00378
  Beta virt. eigenvalues --   -0.00019   0.00165   0.00375   0.00832   0.00888

 Mulliken charges and spin densities:
               1          2
     1  Na   0.005796  -0.085718
     2  Na   0.100650  -0.052184
     3  Na   0.266223   0.160806
     4  Na  -0.055276   0.323253
     5  Na  -0.204627  -0.035078
     6  Na   0.101329   0.126589
     7  Na  -0.214094   0.562332
 Sum of Mulliken charges =  -0.00000   1.00000

 Dipole moment (field-independent basis, Debye):
    X=              0.1251    Y=             -0.5806    Z=             -0.0072  Tot=              0.5939
 Quadrupole moment (field-independent basis, Debye-Ang):
   XX=            -57.3096   YY=            -62.8434   ZZ=            -74.0652
   XY=             -0.7186   XZ=             -0.2603   YZ=             -0.3966

 Normal termination of Gaussian 16 at Sat Dec  9 05:26:19 2023.
