 Gaussian 16, Revision B.01,
 Gaussian 16:  ES64L-G16RevB.01 20-Dec-2017

 -------------------------
 #P B3LYP/6-311+g(d) force
 -------------------------

 -----
 DPGEN
 -----
 Symbolic Z-matrix:
 Charge =  0 Multiplicity = 2

                         Standard orientation:
 ---------------------------------------------------------------------
 Center     Atomic      Atomic             Coordinates (Angstroms)
 Number     Number       Type             X           Y           Z
 ---------------------------------------------------------------------
      1         11           0       -1.524038   -1.197789   -1.570003
      2         11           0       -0.114008    0.002703    1.990305
      3         11           0       -3.653736   -0.576455    1.038441
      4         11           0       -1.623072    2.167657   -0.557790
      5         11           0        3.738457    0.337311    0.958515
      6         11           0        1.735940   -2.090383   -0.615460
      7         11           0        1.440458    1.356957   -1.244009
 ---------------------------------------------------------------------

 SCF Done:  E(UB3LYP) =  -1136.12458976     A.U. after   28 cycles

 The electronic state is 2-A.
 Alpha  occ. eigenvalues --  -38.45277 -38.45140 -38.44584 -38.44153 -38.43663
 Alpha  occ. eigenvalues --  -38.42650 -38.42423  -2.21084  -2.20949  -2.20379
 Alpha  occ. eigenvalues --   -2.20018  -2.19511  -2.18550  -2.18291  -1.14768
 Alpha  occ. eigenvalues --   -1.14736  -1.14694  -1.14619  -1.14600  -1.14573
 Alpha  occ. eigenvalues --   -1.14054  -1.14034  -1.14021  -1.13699  -1.13657
 Alpha  occ. eigenvalues --   -1.13643  -1.13197  -1.13173  -1.13128  -1.12243
 Alpha  occ. eigenvalues --   -1.12220  -1.12189  -1.11965  -1.11962  -1.11912
 Alpha  occ. eigenvalues --   -0.18318  -0.13994  -0.11662  -0.10744
 Alpha virt. eigenvalues --   -0.06961  -0.05098  -0.04719  -0.03293  -0.02760
 Alpha virt. eigenvalues --   -0.02536  -0.02357  -0.01264  -0.00685  -0.00179
 Alpha virt. eigenvalues --    0.00123   0.00165   0.00299   0.00689   0.00721

  Beta  occ. eigenvalues --  -38.45220 -38.45118 -38.44582 -38.44095 -38.43623
  Beta  occ. eigenvalues --  -38.42638 -38.42423  -2.20978  -2.20909  -2.20376
  Beta  occ. eigenvalues --   -2.19914  -2.19443  -2.18528  -2.18293  -1.14693
  Beta  occ. eigenvalues --   -1.14664  -1.14612  -1.14589  -1.14570  -1.14549
  Beta  occ. eigenvalues --   -1.14050  -1.14032  -1.14015  -1.13625  -1.13573
  Beta  occ. eigenvalues --   -1.13570  -1.13147  -1.13124  -1.13063  -1.12232
  Beta  occ. eigenvalues --   -1.12188  -1.12173  -1.11967  -1.11953  -1.11913
  Beta  occ. eigenvalues --   -0.17564  -0.13853  -0.10541
  Beta virt. eigenvalues --   -0.07761  -0.06708  -0.04680  -0.04482  -0.02882
  Beta virt. eigenvalues --   -0.02475  -0.01899  -0.01829  -0.00898  -0.00601
  Beta virt. eigenvalues --   -0.00129   0.00149   0.00282   0.00329   0.00762

 Mulliken charges and spin densities:
               1          2
     1  Na  -0.175373   0.179152
     2  Na  -0.564230   0.419526
     3  Na   0.476442  -0.004188
     4  Na   0.012831   0.062913
     5  Na   0.757147   0.071156
     6  Na  -0.037426   0.119504
     7  Na  -0.469389   0.151937
 Sum of Mulliken charges =  -0.00000   1.00000

 Dipole moment (field-independent basis, Debye):
    X=              0.3412    Y=             -0.0924    Z=              0.8303  Tot=              0.9024
 Quadrupole moment (field-independent basis, Debye-Ang):
   XX=            -47.7153   YY=            -78.7953   ZZ=            -68.1557
   XY=              0.4197   XZ=              1.6009   YZ=              4.5186

 Normal termination of Gaussian 16 at Thu Dec  7 16:22:52 2023.
