 Gaussian 16, Revision B.01,
 Gaussian 16:  ES64L-G16RevB.01 20-Dec-2017

 -------------------------
 #P B3LYP/6-311+g(d) force
 -------------------------

 -----
 DPGEN
 -----
 Symbolic Z-matrix:
 Charge =  0 Multiplicity = 2

                         Standard orientation:
 ---------------------------------------------------------------------
 Center     Atomic      Atomic             Coordinates (Angstroms)
 Number     Number       Type             X           Y           Z
 ---------------------------------------------------------------------
      1         11           0       -1.369922    1.851907   -0.919698
      2         11           0       -3.189908    0.226163    1.504739
      3         11           0        3.695194   -0.904552    1.002031
      4         11           0        1.126103   -0.778710   -1.645214
      5         11           0       -1.921412   -1.995557   -1.100362
      6         11           0        1.696736    2.135770   -0.220118
      7         11           0       -0.036790   -0.535021    1.378620
 ---------------------------------------------------------------------

 SCF Done:  E(UB3LYP) =  -1136.12888599     A.U. after   24 cycles

 The electronic state is 2-A.
 Alpha  occ. eigenvalues --  -38.44477 -38.44426 -38.43968 -38.43840 -38.43635
 Alpha  occ. eigenvalues --  -38.42875 -38.42613  -2.20333  -2.20213  -2.19913
 Alpha  occ. eigenvalues --   -2.19780  -2.19498  -2.18769  -2.18514  -1.14019
 Alpha  occ. eigenvalues --   -1.13971  -1.13944  -1.13882  -1.13866  -1.13831
 Alpha  occ. eigenvalues --   -1.13665  -1.13559  -1.13526  -1.13476  -1.13421
 Alpha  occ. eigenvalues --   -1.13388  -1.13172  -1.13147  -1.13114  -1.12476
 Alpha  occ. eigenvalues --   -1.12445  -1.12391  -1.12189  -1.12177  -1.12138
 Alpha  occ. eigenvalues --   -0.18742  -0.13804  -0.11678  -0.11162
 Alpha virt. eigenvalues --   -0.06218  -0.04885  -0.04724  -0.03225  -0.02655
 Alpha virt. eigenvalues --   -0.02435  -0.02181  -0.00948  -0.00823   0.00025
 Alpha virt. eigenvalues --    0.00172   0.00376   0.00459   0.00690   0.00755

  Beta  occ. eigenvalues --  -38.44427 -38.44397 -38.43942 -38.43783 -38.43594
  Beta  occ. eigenvalues --  -38.42873 -38.42606  -2.20242  -2.20159  -2.19867
  Beta  occ. eigenvalues --   -2.19681  -2.19427  -2.18767  -2.18505  -1.13947
  Beta  occ. eigenvalues --   -1.13914  -1.13886  -1.13842  -1.13830  -1.13798
  Beta  occ. eigenvalues --   -1.13613  -1.13530  -1.13492  -1.13412  -1.13339
  Beta  occ. eigenvalues --   -1.13305  -1.13116  -1.13099  -1.13053  -1.12473
  Beta  occ. eigenvalues --   -1.12436  -1.12389  -1.12186  -1.12150  -1.12130
  Beta  occ. eigenvalues --   -0.18040  -0.13456  -0.10959
  Beta virt. eigenvalues --   -0.07793  -0.05955  -0.04685  -0.04295  -0.02963
  Beta virt. eigenvalues --   -0.02209  -0.01867  -0.01681  -0.00778  -0.00534
  Beta virt. eigenvalues --    0.00119   0.00224   0.00423   0.00547   0.00786

 Mulliken charges and spin densities:
               1          2
     1  Na  -0.375894   0.121171
     2  Na   0.892290  -0.048936
     3  Na   0.508784   0.169810
     4  Na   0.190566   0.238370
     5  Na  -0.198838   0.122026
     6  Na  -0.003033  -0.038291
     7  Na  -1.013875   0.435851
 Sum of Mulliken charges =  -0.00000   1.00000

 Dipole moment (field-independent basis, Debye):
    X=             -0.0280    Y=             -0.2100    Z=              0.2638  Tot=              0.3383
 Quadrupole moment (field-independent basis, Debye-Ang):
   XX=            -50.1287   YY=            -76.2818   ZZ=            -66.9180
   XY=              0.2604   XZ=              0.4632   YZ=              2.2594

 Normal termination of Gaussian 16 at Tue Dec  5 22:42:34 2023.
