 Gaussian 16, Revision B.01,
 Gaussian 16:  ES64L-G16RevB.01 20-Dec-2017

 -------------------------
 #P B3LYP/6-311+g(d) force
 -------------------------

 -----
 DPGEN
 -----
 Symbolic Z-matrix:
 Charge =  0 Multiplicity = 2

                         Standard orientation:
 ---------------------------------------------------------------------
 Center     Atomic      Atomic             Coordinates (Angstroms)
 Number     Number       Type             X           Y           Z
 ---------------------------------------------------------------------
      1         11           0        0.205364   -0.189212    2.253159
      2         11           0       -2.345241    2.159585   -0.006990
      3         11           0       -0.139883    0.050922   -1.400771
      4         11           0        0.457563   -2.991714   -0.505052
      5         11           0        3.072374   -0.618836    0.036093
      6         11           0        1.714273    2.798240   -0.357104
      7         11           0       -2.964450   -1.208984   -0.019335
 ---------------------------------------------------------------------

 SCF Done:  E(UB3LYP) =  -1136.13582332     A.U. after   19 cycles

 The electronic state is 2-A.
 Alpha  occ. eigenvalues --  -38.44141 -38.44058 -38.44012 -38.43804 -38.43729
 Alpha  occ. eigenvalues --  -38.43401 -38.42975  -2.19958  -2.19877  -2.19823
 Alpha  occ. eigenvalues --   -2.19643  -2.19515  -2.19239  -2.18963  -1.13635
 Alpha  occ. eigenvalues --   -1.13627  -1.13591  -1.13565  -1.13545  -1.13524
 Alpha  occ. eigenvalues --   -1.13502  -1.13481  -1.13442  -1.13298  -1.13265
 Alpha  occ. eigenvalues --   -1.13259  -1.13196  -1.13170  -1.13154  -1.12949
 Alpha  occ. eigenvalues --   -1.12889  -1.12866  -1.12657  -1.12600  -1.12588
 Alpha  occ. eigenvalues --   -0.18186  -0.12988  -0.12240  -0.10574
 Alpha virt. eigenvalues --   -0.05649  -0.05506  -0.04859  -0.03132  -0.02660
 Alpha virt. eigenvalues --   -0.02564  -0.01576  -0.01317  -0.00684  -0.00595
 Alpha virt. eigenvalues --   -0.00026   0.00332   0.00761   0.00810   0.00836

  Beta  occ. eigenvalues --  -38.44138 -38.44056 -38.44011 -38.43724 -38.43694
  Beta  occ. eigenvalues --  -38.43389 -38.42929  -2.19955  -2.19876  -2.19823
  Beta  occ. eigenvalues --   -2.19508  -2.19439  -2.19219  -2.18881  -1.13627
  Beta  occ. eigenvalues --   -1.13607  -1.13595  -1.13564  -1.13527  -1.13526
  Beta  occ. eigenvalues --   -1.13495  -1.13474  -1.13444  -1.13181  -1.13165
  Beta  occ. eigenvalues --   -1.13159  -1.13151  -1.13124  -1.13114  -1.12927
  Beta  occ. eigenvalues --   -1.12864  -1.12855  -1.12594  -1.12541  -1.12528
  Beta  occ. eigenvalues --   -0.17500  -0.12811  -0.12009
  Beta virt. eigenvalues --   -0.06626  -0.05594  -0.05492  -0.04790  -0.02374
  Beta virt. eigenvalues --   -0.01998  -0.01489  -0.01462  -0.01232  -0.00722
  Beta virt. eigenvalues --   -0.00634   0.00149   0.00375   0.00805   0.00825

 Mulliken charges and spin densities:
               1          2
     1  Na  -0.519928   0.760577
     2  Na   0.080294  -0.008874
     3  Na  -0.219857   0.158620
     4  Na   0.196554   0.037783
     5  Na   0.249483   0.050612
     6  Na   0.028448  -0.015688
     7  Na   0.185005   0.016970
 Sum of Mulliken charges =  -0.00000   1.00000

 Dipole moment (field-independent basis, Debye):
    X=             -0.1179    Y=              0.0390    Z=              0.1805  Tot=              0.2191
 Quadrupole moment (field-independent basis, Debye-Ang):
   XX=            -55.8580   YY=            -60.8579   ZZ=            -76.0260
   XY=             -0.1096   XZ=             -0.7193   YZ=              0.5230

 Normal termination of Gaussian 16 at Thu Dec  7 21:34:15 2023.
