 Gaussian 16, Revision B.01,
 Gaussian 16:  ES64L-G16RevB.01 20-Dec-2017

 -------------------------
 #P B3LYP/6-311+g(d) force
 -------------------------

 -----
 DPGEN
 -----
 Symbolic Z-matrix:
 Charge =  0 Multiplicity = 2

                         Standard orientation:
 ---------------------------------------------------------------------
 Center     Atomic      Atomic             Coordinates (Angstroms)
 Number     Number       Type             X           Y           Z
 ---------------------------------------------------------------------
      1         11           0        2.203531    3.247965    0.271453
      2         11           0        0.193565   -1.680693    1.661376
      3         11           0       -3.226759   -1.968009   -0.024181
      4         11           0       -3.742127    0.840832   -1.128496
      5         11           0        2.657527   -0.000982   -1.576781
      6         11           0       -0.741860    2.609346    0.925947
      7         11           0        2.656122   -3.048459   -0.129317
 ---------------------------------------------------------------------

 SCF Done:  E(UB3LYP) =  -1136.11397570     A.U. after   19 cycles

 The electronic state is 2-A.
 Alpha  occ. eigenvalues --  -38.44827 -38.44470 -38.44317 -38.44194 -38.44185
 Alpha  occ. eigenvalues --  -38.44131 -38.43914  -2.20620  -2.20268  -2.20116
 Alpha  occ. eigenvalues --   -2.20005  -2.19991  -2.19935  -2.19725  -1.14318
 Alpha  occ. eigenvalues --   -1.14284  -1.14266  -1.13956  -1.13933  -1.13914
 Alpha  occ. eigenvalues --   -1.13784  -1.13763  -1.13748  -1.13665  -1.13657
 Alpha  occ. eigenvalues --   -1.13656  -1.13647  -1.13633  -1.13632  -1.13592
 Alpha  occ. eigenvalues --   -1.13585  -1.13579  -1.13377  -1.13372  -1.13343
 Alpha  occ. eigenvalues --   -0.16246  -0.13645  -0.12902  -0.10429
 Alpha virt. eigenvalues --   -0.06889  -0.05412  -0.04480  -0.03845  -0.03287
 Alpha virt. eigenvalues --   -0.02118  -0.01867  -0.01552  -0.01056  -0.00771
 Alpha virt. eigenvalues --   -0.00422  -0.00014   0.00136   0.00397   0.00603

  Beta  occ. eigenvalues --  -38.44825 -38.44448 -38.44248 -38.44202 -38.44144
  Beta  occ. eigenvalues --  -38.44134 -38.43841  -2.20622  -2.20229  -2.20011
  Beta  occ. eigenvalues --   -2.19988  -2.19943  -2.19928  -2.19588  -1.14309
  Beta  occ. eigenvalues --   -1.14290  -1.14246  -1.13934  -1.13899  -1.13887
  Beta  occ. eigenvalues --   -1.13704  -1.13696  -1.13677  -1.13664  -1.13658
  Beta  occ. eigenvalues --   -1.13606  -1.13605  -1.13599  -1.13595  -1.13585
  Beta  occ. eigenvalues --   -1.13581  -1.13571  -1.13285  -1.13274  -1.13256
  Beta  occ. eigenvalues --   -0.15693  -0.13108  -0.12670
  Beta virt. eigenvalues --   -0.07100  -0.06754  -0.05096  -0.03952  -0.03522
  Beta virt. eigenvalues --   -0.02803  -0.01925  -0.01770  -0.01281  -0.00936
  Beta virt. eigenvalues --   -0.00618  -0.00126   0.00220   0.00331   0.00471

 Mulliken charges and spin densities:
               1          2
     1  Na   0.416618  -0.069308
     2  Na  -0.208904   0.535895
     3  Na  -0.138550  -0.082437
     4  Na   0.305159   0.239538
     5  Na  -0.469432   0.408536
     6  Na  -0.456668   0.077060
     7  Na   0.551776  -0.109282
 Sum of Mulliken charges =  -0.00000   1.00000

 Dipole moment (field-independent basis, Debye):
    X=             -0.0395    Y=             -0.1545    Z=             -0.1558  Tot=              0.2230
 Quadrupole moment (field-independent basis, Debye-Ang):
   XX=            -66.1412   YY=            -60.5051   ZZ=            -72.9179
   XY=              0.1446   XZ=              0.3607   YZ=             -0.3768

 Normal termination of Gaussian 16 at Sun Dec  3 19:07:34 2023.
