 Gaussian 16, Revision B.01,
 Gaussian 16:  ES64L-G16RevB.01 20-Dec-2017

 -------------------------
 #P B3LYP/6-311+g(d) force
 -------------------------

 -----
 DPGEN
 -----
 Symbolic Z-matrix:
 Charge =  0 Multiplicity = 2

                         Standard orientation:
 ---------------------------------------------------------------------
 Center     Atomic      Atomic             Coordinates (Angstroms)
 Number     Number       Type             X           Y           Z
 ---------------------------------------------------------------------
      1         11           0        2.432192   -1.741384    0.103139
      2         11           0        2.609252    1.460566   -0.235681
      3         11           0       -0.411607    2.652201    0.531716
      4         11           0       -0.430089   -0.306249    1.898653
      5         11           0       -1.085150   -2.462728    0.035490
      6         11           0       -3.283859    0.392509   -0.530824
      7         11           0        0.169260    0.005087   -1.802493
 ---------------------------------------------------------------------

 SCF Done:  E(UB3LYP) =  -1136.13503345     A.U. after   20 cycles

 The electronic state is 2-A.
 Alpha  occ. eigenvalues --  -38.44408 -38.43613 -38.43574 -38.43562 -38.43547
 Alpha  occ. eigenvalues --  -38.43277 -38.43056  -2.20205  -2.19544  -2.19523
 Alpha  occ. eigenvalues --   -2.19479  -2.19434  -2.19197  -2.18929  -1.13877
 Alpha  occ. eigenvalues --   -1.13853  -1.13845  -1.13313  -1.13247  -1.13206
 Alpha  occ. eigenvalues --   -1.13190  -1.13185  -1.13162  -1.13143  -1.13118
 Alpha  occ. eigenvalues --   -1.13107  -1.13080  -1.13075  -1.13045  -1.12866
 Alpha  occ. eigenvalues --   -1.12856  -1.12779  -1.12621  -1.12584  -1.12549
 Alpha  occ. eigenvalues --   -0.18962  -0.13179  -0.12372  -0.11052
 Alpha virt. eigenvalues --   -0.05817  -0.04909  -0.04320  -0.03379  -0.02982
 Alpha virt. eigenvalues --   -0.02648  -0.01730  -0.00896  -0.00164  -0.00066
 Alpha virt. eigenvalues --    0.00037   0.00346   0.00823   0.00900   0.00943

  Beta  occ. eigenvalues --  -38.44394 -38.43610 -38.43544 -38.43493 -38.43488
  Beta  occ. eigenvalues --  -38.43267 -38.43042  -2.20182  -2.19478  -2.19432
  Beta  occ. eigenvalues --   -2.19396  -2.19386  -2.19184  -2.18906  -1.13847
  Beta  occ. eigenvalues --   -1.13837  -1.13831  -1.13225  -1.13211  -1.13159
  Beta  occ. eigenvalues --   -1.13140  -1.13118  -1.13110  -1.13083  -1.13063
  Beta  occ. eigenvalues --   -1.13055  -1.13046  -1.13021  -1.13014  -1.12845
  Beta  occ. eigenvalues --   -1.12813  -1.12768  -1.12599  -1.12551  -1.12537
  Beta  occ. eigenvalues --   -0.18233  -0.12917  -0.12100
  Beta virt. eigenvalues --   -0.07152  -0.05729  -0.04897  -0.04282  -0.02633
  Beta virt. eigenvalues --   -0.02196  -0.01639  -0.01562  -0.00849  -0.00143
  Beta virt. eigenvalues --   -0.00090   0.00112   0.00375   0.00878   0.00896

 Mulliken charges and spin densities:
               1          2
     1  Na   0.118978  -0.079044
     2  Na   0.148732  -0.019623
     3  Na   0.069447  -0.017068
     4  Na  -0.278209   0.541578
     5  Na   0.321641  -0.045927
     6  Na  -0.010814   0.015802
     7  Na  -0.369774   0.604282
 Sum of Mulliken charges =  -0.00000   1.00000

 Dipole moment (field-independent basis, Debye):
    X=             -0.2818    Y=             -0.0431    Z=             -0.1210  Tot=              0.3097
 Quadrupole moment (field-independent basis, Debye-Ang):
   XX=            -55.0964   YY=            -66.2759   ZZ=            -72.5761
   XY=             -0.7519   XZ=              1.5648   YZ=              0.3059

 Normal termination of Gaussian 16 at Tue Dec  5 17:23:52 2023.
