 Gaussian 16, Revision B.01,
 Gaussian 16:  ES64L-G16RevB.01 20-Dec-2017

 -------------------------
 #P B3LYP/6-311+g(d) force
 -------------------------

 -----
 DPGEN
 -----
 Symbolic Z-matrix:
 Charge =  0 Multiplicity = 2

                         Standard orientation:
 ---------------------------------------------------------------------
 Center     Atomic      Atomic             Coordinates (Angstroms)
 Number     Number       Type             X           Y           Z
 ---------------------------------------------------------------------
      1         11           0       -0.324066   -0.395494    1.615866
      2         11           0       -0.324846   -0.558964   -1.598105
      3         11           0        1.571314   -1.856726    0.044019
      4         11           0        3.255263    0.569305   -0.070790
      5         11           0        0.664670    1.776601    0.074365
      6         11           0       -2.663771   -1.210420    0.053632
      7         11           0       -2.178564    1.675699   -0.118987
 ---------------------------------------------------------------------

 SCF Done:  E(UB3LYP) =  -1136.09229500     A.U. after   20 cycles

 The electronic state is 2-A.
 Alpha  occ. eigenvalues --  -38.45364 -38.44661 -38.43676 -38.43641 -38.43597
 Alpha  occ. eigenvalues --  -38.43590 -38.42955  -2.21277  -2.20667  -2.19866
 Alpha  occ. eigenvalues --   -2.19753  -2.19677  -2.19640  -2.19091  -1.14999
 Alpha  occ. eigenvalues --   -1.14958  -1.14891  -1.14431  -1.14352  -1.14295
 Alpha  occ. eigenvalues --   -1.13740  -1.13609  -1.13566  -1.13486  -1.13439
 Alpha  occ. eigenvalues --   -1.13399  -1.13348  -1.13314  -1.13279  -1.13227
 Alpha  occ. eigenvalues --   -1.13209  -1.13161  -1.12753  -1.12698  -1.12696
 Alpha  occ. eigenvalues --   -0.20778  -0.14689  -0.11944  -0.11245
 Alpha virt. eigenvalues --   -0.06669  -0.04926  -0.03840  -0.03443  -0.02325
 Alpha virt. eigenvalues --   -0.02306  -0.02098  -0.00811  -0.00035   0.00123
 Alpha virt. eigenvalues --    0.00279   0.00436   0.00825   0.00906   0.00930

  Beta  occ. eigenvalues --  -38.45367 -38.44646 -38.43630 -38.43590 -38.43584
  Beta  occ. eigenvalues --  -38.43513 -38.42934  -2.21287  -2.20646  -2.19713
  Beta  occ. eigenvalues --   -2.19664  -2.19636  -2.19600  -2.19062  -1.15008
  Beta  occ. eigenvalues --   -1.14968  -1.14878  -1.14420  -1.14288  -1.14286
  Beta  occ. eigenvalues --   -1.13669  -1.13538  -1.13473  -1.13414  -1.13369
  Beta  occ. eigenvalues --   -1.13329  -1.13297  -1.13255  -1.13221  -1.13209
  Beta  occ. eigenvalues --   -1.13147  -1.13097  -1.12737  -1.12685  -1.12611
  Beta  occ. eigenvalues --   -0.19992  -0.14372  -0.11654
  Beta virt. eigenvalues --   -0.07134  -0.06612  -0.04939  -0.03389  -0.02914
  Beta virt. eigenvalues --   -0.02230  -0.01533  -0.01078  -0.00784   0.00096
  Beta virt. eigenvalues --    0.00147   0.00301   0.00420   0.00849   0.00929

 Mulliken charges and spin densities:
               1          2
     1  Na  -0.223019   0.311576
     2  Na  -0.307601   0.345609
     3  Na   0.215265   0.114195
     4  Na  -0.286711  -0.052750
     5  Na  -0.034245   0.153310
     6  Na   0.565289   0.084932
     7  Na   0.071023   0.043128
 Sum of Mulliken charges =  -0.00000   1.00000

 Dipole moment (field-independent basis, Debye):
    X=              0.2958    Y=             -0.2140    Z=             -0.0774  Tot=              0.3732
 Quadrupole moment (field-independent basis, Debye-Ang):
   XX=            -46.7655   YY=            -73.4972   ZZ=            -73.2713
   XY=              0.3623   XZ=             -0.1615   YZ=             -0.5007

 Normal termination of Gaussian 16 at Sat Dec  9 06:10:56 2023.
