 Gaussian 16, Revision B.01,
 Gaussian 16:  ES64L-G16RevB.01 20-Dec-2017

 -------------------------
 #P B3LYP/6-311+g(d) force
 -------------------------

 -----
 DPGEN
 -----
 Symbolic Z-matrix:
 Charge =  0 Multiplicity = 2

                         Standard orientation:
 ---------------------------------------------------------------------
 Center     Atomic      Atomic             Coordinates (Angstroms)
 Number     Number       Type             X           Y           Z
 ---------------------------------------------------------------------
      1         11           0        1.519016    2.791129    0.099825
      2         11           0        3.030217   -0.644814   -0.614050
      3         11           0        0.765772   -2.828067    0.531007
      4         11           0       -0.315223    0.012849   -1.399738
      5         11           0       -2.881699   -1.593205   -0.260428
      6         11           0        0.164777    0.186628    1.577990
      7         11           0       -2.282860    2.075479    0.065393
 ---------------------------------------------------------------------

 SCF Done:  E(UB3LYP) =  -1136.13405911     A.U. after   20 cycles

 The electronic state is 2-A.
 Alpha  occ. eigenvalues --  -38.44115 -38.44022 -38.43811 -38.43741 -38.43397
 Alpha  occ. eigenvalues --  -38.42924 -38.42822  -2.19960  -2.19837  -2.19634
 Alpha  occ. eigenvalues --   -2.19585  -2.19265  -2.18963  -2.18840  -1.13662
 Alpha  occ. eigenvalues --   -1.13637  -1.13568  -1.13530  -1.13486  -1.13469
 Alpha  occ. eigenvalues --   -1.13326  -1.13295  -1.13265  -1.13259  -1.13242
 Alpha  occ. eigenvalues --   -1.13222  -1.12963  -1.12917  -1.12891  -1.12772
 Alpha  occ. eigenvalues --   -1.12583  -1.12567  -1.12499  -1.12444  -1.12441
 Alpha  occ. eigenvalues --   -0.18753  -0.13079  -0.12608  -0.10070
 Alpha virt. eigenvalues --   -0.05663  -0.05379  -0.04876  -0.02944  -0.02665
 Alpha virt. eigenvalues --   -0.01766  -0.01665  -0.01488  -0.00499  -0.00453
 Alpha virt. eigenvalues --    0.00061   0.00326   0.00788   0.00808   0.00857

  Beta  occ. eigenvalues --  -38.44110 -38.44017 -38.43807 -38.43720 -38.43380
  Beta  occ. eigenvalues --  -38.42873 -38.42748  -2.19954  -2.19830  -2.19631
  Beta  occ. eigenvalues --   -2.19548  -2.19237  -2.18870  -2.18705  -1.13657
  Beta  occ. eigenvalues --   -1.13618  -1.13560  -1.13517  -1.13478  -1.13459
  Beta  occ. eigenvalues --   -1.13317  -1.13286  -1.13256  -1.13232  -1.13202
  Beta  occ. eigenvalues --   -1.13200  -1.12936  -1.12880  -1.12875  -1.12693
  Beta  occ. eigenvalues --   -1.12521  -1.12494  -1.12408  -1.12353  -1.12338
  Beta  occ. eigenvalues --   -0.18095  -0.12783  -0.12338
  Beta virt. eigenvalues --   -0.06299  -0.05669  -0.05267  -0.04806  -0.02224
  Beta virt. eigenvalues --   -0.01971  -0.01571  -0.01423  -0.00865  -0.00482
  Beta virt. eigenvalues --   -0.00449   0.00182   0.00382   0.00792   0.00855

 Mulliken charges and spin densities:
               1          2
     1  Na   0.021341  -0.031217
     2  Na  -0.030649   0.133545
     3  Na   0.120661   0.072384
     4  Na  -0.279263   0.457041
     5  Na   0.086035  -0.035448
     6  Na   0.059249   0.497896
     7  Na   0.022625  -0.094200
 Sum of Mulliken charges =  -0.00000   1.00000

 Dipole moment (field-independent basis, Debye):
    X=             -0.2839    Y=              0.2398    Z=              0.0506  Tot=              0.3750
 Quadrupole moment (field-independent basis, Debye-Ang):
   XX=            -55.0225   YY=            -57.5145   ZZ=            -77.4635
   XY=              0.5091   XZ=             -1.2135   YZ=             -0.3148

 Normal termination of Gaussian 16 at Wed Nov 29 03:19:36 2023.
