 Gaussian 16, Revision B.01,
 Gaussian 16:  ES64L-G16RevB.01 20-Dec-2017

 -------------------------
 #P B3LYP/6-311+g(d) force
 -------------------------

 -----
 DPGEN
 -----
 Symbolic Z-matrix:
 Charge =  0 Multiplicity = 2

                         Standard orientation:
 ---------------------------------------------------------------------
 Center     Atomic      Atomic             Coordinates (Angstroms)
 Number     Number       Type             X           Y           Z
 ---------------------------------------------------------------------
      1         11           0        1.033611   -2.011795   -1.340395
      2         11           0        0.316524   -0.449581    2.248363
      3         11           0        1.853552    2.381548    0.087282
      4         11           0        3.473505   -0.509721    0.319532
      5         11           0       -3.328649    0.953452    0.944497
      6         11           0       -1.014424    1.441410   -2.066703
      7         11           0       -2.334120   -1.805314   -0.192576
 ---------------------------------------------------------------------

 SCF Done:  E(UB3LYP) =  -1136.12227682     A.U. after   23 cycles

 The electronic state is 2-A.
 Alpha  occ. eigenvalues --  -38.45260 -38.44855 -38.44683 -38.44121 -38.43804
 Alpha  occ. eigenvalues --  -38.43253 -38.43240  -2.21049  -2.20656  -2.20512
 Alpha  occ. eigenvalues --   -2.19911  -2.19643  -2.19073  -2.19050  -1.14720
 Alpha  occ. eigenvalues --   -1.14690  -1.14667  -1.14346  -1.14307  -1.14287
 Alpha  occ. eigenvalues --   -1.14193  -1.14163  -1.14156  -1.13577  -1.13552
 Alpha  occ. eigenvalues --   -1.13535  -1.13315  -1.13310  -1.13292  -1.12736
 Alpha  occ. eigenvalues --   -1.12728  -1.12725  -1.12721  -1.12711  -1.12697
 Alpha  occ. eigenvalues --   -0.17677  -0.13705  -0.11507  -0.11170
 Alpha virt. eigenvalues --   -0.06646  -0.05388  -0.04622  -0.03379  -0.03256
 Alpha virt. eigenvalues --   -0.02857  -0.02066  -0.00949  -0.00534  -0.00359
 Alpha virt. eigenvalues --    0.00010   0.00051   0.00304   0.00514   0.00764

  Beta  occ. eigenvalues --  -38.45192 -38.44843 -38.44684 -38.44058 -38.43800
  Beta  occ. eigenvalues --  -38.43258 -38.43201  -2.20922  -2.20634  -2.20515
  Beta  occ. eigenvalues --   -2.19794  -2.19638  -2.19061  -2.19000  -1.14636
  Beta  occ. eigenvalues --   -1.14603  -1.14571  -1.14335  -1.14285  -1.14266
  Beta  occ. eigenvalues --   -1.14189  -1.14165  -1.14157  -1.13495  -1.13469
  Beta  occ. eigenvalues --   -1.13455  -1.13312  -1.13295  -1.13278  -1.12734
  Beta  occ. eigenvalues --   -1.12729  -1.12691  -1.12686  -1.12675  -1.12655
  Beta  occ. eigenvalues --   -0.16957  -0.13553  -0.10923
  Beta virt. eigenvalues --   -0.07761  -0.06361  -0.05329  -0.03972  -0.03081
  Beta virt. eigenvalues --   -0.02686  -0.02080  -0.01908  -0.00850  -0.00455
  Beta virt. eigenvalues --   -0.00149   0.00050   0.00251   0.00346   0.00649

 Mulliken charges and spin densities:
               1          2
     1  Na  -0.310248   0.183269
     2  Na  -0.213061   0.383328
     3  Na  -0.371251  -0.074380
     4  Na   0.725892   0.073330
     5  Na   0.269363  -0.021782
     6  Na  -0.100325   0.334275
     7  Na  -0.000370   0.121961
 Sum of Mulliken charges =  -0.00000   1.00000

 Dipole moment (field-independent basis, Debye):
    X=             -0.1908    Y=             -0.0516    Z=              0.7373  Tot=              0.7634
 Quadrupole moment (field-independent basis, Debye-Ang):
   XX=            -53.5571   YY=            -76.7603   ZZ=            -67.2240
   XY=             -1.8889   XZ=             -0.6071   YZ=              1.5960

 Normal termination of Gaussian 16 at Sun Dec  3 14:38:40 2023.
