 Gaussian 16, Revision B.01,
 Gaussian 16:  ES64L-G16RevB.01 20-Dec-2017

 -------------------------
 #P B3LYP/6-311+g(d) force
 -------------------------

 -----
 DPGEN
 -----
 Symbolic Z-matrix:
 Charge =  0 Multiplicity = 2

                         Standard orientation:
 ---------------------------------------------------------------------
 Center     Atomic      Atomic             Coordinates (Angstroms)
 Number     Number       Type             X           Y           Z
 ---------------------------------------------------------------------
      1         11           0       -2.996407    2.309086   -0.750541
      2         11           0        1.442311   -3.316696    0.525928
      3         11           0       -4.391776   -0.505326    1.266538
      4         11           0        3.972323   -1.534314   -0.469764
      5         11           0       -2.291787   -2.376531   -1.057710
      6         11           0        0.871445    3.280963   -0.138353
      7         11           0        3.393892    2.142818    0.623902
 ---------------------------------------------------------------------

 SCF Done:  E(UB3LYP) =  -1136.10138350     A.U. after   22 cycles

 The electronic state is 2-A.
 Alpha  occ. eigenvalues --  -38.45866 -38.44923 -38.44481 -38.44400 -38.44229
 Alpha  occ. eigenvalues --  -38.44087 -38.43795  -2.21593  -2.20686  -2.20269
 Alpha  occ. eigenvalues --   -2.20162  -2.20012  -2.19905  -2.19641  -1.15280
 Alpha  occ. eigenvalues --   -1.15251  -1.15241  -1.14346  -1.14336  -1.14295
 Alpha  occ. eigenvalues --   -1.13947  -1.13931  -1.13910  -1.13835  -1.13825
 Alpha  occ. eigenvalues --   -1.13784  -1.13714  -1.13669  -1.13655  -1.13620
 Alpha  occ. eigenvalues --   -1.13559  -1.13548  -1.13274  -1.13259  -1.13246
 Alpha  occ. eigenvalues --   -0.15368  -0.13920  -0.12992  -0.10351
 Alpha virt. eigenvalues --   -0.07628  -0.05636  -0.04114  -0.03529  -0.02923
 Alpha virt. eigenvalues --   -0.02730  -0.02438  -0.02026  -0.01018  -0.00928
 Alpha virt. eigenvalues --   -0.00674  -0.00159   0.00090   0.00244   0.00482

  Beta  occ. eigenvalues --  -38.45884 -38.44855 -38.44448 -38.44401 -38.44138
  Beta  occ. eigenvalues --  -38.44080 -38.43759  -2.21631  -2.20559  -2.20210
  Beta  occ. eigenvalues --   -2.20169  -2.19899  -2.19843  -2.19578  -1.15310
  Beta  occ. eigenvalues --   -1.15270  -1.15250  -1.14255  -1.14251  -1.14215
  Beta  occ. eigenvalues --   -1.13912  -1.13892  -1.13867  -1.13842  -1.13829
  Beta  occ. eigenvalues --   -1.13761  -1.13676  -1.13559  -1.13553  -1.13545
  Beta  occ. eigenvalues --   -1.13536  -1.13508  -1.13231  -1.13220  -1.13196
  Beta  occ. eigenvalues --   -0.14862  -0.13415  -0.12290
  Beta virt. eigenvalues --   -0.07583  -0.07108  -0.05461  -0.03757  -0.03287
  Beta virt. eigenvalues --   -0.02632  -0.02304  -0.02173  -0.01831  -0.00889
  Beta virt. eigenvalues --   -0.00699  -0.00344  -0.00018   0.00139   0.00393

 Mulliken charges and spin densities:
               1          2
     1  Na  -0.076506   0.484261
     2  Na  -0.108502  -0.043513
     3  Na   0.242383  -0.103302
     4  Na   0.076484   0.133433
     5  Na  -0.144514   0.408303
     6  Na   0.051477   0.003956
     7  Na  -0.040822   0.116861
 Sum of Mulliken charges =  -0.00000   1.00000

 Dipole moment (field-independent basis, Debye):
    X=             -0.9781    Y=             -0.8602    Z=              0.4585  Tot=              1.3809
 Quadrupole moment (field-independent basis, Debye-Ang):
   XX=            -57.8865   YY=            -77.6838   ZZ=            -66.4602
   XY=              1.6799   XZ=             -5.5864   YZ=             -1.4970

 Normal termination of Gaussian 16 at Mon Dec  4 02:22:55 2023.
