 Gaussian 16, Revision B.01,
 Gaussian 16:  ES64L-G16RevB.01 20-Dec-2017

 -------------------------
 #P B3LYP/6-311+g(d) force
 -------------------------

 -----
 DPGEN
 -----
 Symbolic Z-matrix:
 Charge =  0 Multiplicity = 2

                         Standard orientation:
 ---------------------------------------------------------------------
 Center     Atomic      Atomic             Coordinates (Angstroms)
 Number     Number       Type             X           Y           Z
 ---------------------------------------------------------------------
      1         11           0       -3.758129   -1.279755   -0.374255
      2         11           0        1.808384   -2.166382    1.118186
      3         11           0       -0.583370   -1.525332   -1.174763
      4         11           0        3.342492    0.070328   -1.333372
      5         11           0       -0.046560    2.465672   -1.309414
      6         11           0        1.240535    0.917777    1.985097
      7         11           0       -2.003352    1.517691    1.088523
 ---------------------------------------------------------------------

 SCF Done:  E(UB3LYP) =  -1136.12534284     A.U. after   20 cycles

 The electronic state is 2-A.
 Alpha  occ. eigenvalues --  -38.45169 -38.43910 -38.43898 -38.43856 -38.43844
 Alpha  occ. eigenvalues --  -38.43720 -38.43586  -2.20939  -2.19762  -2.19721
 Alpha  occ. eigenvalues --   -2.19695  -2.19647  -2.19550  -2.19441  -1.14608
 Alpha  occ. eigenvalues --   -1.14584  -1.14561  -1.13473  -1.13425  -1.13408
 Alpha  occ. eigenvalues --   -1.13391  -1.13373  -1.13372  -1.13356  -1.13331
 Alpha  occ. eigenvalues --   -1.13324  -1.13311  -1.13306  -1.13300  -1.13238
 Alpha  occ. eigenvalues --   -1.13221  -1.13144  -1.13124  -1.13107  -1.13044
 Alpha  occ. eigenvalues --   -0.17715  -0.13253  -0.11729  -0.11366
 Alpha virt. eigenvalues --   -0.06493  -0.05064  -0.04656  -0.03381  -0.03115
 Alpha virt. eigenvalues --   -0.02727  -0.02092  -0.00910  -0.00640  -0.00201
 Alpha virt. eigenvalues --    0.00022   0.00214   0.00287   0.00532   0.00765

  Beta  occ. eigenvalues --  -38.45121 -38.43884 -38.43862 -38.43834 -38.43814
  Beta  occ. eigenvalues --  -38.43706 -38.43575  -2.20850  -2.19672  -2.19660
  Beta  occ. eigenvalues --   -2.19646  -2.19643  -2.19525  -2.19423  -1.14542
  Beta  occ. eigenvalues --   -1.14519  -1.14500  -1.13399  -1.13376  -1.13348
  Beta  occ. eigenvalues --   -1.13342  -1.13331  -1.13330  -1.13326  -1.13318
  Beta  occ. eigenvalues --   -1.13309  -1.13303  -1.13275  -1.13252  -1.13211
  Beta  occ. eigenvalues --   -1.13202  -1.13131  -1.13102  -1.13092  -1.13033
  Beta  occ. eigenvalues --   -0.17043  -0.13062  -0.11579
  Beta virt. eigenvalues --   -0.07530  -0.06245  -0.04907  -0.04090  -0.03155
  Beta virt. eigenvalues --   -0.02604  -0.02137  -0.01712  -0.00835  -0.00322
  Beta virt. eigenvalues --   -0.00061   0.00075   0.00279   0.00374   0.00679

 Mulliken charges and spin densities:
               1          2
     1  Na   0.189288  -0.180909
     2  Na   0.293219   0.037458
     3  Na  -0.372937   0.305747
     4  Na  -0.054043   0.260520
     5  Na  -0.193298   0.118209
     6  Na  -0.043200   0.309779
     7  Na   0.180971   0.149197
 Sum of Mulliken charges =  -0.00000   1.00000

 Dipole moment (field-independent basis, Debye):
    X=              0.5224    Y=              0.1213    Z=             -0.0925  Tot=              0.5442
 Quadrupole moment (field-independent basis, Debye-Ang):
   XX=            -54.9022   YY=            -72.6693   ZZ=            -68.2909
   XY=             -1.0171   XZ=             -2.6773   YZ=             -2.4735

 Normal termination of Gaussian 16 at Mon Dec  4 00:31:14 2023.
