 Gaussian 16, Revision B.01,
 Gaussian 16:  ES64L-G16RevB.01 20-Dec-2017

 -------------------------
 #P B3LYP/6-311+g(d) force
 -------------------------

 -----
 DPGEN
 -----
 Symbolic Z-matrix:
 Charge =  0 Multiplicity = 2

                         Standard orientation:
 ---------------------------------------------------------------------
 Center     Atomic      Atomic             Coordinates (Angstroms)
 Number     Number       Type             X           Y           Z
 ---------------------------------------------------------------------
      1         11           0       -3.704275   -0.389474    1.199661
      2         11           0       -1.201229    2.324599   -0.452835
      3         11           0        1.138899   -1.119686   -1.345106
      4         11           0       -2.498162   -1.405466   -1.535890
      5         11           0        2.137945    1.808892   -0.655614
      6         11           0        4.104760   -1.157725    0.718904
      7         11           0        0.022062   -0.061140    2.070880
 ---------------------------------------------------------------------

 SCF Done:  E(UB3LYP) =  -1136.11897556     A.U. after   26 cycles

 The electronic state is 2-A.
 Alpha  occ. eigenvalues --  -38.45493 -38.44663 -38.44363 -38.44228 -38.43912
 Alpha  occ. eigenvalues --  -38.43783 -38.42887  -2.21283  -2.20468  -2.20224
 Alpha  occ. eigenvalues --   -2.19995  -2.19745  -2.19651  -2.18709  -1.14972
 Alpha  occ. eigenvalues --   -1.14912  -1.14895  -1.14151  -1.14134  -1.14105
 Alpha  occ. eigenvalues --   -1.13925  -1.13906  -1.13821  -1.13672  -1.13663
 Alpha  occ. eigenvalues --   -1.13621  -1.13403  -1.13391  -1.13386  -1.13359
 Alpha  occ. eigenvalues --   -1.13305  -1.13245  -1.12383  -1.12373  -1.12347
 Alpha  occ. eigenvalues --   -0.17848  -0.13872  -0.11444  -0.10909
 Alpha virt. eigenvalues --   -0.07057  -0.05367  -0.04875  -0.03353  -0.02710
 Alpha virt. eigenvalues --   -0.02624  -0.02317  -0.01419  -0.00997  -0.00307
 Alpha virt. eigenvalues --    0.00055   0.00088   0.00323   0.00339   0.00626

  Beta  occ. eigenvalues --  -38.45426 -38.44661 -38.44316 -38.44230 -38.43872
  Beta  occ. eigenvalues --  -38.43768 -38.42882  -2.21158  -2.20464  -2.20139
  Beta  occ. eigenvalues --   -2.19998  -2.19671  -2.19625  -2.18700  -1.14886
  Beta  occ. eigenvalues --   -1.14828  -1.14797  -1.14149  -1.14129  -1.14094
  Beta  occ. eigenvalues --   -1.13862  -1.13851  -1.13745  -1.13674  -1.13662
  Beta  occ. eigenvalues --   -1.13623  -1.13350  -1.13343  -1.13332  -1.13329
  Beta  occ. eigenvalues --   -1.13286  -1.13231  -1.12372  -1.12363  -1.12338
  Beta  occ. eigenvalues --   -0.17139  -0.13848  -0.10769
  Beta virt. eigenvalues --   -0.07555  -0.06689  -0.05124  -0.04453  -0.02906
  Beta virt. eigenvalues --   -0.02541  -0.02115  -0.01701  -0.01118  -0.00766
  Beta virt. eigenvalues --   -0.00308   0.00073   0.00263   0.00361   0.00465

 Mulliken charges and spin densities:
               1          2
     1  Na   0.493559   0.067061
     2  Na  -0.152635   0.216347
     3  Na  -0.391454   0.426998
     4  Na  -0.213609   0.007158
     5  Na   0.344724  -0.129068
     6  Na   0.412968  -0.029448
     7  Na  -0.493553   0.440952
 Sum of Mulliken charges =  -0.00000   1.00000

 Dipole moment (field-independent basis, Debye):
    X=              0.0478    Y=              0.3134    Z=              0.6723  Tot=              0.7433
 Quadrupole moment (field-independent basis, Debye-Ang):
   XX=            -53.3158   YY=            -76.8239   ZZ=            -68.1399
   XY=             -0.2866   XZ=             -0.3523   YZ=             -0.8370

 Normal termination of Gaussian 16 at Thu Dec  7 21:30:42 2023.
