 Gaussian 16, Revision B.01,
 Gaussian 16:  ES64L-G16RevB.01 20-Dec-2017

 -------------------------
 #P B3LYP/6-311+g(d) force
 -------------------------

 -----
 DPGEN
 -----
 Symbolic Z-matrix:
 Charge =  0 Multiplicity = 2

                         Standard orientation:
 ---------------------------------------------------------------------
 Center     Atomic      Atomic             Coordinates (Angstroms)
 Number     Number       Type             X           Y           Z
 ---------------------------------------------------------------------
      1         11           0        2.475426   -1.199211   -0.241062
      2         11           0       -2.890398   -0.299444    0.137647
      3         11           0       -0.065102   -0.119664   -1.803108
      4         11           0       -1.282256    2.825804   -0.190385
      5         11           0        0.068433   -0.273845    1.982071
      6         11           0       -0.548550   -2.805821   -0.085964
      7         11           0        2.242447    1.872181    0.200801
 ---------------------------------------------------------------------

 SCF Done:  E(UB3LYP) =  -1136.13925425     A.U. after   19 cycles

 The electronic state is 2-A.
 Alpha  occ. eigenvalues --  -38.43615 -38.43603 -38.43582 -38.43501 -38.43382
 Alpha  occ. eigenvalues --  -38.43312 -38.43304  -2.19551  -2.19467  -2.19393
 Alpha  occ. eigenvalues --   -2.19373  -2.19368  -2.19254  -2.19215  -1.13238
 Alpha  occ. eigenvalues --   -1.13198  -1.13184  -1.13155  -1.13129  -1.13115
 Alpha  occ. eigenvalues --   -1.13106  -1.13081  -1.13072  -1.13055  -1.13033
 Alpha  occ. eigenvalues --   -1.13032  -1.13015  -1.13000  -1.12990  -1.12906
 Alpha  occ. eigenvalues --   -1.12893  -1.12878  -1.12869  -1.12861  -1.12822
 Alpha  occ. eigenvalues --   -0.19114  -0.12984  -0.12654  -0.11099
 Alpha virt. eigenvalues --   -0.05237  -0.04892  -0.04867  -0.03257  -0.03022
 Alpha virt. eigenvalues --   -0.02768  -0.01140  -0.01110  -0.00212  -0.00059
 Alpha virt. eigenvalues --   -0.00007   0.00377   0.00903   0.00930   0.00948

  Beta  occ. eigenvalues --  -38.43598 -38.43581 -38.43525 -38.43496 -38.43304
  Beta  occ. eigenvalues --  -38.43301 -38.43295  -2.19461  -2.19395  -2.19385
  Beta  occ. eigenvalues --   -2.19366  -2.19241  -2.19227  -2.19205  -1.13167
  Beta  occ. eigenvalues --   -1.13135  -1.13121  -1.13110  -1.13096  -1.13071
  Beta  occ. eigenvalues --   -1.13060  -1.13049  -1.13045  -1.13035  -1.13018
  Beta  occ. eigenvalues --   -1.13002  -1.12994  -1.12940  -1.12904  -1.12882
  Beta  occ. eigenvalues --   -1.12863  -1.12848  -1.12833  -1.12820  -1.12810
  Beta  occ. eigenvalues --   -0.18343  -0.12722  -0.12408
  Beta virt. eigenvalues --   -0.07130  -0.05244  -0.04879  -0.04814  -0.02409
  Beta virt. eigenvalues --   -0.02244  -0.01689  -0.01066  -0.01039  -0.00249
  Beta virt. eigenvalues --   -0.00119   0.00114   0.00393   0.00911   0.00936

 Mulliken charges and spin densities:
               1          2
     1  Na   0.409247  -0.005431
     2  Na   0.079435  -0.086554
     3  Na  -0.355980   0.608888
     4  Na  -0.056590  -0.104959
     5  Na  -0.481778   0.701685
     6  Na   0.406538  -0.057883
     7  Na  -0.000872  -0.055747
 Sum of Mulliken charges =  -0.00000   1.00000

 Dipole moment (field-independent basis, Debye):
    X=             -0.1669    Y=              0.0717    Z=              0.1184  Tot=              0.2168
 Quadrupole moment (field-independent basis, Debye-Ang):
   XX=            -61.1552   YY=            -60.9907   ZZ=            -72.4809
   XY=              0.3507   XZ=             -0.2571   YZ=              0.3543

 Normal termination of Gaussian 16 at Fri Dec  8 03:52:21 2023.
