 Gaussian 16, Revision B.01,
 Gaussian 16:  ES64L-G16RevB.01 20-Dec-2017

 -------------------------
 #P B3LYP/6-311+g(d) force
 -------------------------

 -----
 DPGEN
 -----
 Symbolic Z-matrix:
 Charge =  0 Multiplicity = 2

                         Standard orientation:
 ---------------------------------------------------------------------
 Center     Atomic      Atomic             Coordinates (Angstroms)
 Number     Number       Type             X           Y           Z
 ---------------------------------------------------------------------
      1         11           0        3.051226    0.366313    1.027066
      2         11           0        1.892182    3.724576   -0.218558
      3         11           0       -4.116235    1.043752   -0.579727
      4         11           0        4.173811   -2.434940   -0.245122
      5         11           0       -5.826942   -1.426402    0.615962
      6         11           0       -0.028730    1.051888   -0.020604
      7         11           0        0.854689   -2.325187   -0.579018
 ---------------------------------------------------------------------

 SCF Done:  E(UB3LYP) =  -1136.11641399     A.U. after   19 cycles

 The electronic state is 2-A.
 Alpha  occ. eigenvalues --  -38.44480 -38.44294 -38.44193 -38.44129 -38.44070
 Alpha  occ. eigenvalues --  -38.43941 -38.43512  -2.20338  -2.20074  -2.20026
 Alpha  occ. eigenvalues --   -2.19892  -2.19865  -2.19775  -2.19389  -1.14046
 Alpha  occ. eigenvalues --   -1.14021  -1.13933  -1.13731  -1.13726  -1.13724
 Alpha  occ. eigenvalues --   -1.13696  -1.13689  -1.13647  -1.13566  -1.13552
 Alpha  occ. eigenvalues --   -1.13534  -1.13527  -1.13524  -1.13494  -1.13438
 Alpha  occ. eigenvalues --   -1.13428  -1.13397  -1.13084  -1.13059  -1.12989
 Alpha  occ. eigenvalues --   -0.16819  -0.13364  -0.12487  -0.10673
 Alpha virt. eigenvalues --   -0.06299  -0.06054  -0.03894  -0.03849  -0.03034
 Alpha virt. eigenvalues --   -0.02316  -0.02118  -0.01354  -0.01058  -0.00962
 Alpha virt. eigenvalues --   -0.00283  -0.00015  -0.00007   0.00430   0.00571

  Beta  occ. eigenvalues --  -38.44444 -38.44257 -38.44141 -38.44140 -38.44056
  Beta  occ. eigenvalues --  -38.43914 -38.43470  -2.20274  -2.20004  -2.19929
  Beta  occ. eigenvalues --   -2.19918  -2.19839  -2.19727  -2.19315  -1.13990
  Beta  occ. eigenvalues --   -1.13974  -1.13885  -1.13694  -1.13679  -1.13676
  Beta  occ. eigenvalues --   -1.13632  -1.13616  -1.13586  -1.13574  -1.13567
  Beta  occ. eigenvalues --   -1.13520  -1.13515  -1.13509  -1.13475  -1.13398
  Beta  occ. eigenvalues --   -1.13390  -1.13366  -1.13038  -1.13012  -1.12911
  Beta  occ. eigenvalues --   -0.16117  -0.13086  -0.12250
  Beta virt. eigenvalues --   -0.07175  -0.05989  -0.05644  -0.03655  -0.03480
  Beta virt. eigenvalues --   -0.02567  -0.02170  -0.02018  -0.01097  -0.00964
  Beta virt. eigenvalues --   -0.00535  -0.00010   0.00074   0.00243   0.00537

 Mulliken charges and spin densities:
               1          2
     1  Na   0.225804   0.363557
     2  Na   0.927600   0.234437
     3  Na  -0.460184  -0.052548
     4  Na   0.677607   0.274976
     5  Na   0.059804   0.126887
     6  Na  -1.309836   0.037049
     7  Na  -0.120794   0.015642
 Sum of Mulliken charges =  -0.00000   1.00000

 Dipole moment (field-independent basis, Debye):
    X=              0.6250    Y=             -0.3522    Z=             -0.2474  Tot=              0.7588
 Quadrupole moment (field-independent basis, Debye-Ang):
   XX=            -68.1592   YY=            -56.9387   ZZ=            -70.7597
   XY=              3.0186   XZ=             -2.6281   YZ=             -2.7043

 Normal termination of Gaussian 16 at Tue Nov 28 19:03:58 2023.
