 Gaussian 16, Revision B.01,
 Gaussian 16:  ES64L-G16RevB.01 20-Dec-2017

 -------------------------
 #P B3LYP/6-311+g(d) force
 -------------------------

 -----
 DPGEN
 -----
 Symbolic Z-matrix:
 Charge =  0 Multiplicity = 2

                         Standard orientation:
 ---------------------------------------------------------------------
 Center     Atomic      Atomic             Coordinates (Angstroms)
 Number     Number       Type             X           Y           Z
 ---------------------------------------------------------------------
      1         11           0        0.371358   -1.476003    1.656327
      2         11           0        3.304889   -1.524210    0.105717
      3         11           0       -3.033284   -1.718880   -0.746663
      4         11           0       -0.214632    2.838932   -0.357236
      5         11           0       -3.198692    1.282435    0.876343
      6         11           0       -0.052041   -1.181460   -1.331774
      7         11           0        2.822402    1.779185   -0.202715
 ---------------------------------------------------------------------

 SCF Done:  E(UB3LYP) =  -1136.11907275     A.U. after   22 cycles

 The electronic state is 2-A.
 Alpha  occ. eigenvalues --  -38.44696 -38.44660 -38.44412 -38.44156 -38.43995
 Alpha  occ. eigenvalues --  -38.43902 -38.43286  -2.20551  -2.20498  -2.20261
 Alpha  occ. eigenvalues --   -2.19962  -2.19827  -2.19821  -2.19088  -1.14290
 Alpha  occ. eigenvalues --   -1.14195  -1.14193  -1.14163  -1.14154  -1.14095
 Alpha  occ. eigenvalues --   -1.13969  -1.13908  -1.13894  -1.13621  -1.13607
 Alpha  occ. eigenvalues --   -1.13591  -1.13526  -1.13499  -1.13482  -1.13461
 Alpha  occ. eigenvalues --   -1.13449  -1.13435  -1.12769  -1.12760  -1.12730
 Alpha  occ. eigenvalues --   -0.17814  -0.14001  -0.12341  -0.10170
 Alpha virt. eigenvalues --   -0.06953  -0.05946  -0.04356  -0.03480  -0.02674
 Alpha virt. eigenvalues --   -0.02481  -0.02049  -0.01612  -0.00896  -0.00229
 Alpha virt. eigenvalues --   -0.00122   0.00157   0.00397   0.00569   0.00614

  Beta  occ. eigenvalues --  -38.44655 -38.44654 -38.44381 -38.44105 -38.43983
  Beta  occ. eigenvalues --  -38.43851 -38.43289  -2.20489  -2.20475  -2.20209
  Beta  occ. eigenvalues --   -2.19867  -2.19801  -2.19736  -2.19096  -1.14238
  Beta  occ. eigenvalues --   -1.14165  -1.14156  -1.14140  -1.14138  -1.14057
  Beta  occ. eigenvalues --   -1.13916  -1.13875  -1.13847  -1.13552  -1.13543
  Beta  occ. eigenvalues --   -1.13529  -1.13490  -1.13461  -1.13458  -1.13448
  Beta  occ. eigenvalues --   -1.13390  -1.13357  -1.12777  -1.12765  -1.12714
  Beta  occ. eigenvalues --   -0.17343  -0.13611  -0.11957
  Beta virt. eigenvalues --   -0.06871  -0.06720  -0.05676  -0.04033  -0.03046
  Beta virt. eigenvalues --   -0.02408  -0.02036  -0.01650  -0.01192  -0.00804
  Beta virt. eigenvalues --   -0.00063   0.00024   0.00232   0.00532   0.00692

 Mulliken charges and spin densities:
               1          2
     1  Na  -0.268979   0.257052
     2  Na   0.777561   0.093979
     3  Na   0.437972  -0.058425
     4  Na   0.028742  -0.103875
     5  Na  -0.111005   0.352578
     6  Na  -0.613548   0.410657
     7  Na  -0.250744   0.048034
 Sum of Mulliken charges =  -0.00000   1.00000

 Dipole moment (field-independent basis, Debye):
    X=              0.4758    Y=             -0.9895    Z=              0.1742  Tot=              1.1117
 Quadrupole moment (field-independent basis, Debye-Ang):
   XX=            -50.3935   YY=            -73.4307   ZZ=            -73.7152
   XY=              0.0106   XZ=             -0.8982   YZ=              0.1719

 Normal termination of Gaussian 16 at Tue Nov 28 20:05:00 2023.
