 Gaussian 16, Revision B.01,
 Gaussian 16:  ES64L-G16RevB.01 20-Dec-2017

 -------------------------
 #P B3LYP/6-311+g(d) force
 -------------------------

 -----
 DPGEN
 -----
 Symbolic Z-matrix:
 Charge =  0 Multiplicity = 2

                         Standard orientation:
 ---------------------------------------------------------------------
 Center     Atomic      Atomic             Coordinates (Angstroms)
 Number     Number       Type             X           Y           Z
 ---------------------------------------------------------------------
      1         11           0       -3.044001   -2.665397    0.198343
      2         11           0        4.211464    1.202783   -0.318490
      3         11           0        3.563841   -2.282909   -0.727170
      4         11           0       -4.576092    0.197735   -0.811886
      5         11           0        0.506617   -2.973201    0.955114
      6         11           0        1.427442    3.125709    0.514251
      7         11           0       -2.089272    3.395280    0.189839
 ---------------------------------------------------------------------

 SCF Done:  E(UB3LYP) =  -1136.10533703     A.U. after   25 cycles

 The electronic state is 2-A.
 Alpha  occ. eigenvalues --  -38.45430 -38.44936 -38.44787 -38.44653 -38.44557
 Alpha  occ. eigenvalues --  -38.44246 -38.44103  -2.21174  -2.20696  -2.20546
 Alpha  occ. eigenvalues --   -2.20430  -2.20314  -2.20043  -2.19887  -1.14860
 Alpha  occ. eigenvalues --   -1.14842  -1.14822  -1.14379  -1.14370  -1.14344
 Alpha  occ. eigenvalues --   -1.14211  -1.14199  -1.14172  -1.14088  -1.14069
 Alpha  occ. eigenvalues --   -1.14061  -1.14001  -1.13993  -1.13952  -1.13700
 Alpha  occ. eigenvalues --   -1.13687  -1.13669  -1.13544  -1.13540  -1.13509
 Alpha  occ. eigenvalues --   -0.15349  -0.13870  -0.13264  -0.10811
 Alpha virt. eigenvalues --   -0.08032  -0.04922  -0.04708  -0.03545  -0.03465
 Alpha virt. eigenvalues --   -0.02323  -0.02058  -0.01893  -0.01343  -0.01260
 Alpha virt. eigenvalues --   -0.00835  -0.00207   0.00005   0.00238   0.00664

  Beta  occ. eigenvalues --  -38.45442 -38.44930 -38.44737 -38.44598 -38.44557
  Beta  occ. eigenvalues --  -38.44189 -38.44043  -2.21201  -2.20692  -2.20456
  Beta  occ. eigenvalues --   -2.20331  -2.20319  -2.19937  -2.19775  -1.14883
  Beta  occ. eigenvalues --   -1.14864  -1.14811  -1.14381  -1.14372  -1.14302
  Beta  occ. eigenvalues --   -1.14151  -1.14139  -1.14100  -1.14022  -1.14009
  Beta  occ. eigenvalues --   -1.14005  -1.14001  -1.13985  -1.13922  -1.13627
  Beta  occ. eigenvalues --   -1.13619  -1.13601  -1.13467  -1.13464  -1.13438
  Beta  occ. eigenvalues --   -0.14835  -0.13171  -0.12521
  Beta virt. eigenvalues --   -0.08179  -0.07754  -0.04406  -0.04155  -0.03377
  Beta virt. eigenvalues --   -0.03216  -0.02142  -0.01922  -0.01729  -0.01109
  Beta virt. eigenvalues --   -0.00963  -0.00559   0.00061   0.00189   0.00208

 Mulliken charges and spin densities:
               1          2
     1  Na   0.135283   0.049927
     2  Na  -0.023885   0.319101
     3  Na   0.305633  -0.056813
     4  Na   0.043632   0.245182
     5  Na  -0.578408   0.278134
     6  Na   0.005918  -0.023252
     7  Na   0.111826   0.187721
 Sum of Mulliken charges =  -0.00000   1.00000

 Dipole moment (field-independent basis, Debye):
    X=              0.0186    Y=             -0.2613    Z=             -0.2841  Tot=              0.3864
 Quadrupole moment (field-independent basis, Debye-Ang):
   XX=            -59.4557   YY=            -67.6285   ZZ=            -72.2618
   XY=             -4.7840   XZ=             -0.7114   YZ=              0.6201

 Normal termination of Gaussian 16 at Sun Dec  3 19:39:23 2023.
