 Gaussian 16, Revision B.01,
 Gaussian 16:  ES64L-G16RevB.01 20-Dec-2017

 -------------------------
 #P B3LYP/6-311+g(d) force
 -------------------------

 -----
 DPGEN
 -----
 Symbolic Z-matrix:
 Charge =  0 Multiplicity = 2

                         Standard orientation:
 ---------------------------------------------------------------------
 Center     Atomic      Atomic             Coordinates (Angstroms)
 Number     Number       Type             X           Y           Z
 ---------------------------------------------------------------------
      1         11           0       -1.818283   -2.560158    1.168513
      2         11           0        3.418568   -0.946055   -0.791648
      3         11           0        3.438809    1.681105    1.249773
      4         11           0       -2.699363    2.749027   -0.677059
      5         11           0        0.310557    3.348527   -0.204081
      6         11           0        1.239246   -3.400233   -0.805383
      7         11           0       -3.889534   -0.872213    0.059884
 ---------------------------------------------------------------------

 SCF Done:  E(UB3LYP) =  -1136.10934050     A.U. after   20 cycles

 The electronic state is 2-A.
 Alpha  occ. eigenvalues --  -38.44668 -38.44661 -38.44623 -38.44586 -38.44185
 Alpha  occ. eigenvalues --  -38.44154 -38.44033  -2.20504  -2.20458  -2.20447
 Alpha  occ. eigenvalues --   -2.20371  -2.19995  -2.19965  -2.19845  -1.14367
 Alpha  occ. eigenvalues --   -1.14146  -1.14141  -1.14133  -1.14128  -1.14117
 Alpha  occ. eigenvalues --   -1.14083  -1.14071  -1.14065  -1.14046  -1.14015
 Alpha  occ. eigenvalues --   -1.14003  -1.13645  -1.13639  -1.13620  -1.13609
 Alpha  occ. eigenvalues --   -1.13605  -1.13590  -1.13504  -1.13495  -1.13471
 Alpha  occ. eigenvalues --   -0.15809  -0.13995  -0.13536  -0.10969
 Alpha virt. eigenvalues --   -0.07178  -0.04687  -0.04409  -0.03725  -0.03553
 Alpha virt. eigenvalues --   -0.02149  -0.01991  -0.01574  -0.01347  -0.01191
 Alpha virt. eigenvalues --   -0.00496  -0.00130   0.00060   0.00499   0.00787

  Beta  occ. eigenvalues --  -38.44653 -38.44635 -38.44608 -38.44573 -38.44120
  Beta  occ. eigenvalues --  -38.44082 -38.43993  -2.20452  -2.20450  -2.20420
  Beta  occ. eigenvalues --   -2.20355  -2.19875  -2.19831  -2.19774  -1.14321
  Beta  occ. eigenvalues --   -1.14139  -1.14132  -1.14113  -1.14095  -1.14067
  Beta  occ. eigenvalues --   -1.14064  -1.14053  -1.14046  -1.14040  -1.13979
  Beta  occ. eigenvalues --   -1.13959  -1.13563  -1.13559  -1.13538  -1.13517
  Beta  occ. eigenvalues --   -1.13516  -1.13501  -1.13453  -1.13448  -1.13420
  Beta  occ. eigenvalues --   -0.15293  -0.13235  -0.12721
  Beta virt. eigenvalues --   -0.07843  -0.07334  -0.04269  -0.03960  -0.03491
  Beta virt. eigenvalues --   -0.03207  -0.01905  -0.01776  -0.01350  -0.01127
  Beta virt. eigenvalues --   -0.00902  -0.00301   0.00109   0.00257   0.00490

 Mulliken charges and spin densities:
               1          2
     1  Na  -0.234010   0.036244
     2  Na  -0.186036   0.053310
     3  Na   0.167911   0.327191
     4  Na   0.335314   0.112879
     5  Na  -0.267555   0.084067
     6  Na   0.258064   0.265913
     7  Na  -0.073688   0.120396
 Sum of Mulliken charges =  -0.00000   1.00000

 Dipole moment (field-independent basis, Debye):
    X=             -0.3009    Y=             -0.2294    Z=              0.0855  Tot=              0.3879
 Quadrupole moment (field-independent basis, Debye-Ang):
   XX=            -62.6265   YY=            -69.9986   ZZ=            -69.3707
   XY=              0.3130   XZ=              1.9787   YZ=              0.2291

 Normal termination of Gaussian 16 at Sun Dec  3 17:47:15 2023.
