 Gaussian 16, Revision B.01,
 Gaussian 16:  ES64L-G16RevB.01 20-Dec-2017

 -------------------------
 #P B3LYP/6-311+g(d) force
 -------------------------

 -----
 DPGEN
 -----
 Symbolic Z-matrix:
 Charge =  0 Multiplicity = 2

                         Standard orientation:
 ---------------------------------------------------------------------
 Center     Atomic      Atomic             Coordinates (Angstroms)
 Number     Number       Type             X           Y           Z
 ---------------------------------------------------------------------
      1         11           0        2.736721   -1.487899    0.075968
      2         11           0       -0.076685   -0.036937    2.205025
      3         11           0       -0.408165   -2.489427   -0.238145
      4         11           0        2.138382    2.057343   -0.305967
      5         11           0        0.140976    0.021984   -1.548590
      6         11           0       -1.240256    2.447130    0.057012
      7         11           0       -3.290972   -0.512194   -0.245303
 ---------------------------------------------------------------------

 SCF Done:  E(UB3LYP) =  -1136.13473842     A.U. after   20 cycles

 The electronic state is 2-A.
 Alpha  occ. eigenvalues --  -38.44089 -38.43874 -38.43749 -38.43472 -38.43260
 Alpha  occ. eigenvalues --  -38.43253 -38.43126  -2.19895  -2.19755  -2.19601
 Alpha  occ. eigenvalues --   -2.19344  -2.19321  -2.19142  -2.19068  -1.13564
 Alpha  occ. eigenvalues --   -1.13554  -1.13541  -1.13417  -1.13384  -1.13367
 Alpha  occ. eigenvalues --   -1.13282  -1.13259  -1.13252  -1.13162  -1.13079
 Alpha  occ. eigenvalues --   -1.12999  -1.12979  -1.12960  -1.12898  -1.12813
 Alpha  occ. eigenvalues --   -1.12811  -1.12751  -1.12717  -1.12714  -1.12650
 Alpha  occ. eigenvalues --   -0.18980  -0.12947  -0.12533  -0.11030
 Alpha virt. eigenvalues --   -0.05647  -0.05049  -0.04316  -0.03135  -0.02941
 Alpha virt. eigenvalues --   -0.02806  -0.01675  -0.01029  -0.00146  -0.00038
 Alpha virt. eigenvalues --   -0.00003   0.00330   0.00789   0.00914   0.00938

  Beta  occ. eigenvalues --  -38.44087 -38.43767 -38.43746 -38.43465 -38.43254
  Beta  occ. eigenvalues --  -38.43194 -38.43115  -2.19895  -2.19600  -2.19557
  Beta  occ. eigenvalues --   -2.19333  -2.19215  -2.19135  -2.19052  -1.13558
  Beta  occ. eigenvalues --   -1.13546  -1.13541  -1.13293  -1.13276  -1.13255
  Beta  occ. eigenvalues --   -1.13244  -1.13239  -1.13221  -1.13111  -1.13040
  Beta  occ. eigenvalues --   -1.12973  -1.12967  -1.12917  -1.12835  -1.12794
  Beta  occ. eigenvalues --   -1.12772  -1.12751  -1.12697  -1.12664  -1.12642
  Beta  occ. eigenvalues --   -0.18236  -0.12732  -0.12269
  Beta virt. eigenvalues --   -0.07030  -0.05606  -0.05045  -0.04304  -0.02364
  Beta virt. eigenvalues --   -0.02122  -0.01679  -0.01594  -0.00974  -0.00174
  Beta virt. eigenvalues --   -0.00060   0.00113   0.00354   0.00849   0.00900

 Mulliken charges and spin densities:
               1          2
     1  Na   0.243539   0.020397
     2  Na  -0.708981   0.720267
     3  Na   0.420159   0.036203
     4  Na   0.285278  -0.008160
     5  Na  -0.596734   0.260092
     6  Na   0.267643   0.015629
     7  Na   0.089096  -0.044426
 Sum of Mulliken charges =  -0.00000   1.00000

 Dipole moment (field-independent basis, Debye):
    X=             -0.0593    Y=              0.0306    Z=              0.3274  Tot=              0.3341
 Quadrupole moment (field-independent basis, Debye-Ang):
   XX=            -54.3492   YY=            -65.8602   ZZ=            -73.1169
   XY=             -0.2456   XZ=              0.6291   YZ=             -0.0419

 Normal termination of Gaussian 16 at Thu Dec  7 21:45:30 2023.
