 Gaussian 16, Revision B.01,
 Gaussian 16:  ES64L-G16RevB.01 20-Dec-2017

 -------------------------
 #P B3LYP/6-311+g(d) force
 -------------------------

 -----
 DPGEN
 -----
 Symbolic Z-matrix:
 Charge =  0 Multiplicity = 2

                         Standard orientation:
 ---------------------------------------------------------------------
 Center     Atomic      Atomic             Coordinates (Angstroms)
 Number     Number       Type             X           Y           Z
 ---------------------------------------------------------------------
      1         11           0       -0.153858   -1.064013   -1.156861
      2         11           0       -0.798387    1.907704    0.306457
      3         11           0       -3.860188    0.037444   -1.300030
      4         11           0        3.219284   -1.508767   -0.670770
      5         11           0        2.757968    1.873278   -0.416925
      6         11           0        1.156008   -0.487886    1.689100
      7         11           0       -2.320827   -0.757761    1.549030
 ---------------------------------------------------------------------

 SCF Done:  E(UB3LYP) =  -1136.12238346     A.U. after   28 cycles

 The electronic state is 2-A.
 Alpha  occ. eigenvalues --  -38.44574 -38.44539 -38.44405 -38.44096 -38.43776
 Alpha  occ. eigenvalues --  -38.43166 -38.42582  -2.20446  -2.20392  -2.20292
 Alpha  occ. eigenvalues --   -2.19932  -2.19755  -2.19030  -2.18486  -1.14136
 Alpha  occ. eigenvalues --   -1.14119  -1.14090  -1.14045  -1.14034  -1.14030
 Alpha  occ. eigenvalues --   -1.13990  -1.13981  -1.13876  -1.13610  -1.13581
 Alpha  occ. eigenvalues --   -1.13551  -1.13471  -1.13389  -1.13351  -1.12703
 Alpha  occ. eigenvalues --   -1.12683  -1.12672  -1.12210  -1.12161  -1.12078
 Alpha  occ. eigenvalues --   -0.18838  -0.14498  -0.11417  -0.10688
 Alpha virt. eigenvalues --   -0.06891  -0.05240  -0.04841  -0.03036  -0.02747
 Alpha virt. eigenvalues --   -0.02364  -0.01995  -0.01258  -0.00920  -0.00105
 Alpha virt. eigenvalues --    0.00053   0.00331   0.00373   0.00536   0.00651

  Beta  occ. eigenvalues --  -38.44525 -38.44499 -38.44400 -38.44059 -38.43718
  Beta  occ. eigenvalues --  -38.43164 -38.42576  -2.20380  -2.20299  -2.20286
  Beta  occ. eigenvalues --   -2.19863  -2.19654  -2.19027  -2.18477  -1.14090
  Beta  occ. eigenvalues --   -1.14063  -1.14033  -1.14011  -1.13974  -1.13968
  Beta  occ. eigenvalues --   -1.13957  -1.13928  -1.13878  -1.13561  -1.13535
  Beta  occ. eigenvalues --   -1.13504  -1.13404  -1.13291  -1.13283  -1.12700
  Beta  occ. eigenvalues --   -1.12678  -1.12665  -1.12208  -1.12126  -1.12077
  Beta  occ. eigenvalues --   -0.18150  -0.14146  -0.10496
  Beta virt. eigenvalues --   -0.07603  -0.06650  -0.04720  -0.04581  -0.02747
  Beta virt. eigenvalues --   -0.02600  -0.01729  -0.01512  -0.00834  -0.00779
  Beta virt. eigenvalues --    0.00049   0.00094   0.00400   0.00450   0.00662

 Mulliken charges and spin densities:
               1          2
     1  Na  -1.259505   0.155305
     2  Na  -0.567519   0.190155
     3  Na   0.789791   0.227834
     4  Na   0.878040   0.042456
     5  Na  -0.191702   0.176202
     6  Na  -0.069699   0.182231
     7  Na   0.420594   0.025816
 Sum of Mulliken charges =  -0.00000   1.00000

 Dipole moment (field-independent basis, Debye):
    X=             -0.5716    Y=              0.1752    Z=              0.3066  Tot=              0.6719
 Quadrupole moment (field-independent basis, Debye-Ang):
   XX=            -50.2628   YY=            -77.8851   ZZ=            -67.2978
   XY=              1.1571   XZ=             -0.9686   YZ=             -5.5190

 Normal termination of Gaussian 16 at Wed Nov 29 17:25:22 2023.
