 Gaussian 16, Revision B.01,
 Gaussian 16:  ES64L-G16RevB.01 20-Dec-2017

 -------------------------
 #P B3LYP/6-311+g(d) force
 -------------------------

 -----
 DPGEN
 -----
 Symbolic Z-matrix:
 Charge =  0 Multiplicity = 2

                         Standard orientation:
 ---------------------------------------------------------------------
 Center     Atomic      Atomic             Coordinates (Angstroms)
 Number     Number       Type             X           Y           Z
 ---------------------------------------------------------------------
      1         11           0        1.215685   -1.692823   -1.083801
      2         11           0        0.695213    0.399313    2.014728
      3         11           0       -1.994072   -1.719669    1.163150
      4         11           0        3.752241   -0.092527    0.346781
      5         11           0        0.771207    2.133713   -1.230388
      6         11           0       -1.871392   -0.645499   -1.757122
      7         11           0       -2.568883    1.617491    0.546651
 ---------------------------------------------------------------------

 SCF Done:  E(UB3LYP) =  -1136.12890828     A.U. after   22 cycles

 The electronic state is 2-A.
 Alpha  occ. eigenvalues --  -38.44803 -38.44239 -38.43952 -38.43805 -38.43649
 Alpha  occ. eigenvalues --  -38.43580 -38.42942  -2.20605  -2.20095  -2.19757
 Alpha  occ. eigenvalues --   -2.19694  -2.19572  -2.19421  -2.18807  -1.14279
 Alpha  occ. eigenvalues --   -1.14267  -1.14238  -1.13781  -1.13740  -1.13709
 Alpha  occ. eigenvalues --   -1.13441  -1.13418  -1.13408  -1.13370  -1.13362
 Alpha  occ. eigenvalues --   -1.13312  -1.13245  -1.13224  -1.13175  -1.13090
 Alpha  occ. eigenvalues --   -1.13079  -1.13049  -1.12505  -1.12478  -1.12423
 Alpha  occ. eigenvalues --   -0.18500  -0.13658  -0.11864  -0.11039
 Alpha virt. eigenvalues --   -0.06402  -0.04817  -0.04670  -0.03346  -0.03007
 Alpha virt. eigenvalues --   -0.02769  -0.02004  -0.00691  -0.00611  -0.00141
 Alpha virt. eigenvalues --    0.00212   0.00265   0.00363   0.00693   0.00856

  Beta  occ. eigenvalues --  -38.44803 -38.44180 -38.43908 -38.43769 -38.43611
  Beta  occ. eigenvalues --  -38.43579 -38.42925  -2.20607  -2.19987  -2.19677
  Beta  occ. eigenvalues --   -2.19629  -2.19503  -2.19423  -2.18779  -1.14274
  Beta  occ. eigenvalues --   -1.14266  -1.14241  -1.13710  -1.13656  -1.13631
  Beta  occ. eigenvalues --   -1.13383  -1.13379  -1.13347  -1.13315  -1.13307
  Beta  occ. eigenvalues --   -1.13262  -1.13190  -1.13188  -1.13121  -1.13076
  Beta  occ. eigenvalues --   -1.13070  -1.13045  -1.12482  -1.12439  -1.12408
  Beta  occ. eigenvalues --   -0.17692  -0.13531  -0.10844
  Beta virt. eigenvalues --   -0.07865  -0.06184  -0.04665  -0.04105  -0.03021
  Beta virt. eigenvalues --   -0.02407  -0.01974  -0.01921  -0.00597  -0.00310
  Beta virt. eigenvalues --   -0.00033   0.00264   0.00377   0.00419   0.00802

 Mulliken charges and spin densities:
               1          2
     1  Na  -0.339637   0.067649
     2  Na  -0.285484   0.343788
     3  Na   0.182310   0.159765
     4  Na   0.438317  -0.051829
     5  Na  -0.322168   0.141654
     6  Na   0.171995   0.410869
     7  Na   0.154668  -0.071896
 Sum of Mulliken charges =  -0.00000   1.00000

 Dipole moment (field-independent basis, Debye):
    X=              0.7575    Y=              0.2409    Z=              0.3166  Tot=              0.8556
 Quadrupole moment (field-independent basis, Debye-Ang):
   XX=            -51.7312   YY=            -76.8260   ZZ=            -66.3871
   XY=              0.5803   XZ=             -0.1965   YZ=             -3.9210

 Normal termination of Gaussian 16 at Thu Dec  7 08:32:31 2023.
