 Gaussian 16, Revision B.01,
 Gaussian 16:  ES64L-G16RevB.01 20-Dec-2017

 -------------------------
 #P B3LYP/6-311+g(d) force
 -------------------------

 -----
 DPGEN
 -----
 Symbolic Z-matrix:
 Charge =  0 Multiplicity = 2

                         Standard orientation:
 ---------------------------------------------------------------------
 Center     Atomic      Atomic             Coordinates (Angstroms)
 Number     Number       Type             X           Y           Z
 ---------------------------------------------------------------------
      1         11           0        0.510751   -2.345711    1.434634
      2         11           0        2.243628    1.936610   -0.530398
      3         11           0       -0.032861   -0.306983   -1.245066
      4         11           0       -0.634021    2.877950    0.737595
      5         11           0       -3.365493   -0.890303   -1.437963
      6         11           0        3.168953   -1.330685   -0.392612
      7         11           0       -1.890957    0.059122    1.433811
 ---------------------------------------------------------------------

 SCF Done:  E(UB3LYP) =  -1136.12918280     A.U. after   20 cycles

 The electronic state is 2-A.
 Alpha  occ. eigenvalues --  -38.44383 -38.43963 -38.43721 -38.43718 -38.43523
 Alpha  occ. eigenvalues --  -38.43487 -38.43310  -2.20216  -2.19802  -2.19690
 Alpha  occ. eigenvalues --   -2.19578  -2.19458  -2.19350  -2.19167  -1.13874
 Alpha  occ. eigenvalues --   -1.13850  -1.13839  -1.13477  -1.13473  -1.13456
 Alpha  occ. eigenvalues --   -1.13421  -1.13353  -1.13315  -1.13251  -1.13219
 Alpha  occ. eigenvalues --   -1.13196  -1.13151  -1.13107  -1.13088  -1.13034
 Alpha  occ. eigenvalues --   -1.13015  -1.12985  -1.12828  -1.12807  -1.12789
 Alpha  occ. eigenvalues --   -0.18292  -0.13571  -0.12290  -0.11165
 Alpha virt. eigenvalues --   -0.05895  -0.05111  -0.04869  -0.03351  -0.02750
 Alpha virt. eigenvalues --   -0.02403  -0.01960  -0.00898  -0.00431  -0.00126
 Alpha virt. eigenvalues --   -0.00049   0.00274   0.00487   0.00635   0.00862

  Beta  occ. eigenvalues --  -38.44314 -38.43965 -38.43690 -38.43670 -38.43487
  Beta  occ. eigenvalues --  -38.43483 -38.43290  -2.20088  -2.19808  -2.19640
  Beta  occ. eigenvalues --   -2.19484  -2.19397  -2.19346  -2.19133  -1.13776
  Beta  occ. eigenvalues --   -1.13767  -1.13756  -1.13481  -1.13475  -1.13447
  Beta  occ. eigenvalues --   -1.13373  -1.13323  -1.13276  -1.13185  -1.13155
  Beta  occ. eigenvalues --   -1.13135  -1.13111  -1.13058  -1.13030  -1.13021
  Beta  occ. eigenvalues --   -1.13008  -1.12979  -1.12796  -1.12786  -1.12768
  Beta  occ. eigenvalues --   -0.17720  -0.13161  -0.12057
  Beta virt. eigenvalues --   -0.07463  -0.05669  -0.04839  -0.04458  -0.03027
  Beta virt. eigenvalues --   -0.02355  -0.01879  -0.01442  -0.00833  -0.00137
  Beta virt. eigenvalues --   -0.00058   0.00092   0.00331   0.00651   0.00780

 Mulliken charges and spin densities:
               1          2
     1  Na  -0.633908   0.210101
     2  Na   0.418812   0.015564
     3  Na  -0.733713   0.164965
     4  Na  -0.551647   0.092434
     5  Na  -0.151914   0.269195
     6  Na   0.801253  -0.032604
     7  Na   0.851115   0.280346
 Sum of Mulliken charges =  -0.00000   1.00000

 Dipole moment (field-independent basis, Debye):
    X=              0.0866    Y=             -0.3158    Z=              0.0471  Tot=              0.3308
 Quadrupole moment (field-independent basis, Debye-Ang):
   XX=            -55.4238   YY=            -68.4296   ZZ=            -70.5085
   XY=             -0.8423   XZ=             -0.1795   YZ=              0.2550

 Normal termination of Gaussian 16 at Wed Nov 29 03:01:33 2023.
