 Gaussian 16, Revision B.01,
 Gaussian 16:  ES64L-G16RevB.01 20-Dec-2017

 -------------------------
 #P B3LYP/6-311+g(d) force
 -------------------------

 -----
 DPGEN
 -----
 Symbolic Z-matrix:
 Charge =  0 Multiplicity = 2

                         Standard orientation:
 ---------------------------------------------------------------------
 Center     Atomic      Atomic             Coordinates (Angstroms)
 Number     Number       Type             X           Y           Z
 ---------------------------------------------------------------------
      1         11           0       -3.112711   -0.503534    0.076362
      2         11           0       -1.285699    2.604882   -0.284623
      3         11           0       -0.116216   -0.079762   -1.646151
      4         11           0        2.023516    2.154131    0.090020
      5         11           0        2.881065   -1.061570   -0.012010
      6         11           0       -0.245419   -0.217065    2.085164
      7         11           0       -0.144536   -2.897082   -0.308763
 ---------------------------------------------------------------------

 SCF Done:  E(UB3LYP) =  -1136.13968962     A.U. after   18 cycles

 The electronic state is 2-A.
 Alpha  occ. eigenvalues --  -38.44007 -38.43730 -38.43688 -38.43501 -38.43403
 Alpha  occ. eigenvalues --  -38.43377 -38.43134  -2.19833  -2.19573  -2.19567
 Alpha  occ. eigenvalues --   -2.19367  -2.19269  -2.19235  -2.19135  -1.13509
 Alpha  occ. eigenvalues --   -1.13500  -1.13470  -1.13252  -1.13240  -1.13231
 Alpha  occ. eigenvalues --   -1.13218  -1.13198  -1.13185  -1.13104  -1.13020
 Alpha  occ. eigenvalues --   -1.12995  -1.12977  -1.12943  -1.12911  -1.12902
 Alpha  occ. eigenvalues --   -1.12892  -1.12851  -1.12800  -1.12757  -1.12743
 Alpha  occ. eigenvalues --   -0.18745  -0.12883  -0.12642  -0.10841
 Alpha virt. eigenvalues --   -0.05584  -0.04956  -0.04817  -0.03129  -0.02977
 Alpha virt. eigenvalues --   -0.02659  -0.01464  -0.01090  -0.00326  -0.00259
 Alpha virt. eigenvalues --   -0.00012   0.00365   0.00841   0.00891   0.00919

  Beta  occ. eigenvalues --  -38.44003 -38.43729 -38.43593 -38.43490 -38.43396
  Beta  occ. eigenvalues --  -38.43375 -38.43067  -2.19829  -2.19570  -2.19393
  Beta  occ. eigenvalues --   -2.19352  -2.19259  -2.19234  -2.19014  -1.13500
  Beta  occ. eigenvalues --   -1.13479  -1.13471  -1.13252  -1.13223  -1.13213
  Beta  occ. eigenvalues --   -1.13120  -1.13085  -1.13071  -1.13058  -1.12992
  Beta  occ. eigenvalues --   -1.12979  -1.12970  -1.12929  -1.12900  -1.12895
  Beta  occ. eigenvalues --   -1.12873  -1.12850  -1.12721  -1.12672  -1.12659
  Beta  occ. eigenvalues --   -0.18015  -0.12661  -0.12384
  Beta virt. eigenvalues --   -0.06906  -0.05560  -0.04971  -0.04752  -0.02344
  Beta virt. eigenvalues --   -0.02190  -0.01573  -0.01379  -0.01015  -0.00389
  Beta virt. eigenvalues --   -0.00307   0.00127   0.00387   0.00865   0.00893

 Mulliken charges and spin densities:
               1          2
     1  Na   0.223900  -0.060599
     2  Na   0.198453  -0.030351
     3  Na  -0.247995   0.434360
     4  Na   0.039530  -0.026440
     5  Na   0.089975  -0.038819
     6  Na  -0.573040   0.797268
     7  Na   0.269176  -0.075419
 Sum of Mulliken charges =  -0.00000   1.00000

 Dipole moment (field-independent basis, Debye):
    X=             -0.2088    Y=             -0.1729    Z=              0.1916  Tot=              0.3319
 Quadrupole moment (field-independent basis, Debye-Ang):
   XX=            -57.3724   YY=            -62.2825   ZZ=            -74.0311
   XY=             -0.0561   XZ=              0.3629   YZ=              0.2600

 Normal termination of Gaussian 16 at Fri Dec  8 07:13:03 2023.
