 Gaussian 16, Revision B.01,
 Gaussian 16:  ES64L-G16RevB.01 20-Dec-2017

 -------------------------
 #P B3LYP/6-311+g(d) force
 -------------------------

 -----
 DPGEN
 -----
 Symbolic Z-matrix:
 Charge =  0 Multiplicity = 2

                         Standard orientation:
 ---------------------------------------------------------------------
 Center     Atomic      Atomic             Coordinates (Angstroms)
 Number     Number       Type             X           Y           Z
 ---------------------------------------------------------------------
      1         11           0       -2.089275    2.481607   -0.536324
      2         11           0       -3.074487   -1.320024    0.265567
      3         11           0       -0.038570    0.268684   -1.759268
      4         11           0        3.338710   -0.554929   -0.500842
      5         11           0        0.226244   -2.998171   -0.275997
      6         11           0        0.134973   -0.349879    2.087371
      7         11           0        1.502405    2.472712    0.719493
 ---------------------------------------------------------------------

 SCF Done:  E(UB3LYP) =  -1136.13467722     A.U. after   19 cycles

 The electronic state is 2-A.
 Alpha  occ. eigenvalues --  -38.44285 -38.44149 -38.43969 -38.43688 -38.43658
 Alpha  occ. eigenvalues --  -38.43593 -38.43571  -2.20051  -2.19925  -2.19826
 Alpha  occ. eigenvalues --   -2.19495  -2.19490  -2.19482  -2.19375  -1.13735
 Alpha  occ. eigenvalues --   -1.13704  -1.13689  -1.13603  -1.13572  -1.13569
 Alpha  occ. eigenvalues --   -1.13495  -1.13466  -1.13442  -1.13191  -1.13188
 Alpha  occ. eigenvalues --   -1.13173  -1.13167  -1.13145  -1.13140  -1.13113
 Alpha  occ. eigenvalues --   -1.13110  -1.13104  -1.13038  -1.13016  -1.13004
 Alpha  occ. eigenvalues --   -0.17907  -0.12531  -0.12332  -0.10934
 Alpha virt. eigenvalues --   -0.05796  -0.05165  -0.04854  -0.03225  -0.03037
 Alpha virt. eigenvalues --   -0.02708  -0.01669  -0.01223  -0.00553  -0.00455
 Alpha virt. eigenvalues --   -0.00044   0.00336   0.00735   0.00795   0.00829

  Beta  occ. eigenvalues --  -38.44284 -38.44140 -38.43881 -38.43684 -38.43638
  Beta  occ. eigenvalues --  -38.43563 -38.43532  -2.20051  -2.19911  -2.19664
  Beta  occ. eigenvalues --   -2.19490  -2.19449  -2.19378  -2.19362  -1.13725
  Beta  occ. eigenvalues --   -1.13705  -1.13687  -1.13585  -1.13563  -1.13557
  Beta  occ. eigenvalues --   -1.13388  -1.13354  -1.13322  -1.13174  -1.13162
  Beta  occ. eigenvalues --   -1.13141  -1.13116  -1.13104  -1.13102  -1.13083
  Beta  occ. eigenvalues --   -1.13078  -1.13043  -1.13013  -1.12997  -1.12982
  Beta  occ. eigenvalues --   -0.17192  -0.12321  -0.12073
  Beta virt. eigenvalues --   -0.07099  -0.05758  -0.05074  -0.04709  -0.02520
  Beta virt. eigenvalues --   -0.02382  -0.01742  -0.01567  -0.01121  -0.00513
  Beta virt. eigenvalues --   -0.00486   0.00078   0.00374   0.00788   0.00840

 Mulliken charges and spin densities:
               1          2
     1  Na   0.037731  -0.038627
     2  Na  -0.045612  -0.054031
     3  Na   0.033597   0.535735
     4  Na   0.011339  -0.026446
     5  Na  -0.014791  -0.074559
     6  Na  -0.075584   0.564250
     7  Na   0.053320   0.093679
 Sum of Mulliken charges =  -0.00000   1.00000

 Dipole moment (field-independent basis, Debye):
    X=             -0.0245    Y=             -0.2042    Z=              0.0991  Tot=              0.2283
 Quadrupole moment (field-independent basis, Debye-Ang):
   XX=            -56.9608   YY=            -63.2829   ZZ=            -73.4547
   XY=              0.0706   XZ=             -0.9087   YZ=              1.3412

 Normal termination of Gaussian 16 at Tue Dec  5 19:09:22 2023.
