 Gaussian 16, Revision B.01,
 Gaussian 16:  ES64L-G16RevB.01 20-Dec-2017

 -------------------------
 #P B3LYP/6-311+g(d) force
 -------------------------

 -----
 DPGEN
 -----
 Symbolic Z-matrix:
 Charge =  0 Multiplicity = 2

                         Standard orientation:
 ---------------------------------------------------------------------
 Center     Atomic      Atomic             Coordinates (Angstroms)
 Number     Number       Type             X           Y           Z
 ---------------------------------------------------------------------
      1         11           0       -0.038381    1.805095   -0.761731
      2         11           0        2.997023    2.934356    0.428581
      3         11           0        3.155355   -0.533388    1.203855
      4         11           0        2.802052   -3.002456   -0.750644
      5         11           0       -0.403240   -1.397058   -0.206442
      6         11           0       -3.142585    0.828923   -1.179863
      7         11           0       -5.370224   -0.635472    1.266244
 ---------------------------------------------------------------------

 SCF Done:  E(UB3LYP) =  -1136.12163368     A.U. after   21 cycles

 The electronic state is 2-A.
 Alpha  occ. eigenvalues --  -38.44985 -38.44831 -38.44392 -38.44239 -38.43819
 Alpha  occ. eigenvalues --  -38.43566 -38.42962  -2.20778  -2.20652  -2.20222
 Alpha  occ. eigenvalues --   -2.20061  -2.19634  -2.19438  -2.18766  -1.14411
 Alpha  occ. eigenvalues --   -1.14410  -1.14382  -1.14368  -1.14351  -1.14215
 Alpha  occ. eigenvalues --   -1.13926  -1.13887  -1.13837  -1.13750  -1.13720
 Alpha  occ. eigenvalues --   -1.13715  -1.13308  -1.13291  -1.13260  -1.13142
 Alpha  occ. eigenvalues --   -1.13115  -1.13036  -1.12428  -1.12422  -1.12406
 Alpha  occ. eigenvalues --   -0.16888  -0.14193  -0.12044  -0.11358
 Alpha virt. eigenvalues --   -0.06120  -0.05505  -0.04640  -0.03736  -0.02859
 Alpha virt. eigenvalues --   -0.02583  -0.01939  -0.01711  -0.00888  -0.00494
 Alpha virt. eigenvalues --   -0.00249  -0.00102   0.00039   0.00230   0.00616

  Beta  occ. eigenvalues --  -38.44858 -38.44805 -38.44370 -38.44238 -38.43818
  Beta  occ. eigenvalues --  -38.43540 -38.42946  -2.20606  -2.20542  -2.20182
  Beta  occ. eigenvalues --   -2.20067  -2.19633  -2.19394  -2.18736  -1.14335
  Beta  occ. eigenvalues --   -1.14315  -1.14250  -1.14249  -1.14226  -1.14184
  Beta  occ. eigenvalues --   -1.13899  -1.13861  -1.13802  -1.13759  -1.13728
  Beta  occ. eigenvalues --   -1.13670  -1.13304  -1.13290  -1.13259  -1.13111
  Beta  occ. eigenvalues --   -1.13088  -1.12992  -1.12409  -1.12398  -1.12388
  Beta  occ. eigenvalues --   -0.16407  -0.13450  -0.11769
  Beta virt. eigenvalues --   -0.07737  -0.05932  -0.05226  -0.04241  -0.03513
  Beta virt. eigenvalues --   -0.02593  -0.02175  -0.01557  -0.01423  -0.00523
  Beta virt. eigenvalues --   -0.00314  -0.00028   0.00041   0.00189   0.00389

 Mulliken charges and spin densities:
               1          2
     1  Na  -0.729805  -0.066856
     2  Na   1.117988   0.337294
     3  Na  -0.353438   0.152246
     4  Na   0.744469   0.021687
     5  Na  -0.930392  -0.020535
     6  Na  -0.078794  -0.105280
     7  Na   0.229972   0.681442
 Sum of Mulliken charges =  -0.00000   1.00000

 Dipole moment (field-independent basis, Debye):
    X=             -0.1697    Y=             -0.8022    Z=             -0.2187  Tot=              0.8486
 Quadrupole moment (field-independent basis, Debye-Ang):
   XX=            -64.2611   YY=            -68.7426   ZZ=            -67.0404
   XY=             -3.0036   XZ=              0.1345   YZ=             -0.9630

 Normal termination of Gaussian 16 at Wed Nov 29 02:51:29 2023.
