 Gaussian 16, Revision B.01,
 Gaussian 16:  ES64L-G16RevB.01 20-Dec-2017

 -------------------------
 #P B3LYP/6-311+g(d) force
 -------------------------

 -----
 DPGEN
 -----
 Symbolic Z-matrix:
 Charge =  0 Multiplicity = 2

                         Standard orientation:
 ---------------------------------------------------------------------
 Center     Atomic      Atomic             Coordinates (Angstroms)
 Number     Number       Type             X           Y           Z
 ---------------------------------------------------------------------
      1         11           0        2.273930   -1.839312    0.719837
      2         11           0       -0.553675   -1.001303    2.071699
      3         11           0       -0.352333   -0.380017   -1.795663
      4         11           0       -3.688204   -1.344274   -0.926761
      5         11           0        3.876914    0.268082   -0.893728
      6         11           0        0.939691    2.393224    0.286044
      7         11           0       -2.496323    1.903600    0.538572
 ---------------------------------------------------------------------

 SCF Done:  E(UB3LYP) =  -1136.12039612     A.U. after   24 cycles

 The electronic state is 2-A.
 Alpha  occ. eigenvalues --  -38.45483 -38.44941 -38.44403 -38.44253 -38.43997
 Alpha  occ. eigenvalues --  -38.43591 -38.42640  -2.21275  -2.20754  -2.20248
 Alpha  occ. eigenvalues --   -2.20034  -2.19806  -2.19457  -2.18447  -1.14967
 Alpha  occ. eigenvalues --   -1.14931  -1.14888  -1.14439  -1.14403  -1.14374
 Alpha  occ. eigenvalues --   -1.13931  -1.13866  -1.13862  -1.13699  -1.13693
 Alpha  occ. eigenvalues --   -1.13663  -1.13490  -1.13463  -1.13430  -1.13139
 Alpha  occ. eigenvalues --   -1.13110  -1.13104  -1.12142  -1.12129  -1.12071
 Alpha  occ. eigenvalues --   -0.17764  -0.13832  -0.11523  -0.11082
 Alpha virt. eigenvalues --   -0.07008  -0.05307  -0.04580  -0.03248  -0.02957
 Alpha virt. eigenvalues --   -0.02679  -0.02403  -0.01306  -0.00906  -0.00281
 Alpha virt. eigenvalues --   -0.00004   0.00128   0.00269   0.00463   0.00747

  Beta  occ. eigenvalues --  -38.45450 -38.44915 -38.44304 -38.44228 -38.43988
  Beta  occ. eigenvalues --  -38.43572 -38.42647  -2.21213  -2.20704  -2.20068
  Beta  occ. eigenvalues --   -2.19989  -2.19790  -2.19428  -2.18462  -1.14920
  Beta  occ. eigenvalues --   -1.14892  -1.14838  -1.14411  -1.14367  -1.14340
  Beta  occ. eigenvalues --   -1.13807  -1.13745  -1.13727  -1.13666  -1.13656
  Beta  occ. eigenvalues --   -1.13636  -1.13470  -1.13454  -1.13420  -1.13103
  Beta  occ. eigenvalues --   -1.13097  -1.13064  -1.12154  -1.12133  -1.12073
  Beta  occ. eigenvalues --   -0.17114  -0.13536  -0.10842
  Beta virt. eigenvalues --   -0.07719  -0.06767  -0.05210  -0.04050  -0.02955
  Beta virt. eigenvalues --   -0.02585  -0.02154  -0.01825  -0.01209  -0.00599
  Beta virt. eigenvalues --   -0.00258   0.00068   0.00171   0.00400   0.00590

 Mulliken charges and spin densities:
               1          2
     1  Na  -0.228900  -0.022701
     2  Na   0.022994   0.448438
     3  Na  -0.422009   0.380711
     4  Na   0.239963   0.043581
     5  Na   0.605725   0.189728
     6  Na  -0.368045  -0.083531
     7  Na   0.150271   0.043774
 Sum of Mulliken charges =  -0.00000   1.00000

 Dipole moment (field-independent basis, Debye):
    X=             -0.0843    Y=             -0.0824    Z=             -0.3124  Tot=              0.3339
 Quadrupole moment (field-independent basis, Debye-Ang):
   XX=            -50.0481   YY=            -77.6529   ZZ=            -69.1771
   XY=              0.2139   XZ=             -4.0064   YZ=             -0.1143

 Normal termination of Gaussian 16 at Thu Dec  7 16:55:10 2023.
