 Gaussian 16, Revision B.01,
 Gaussian 16:  ES64L-G16RevB.01 20-Dec-2017

 -------------------------
 #P B3LYP/6-311+g(d) force
 -------------------------

 -----
 DPGEN
 -----
 Symbolic Z-matrix:
 Charge =  0 Multiplicity = 2

                         Standard orientation:
 ---------------------------------------------------------------------
 Center     Atomic      Atomic             Coordinates (Angstroms)
 Number     Number       Type             X           Y           Z
 ---------------------------------------------------------------------
      1         11           0       -1.265142    3.388722    0.351674
      2         11           0       -3.057713    1.362522   -0.952512
      3         11           0       -1.720361   -2.534074    1.803933
      4         11           0       -2.197726   -2.172941   -1.020554
      5         11           0        0.699545    0.140979    0.273077
      6         11           0        3.807830   -1.195339   -1.306534
      7         11           0        3.733566    1.010131    0.850917
 ---------------------------------------------------------------------

 SCF Done:  E(UB3LYP) =  -1136.11434881     A.U. after   19 cycles

 The electronic state is 2-A.
 Alpha  occ. eigenvalues --  -38.45045 -38.44436 -38.44162 -38.43949 -38.43856
 Alpha  occ. eigenvalues --  -38.43435 -38.43330  -2.20889  -2.20274  -2.20004
 Alpha  occ. eigenvalues --   -2.19805  -2.19725  -2.19255  -2.19183  -1.14566
 Alpha  occ. eigenvalues --   -1.14561  -1.14540  -1.13928  -1.13916  -1.13890
 Alpha  occ. eigenvalues --   -1.13789  -1.13641  -1.13631  -1.13519  -1.13454
 Alpha  occ. eigenvalues --   -1.13425  -1.13375  -1.13359  -1.13332  -1.13035
 Alpha  occ. eigenvalues --   -1.12914  -1.12894  -1.12838  -1.12817  -1.12759
 Alpha  occ. eigenvalues --   -0.16861  -0.14391  -0.12258  -0.09872
 Alpha virt. eigenvalues --   -0.06318  -0.05959  -0.04624  -0.03365  -0.03015
 Alpha virt. eigenvalues --   -0.02419  -0.01999  -0.01367  -0.00819  -0.00568
 Alpha virt. eigenvalues --   -0.00429   0.00178   0.00201   0.00535   0.00600

  Beta  occ. eigenvalues --  -38.45045 -38.44382 -38.44137 -38.43913 -38.43841
  Beta  occ. eigenvalues --  -38.43440 -38.43293  -2.20892  -2.20171  -2.19958
  Beta  occ. eigenvalues --   -2.19742  -2.19698  -2.19264  -2.19113  -1.14572
  Beta  occ. eigenvalues --   -1.14547  -1.14526  -1.13856  -1.13844  -1.13825
  Beta  occ. eigenvalues --   -1.13761  -1.13609  -1.13593  -1.13452  -1.13408
  Beta  occ. eigenvalues --   -1.13390  -1.13359  -1.13339  -1.13294  -1.13026
  Beta  occ. eigenvalues --   -1.12921  -1.12888  -1.12791  -1.12771  -1.12723
  Beta  occ. eigenvalues --   -0.16343  -0.13973  -0.12179
  Beta virt. eigenvalues --   -0.06625  -0.05867  -0.05457  -0.04289  -0.03215
  Beta virt. eigenvalues --   -0.02687  -0.02202  -0.01547  -0.01222  -0.00708
  Beta virt. eigenvalues --   -0.00322  -0.00064   0.00279   0.00354   0.00646

 Mulliken charges and spin densities:
               1          2
     1  Na   0.174950  -0.067787
     2  Na   0.377787   0.271490
     3  Na   0.596456   0.080124
     4  Na   0.937551   0.209476
     5  Na  -2.221639   0.254623
     6  Na   0.427685   0.334830
     7  Na  -0.292791  -0.082756
 Sum of Mulliken charges =  -0.00000   1.00000

 Dipole moment (field-independent basis, Debye):
    X=              1.4193    Y=             -0.2312    Z=              0.7187  Tot=              1.6076
 Quadrupole moment (field-independent basis, Debye-Ang):
   XX=            -63.6474   YY=            -66.4615   ZZ=            -67.3422
   XY=              4.9072   XZ=              0.8516   YZ=              4.0404

 Normal termination of Gaussian 16 at Sat Dec  9 07:02:31 2023.
