 Gaussian 16, Revision B.01,
 Gaussian 16:  ES64L-G16RevB.01 20-Dec-2017

 -------------------------
 #P B3LYP/6-311+g(d) force
 -------------------------

 -----
 DPGEN
 -----
 Symbolic Z-matrix:
 Charge =  0 Multiplicity = 2

                         Standard orientation:
 ---------------------------------------------------------------------
 Center     Atomic      Atomic             Coordinates (Angstroms)
 Number     Number       Type             X           Y           Z
 ---------------------------------------------------------------------
      1         11           0        1.517460    0.079746   -1.215142
      2         11           0       -1.705062    1.178703   -1.507517
      3         11           0       -0.517362   -2.333139   -0.589330
      4         11           0       -3.274794   -0.944965    0.638957
      5         11           0        3.371488   -1.402272    0.317109
      6         11           0       -0.126976    0.233247    2.018315
      7         11           0        0.735246    3.188680    0.337609
 ---------------------------------------------------------------------

 SCF Done:  E(UB3LYP) =  -1136.12925213     A.U. after   19 cycles

 The electronic state is 2-A.
 Alpha  occ. eigenvalues --  -38.44385 -38.43989 -38.43974 -38.43906 -38.43736
 Alpha  occ. eigenvalues --  -38.43158 -38.43079  -2.20219  -2.19857  -2.19814
 Alpha  occ. eigenvalues --   -2.19771  -2.19607  -2.19091  -2.18969  -1.13998
 Alpha  occ. eigenvalues --   -1.13846  -1.13829  -1.13539  -1.13499  -1.13496
 Alpha  occ. eigenvalues --   -1.13491  -1.13479  -1.13479  -1.13452  -1.13434
 Alpha  occ. eigenvalues --   -1.13348  -1.13303  -1.13255  -1.13202  -1.12792
 Alpha  occ. eigenvalues --   -1.12749  -1.12685  -1.12638  -1.12626  -1.12604
 Alpha  occ. eigenvalues --   -0.18501  -0.13118  -0.12072  -0.11128
 Alpha virt. eigenvalues --   -0.06120  -0.04948  -0.04172  -0.03423  -0.02942
 Alpha virt. eigenvalues --   -0.02782  -0.01866  -0.01062  -0.00591   0.00078
 Alpha virt. eigenvalues --    0.00233   0.00297   0.00650   0.00791   0.00846

  Beta  occ. eigenvalues --  -38.44387 -38.43967 -38.43903 -38.43891 -38.43685
  Beta  occ. eigenvalues --  -38.43157 -38.43046  -2.20224  -2.19803  -2.19748
  Beta  occ. eigenvalues --   -2.19698  -2.19515  -2.19035  -2.18971  -1.14001
  Beta  occ. eigenvalues --   -1.13841  -1.13833  -1.13493  -1.13483  -1.13467
  Beta  occ. eigenvalues --   -1.13444  -1.13423  -1.13397  -1.13374  -1.13352
  Beta  occ. eigenvalues --   -1.13338  -1.13231  -1.13190  -1.13141  -1.12747
  Beta  occ. eigenvalues --   -1.12693  -1.12660  -1.12629  -1.12618  -1.12599
  Beta  occ. eigenvalues --   -0.17720  -0.12971  -0.11875
  Beta virt. eigenvalues --   -0.07156  -0.05997  -0.04832  -0.04026  -0.02878
  Beta virt. eigenvalues --   -0.02287  -0.01861  -0.01696  -0.00982  -0.00298
  Beta virt. eigenvalues --    0.00087   0.00277   0.00335   0.00724   0.00839

 Mulliken charges and spin densities:
               1          2
     1  Na   0.277634   0.258577
     2  Na  -0.131097   0.180254
     3  Na  -0.301895   0.065860
     4  Na   0.529805   0.031711
     5  Na   0.143671  -0.102524
     6  Na  -0.417310   0.635037
     7  Na  -0.100808  -0.068914
 Sum of Mulliken charges =  -0.00000   1.00000

 Dipole moment (field-independent basis, Debye):
    X=             -0.1671    Y=             -0.2367    Z=              0.3928  Tot=              0.4881
 Quadrupole moment (field-independent basis, Debye-Ang):
   XX=            -55.9013   YY=            -66.4695   ZZ=            -71.0708
   XY=             -0.2534   XZ=              1.9722   YZ=             -0.8006

 Normal termination of Gaussian 16 at Tue Dec  5 09:53:27 2023.
