 Gaussian 16, Revision B.01,
 Gaussian 16:  ES64L-G16RevB.01 20-Dec-2017

 -------------------------
 #P B3LYP/6-311+g(d) force
 -------------------------

 -----
 DPGEN
 -----
 Symbolic Z-matrix:
 Charge =  0 Multiplicity = 2

                         Standard orientation:
 ---------------------------------------------------------------------
 Center     Atomic      Atomic             Coordinates (Angstroms)
 Number     Number       Type             X           Y           Z
 ---------------------------------------------------------------------
      1         11           0        0.029595   -0.383761   -1.302021
      2         11           0        1.170906    0.401796    1.590755
      3         11           0        1.281688    2.886488   -0.545441
      4         11           0       -3.228707   -0.595654   -0.862198
      5         11           0       -0.245641   -2.719758    0.857788
      6         11           0        2.954839   -1.208641   -0.647806
      7         11           0       -1.962679    1.619530    0.908921
 ---------------------------------------------------------------------

 SCF Done:  E(UB3LYP) =  -1136.13099686     A.U. after   20 cycles

 The electronic state is 2-A.
 Alpha  occ. eigenvalues --  -38.44258 -38.43857 -38.43659 -38.43644 -38.43637
 Alpha  occ. eigenvalues --  -38.42986 -38.42876  -2.20117  -2.19698  -2.19514
 Alpha  occ. eigenvalues --   -2.19498  -2.19478  -2.18980  -2.18932  -1.13820
 Alpha  occ. eigenvalues --   -1.13785  -1.13717  -1.13397  -1.13362  -1.13301
 Alpha  occ. eigenvalues --   -1.13275  -1.13199  -1.13174  -1.13157  -1.13156
 Alpha  occ. eigenvalues --   -1.13141  -1.13118  -1.13108  -1.13074  -1.12733
 Alpha  occ. eigenvalues --   -1.12635  -1.12598  -1.12572  -1.12562  -1.12549
 Alpha  occ. eigenvalues --   -0.18735  -0.13160  -0.12298  -0.10613
 Alpha virt. eigenvalues --   -0.05833  -0.05010  -0.04529  -0.03154  -0.02911
 Alpha virt. eigenvalues --   -0.02083  -0.01653  -0.01266  -0.00545   0.00098
 Alpha virt. eigenvalues --    0.00141   0.00356   0.00617   0.00794   0.00913

  Beta  occ. eigenvalues --  -38.44240 -38.43831 -38.43654 -38.43629 -38.43623
  Beta  occ. eigenvalues --  -38.42929 -38.42830  -2.20085  -2.19652  -2.19490
  Beta  occ. eigenvalues --   -2.19472  -2.19471  -2.18878  -2.18851  -1.13792
  Beta  occ. eigenvalues --   -1.13759  -1.13689  -1.13370  -1.13307  -1.13274
  Beta  occ. eigenvalues --   -1.13257  -1.13175  -1.13149  -1.13146  -1.13141
  Beta  occ. eigenvalues --   -1.13126  -1.13098  -1.13095  -1.13057  -1.12668
  Beta  occ. eigenvalues --   -1.12550  -1.12520  -1.12508  -1.12493  -1.12486
  Beta  occ. eigenvalues --   -0.18028  -0.12911  -0.12080
  Beta virt. eigenvalues --   -0.06767  -0.05743  -0.04857  -0.04395  -0.02608
  Beta virt. eigenvalues --   -0.02280  -0.01549  -0.01244  -0.01098  -0.00315
  Beta virt. eigenvalues --    0.00087   0.00209   0.00404   0.00706   0.00810

 Mulliken charges and spin densities:
               1          2
     1  Na  -0.968384   0.263187
     2  Na   0.100238   0.432207
     3  Na   0.125758   0.075748
     4  Na   0.524416   0.005009
     5  Na  -0.038039   0.105832
     6  Na   0.428610   0.082447
     7  Na  -0.172598   0.035570
 Sum of Mulliken charges =  -0.00000   1.00000

 Dipole moment (field-independent basis, Debye):
    X=              0.2961    Y=             -0.1761    Z=              0.0492  Tot=              0.3480
 Quadrupole moment (field-independent basis, Debye-Ang):
   XX=            -56.3818   YY=            -62.4560   ZZ=            -72.5486
   XY=              0.1975   XZ=             -1.4343   YZ=             -1.5334

 Normal termination of Gaussian 16 at Thu Dec  7 13:35:36 2023.
