 Gaussian 16, Revision B.01,
 Gaussian 16:  ES64L-G16RevB.01 20-Dec-2017

 -------------------------
 #P B3LYP/6-311+g(d) force
 -------------------------

 -----
 DPGEN
 -----
 Symbolic Z-matrix:
 Charge =  0 Multiplicity = 2

                         Standard orientation:
 ---------------------------------------------------------------------
 Center     Atomic      Atomic             Coordinates (Angstroms)
 Number     Number       Type             X           Y           Z
 ---------------------------------------------------------------------
      1         11           0       -0.264321   -0.071962    1.713298
      2         11           0        3.039956   -0.261641    0.178940
      3         11           0        1.393978    2.396693   -0.113338
      4         11           0       -1.964227    2.131912   -0.111096
      5         11           0       -2.757621   -1.187851    0.062200
      6         11           0        0.608879   -2.739200   -0.116913
      7         11           0       -0.056644   -0.267951   -1.613091
 ---------------------------------------------------------------------

 SCF Done:  E(UB3LYP) =  -1136.13625643     A.U. after   19 cycles

 The electronic state is 2-A.
 Alpha  occ. eigenvalues --  -38.43903 -38.43875 -38.43448 -38.43383 -38.43211
 Alpha  occ. eigenvalues --  -38.42999 -38.42905  -2.19795  -2.19748  -2.19344
 Alpha  occ. eigenvalues --   -2.19297  -2.19120  -2.19021  -2.18968  -1.13492
 Alpha  occ. eigenvalues --   -1.13467  -1.13441  -1.13417  -1.13404  -1.13392
 Alpha  occ. eigenvalues --   -1.13076  -1.13036  -1.13010  -1.12983  -1.12960
 Alpha  occ. eigenvalues --   -1.12897  -1.12810  -1.12778  -1.12757  -1.12720
 Alpha  occ. eigenvalues --   -1.12636  -1.12631  -1.12620  -1.12579  -1.12566
 Alpha  occ. eigenvalues --   -0.19434  -0.13310  -0.12756  -0.10599
 Alpha virt. eigenvalues --   -0.05578  -0.05073  -0.04630  -0.03106  -0.02806
 Alpha virt. eigenvalues --   -0.02158  -0.01516  -0.01083  -0.00203  -0.00097
 Alpha virt. eigenvalues --    0.00042   0.00360   0.00852   0.00917   0.00948

  Beta  occ. eigenvalues --  -38.43895 -38.43872 -38.43442 -38.43373 -38.43205
  Beta  occ. eigenvalues --  -38.42920 -38.42829  -2.19784  -2.19744  -2.19336
  Beta  occ. eigenvalues --   -2.19285  -2.19113  -2.18876  -2.18830  -1.13486
  Beta  occ. eigenvalues --   -1.13441  -1.13429  -1.13413  -1.13394  -1.13376
  Beta  occ. eigenvalues --   -1.13054  -1.13032  -1.12984  -1.12970  -1.12922
  Beta  occ. eigenvalues --   -1.12894  -1.12802  -1.12758  -1.12741  -1.12630
  Beta  occ. eigenvalues --   -1.12534  -1.12529  -1.12523  -1.12482  -1.12469
  Beta  occ. eigenvalues --   -0.18706  -0.13043  -0.12468
  Beta virt. eigenvalues --   -0.06659  -0.05555  -0.05073  -0.04624  -0.02288
  Beta virt. eigenvalues --   -0.01992  -0.01435  -0.01121  -0.01022  -0.00259
  Beta virt. eigenvalues --   -0.00149   0.00168   0.00389   0.00882   0.00928

 Mulliken charges and spin densities:
               1          2
     1  Na  -0.510735   0.720651
     2  Na   0.079975  -0.024955
     3  Na   0.092703  -0.053310
     4  Na   0.157508  -0.061674
     5  Na   0.356767  -0.095989
     6  Na   0.325248  -0.104374
     7  Na  -0.501465   0.619650
 Sum of Mulliken charges =  -0.00000   1.00000

 Dipole moment (field-independent basis, Debye):
    X=             -0.1157    Y=             -0.1360    Z=              0.0797  Tot=              0.1955
 Quadrupole moment (field-independent basis, Debye-Ang):
   XX=            -55.2113   YY=            -61.8897   ZZ=            -75.4363
   XY=             -0.2149   XZ=              0.6108   YZ=             -0.5424

 Normal termination of Gaussian 16 at Thu Dec  7 19:22:16 2023.
