 Gaussian 16, Revision B.01,
 Gaussian 16:  ES64L-G16RevB.01 20-Dec-2017

 -------------------------
 #P B3LYP/6-311+g(d) force
 -------------------------

 -----
 DPGEN
 -----
 Symbolic Z-matrix:
 Charge =  0 Multiplicity = 2

                         Standard orientation:
 ---------------------------------------------------------------------
 Center     Atomic      Atomic             Coordinates (Angstroms)
 Number     Number       Type             X           Y           Z
 ---------------------------------------------------------------------
      1         11           0       -0.227772   -0.236480    1.848249
      2         11           0        0.352765    0.124202   -1.489508
      3         11           0       -3.047363   -0.650379   -0.100308
      4         11           0       -0.005502   -2.745268   -0.664614
      5         11           0        2.770103   -1.265144    0.578516
      6         11           0        2.066210    2.646517   -0.325650
      7         11           0       -1.908443    2.126552    0.153316
 ---------------------------------------------------------------------

 SCF Done:  E(UB3LYP) =  -1136.13328697     A.U. after   19 cycles

 The electronic state is 2-A.
 Alpha  occ. eigenvalues --  -38.44094 -38.43870 -38.43757 -38.43617 -38.43501
 Alpha  occ. eigenvalues --  -38.43227 -38.42918  -2.19944  -2.19751  -2.19650
 Alpha  occ. eigenvalues --   -2.19447  -2.19412  -2.19137  -2.18949  -1.13622
 Alpha  occ. eigenvalues --   -1.13606  -1.13571  -1.13528  -1.13414  -1.13386
 Alpha  occ. eigenvalues --   -1.13324  -1.13305  -1.13231  -1.13135  -1.13105
 Alpha  occ. eigenvalues --   -1.13073  -1.13059  -1.13056  -1.13052  -1.12916
 Alpha  occ. eigenvalues --   -1.12774  -1.12747  -1.12626  -1.12565  -1.12552
 Alpha  occ. eigenvalues --   -0.18909  -0.13294  -0.12339  -0.10724
 Alpha virt. eigenvalues --   -0.05575  -0.05306  -0.04549  -0.03321  -0.02702
 Alpha virt. eigenvalues --   -0.02324  -0.01592  -0.01259  -0.00311  -0.00200
 Alpha virt. eigenvalues --    0.00033   0.00331   0.00811   0.00854   0.00907

  Beta  occ. eigenvalues --  -38.44077 -38.43866 -38.43752 -38.43614 -38.43421
  Beta  occ. eigenvalues --  -38.43204 -38.42857  -2.19914  -2.19749  -2.19643
  Beta  occ. eigenvalues --   -2.19408  -2.19300  -2.19100  -2.18840  -1.13597
  Beta  occ. eigenvalues --   -1.13569  -1.13554  -1.13529  -1.13405  -1.13366
  Beta  occ. eigenvalues --   -1.13313  -1.13284  -1.13226  -1.13092  -1.13054
  Beta  occ. eigenvalues --   -1.13050  -1.13038  -1.12975  -1.12945  -1.12873
  Beta  occ. eigenvalues --   -1.12740  -1.12713  -1.12550  -1.12495  -1.12467
  Beta  occ. eigenvalues --   -0.18204  -0.13037  -0.12067
  Beta virt. eigenvalues --   -0.06828  -0.05489  -0.05272  -0.04507  -0.02539
  Beta virt. eigenvalues --   -0.02048  -0.01475  -0.01381  -0.01099  -0.00284
  Beta virt. eigenvalues --   -0.00226   0.00145   0.00370   0.00856   0.00872

 Mulliken charges and spin densities:
               1          2
     1  Na  -0.186318   0.530675
     2  Na  -0.320254   0.419933
     3  Na   0.117237   0.000056
     4  Na   0.286320   0.063117
     5  Na   0.082289   0.099007
     6  Na  -0.053183  -0.077193
     7  Na   0.073910  -0.035596
 Sum of Mulliken charges =  -0.00000   1.00000

 Dipole moment (field-independent basis, Debye):
    X=              0.0555    Y=             -0.0444    Z=              0.2703  Tot=              0.2795
 Quadrupole moment (field-independent basis, Debye-Ang):
   XX=            -55.7148   YY=            -62.2609   ZZ=            -74.7884
   XY=             -0.0459   XZ=              1.6818   YZ=              0.8366

 Normal termination of Gaussian 16 at Tue Dec  5 10:03:37 2023.
