 Gaussian 16, Revision B.01,
 Gaussian 16:  ES64L-G16RevB.01 20-Dec-2017

 -------------------------
 #P B3LYP/6-311+g(d) force
 -------------------------

 -----
 DPGEN
 -----
 Symbolic Z-matrix:
 Charge =  0 Multiplicity = 2

                         Standard orientation:
 ---------------------------------------------------------------------
 Center     Atomic      Atomic             Coordinates (Angstroms)
 Number     Number       Type             X           Y           Z
 ---------------------------------------------------------------------
      1         11           0        0.781230   -0.326936    2.087241
      2         11           0       -3.313921   -0.483613   -0.001663
      3         11           0        2.029771    2.486567   -0.081030
      4         11           0       -0.363253    0.162613   -1.439967
      5         11           0       -0.652120   -2.954371   -0.037397
      6         11           0       -1.621618    2.470900    0.076405
      7         11           0        3.139911   -1.355161   -0.603589
 ---------------------------------------------------------------------

 SCF Done:  E(UB3LYP) =  -1136.13235127     A.U. after   20 cycles

 The electronic state is 2-A.
 Alpha  occ. eigenvalues --  -38.44525 -38.44173 -38.44071 -38.43799 -38.43591
 Alpha  occ. eigenvalues --  -38.43337 -38.43244  -2.20290  -2.19999  -2.19863
 Alpha  occ. eigenvalues --   -2.19606  -2.19457  -2.19216  -2.19186  -1.13963
 Alpha  occ. eigenvalues --   -1.13935  -1.13930  -1.13675  -1.13666  -1.13637
 Alpha  occ. eigenvalues --   -1.13539  -1.13526  -1.13500  -1.13295  -1.13277
 Alpha  occ. eigenvalues --   -1.13230  -1.13221  -1.13110  -1.13066  -1.12905
 Alpha  occ. eigenvalues --   -1.12851  -1.12846  -1.12825  -1.12812  -1.12804
 Alpha  occ. eigenvalues --   -0.18091  -0.12996  -0.12405  -0.10169
 Alpha virt. eigenvalues --   -0.06108  -0.05514  -0.04784  -0.03156  -0.02731
 Alpha virt. eigenvalues --   -0.02169  -0.01817  -0.01382  -0.00770  -0.00573
 Alpha virt. eigenvalues --   -0.00030   0.00304   0.00691   0.00770   0.00812

  Beta  occ. eigenvalues --  -38.44506 -38.44173 -38.44068 -38.43795 -38.43588
  Beta  occ. eigenvalues --  -38.43244 -38.43200  -2.20256  -2.20001  -2.19860
  Beta  occ. eigenvalues --   -2.19602  -2.19454  -2.19137  -2.19014  -1.13924
  Beta  occ. eigenvalues --   -1.13914  -1.13909  -1.13675  -1.13660  -1.13639
  Beta  occ. eigenvalues --   -1.13530  -1.13514  -1.13501  -1.13291  -1.13252
  Beta  occ. eigenvalues --   -1.13232  -1.13210  -1.13095  -1.13065  -1.12842
  Beta  occ. eigenvalues --   -1.12796  -1.12769  -1.12732  -1.12692  -1.12681
  Beta  occ. eigenvalues --   -0.17456  -0.12764  -0.12209
  Beta virt. eigenvalues --   -0.06376  -0.06017  -0.05475  -0.04703  -0.02468
  Beta virt. eigenvalues --   -0.02035  -0.01689  -0.01332  -0.01187  -0.00785
  Beta virt. eigenvalues --   -0.00602   0.00153   0.00366   0.00745   0.00802

 Mulliken charges and spin densities:
               1          2
     1  Na  -0.485721   0.683108
     2  Na   0.153339  -0.019856
     3  Na   0.131143  -0.004725
     4  Na  -0.103898   0.378733
     5  Na   0.121323  -0.049325
     6  Na   0.188639  -0.029253
     7  Na  -0.004826   0.041319
 Sum of Mulliken charges =  -0.00000   1.00000

 Dipole moment (field-independent basis, Debye):
    X=              0.0430    Y=             -0.0596    Z=              0.0410  Tot=              0.0842
 Quadrupole moment (field-independent basis, Debye-Ang):
   XX=            -53.8969   YY=            -61.3573   ZZ=            -76.9657
   XY=              0.7635   XZ=             -2.1854   YZ=              1.0832

 Normal termination of Gaussian 16 at Thu Dec  7 04:54:26 2023.
