 Gaussian 16, Revision B.01,
 Gaussian 16:  ES64L-G16RevB.01 20-Dec-2017

 -------------------------
 #P B3LYP/6-311+g(d) force
 -------------------------

 -----
 DPGEN
 -----
 Symbolic Z-matrix:
 Charge =  0 Multiplicity = 2

                         Standard orientation:
 ---------------------------------------------------------------------
 Center     Atomic      Atomic             Coordinates (Angstroms)
 Number     Number       Type             X           Y           Z
 ---------------------------------------------------------------------
      1         11           0        0.542676    0.305576    1.963762
      2         11           0       -0.783791    3.030398    0.286874
      3         11           0       -4.900790   -2.124478   -0.932035
      4         11           0       -3.685531    1.690341   -1.201719
      5         11           0       -2.118824   -1.798343    1.179633
      6         11           0        3.874274   -0.632035   -0.572549
      7         11           0        7.071986   -0.471458   -0.723965
 ---------------------------------------------------------------------

 SCF Done:  E(UB3LYP) =  -1136.11031744     A.U. after   20 cycles

 The electronic state is 2-A.
 Alpha  occ. eigenvalues --  -38.45785 -38.45116 -38.44583 -38.44258 -38.44004
 Alpha  occ. eigenvalues --  -38.43959 -38.43881  -2.21557  -2.20907  -2.20370
 Alpha  occ. eigenvalues --   -2.20067  -2.19781  -2.19726  -2.19645  -1.15230
 Alpha  occ. eigenvalues --   -1.15208  -1.15148  -1.14588  -1.14564  -1.14515
 Alpha  occ. eigenvalues --   -1.14042  -1.14033  -1.14006  -1.13734  -1.13722
 Alpha  occ. eigenvalues --   -1.13693  -1.13471  -1.13439  -1.13438  -1.13397
 Alpha  occ. eigenvalues --   -1.13393  -1.13318  -1.13317  -1.13308  -1.13283
 Alpha  occ. eigenvalues --   -0.16222  -0.13240  -0.12400  -0.11924
 Alpha virt. eigenvalues --   -0.06299  -0.05952  -0.04860  -0.03594  -0.03303
 Alpha virt. eigenvalues --   -0.02295  -0.02139  -0.01562  -0.01278  -0.01171
 Alpha virt. eigenvalues --   -0.00844  -0.00367  -0.00120   0.00078   0.00597

  Beta  occ. eigenvalues --  -38.45700 -38.45058 -38.44559 -38.44220 -38.43991
  Beta  occ. eigenvalues --  -38.43963 -38.43883  -2.21400  -2.20800  -2.20328
  Beta  occ. eigenvalues --   -2.19997  -2.19757  -2.19735  -2.19649  -1.15126
  Beta  occ. eigenvalues --   -1.15105  -1.15025  -1.14518  -1.14496  -1.14423
  Beta  occ. eigenvalues --   -1.14016  -1.14001  -1.13964  -1.13680  -1.13670
  Beta  occ. eigenvalues --   -1.13650  -1.13461  -1.13425  -1.13424  -1.13402
  Beta  occ. eigenvalues --   -1.13398  -1.13322  -1.13311  -1.13305  -1.13287
  Beta  occ. eigenvalues --   -0.15307  -0.13009  -0.11930
  Beta virt. eigenvalues --   -0.08494  -0.05945  -0.05486  -0.04418  -0.03263
  Beta virt. eigenvalues --   -0.02856  -0.02250  -0.01978  -0.01500  -0.01096
  Beta virt. eigenvalues --   -0.00721  -0.00497  -0.00166  -0.00011   0.00270

 Mulliken charges and spin densities:
               1          2
     1  Na  -0.908190   0.251877
     2  Na   0.385729   0.052580
     3  Na   0.322161  -0.035204
     4  Na  -0.116667   0.418457
     5  Na   0.084404   0.301219
     6  Na  -0.103669  -0.049209
     7  Na   0.336232   0.060280
 Sum of Mulliken charges =  -0.00000   1.00000

 Dipole moment (field-independent basis, Debye):
    X=             -1.0136    Y=              0.5664    Z=             -0.1020  Tot=              1.1656
 Quadrupole moment (field-independent basis, Debye-Ang):
   XX=            -60.1835   YY=            -67.4084   ZZ=            -70.2794
   XY=              1.3131   XZ=              4.3298   YZ=             -1.4459

 Normal termination of Gaussian 16 at Sun Dec  3 17:15:48 2023.
