 Gaussian 16, Revision B.01,
 Gaussian 16:  ES64L-G16RevB.01 20-Dec-2017

 -------------------------
 #P B3LYP/6-311+g(d) force
 -------------------------

 -----
 DPGEN
 -----
 Symbolic Z-matrix:
 Charge =  0 Multiplicity = 2

                         Standard orientation:
 ---------------------------------------------------------------------
 Center     Atomic      Atomic             Coordinates (Angstroms)
 Number     Number       Type             X           Y           Z
 ---------------------------------------------------------------------
      1         11           0       -1.260340    1.121703    1.727045
      2         11           0        1.714919    2.248826   -0.203263
      3         11           0       -0.182724   -0.760797   -1.531750
      4         11           0       -3.399449    0.689485   -1.361651
      5         11           0       -2.182942   -1.760460    0.653598
      6         11           0        3.820366   -0.767292   -0.868482
      7         11           0        1.490171   -0.771465    1.584502
 ---------------------------------------------------------------------

 SCF Done:  E(UB3LYP) =  -1136.12331031     A.U. after   25 cycles

 The electronic state is 2-A.
 Alpha  occ. eigenvalues --  -38.44558 -38.44365 -38.44277 -38.44217 -38.44093
 Alpha  occ. eigenvalues --  -38.43423 -38.42341  -2.20386  -2.20284  -2.20102
 Alpha  occ. eigenvalues --   -2.20011  -2.19958  -2.19332  -2.18236  -1.14066
 Alpha  occ. eigenvalues --   -1.14025  -1.14013  -1.13987  -1.13951  -1.13877
 Alpha  occ. eigenvalues --   -1.13765  -1.13751  -1.13721  -1.13698  -1.13679
 Alpha  occ. eigenvalues --   -1.13668  -1.13642  -1.13638  -1.13535  -1.13035
 Alpha  occ. eigenvalues --   -1.12987  -1.12945  -1.11922  -1.11900  -1.11877
 Alpha  occ. eigenvalues --   -0.18499  -0.14104  -0.11298  -0.10772
 Alpha virt. eigenvalues --   -0.06762  -0.05420  -0.04631  -0.03061  -0.02710
 Alpha virt. eigenvalues --   -0.02359  -0.02232  -0.01129  -0.00861  -0.00283
 Alpha virt. eigenvalues --    0.00126   0.00204   0.00353   0.00589   0.00715

  Beta  occ. eigenvalues --  -38.44492 -38.44326 -38.44245 -38.44212 -38.44084
  Beta  occ. eigenvalues --  -38.43395 -38.42337  -2.20264  -2.20215  -2.20042
  Beta  occ. eigenvalues --   -2.20003  -2.19946  -2.19285  -2.18233  -1.13980
  Beta  occ. eigenvalues --   -1.13965  -1.13947  -1.13907  -1.13898  -1.13816
  Beta  occ. eigenvalues --   -1.13720  -1.13708  -1.13689  -1.13682  -1.13658
  Beta  occ. eigenvalues --   -1.13644  -1.13634  -1.13625  -1.13530  -1.13004
  Beta  occ. eigenvalues --   -1.12934  -1.12911  -1.11921  -1.11882  -1.11864
  Beta  occ. eigenvalues --   -0.17786  -0.13884  -0.10585
  Beta virt. eigenvalues --   -0.07554  -0.06474  -0.04754  -0.04495  -0.02778
  Beta virt. eigenvalues --   -0.02454  -0.01859  -0.01783  -0.00866  -0.00504
  Beta virt. eigenvalues --   -0.00095   0.00180   0.00349   0.00392   0.00660

 Mulliken charges and spin densities:
               1          2
     1  Na  -0.021620   0.299669
     2  Na  -0.223991   0.171181
     3  Na  -0.472897   0.327141
     4  Na   0.000836   0.132080
     5  Na   0.487131  -0.085269
     6  Na   0.252753  -0.018634
     7  Na  -0.022212   0.173832
 Sum of Mulliken charges =  -0.00000   1.00000

 Dipole moment (field-independent basis, Debye):
    X=              0.0807    Y=              0.1969    Z=             -0.0069  Tot=              0.2129
 Quadrupole moment (field-independent basis, Debye-Ang):
   XX=            -51.9753   YY=            -66.5846   ZZ=            -76.6528
   XY=             -0.6089   XZ=             -1.3491   YZ=             -5.7422

 Normal termination of Gaussian 16 at Tue Dec  5 14:18:35 2023.
