 Gaussian 16, Revision B.01,
 Gaussian 16:  ES64L-G16RevB.01 20-Dec-2017

 -------------------------
 #P B3LYP/6-311+g(d) force
 -------------------------

 -----
 DPGEN
 -----
 Symbolic Z-matrix:
 Charge =  0 Multiplicity = 2

                         Standard orientation:
 ---------------------------------------------------------------------
 Center     Atomic      Atomic             Coordinates (Angstroms)
 Number     Number       Type             X           Y           Z
 ---------------------------------------------------------------------
      1         11           0        2.004694   -1.605641   -1.466810
      2         11           0       -0.192048   -0.514685    1.957963
      3         11           0       -1.132119   -2.520268   -0.717818
      4         11           0       -3.377995   -0.482457    0.496287
      5         11           0       -1.645969    2.843481   -0.574009
      6         11           0        1.036640    1.859254   -0.981865
      7         11           0        3.306796    0.420316    1.286251
 ---------------------------------------------------------------------

 SCF Done:  E(UB3LYP) =  -1136.12652135     A.U. after   19 cycles

 The electronic state is 2-A.
 Alpha  occ. eigenvalues --  -38.44684 -38.44590 -38.44550 -38.43973 -38.43627
 Alpha  occ. eigenvalues --  -38.43299 -38.43142  -2.20518  -2.20405  -2.20363
 Alpha  occ. eigenvalues --   -2.19812  -2.19482  -2.19190  -2.18977  -1.14196
 Alpha  occ. eigenvalues --   -1.14176  -1.14140  -1.14062  -1.14055  -1.14048
 Alpha  occ. eigenvalues --   -1.14029  -1.14013  -1.13989  -1.13493  -1.13467
 Alpha  occ. eigenvalues --   -1.13427  -1.13153  -1.13148  -1.13114  -1.12998
 Alpha  occ. eigenvalues --   -1.12850  -1.12832  -1.12617  -1.12595  -1.12585
 Alpha  occ. eigenvalues --   -0.17815  -0.13436  -0.12294  -0.11215
 Alpha virt. eigenvalues --   -0.06230  -0.05089  -0.04892  -0.03637  -0.02974
 Alpha virt. eigenvalues --   -0.02478  -0.02026  -0.00899  -0.00581  -0.00210
 Alpha virt. eigenvalues --   -0.00092   0.00253   0.00373   0.00664   0.00779

  Beta  occ. eigenvalues --  -38.44624 -38.44549 -38.44545 -38.43922 -38.43608
  Beta  occ. eigenvalues --  -38.43281 -38.43136  -2.20407  -2.20355  -2.20328
  Beta  occ. eigenvalues --   -2.19718  -2.19451  -2.19158  -2.18969  -1.14121
  Beta  occ. eigenvalues --   -1.14106  -1.14059  -1.14041  -1.14012  -1.13999
  Beta  occ. eigenvalues --   -1.13988  -1.13983  -1.13982  -1.13423  -1.13403
  Beta  occ. eigenvalues --   -1.13358  -1.13136  -1.13129  -1.13068  -1.12981
  Beta  occ. eigenvalues --   -1.12821  -1.12802  -1.12609  -1.12590  -1.12573
  Beta  occ. eigenvalues --   -0.17203  -0.13258  -0.11885
  Beta virt. eigenvalues --   -0.07511  -0.06030  -0.05014  -0.04345  -0.03301
  Beta virt. eigenvalues --   -0.02390  -0.01851  -0.01721  -0.00785  -0.00350
  Beta virt. eigenvalues --   -0.00154  -0.00001   0.00341   0.00486   0.00815

 Mulliken charges and spin densities:
               1          2
     1  Na  -0.080562   0.122654
     2  Na  -0.420015   0.351096
     3  Na  -0.171625   0.088974
     4  Na   0.507396   0.090270
     5  Na  -0.245063  -0.161965
     6  Na  -0.160302   0.383092
     7  Na   0.570172   0.125879
 Sum of Mulliken charges =  -0.00000   1.00000

 Dipole moment (field-independent basis, Debye):
    X=              0.0361    Y=             -0.5750    Z=              0.5327  Tot=              0.7846
 Quadrupole moment (field-independent basis, Debye-Ang):
   XX=            -52.5014   YY=            -73.7154   ZZ=            -70.5714
   XY=              0.7428   XZ=              0.4978   YZ=              2.3028

 Normal termination of Gaussian 16 at Sun Dec  3 21:15:26 2023.
