 Gaussian 16, Revision B.01,
 Gaussian 16:  ES64L-G16RevB.01 20-Dec-2017

 -------------------------
 #P B3LYP/6-311+g(d) force
 -------------------------

 -----
 DPGEN
 -----
 Symbolic Z-matrix:
 Charge =  0 Multiplicity = 2

                         Standard orientation:
 ---------------------------------------------------------------------
 Center     Atomic      Atomic             Coordinates (Angstroms)
 Number     Number       Type             X           Y           Z
 ---------------------------------------------------------------------
      1         11           0        2.252412   -2.410803    0.030424
      2         11           0       -0.148382    2.881742   -0.045405
      3         11           0       -0.169189   -0.123049    2.159743
      4         11           0        0.306611   -0.525521   -1.579035
      5         11           0       -2.870011    1.048403   -0.345936
      6         11           0       -2.418374   -2.133484   -0.082546
      7         11           0        3.046933    1.262712   -0.137245
 ---------------------------------------------------------------------

 SCF Done:  E(UB3LYP) =  -1136.13370125     A.U. after   19 cycles

 The electronic state is 2-A.
 Alpha  occ. eigenvalues --  -38.44554 -38.44134 -38.44023 -38.43885 -38.43665
 Alpha  occ. eigenvalues --  -38.43393 -38.42984  -2.20342  -2.19942  -2.19849
 Alpha  occ. eigenvalues --   -2.19746  -2.19515  -2.19320  -2.18824  -1.14024
 Alpha  occ. eigenvalues --   -1.14001  -1.13976  -1.13648  -1.13595  -1.13571
 Alpha  occ. eigenvalues --   -1.13552  -1.13512  -1.13496  -1.13415  -1.13401
 Alpha  occ. eigenvalues --   -1.13373  -1.13174  -1.13135  -1.13135  -1.13006
 Alpha  occ. eigenvalues --   -1.12967  -1.12939  -1.12500  -1.12486  -1.12470
 Alpha  occ. eigenvalues --   -0.18231  -0.13250  -0.12152  -0.10568
 Alpha virt. eigenvalues --   -0.06076  -0.05581  -0.04454  -0.03272  -0.02710
 Alpha virt. eigenvalues --   -0.02578  -0.01762  -0.01347  -0.00699  -0.00348
 Alpha virt. eigenvalues --   -0.00032   0.00325   0.00717   0.00748   0.00889

  Beta  occ. eigenvalues --  -38.44552 -38.44133 -38.44019 -38.43877 -38.43557
  Beta  occ. eigenvalues --  -38.43345 -38.42980  -2.20341  -2.19943  -2.19845
  Beta  occ. eigenvalues --   -2.19733  -2.19316  -2.19232  -2.18821  -1.14011
  Beta  occ. eigenvalues --   -1.13998  -1.13979  -1.13643  -1.13584  -1.13572
  Beta  occ. eigenvalues --   -1.13551  -1.13501  -1.13480  -1.13407  -1.13372
  Beta  occ. eigenvalues --   -1.13367  -1.13042  -1.12997  -1.12994  -1.12941
  Beta  occ. eigenvalues --   -1.12904  -1.12874  -1.12499  -1.12472  -1.12462
  Beta  occ. eigenvalues --   -0.17529  -0.13048  -0.11959
  Beta virt. eigenvalues --   -0.06642  -0.06077  -0.05490  -0.04427  -0.02525
  Beta virt. eigenvalues --   -0.01987  -0.01669  -0.01517  -0.01248  -0.00756
  Beta virt. eigenvalues --   -0.00374   0.00137   0.00373   0.00748   0.00810

 Mulliken charges and spin densities:
               1          2
     1  Na   0.146449  -0.075740
     2  Na  -0.015299   0.000561
     3  Na  -0.495582   0.758204
     4  Na  -0.081008   0.277176
     5  Na   0.091188   0.066044
     6  Na   0.302318  -0.000838
     7  Na   0.051935  -0.025407
 Sum of Mulliken charges =  -0.00000   1.00000

 Dipole moment (field-independent basis, Debye):
    X=              0.4093    Y=             -0.3928    Z=              0.0703  Tot=              0.5716
 Quadrupole moment (field-independent basis, Debye-Ang):
   XX=            -54.4981   YY=            -63.5654   ZZ=            -75.6152
   XY=              0.6183   XZ=              1.0436   YZ=             -0.9745

 Normal termination of Gaussian 16 at Thu Dec  7 07:47:16 2023.
