 Gaussian 16, Revision B.01,
 Gaussian 16:  ES64L-G16RevB.01 20-Dec-2017

 -------------------------
 #P B3LYP/6-311+g(d) force
 -------------------------

 -----
 DPGEN
 -----
 Symbolic Z-matrix:
 Charge =  0 Multiplicity = 2

                         Standard orientation:
 ---------------------------------------------------------------------
 Center     Atomic      Atomic             Coordinates (Angstroms)
 Number     Number       Type             X           Y           Z
 ---------------------------------------------------------------------
      1         11           0       -3.869345   -0.681970   -0.887056
      2         11           0       -2.158872   -0.230693    1.990874
      3         11           0       -0.239812   -1.659712   -1.013555
      4         11           0        3.839491   -1.377048    0.324168
      5         11           0        3.012676    1.170634   -1.078551
      6         11           0        0.849831    0.967810    1.567416
      7         11           0       -1.433969    1.810978   -0.903297
 ---------------------------------------------------------------------

 SCF Done:  E(UB3LYP) =  -1136.11531217     A.U. after   28 cycles

 The electronic state is 2-A.
 Alpha  occ. eigenvalues --  -38.45861 -38.45066 -38.44509 -38.43997 -38.43818
 Alpha  occ. eigenvalues --  -38.43804 -38.42145  -2.21615  -2.20913  -2.20330
 Alpha  occ. eigenvalues --   -2.19819  -2.19710  -2.19677  -2.18047  -1.15326
 Alpha  occ. eigenvalues --   -1.15302  -1.15206  -1.14616  -1.14570  -1.14545
 Alpha  occ. eigenvalues --   -1.14000  -1.13973  -1.13957  -1.13511  -1.13493
 Alpha  occ. eigenvalues --   -1.13450  -1.13388  -1.13367  -1.13354  -1.13319
 Alpha  occ. eigenvalues --   -1.13307  -1.13279  -1.11747  -1.11714  -1.11675
 Alpha  occ. eigenvalues --   -0.18130  -0.14554  -0.10867  -0.10688
 Alpha virt. eigenvalues --   -0.07403  -0.05726  -0.04736  -0.03074  -0.02962
 Alpha virt. eigenvalues --   -0.02413  -0.02164  -0.01415  -0.01158  -0.00446
 Alpha virt. eigenvalues --   -0.00015   0.00139   0.00264   0.00442   0.00576

  Beta  occ. eigenvalues --  -38.45850 -38.45051 -38.44497 -38.43996 -38.43760
  Beta  occ. eigenvalues --  -38.43745 -38.42134  -2.21597  -2.20884  -2.20307
  Beta  occ. eigenvalues --   -2.19819  -2.19603  -2.19567  -2.18032  -1.15297
  Beta  occ. eigenvalues --   -1.15282  -1.15196  -1.14592  -1.14551  -1.14521
  Beta  occ. eigenvalues --   -1.13985  -1.13957  -1.13940  -1.13509  -1.13475
  Beta  occ. eigenvalues --   -1.13451  -1.13308  -1.13292  -1.13283  -1.13246
  Beta  occ. eigenvalues --   -1.13231  -1.13198  -1.11741  -1.11672  -1.11665
  Beta  occ. eigenvalues --   -0.17503  -0.14379  -0.10500
  Beta virt. eigenvalues --   -0.07256  -0.07154  -0.05089  -0.04557  -0.02983
  Beta virt. eigenvalues --   -0.02762  -0.01828  -0.01502  -0.01135  -0.00735
  Beta virt. eigenvalues --   -0.00297   0.00013   0.00202   0.00336   0.00546

 Mulliken charges and spin densities:
               1          2
     1  Na   0.597551   0.020048
     2  Na  -0.031555   0.096962
     3  Na  -0.641847   0.145857
     4  Na   0.225181  -0.011482
     5  Na   0.457408   0.075214
     6  Na  -0.355162   0.287452
     7  Na  -0.251576   0.385949
 Sum of Mulliken charges =  -0.00000   1.00000

 Dipole moment (field-independent basis, Debye):
    X=              0.4236    Y=              0.0433    Z=             -0.2168  Tot=              0.4778
 Quadrupole moment (field-independent basis, Debye-Ang):
   XX=            -52.8222   YY=            -72.6047   ZZ=            -73.1282
   XY=             -0.5233   XZ=             -1.3780   YZ=             -5.3619

 Normal termination of Gaussian 16 at Thu Dec  7 06:06:58 2023.
