 Gaussian 16, Revision B.01,
 Gaussian 16:  ES64L-G16RevB.01 20-Dec-2017

 -------------------------
 #P B3LYP/6-311+g(d) force
 -------------------------

 -----
 DPGEN
 -----
 Symbolic Z-matrix:
 Charge =  0 Multiplicity = 2

                         Standard orientation:
 ---------------------------------------------------------------------
 Center     Atomic      Atomic             Coordinates (Angstroms)
 Number     Number       Type             X           Y           Z
 ---------------------------------------------------------------------
      1         11           0        2.106961    1.698629   -0.063794
      2         11           0        2.677931   -1.480205   -0.123909
      3         11           0       -0.220610   -0.106934   -1.381425
      4         11           0       -3.065845   -0.173901    0.220982
      5         11           0       -0.835446    2.919663   -0.429095
      6         11           0        0.110918    0.063475    2.097482
      7         11           0       -0.773909   -2.920726   -0.320241
 ---------------------------------------------------------------------

 SCF Done:  E(UB3LYP) =  -1136.13627373     A.U. after   19 cycles

 The electronic state is 2-A.
 Alpha  occ. eigenvalues --  -38.43900 -38.43805 -38.43571 -38.43554 -38.43502
 Alpha  occ. eigenvalues --  -38.43262 -38.42798  -2.19732  -2.19657  -2.19472
 Alpha  occ. eigenvalues --   -2.19409  -2.19370  -2.19206  -2.18881  -1.13423
 Alpha  occ. eigenvalues --   -1.13399  -1.13386  -1.13359  -1.13306  -1.13264
 Alpha  occ. eigenvalues --   -1.13155  -1.13111  -1.13101  -1.13086  -1.13080
 Alpha  occ. eigenvalues --   -1.13060  -1.13050  -1.13033  -1.13001  -1.12895
 Alpha  occ. eigenvalues --   -1.12858  -1.12813  -1.12560  -1.12524  -1.12497
 Alpha  occ. eigenvalues --   -0.18977  -0.12980  -0.12696  -0.10743
 Alpha virt. eigenvalues --   -0.05459  -0.04996  -0.04852  -0.03072  -0.02832
 Alpha virt. eigenvalues --   -0.02488  -0.01356  -0.01282  -0.00340  -0.00162
 Alpha virt. eigenvalues --    0.00013   0.00348   0.00838   0.00904   0.00920

  Beta  occ. eigenvalues --  -38.43895 -38.43797 -38.43551 -38.43492 -38.43468
  Beta  occ. eigenvalues --  -38.43253 -38.42747  -2.19725  -2.19645  -2.19407
  Beta  occ. eigenvalues --   -2.19355  -2.19282  -2.19195  -2.18790  -1.13418
  Beta  occ. eigenvalues --   -1.13376  -1.13372  -1.13356  -1.13287  -1.13258
  Beta  occ. eigenvalues --   -1.13113  -1.13076  -1.13055  -1.13043  -1.13021
  Beta  occ. eigenvalues --   -1.13016  -1.12981  -1.12967  -1.12942  -1.12884
  Beta  occ. eigenvalues --   -1.12824  -1.12799  -1.12489  -1.12456  -1.12431
  Beta  occ. eigenvalues --   -0.18255  -0.12729  -0.12439
  Beta virt. eigenvalues --   -0.06798  -0.05434  -0.04932  -0.04847  -0.02269
  Beta virt. eigenvalues --   -0.02111  -0.01391  -0.01278  -0.01193  -0.00373
  Beta virt. eigenvalues --   -0.00205   0.00154   0.00385   0.00858   0.00923

 Mulliken charges and spin densities:
               1          2
     1  Na   0.446339   0.103819
     2  Na   0.156941  -0.012225
     3  Na  -0.739152   0.141216
     4  Na   0.150222   0.033312
     5  Na   0.295960   0.040834
     6  Na  -0.568822   0.707479
     7  Na   0.258512  -0.014435
 Sum of Mulliken charges =  -0.00000   1.00000

 Dipole moment (field-independent basis, Debye):
    X=             -0.2879    Y=             -0.2176    Z=              0.2820  Tot=              0.4580
 Quadrupole moment (field-independent basis, Debye-Ang):
   XX=            -58.6420   YY=            -59.4254   ZZ=            -74.6628
   XY=             -1.0039   XZ=             -0.7245   YZ=             -0.3676

 Normal termination of Gaussian 16 at Thu Dec  7 20:07:38 2023.
