 Gaussian 16, Revision B.01,
 Gaussian 16:  ES64L-G16RevB.01 20-Dec-2017

 -------------------------
 #P B3LYP/6-311+g(d) force
 -------------------------

 -----
 DPGEN
 -----
 Symbolic Z-matrix:
 Charge =  0 Multiplicity = 2

                         Standard orientation:
 ---------------------------------------------------------------------
 Center     Atomic      Atomic             Coordinates (Angstroms)
 Number     Number       Type             X           Y           Z
 ---------------------------------------------------------------------
      1         11           0       -0.211284    0.238597   -1.595017
      2         11           0        1.707583    2.636275   -0.380531
      3         11           0        0.227419   -0.467937    1.926938
      4         11           0        3.041115   -0.518374    0.384641
      5         11           0       -2.912169   -1.097474    0.105460
      6         11           0        0.462325   -2.806950   -0.723757
      7         11           0       -2.314990    2.015863    0.282267
 ---------------------------------------------------------------------

 SCF Done:  E(UB3LYP) =  -1136.13631391     A.U. after   19 cycles

 The electronic state is 2-A.
 Alpha  occ. eigenvalues --  -38.44060 -38.44008 -38.43844 -38.43693 -38.43432
 Alpha  occ. eigenvalues --  -38.43199 -38.43057  -2.19912  -2.19864  -2.19692
 Alpha  occ. eigenvalues --   -2.19597  -2.19249  -2.19060  -2.19046  -1.13622
 Alpha  occ. eigenvalues --   -1.13568  -1.13562  -1.13539  -1.13531  -1.13505
 Alpha  occ. eigenvalues --   -1.13366  -1.13348  -1.13313  -1.13268  -1.13223
 Alpha  occ. eigenvalues --   -1.13216  -1.12947  -1.12902  -1.12887  -1.12798
 Alpha  occ. eigenvalues --   -1.12725  -1.12702  -1.12687  -1.12666  -1.12645
 Alpha  occ. eigenvalues --   -0.18618  -0.13313  -0.12212  -0.10784
 Alpha virt. eigenvalues --   -0.05632  -0.05293  -0.04570  -0.03371  -0.02822
 Alpha virt. eigenvalues --   -0.02435  -0.01580  -0.01133  -0.00449  -0.00262
 Alpha virt. eigenvalues --    0.00015   0.00361   0.00787   0.00867   0.00884

  Beta  occ. eigenvalues --  -38.44049 -38.44003 -38.43839 -38.43616 -38.43427
  Beta  occ. eigenvalues --  -38.43176 -38.42991  -2.19895  -2.19859  -2.19686
  Beta  occ. eigenvalues --   -2.19455  -2.19242  -2.19021  -2.18926  -1.13595
  Beta  occ. eigenvalues --   -1.13568  -1.13538  -1.13533  -1.13511  -1.13495
  Beta  occ. eigenvalues --   -1.13358  -1.13336  -1.13304  -1.13174  -1.13123
  Beta  occ. eigenvalues --   -1.13114  -1.12931  -1.12892  -1.12882  -1.12749
  Beta  occ. eigenvalues --   -1.12674  -1.12655  -1.12637  -1.12589  -1.12561
  Beta  occ. eigenvalues --   -0.17922  -0.13059  -0.11944
  Beta virt. eigenvalues --   -0.06923  -0.05523  -0.05298  -0.04484  -0.02605
  Beta virt. eigenvalues --   -0.02144  -0.01476  -0.01433  -0.01042  -0.00444
  Beta virt. eigenvalues --   -0.00291   0.00139   0.00398   0.00837   0.00876

 Mulliken charges and spin densities:
               1          2
     1  Na  -0.004054   0.445520
     2  Na  -0.090903  -0.082373
     3  Na  -0.217542   0.552687
     4  Na   0.204327   0.068151
     5  Na   0.186330  -0.009370
     6  Na   0.026793   0.025421
     7  Na  -0.104952  -0.000035
 Sum of Mulliken charges =  -0.00000   1.00000

 Dipole moment (field-independent basis, Debye):
    X=             -0.1321    Y=             -0.0485    Z=              0.2450  Tot=              0.2825
 Quadrupole moment (field-independent basis, Debye-Ang):
   XX=            -56.0799   YY=            -63.2060   ZZ=            -74.2189
   XY=             -0.0278   XZ=             -0.8191   YZ=              1.5053

 Normal termination of Gaussian 16 at Tue Dec  5 11:43:06 2023.
