 Gaussian 16, Revision B.01,
 Gaussian 16:  ES64L-G16RevB.01 20-Dec-2017

 -------------------------
 #P B3LYP/6-311+g(d) force
 -------------------------

 -----
 DPGEN
 -----
 Symbolic Z-matrix:
 Charge =  0 Multiplicity = 2

                         Standard orientation:
 ---------------------------------------------------------------------
 Center     Atomic      Atomic             Coordinates (Angstroms)
 Number     Number       Type             X           Y           Z
 ---------------------------------------------------------------------
      1         11           0        0.214243    3.054221   -0.144934
      2         11           0       -2.827906    1.112280   -0.163764
      3         11           0        3.190922    0.801360    0.093486
      4         11           0        0.111947    0.008428    1.967661
      5         11           0        1.256488   -2.839355   -0.150033
      6         11           0        0.041127   -0.367382   -1.945730
      7         11           0       -1.986820   -1.769552    0.343313
 ---------------------------------------------------------------------

 SCF Done:  E(UB3LYP) =  -1136.13604482     A.U. after   19 cycles

 The electronic state is 2-A.
 Alpha  occ. eigenvalues --  -38.44185 -38.43801 -38.43719 -38.43678 -38.43648
 Alpha  occ. eigenvalues --  -38.43480 -38.43288  -2.19956  -2.19624  -2.19598
 Alpha  occ. eigenvalues --   -2.19585  -2.19485  -2.19346  -2.19239  -1.13637
 Alpha  occ. eigenvalues --   -1.13611  -1.13596  -1.13322  -1.13283  -1.13278
 Alpha  occ. eigenvalues --   -1.13273  -1.13249  -1.13239  -1.13234  -1.13229
 Alpha  occ. eigenvalues --   -1.13212  -1.13144  -1.13134  -1.13121  -1.13102
 Alpha  occ. eigenvalues --   -1.12997  -1.12982  -1.12906  -1.12881  -1.12827
 Alpha  occ. eigenvalues --   -0.18574  -0.12702  -0.12567  -0.10988
 Alpha virt. eigenvalues --   -0.05682  -0.05059  -0.04718  -0.03184  -0.03087
 Alpha virt. eigenvalues --   -0.02779  -0.01369  -0.01228  -0.00391  -0.00236
 Alpha virt. eigenvalues --   -0.00029   0.00372   0.00792   0.00885   0.00926

  Beta  occ. eigenvalues --  -38.44185 -38.43799 -38.43643 -38.43634 -38.43598
  Beta  occ. eigenvalues --  -38.43476 -38.43273  -2.19958  -2.19596  -2.19480
  Beta  occ. eigenvalues --   -2.19467  -2.19437  -2.19343  -2.19217  -1.13624
  Beta  occ. eigenvalues --   -1.13613  -1.13600  -1.13270  -1.13261  -1.13231
  Beta  occ. eigenvalues --   -1.13228  -1.13199  -1.13153  -1.13141  -1.13138
  Beta  occ. eigenvalues --   -1.13128  -1.13113  -1.13109  -1.13092  -1.13071
  Beta  occ. eigenvalues --   -1.12982  -1.12970  -1.12886  -1.12831  -1.12819
  Beta  occ. eigenvalues --   -0.17804  -0.12489  -0.12334
  Beta virt. eigenvalues --   -0.07055  -0.05702  -0.04938  -0.04699  -0.02401
  Beta virt. eigenvalues --   -0.02314  -0.01747  -0.01285  -0.01154  -0.00440
  Beta virt. eigenvalues --   -0.00273   0.00104   0.00392   0.00816   0.00896

 Mulliken charges and spin densities:
               1          2
     1  Na  -0.037554  -0.095817
     2  Na  -0.049746  -0.075320
     3  Na  -0.066145  -0.158886
     4  Na  -0.247060   0.603179
     5  Na   0.205515  -0.117089
     6  Na  -0.353000   0.707389
     7  Na   0.547990   0.136543
 Sum of Mulliken charges =  -0.00000   1.00000

 Dipole moment (field-independent basis, Debye):
    X=              0.4883    Y=              0.1066    Z=             -0.0388  Tot=              0.5013
 Quadrupole moment (field-independent basis, Debye-Ang):
   XX=            -59.8298   YY=            -61.7166   ZZ=            -72.9505
   XY=             -1.1721   XZ=              0.0402   YZ=             -0.8912

 Normal termination of Gaussian 16 at Tue Dec  5 13:11:47 2023.
