 Gaussian 16, Revision B.01,
 Gaussian 16:  ES64L-G16RevB.01 20-Dec-2017

 -------------------------
 #P B3LYP/6-311+g(d) force
 -------------------------

 -----
 DPGEN
 -----
 Symbolic Z-matrix:
 Charge =  0 Multiplicity = 2

                         Standard orientation:
 ---------------------------------------------------------------------
 Center     Atomic      Atomic             Coordinates (Angstroms)
 Number     Number       Type             X           Y           Z
 ---------------------------------------------------------------------
      1         11           0       -2.627257   -1.704781    0.485082
      2         11           0       -2.558582    1.821430   -0.106202
      3         11           0        3.381808    0.362372    0.395146
      4         11           0        0.059248   -0.461320    2.190309
      5         11           0        0.851602    2.317453   -0.219048
      6         11           0        1.514750   -2.079169   -0.928333
      7         11           0       -0.621570   -0.255984   -1.816954
 ---------------------------------------------------------------------

 SCF Done:  E(UB3LYP) =  -1136.12993150     A.U. after   20 cycles

 The electronic state is 2-A.
 Alpha  occ. eigenvalues --  -38.44569 -38.44415 -38.43989 -38.43715 -38.43651
 Alpha  occ. eigenvalues --  -38.43512 -38.42752  -2.20413  -2.20246  -2.19824
 Alpha  occ. eigenvalues --   -2.19704  -2.19496  -2.19398  -2.18629  -1.14074
 Alpha  occ. eigenvalues --   -1.14048  -1.14035  -1.13915  -1.13906  -1.13892
 Alpha  occ. eigenvalues --   -1.13501  -1.13495  -1.13472  -1.13456  -1.13352
 Alpha  occ. eigenvalues --   -1.13311  -1.13171  -1.13151  -1.13128  -1.13064
 Alpha  occ. eigenvalues --   -1.13022  -1.12998  -1.12323  -1.12301  -1.12255
 Alpha  occ. eigenvalues --   -0.18649  -0.13456  -0.11756  -0.11577
 Alpha virt. eigenvalues --   -0.06081  -0.05170  -0.04055  -0.03451  -0.03132
 Alpha virt. eigenvalues --   -0.02890  -0.01821  -0.01017  -0.00319  -0.00005
 Alpha virt. eigenvalues --    0.00145   0.00329   0.00573   0.00758   0.00861

  Beta  occ. eigenvalues --  -38.44482 -38.44413 -38.43980 -38.43649 -38.43639
  Beta  occ. eigenvalues --  -38.43480 -38.42749  -2.20252  -2.20243  -2.19809
  Beta  occ. eigenvalues --   -2.19568  -2.19493  -2.19344  -2.18625  -1.13969
  Beta  occ. eigenvalues --   -1.13939  -1.13917  -1.13914  -1.13898  -1.13882
  Beta  occ. eigenvalues --   -1.13488  -1.13464  -1.13451  -1.13375  -1.13263
  Beta  occ. eigenvalues --   -1.13225  -1.13152  -1.13147  -1.13125  -1.13009
  Beta  occ. eigenvalues --   -1.12972  -1.12966  -1.12319  -1.12284  -1.12249
  Beta  occ. eigenvalues --   -0.17909  -0.13267  -0.11463
  Beta virt. eigenvalues --   -0.07607  -0.05915  -0.05188  -0.03686  -0.02999
  Beta virt. eigenvalues --   -0.02213  -0.02066  -0.01699  -0.00950  -0.00210
  Beta virt. eigenvalues --    0.00068   0.00127   0.00360   0.00763   0.00844

 Mulliken charges and spin densities:
               1          2
     1  Na   0.088356   0.010615
     2  Na   0.154453   0.000382
     3  Na   0.211472   0.045635
     4  Na  -0.420404   0.623791
     5  Na  -0.295575  -0.006378
     6  Na   0.004376   0.006845
     7  Na   0.257321   0.319110
 Sum of Mulliken charges =  -0.00000   1.00000

 Dipole moment (field-independent basis, Debye):
    X=             -0.0276    Y=             -0.2217    Z=              0.5541  Tot=              0.5975
 Quadrupole moment (field-independent basis, Debye-Ang):
   XX=            -53.0070   YY=            -72.0970   ZZ=            -70.2348
   XY=             -0.0603   XZ=              0.0742   YZ=              0.3312

 Normal termination of Gaussian 16 at Thu Dec  7 23:02:58 2023.
