 Gaussian 16, Revision B.01,
 Gaussian 16:  ES64L-G16RevB.01 20-Dec-2017

 -------------------------
 #P B3LYP/6-311+g(d) force
 -------------------------

 -----
 DPGEN
 -----
 Symbolic Z-matrix:
 Charge =  0 Multiplicity = 2

                         Standard orientation:
 ---------------------------------------------------------------------
 Center     Atomic      Atomic             Coordinates (Angstroms)
 Number     Number       Type             X           Y           Z
 ---------------------------------------------------------------------
      1         11           0        1.167936    0.264926   -1.640730
      2         11           0       -1.883735    2.238198    0.964540
      3         11           0        4.478065    1.563568    0.352106
      4         11           0        3.065283   -1.643105    0.617288
      5         11           0       -0.765533   -1.911257   -0.958462
      6         11           0       -3.564320    0.751151   -1.117702
      7         11           0       -2.497697   -1.263481    1.782959
 ---------------------------------------------------------------------

 SCF Done:  E(UB3LYP) =  -1136.10920301     A.U. after   23 cycles

 The electronic state is 2-A.
 Alpha  occ. eigenvalues --  -38.45286 -38.45224 -38.44290 -38.44200 -38.44149
 Alpha  occ. eigenvalues --  -38.43974 -38.42255  -2.21060  -2.21051  -2.20110
 Alpha  occ. eigenvalues --   -2.20070  -2.20004  -2.19733  -2.18152  -1.14750
 Alpha  occ. eigenvalues --   -1.14745  -1.14723  -1.14696  -1.14685  -1.14666
 Alpha  occ. eigenvalues --   -1.13782  -1.13768  -1.13764  -1.13748  -1.13721
 Alpha  occ. eigenvalues --   -1.13676  -1.13664  -1.13649  -1.13599  -1.13407
 Alpha  occ. eigenvalues --   -1.13403  -1.13367  -1.11861  -1.11815  -1.11781
 Alpha  occ. eigenvalues --   -0.17330  -0.14210  -0.11076  -0.10700
 Alpha virt. eigenvalues --   -0.06722  -0.06227  -0.04272  -0.03323  -0.02958
 Alpha virt. eigenvalues --   -0.02543  -0.02034  -0.01685  -0.00849  -0.00768
 Alpha virt. eigenvalues --   -0.00096   0.00002   0.00187   0.00300   0.00434

  Beta  occ. eigenvalues --  -38.45276 -38.45208 -38.44278 -38.44147 -38.44053
  Beta  occ. eigenvalues --  -38.43977 -38.42243  -2.21041  -2.21024  -2.20092
  Beta  occ. eigenvalues --   -2.19974  -2.19826  -2.19739  -2.18137  -1.14735
  Beta  occ. eigenvalues --   -1.14724  -1.14710  -1.14669  -1.14659  -1.14653
  Beta  occ. eigenvalues --   -1.13761  -1.13754  -1.13723  -1.13708  -1.13657
  Beta  occ. eigenvalues --   -1.13595  -1.13542  -1.13532  -1.13475  -1.13411
  Beta  occ. eigenvalues --   -1.13405  -1.13370  -1.11836  -1.11784  -1.11768
  Beta  occ. eigenvalues --   -0.16651  -0.13973  -0.10753
  Beta virt. eigenvalues --   -0.07079  -0.06624  -0.05932  -0.03851  -0.03258
  Beta virt. eigenvalues --   -0.02540  -0.01898  -0.01728  -0.01396  -0.00697
  Beta virt. eigenvalues --   -0.00463  -0.00063   0.00149   0.00306   0.00414

 Mulliken charges and spin densities:
               1          2
     1  Na  -0.438805   0.186234
     2  Na  -0.156759   0.115626
     3  Na  -0.010800  -0.024740
     4  Na   0.151013   0.064738
     5  Na   0.427716   0.011148
     6  Na   0.332802   0.196698
     7  Na  -0.305168   0.450295
 Sum of Mulliken charges =  -0.00000   1.00000

 Dipole moment (field-independent basis, Debye):
    X=             -0.1081    Y=              0.0970    Z=              0.0305  Tot=              0.1484
 Quadrupole moment (field-independent basis, Debye-Ang):
   XX=            -62.0014   YY=            -70.4981   ZZ=            -68.8698
   XY=              1.0660   XZ=              5.3219   YZ=             -1.8638

 Normal termination of Gaussian 16 at Fri Dec  8 17:37:14 2023.
