 Gaussian 16, Revision B.01,
 Gaussian 16:  ES64L-G16RevB.01 20-Dec-2017

 -------------------------
 #P B3LYP/6-311+g(d) force
 -------------------------

 -----
 DPGEN
 -----
 Symbolic Z-matrix:
 Charge =  0 Multiplicity = 2

                         Standard orientation:
 ---------------------------------------------------------------------
 Center     Atomic      Atomic             Coordinates (Angstroms)
 Number     Number       Type             X           Y           Z
 ---------------------------------------------------------------------
      1         11           0        1.052082   -2.785899   -0.056671
      2         11           0       -2.209498   -1.828580    0.214891
      3         11           0       -2.510765    1.395815   -0.555183
      4         11           0        0.298515    0.014731   -1.592310
      5         11           0        0.671813    2.953379    0.287750
      6         11           0       -0.480231    0.106466    1.636021
      7         11           0        3.178083    0.144088    0.065502
 ---------------------------------------------------------------------

 SCF Done:  E(UB3LYP) =  -1136.13628614     A.U. after   19 cycles

 The electronic state is 2-A.
 Alpha  occ. eigenvalues --  -38.44063 -38.43660 -38.43574 -38.43538 -38.43454
 Alpha  occ. eigenvalues --  -38.43020 -38.42855  -2.19878  -2.19503  -2.19445
 Alpha  occ. eigenvalues --   -2.19433  -2.19386  -2.19051  -2.18875  -1.13564
 Alpha  occ. eigenvalues --   -1.13539  -1.13510  -1.13194  -1.13190  -1.13170
 Alpha  occ. eigenvalues --   -1.13139  -1.13133  -1.13122  -1.13108  -1.13092
 Alpha  occ. eigenvalues --   -1.13080  -1.13067  -1.13014  -1.12980  -1.12738
 Alpha  occ. eigenvalues --   -1.12664  -1.12649  -1.12558  -1.12497  -1.12493
 Alpha  occ. eigenvalues --   -0.19110  -0.13039  -0.12828  -0.10442
 Alpha virt. eigenvalues --   -0.05546  -0.05026  -0.04959  -0.03007  -0.02859
 Alpha virt. eigenvalues --   -0.02040  -0.01407  -0.01275  -0.00366  -0.00289
 Alpha virt. eigenvalues --    0.00065   0.00356   0.00853   0.00884   0.00919

  Beta  occ. eigenvalues --  -38.44062 -38.43652 -38.43570 -38.43517 -38.43443
  Beta  occ. eigenvalues --  -38.42948 -38.42787  -2.19879  -2.19490  -2.19429
  Beta  occ. eigenvalues --   -2.19412  -2.19370  -2.18920  -2.18751  -1.13557
  Beta  occ. eigenvalues --   -1.13536  -1.13509  -1.13179  -1.13170  -1.13143
  Beta  occ. eigenvalues --   -1.13131  -1.13126  -1.13096  -1.13081  -1.13071
  Beta  occ. eigenvalues --   -1.13051  -1.13050  -1.12987  -1.12968  -1.12650
  Beta  occ. eigenvalues --   -1.12572  -1.12556  -1.12472  -1.12408  -1.12398
  Beta  occ. eigenvalues --   -0.18404  -0.12789  -0.12547
  Beta virt. eigenvalues --   -0.06535  -0.05533  -0.04977  -0.04936  -0.02252
  Beta virt. eigenvalues --   -0.02090  -0.01345  -0.01195  -0.01022  -0.00392
  Beta virt. eigenvalues --   -0.00319   0.00181   0.00396   0.00852   0.00909

 Mulliken charges and spin densities:
               1          2
     1  Na  -0.019406  -0.109193
     2  Na   0.444810   0.047042
     3  Na   0.168515   0.061824
     4  Na  -0.165395   0.530998
     5  Na  -0.042688  -0.063596
     6  Na  -0.286978   0.639934
     7  Na  -0.098857  -0.107009
 Sum of Mulliken charges =  -0.00000   1.00000

 Dipole moment (field-independent basis, Debye):
    X=              0.3390    Y=              0.1072    Z=              0.0015  Tot=              0.3555
 Quadrupole moment (field-independent basis, Debye-Ang):
   XX=            -56.9543   YY=            -58.8963   ZZ=            -75.9909
   XY=             -0.0105   XZ=              1.7968   YZ=             -0.1909

 Normal termination of Gaussian 16 at Tue Nov 28 19:12:03 2023.
