 Gaussian 16, Revision B.01,
 Gaussian 16:  ES64L-G16RevB.01 20-Dec-2017

 -------------------------
 #P B3LYP/6-311+g(d) force
 -------------------------

 -----
 DPGEN
 -----
 Symbolic Z-matrix:
 Charge =  0 Multiplicity = 2

                         Standard orientation:
 ---------------------------------------------------------------------
 Center     Atomic      Atomic             Coordinates (Angstroms)
 Number     Number       Type             X           Y           Z
 ---------------------------------------------------------------------
      1         11           0        0.150217   -0.043578   -1.554164
      2         11           0       -1.366686   -0.499646    2.054089
      3         11           0        0.792640   -2.460361    0.613313
      4         11           0       -2.264394    2.294086   -0.546280
      5         11           0        1.179650    2.458554    0.868415
      6         11           0        3.944144   -0.108406   -0.502021
      7         11           0       -2.435571   -1.640650   -0.933352
 ---------------------------------------------------------------------

 SCF Done:  E(UB3LYP) =  -1136.13019808     A.U. after   20 cycles

 The electronic state is 2-A.
 Alpha  occ. eigenvalues --  -38.44364 -38.43975 -38.43941 -38.43883 -38.43622
 Alpha  occ. eigenvalues --  -38.43586 -38.43561  -2.20103  -2.19823  -2.19769
 Alpha  occ. eigenvalues --   -2.19751  -2.19508  -2.19439  -2.19420  -1.13784
 Alpha  occ. eigenvalues --   -1.13763  -1.13734  -1.13557  -1.13499  -1.13455
 Alpha  occ. eigenvalues --   -1.13434  -1.13428  -1.13427  -1.13386  -1.13373
 Alpha  occ. eigenvalues --   -1.13362  -1.13218  -1.13164  -1.13135  -1.13125
 Alpha  occ. eigenvalues --   -1.13104  -1.13086  -1.13066  -1.13057  -1.13031
 Alpha  occ. eigenvalues --   -0.18183  -0.12636  -0.12135  -0.11123
 Alpha virt. eigenvalues --   -0.06015  -0.05234  -0.04431  -0.03199  -0.03001
 Alpha virt. eigenvalues --   -0.02782  -0.01823  -0.01132  -0.00614  -0.00133
 Alpha virt. eigenvalues --   -0.00035   0.00296   0.00509   0.00752   0.00787

  Beta  occ. eigenvalues --  -38.44363 -38.43962 -38.43914 -38.43800 -38.43619
  Beta  occ. eigenvalues --  -38.43572 -38.43508  -2.20103  -2.19776  -2.19727
  Beta  occ. eigenvalues --   -2.19615  -2.19418  -2.19416  -2.19413  -1.13780
  Beta  occ. eigenvalues --   -1.13763  -1.13733  -1.13511  -1.13451  -1.13417
  Beta  occ. eigenvalues --   -1.13404  -1.13390  -1.13347  -1.13346  -1.13291
  Beta  occ. eigenvalues --   -1.13262  -1.13172  -1.13115  -1.13093  -1.13084
  Beta  occ. eigenvalues --   -1.13071  -1.13059  -1.13047  -1.13030  -1.13013
  Beta  occ. eigenvalues --   -0.17441  -0.12461  -0.11913
  Beta virt. eigenvalues --   -0.07185  -0.05880  -0.05153  -0.04257  -0.02720
  Beta virt. eigenvalues --   -0.02348  -0.01891  -0.01592  -0.01102  -0.00384
  Beta virt. eigenvalues --   -0.00050   0.00006   0.00338   0.00679   0.00801

 Mulliken charges and spin densities:
               1          2
     1  Na   0.072159   0.429626
     2  Na  -0.024812   0.649378
     3  Na  -0.117707  -0.020233
     4  Na  -0.079962  -0.050763
     5  Na  -0.232075   0.025661
     6  Na   0.099461  -0.009954
     7  Na   0.282935  -0.023716
 Sum of Mulliken charges =  -0.00000   1.00000

 Dipole moment (field-independent basis, Debye):
    X=             -0.0460    Y=             -0.0508    Z=              0.1292  Tot=              0.1462
 Quadrupole moment (field-independent basis, Debye-Ang):
   XX=            -54.8333   YY=            -67.2704   ZZ=            -71.2967
   XY=              0.0881   XZ=              1.3140   YZ=              1.0556

 Normal termination of Gaussian 16 at Tue Dec  5 17:12:57 2023.
