 Gaussian 16, Revision B.01,
 Gaussian 16:  ES64L-G16RevB.01 20-Dec-2017

 -------------------------
 #P B3LYP/6-311+g(d) force
 -------------------------

 -----
 DPGEN
 -----
 Symbolic Z-matrix:
 Charge =  0 Multiplicity = 2

                         Standard orientation:
 ---------------------------------------------------------------------
 Center     Atomic      Atomic             Coordinates (Angstroms)
 Number     Number       Type             X           Y           Z
 ---------------------------------------------------------------------
      1         11           0        0.349207   -2.874205    0.280050
      2         11           0       -0.789651    0.056815   -1.639294
      3         11           0        2.945109   -1.058179   -0.273463
      4         11           0       -0.199141    0.341630    1.972801
      5         11           0        2.333107    1.904278   -0.245388
      6         11           0       -1.550097    3.135278    0.055897
      7         11           0       -3.088534   -1.505615   -0.150602
 ---------------------------------------------------------------------

 SCF Done:  E(UB3LYP) =  -1136.13024351     A.U. after   19 cycles

 The electronic state is 2-A.
 Alpha  occ. eigenvalues --  -38.44417 -38.44351 -38.44096 -38.43813 -38.43549
 Alpha  occ. eigenvalues --  -38.43476 -38.43447  -2.20224  -2.20121  -2.19934
 Alpha  occ. eigenvalues --   -2.19654  -2.19414  -2.19351  -2.19346  -1.13923
 Alpha  occ. eigenvalues --   -1.13873  -1.13855  -1.13795  -1.13778  -1.13762
 Alpha  occ. eigenvalues --   -1.13652  -1.13596  -1.13560  -1.13351  -1.13321
 Alpha  occ. eigenvalues --   -1.13287  -1.13090  -1.13050  -1.13026  -1.13021
 Alpha  occ. eigenvalues --   -1.13018  -1.12998  -1.12989  -1.12982  -1.12968
 Alpha  occ. eigenvalues --   -0.18136  -0.12957  -0.12568  -0.10415
 Alpha virt. eigenvalues --   -0.06279  -0.05373  -0.04665  -0.03054  -0.02974
 Alpha virt. eigenvalues --   -0.02371  -0.01709  -0.01622  -0.00532  -0.00470
 Alpha virt. eigenvalues --   -0.00020   0.00320   0.00705   0.00775   0.00863

  Beta  occ. eigenvalues --  -38.44411 -38.44350 -38.44085 -38.43803 -38.43471
  Beta  occ. eigenvalues --  -38.43459 -38.43392  -2.20216  -2.20122  -2.19917
  Beta  occ. eigenvalues --   -2.19638  -2.19341  -2.19250  -2.19245  -1.13907
  Beta  occ. eigenvalues --   -1.13861  -1.13848  -1.13781  -1.13780  -1.13763
  Beta  occ. eigenvalues --   -1.13642  -1.13567  -1.13547  -1.13344  -1.13291
  Beta  occ. eigenvalues --   -1.13275  -1.13015  -1.12989  -1.12983  -1.12960
  Beta  occ. eigenvalues --   -1.12948  -1.12935  -1.12921  -1.12900  -1.12895
  Beta  occ. eigenvalues --   -0.17467  -0.12670  -0.12378
  Beta virt. eigenvalues --   -0.06669  -0.06194  -0.05226  -0.04636  -0.02347
  Beta virt. eigenvalues --   -0.02266  -0.01628  -0.01609  -0.01307  -0.00553
  Beta virt. eigenvalues --   -0.00485   0.00137   0.00373   0.00712   0.00853

 Mulliken charges and spin densities:
               1          2
     1  Na   0.154209   0.134227
     2  Na  -0.147899   0.408860
     3  Na  -0.194026  -0.014066
     4  Na  -0.230895   0.587845
     5  Na   0.111685   0.048526
     6  Na   0.061238  -0.105033
     7  Na   0.245687  -0.060359
 Sum of Mulliken charges =  -0.00000   1.00000

 Dipole moment (field-independent basis, Debye):
    X=             -0.7048    Y=              0.2510    Z=              0.1028  Tot=              0.7552
 Quadrupole moment (field-independent basis, Debye-Ang):
   XX=            -58.9413   YY=            -58.8713   ZZ=            -75.9711
   XY=             -0.0097   XZ=             -1.2734   YZ=             -0.8082

 Normal termination of Gaussian 16 at Fri Dec  8 00:23:08 2023.
