 Gaussian 16, Revision B.01,
 Gaussian 16:  ES64L-G16RevB.01 20-Dec-2017

 -------------------------
 #P B3LYP/6-311+g(d) force
 -------------------------

 -----
 DPGEN
 -----
 Symbolic Z-matrix:
 Charge =  0 Multiplicity = 2

                         Standard orientation:
 ---------------------------------------------------------------------
 Center     Atomic      Atomic             Coordinates (Angstroms)
 Number     Number       Type             X           Y           Z
 ---------------------------------------------------------------------
      1         11           0        2.752741    0.463206   -0.010873
      2         11           0       -0.191574   -0.238939    1.947500
      3         11           0       -1.717105   -2.145404    0.108463
      4         11           0        0.455385    3.163749    0.276547
      5         11           0       -3.016611    0.642621   -0.290488
      6         11           0       -0.147272    0.493129   -1.677174
      7         11           0        1.864436   -2.378362   -0.353974
 ---------------------------------------------------------------------

 SCF Done:  E(UB3LYP) =  -1136.13421496     A.U. after   19 cycles

 The electronic state is 2-A.
 Alpha  occ. eigenvalues --  -38.44038 -38.43690 -38.43596 -38.43581 -38.43509
 Alpha  occ. eigenvalues --  -38.43381 -38.43245  -2.19916  -2.19599  -2.19517
 Alpha  occ. eigenvalues --   -2.19438  -2.19411  -2.19255  -2.19219  -1.13624
 Alpha  occ. eigenvalues --   -1.13578  -1.13550  -1.13337  -1.13284  -1.13263
 Alpha  occ. eigenvalues --   -1.13250  -1.13158  -1.13124  -1.13090  -1.13086
 Alpha  occ. eigenvalues --   -1.13068  -1.13058  -1.13055  -1.13049  -1.12912
 Alpha  occ. eigenvalues --   -1.12905  -1.12893  -1.12882  -1.12858  -1.12829
 Alpha  occ. eigenvalues --   -0.18970  -0.13314  -0.12483  -0.10854
 Alpha virt. eigenvalues --   -0.05527  -0.05030  -0.04753  -0.03332  -0.02968
 Alpha virt. eigenvalues --   -0.02466  -0.01386  -0.01195  -0.00246  -0.00107
 Alpha virt. eigenvalues --    0.00006   0.00364   0.00869   0.00887   0.00896

  Beta  occ. eigenvalues --  -38.44029 -38.43683 -38.43592 -38.43499 -38.43491
  Beta  occ. eigenvalues --  -38.43374 -38.43182  -2.19902  -2.19591  -2.19426
  Beta  occ. eigenvalues --   -2.19407  -2.19349  -2.19246  -2.19104  -1.13613
  Beta  occ. eigenvalues --   -1.13559  -1.13528  -1.13332  -1.13253  -1.13223
  Beta  occ. eigenvalues --   -1.13213  -1.13080  -1.13064  -1.13060  -1.13058
  Beta  occ. eigenvalues --   -1.13052  -1.13041  -1.13003  -1.12971  -1.12908
  Beta  occ. eigenvalues --   -1.12889  -1.12863  -1.12818  -1.12772  -1.12748
  Beta  occ. eigenvalues --   -0.18236  -0.13032  -0.12257
  Beta virt. eigenvalues --   -0.06953  -0.05489  -0.04948  -0.04739  -0.02503
  Beta virt. eigenvalues --   -0.02229  -0.01456  -0.01288  -0.01113  -0.00282
  Beta virt. eigenvalues --   -0.00138   0.00135   0.00391   0.00877   0.00907

 Mulliken charges and spin densities:
               1          2
     1  Na   0.134280   0.010212
     2  Na  -0.417841   0.603923
     3  Na   0.372516   0.098151
     4  Na  -0.003033  -0.069390
     5  Na   0.187844  -0.086350
     6  Na  -0.247237   0.441505
     7  Na  -0.026529   0.001949
 Sum of Mulliken charges =  -0.00000   1.00000

 Dipole moment (field-independent basis, Debye):
    X=             -0.2706    Y=              0.2454    Z=              0.0955  Tot=              0.3776
 Quadrupole moment (field-independent basis, Debye-Ang):
   XX=            -59.5101   YY=            -61.1176   ZZ=            -73.7686
   XY=             -0.6780   XZ=              0.2363   YZ=              1.7852

 Normal termination of Gaussian 16 at Thu Dec  7 07:19:55 2023.
