 Gaussian 16, Revision B.01,
 Gaussian 16:  ES64L-G16RevB.01 20-Dec-2017

 -------------------------
 #P B3LYP/6-311+g(d) force
 -------------------------

 -----
 DPGEN
 -----
 Symbolic Z-matrix:
 Charge =  0 Multiplicity = 2

                         Standard orientation:
 ---------------------------------------------------------------------
 Center     Atomic      Atomic             Coordinates (Angstroms)
 Number     Number       Type             X           Y           Z
 ---------------------------------------------------------------------
      1         11           0       -2.334192    2.773850   -0.242489
      2         11           0        3.071005   -0.810502    0.250813
      3         11           0        2.284521    2.432867   -0.019901
      4         11           0       -0.782392    0.430217    1.627813
      5         11           0       -0.041236    0.015762   -1.532512
      6         11           0        0.630710   -2.877221   -0.091703
      7         11           0       -2.828416   -1.964973    0.007978
 ---------------------------------------------------------------------

 SCF Done:  E(UB3LYP) =  -1136.12705265     A.U. after   24 cycles

 The electronic state is 2-A.
 Alpha  occ. eigenvalues --  -38.44751 -38.44643 -38.44632 -38.43758 -38.43622
 Alpha  occ. eigenvalues --  -38.43133 -38.42897  -2.20535  -2.20414  -2.20410
 Alpha  occ. eigenvalues --   -2.19604  -2.19486  -2.19030  -2.18838  -1.14206
 Alpha  occ. eigenvalues --   -1.14188  -1.14180  -1.14087  -1.14085  -1.14079
 Alpha  occ. eigenvalues --   -1.14061  -1.14055  -1.14051  -1.13316  -1.13259
 Alpha  occ. eigenvalues --   -1.13252  -1.13168  -1.13140  -1.13107  -1.12755
 Alpha  occ. eigenvalues --   -1.12658  -1.12642  -1.12538  -1.12456  -1.12450
 Alpha  occ. eigenvalues --   -0.18097  -0.12969  -0.12597  -0.09617
 Alpha virt. eigenvalues --   -0.06660  -0.05644  -0.04771  -0.02899  -0.02669
 Alpha virt. eigenvalues --   -0.01998  -0.01912  -0.01649  -0.00847  -0.00643
 Alpha virt. eigenvalues --    0.00016   0.00303   0.00598   0.00688   0.00818

  Beta  occ. eigenvalues --  -38.44746 -38.44639 -38.44628 -38.43752 -38.43615
  Beta  occ. eigenvalues --  -38.43073 -38.42826  -2.20529  -2.20411  -2.20403
  Beta  occ. eigenvalues --   -2.19596  -2.19476  -2.18920  -2.18709  -1.14187
  Beta  occ. eigenvalues --   -1.14185  -1.14172  -1.14081  -1.14069  -1.14065
  Beta  occ. eigenvalues --   -1.14059  -1.14052  -1.14043  -1.13312  -1.13251
  Beta  occ. eigenvalues --   -1.13232  -1.13157  -1.13115  -1.13099  -1.12675
  Beta  occ. eigenvalues --   -1.12579  -1.12562  -1.12443  -1.12366  -1.12355
  Beta  occ. eigenvalues --   -0.17449  -0.12736  -0.12379
  Beta virt. eigenvalues --   -0.06666  -0.05901  -0.05499  -0.04754  -0.02205
  Beta virt. eigenvalues --   -0.02010  -0.01897  -0.01778  -0.00895  -0.00781
  Beta virt. eigenvalues --   -0.00663   0.00184   0.00360   0.00611   0.00779

 Mulliken charges and spin densities:
               1          2
     1  Na  -0.004603  -0.140944
     2  Na  -0.068535   0.042843
     3  Na   0.130772  -0.030645
     4  Na  -0.346355   0.582063
     5  Na  -0.204079   0.493381
     6  Na   0.227854   0.101837
     7  Na   0.264946  -0.048536
 Sum of Mulliken charges =  -0.00000   1.00000

 Dipole moment (field-independent basis, Debye):
    X=             -0.5394    Y=              0.3870    Z=             -0.1026  Tot=              0.6718
 Quadrupole moment (field-independent basis, Debye-Ang):
   XX=            -54.1675   YY=            -55.9921   ZZ=            -79.9171
   XY=              0.9648   XZ=              1.7240   YZ=             -0.8908

 Normal termination of Gaussian 16 at Sat Dec  9 06:00:16 2023.
