 Gaussian 16, Revision B.01,
 Gaussian 16:  ES64L-G16RevB.01 20-Dec-2017

 -------------------------
 #P B3LYP/6-311+g(d) force
 -------------------------

 -----
 DPGEN
 -----
 Symbolic Z-matrix:
 Charge =  0 Multiplicity = 2

                         Standard orientation:
 ---------------------------------------------------------------------
 Center     Atomic      Atomic             Coordinates (Angstroms)
 Number     Number       Type             X           Y           Z
 ---------------------------------------------------------------------
      1         11           0        1.740912   -2.332292   -0.578280
      2         11           0       -4.630623   -0.967713    0.432719
      3         11           0        4.644452   -1.258855    0.930613
      4         11           0        3.310467    1.933316   -0.524355
      5         11           0        0.284655    3.117232   -0.019064
      6         11           0       -2.151211   -3.278810   -0.327760
      7         11           0       -3.198652    2.787123    0.086127
 ---------------------------------------------------------------------

 SCF Done:  E(UB3LYP) =  -1136.10686890     A.U. after   25 cycles

 The electronic state is 2-A.
 Alpha  occ. eigenvalues --  -38.45857 -38.45302 -38.45224 -38.44342 -38.44333
 Alpha  occ. eigenvalues --  -38.43828 -38.43633  -2.21597  -2.21031  -2.21023
 Alpha  occ. eigenvalues --   -2.20148  -2.20097  -2.19603  -2.19428  -1.15292
 Alpha  occ. eigenvalues --   -1.15279  -1.15203  -1.14723  -1.14703  -1.14696
 Alpha  occ. eigenvalues --   -1.14694  -1.14669  -1.14630  -1.13803  -1.13798
 Alpha  occ. eigenvalues --   -1.13770  -1.13765  -1.13758  -1.13717  -1.13271
 Alpha  occ. eigenvalues --   -1.13261  -1.13230  -1.13105  -1.13104  -1.13072
 Alpha  occ. eigenvalues --   -0.15686  -0.13730  -0.13116  -0.10746
 Alpha virt. eigenvalues --   -0.07876  -0.05343  -0.04405  -0.03555  -0.03282
 Alpha virt. eigenvalues --   -0.02589  -0.02249  -0.01970  -0.01192  -0.01039
 Alpha virt. eigenvalues --   -0.00547  -0.00237   0.00042   0.00209   0.00496

  Beta  occ. eigenvalues --  -38.45835 -38.45317 -38.45170 -38.44300 -38.44285
  Beta  occ. eigenvalues --  -38.43789 -38.43626  -2.21560  -2.21060  -2.20929
  Beta  occ. eigenvalues --   -2.20041  -2.20033  -2.19529  -2.19419  -1.15271
  Beta  occ. eigenvalues --   -1.15257  -1.15146  -1.14745  -1.14724  -1.14674
  Beta  occ. eigenvalues --   -1.14636  -1.14626  -1.14543  -1.13729  -1.13726
  Beta  occ. eigenvalues --   -1.13722  -1.13719  -1.13698  -1.13677  -1.13220
  Beta  occ. eigenvalues --   -1.13210  -1.13183  -1.13103  -1.13101  -1.13039
  Beta  occ. eigenvalues --   -0.15057  -0.13404  -0.12508
  Beta virt. eigenvalues --   -0.07869  -0.07436  -0.04883  -0.03950  -0.03341
  Beta virt. eigenvalues --   -0.02933  -0.02373  -0.02090  -0.01756  -0.00990
  Beta virt. eigenvalues --   -0.00712  -0.00369   0.00065   0.00182   0.00265

 Mulliken charges and spin densities:
               1          2
     1  Na  -0.443114   0.208091
     2  Na  -0.124923  -0.028344
     3  Na   0.617171   0.272068
     4  Na  -0.131919   0.066697
     5  Na  -0.267535  -0.029465
     6  Na   0.000309   0.142258
     7  Na   0.350011   0.368695
 Sum of Mulliken charges =  -0.00000   1.00000

 Dipole moment (field-independent basis, Debye):
    X=              0.9864    Y=             -0.3836    Z=              0.0887  Tot=              1.0621
 Quadrupole moment (field-independent basis, Debye-Ang):
   XX=            -53.7371   YY=            -72.4939   ZZ=            -72.3635
   XY=              2.3501   XZ=             -0.4197   YZ=              0.0749

 Normal termination of Gaussian 16 at Sun Dec  3 17:32:49 2023.
