 Gaussian 16, Revision B.01,
 Gaussian 16:  ES64L-G16RevB.01 20-Dec-2017

 -------------------------
 #P B3LYP/6-311+g(d) force
 -------------------------

 -----
 DPGEN
 -----
 Symbolic Z-matrix:
 Charge =  0 Multiplicity = 2

                         Standard orientation:
 ---------------------------------------------------------------------
 Center     Atomic      Atomic             Coordinates (Angstroms)
 Number     Number       Type             X           Y           Z
 ---------------------------------------------------------------------
      1         11           0       -0.809566    1.949292    1.880528
      2         11           0       -2.542657    0.983274   -0.717212
      3         11           0        1.261312   -0.769314   -1.095374
      4         11           0       -2.941260   -2.262699   -0.938290
      5         11           0        4.227131   -1.471162    0.116606
      6         11           0        1.283568    3.043957   -1.028083
      7         11           0       -0.478527   -1.473348    1.781826
 ---------------------------------------------------------------------

 SCF Done:  E(UB3LYP) =  -1136.11907378     A.U. after   22 cycles

 The electronic state is 2-A.
 Alpha  occ. eigenvalues --  -38.44582 -38.44487 -38.44399 -38.44364 -38.43784
 Alpha  occ. eigenvalues --  -38.43729 -38.43673  -2.20331  -2.20327  -2.20238
 Alpha  occ. eigenvalues --   -2.20122  -2.19593  -2.19581  -2.19503  -1.14026
 Alpha  occ. eigenvalues --   -1.14001  -1.13998  -1.13992  -1.13980  -1.13944
 Alpha  occ. eigenvalues --   -1.13927  -1.13882  -1.13840  -1.13796  -1.13779
 Alpha  occ. eigenvalues --   -1.13739  -1.13265  -1.13260  -1.13249  -1.13244
 Alpha  occ. eigenvalues --   -1.13219  -1.13206  -1.13181  -1.13150  -1.13130
 Alpha  occ. eigenvalues --   -0.17460  -0.12724  -0.12007  -0.11172
 Alpha virt. eigenvalues --   -0.06698  -0.05502  -0.03937  -0.03444  -0.03103
 Alpha virt. eigenvalues --   -0.02670  -0.02099  -0.01489  -0.00661  -0.00315
 Alpha virt. eigenvalues --   -0.00168   0.00090   0.00231   0.00610   0.00661

  Beta  occ. eigenvalues --  -38.44593 -38.44463 -38.44334 -38.44329 -38.43760
  Beta  occ. eigenvalues --  -38.43682 -38.43660  -2.20353  -2.20286  -2.20110
  Beta  occ. eigenvalues --   -2.20066  -2.19549  -2.19498  -2.19482  -1.14015
  Beta  occ. eigenvalues --   -1.14005  -1.13994  -1.13977  -1.13973  -1.13914
  Beta  occ. eigenvalues --   -1.13843  -1.13772  -1.13757  -1.13752  -1.13741
  Beta  occ. eigenvalues --   -1.13704  -1.13224  -1.13215  -1.13212  -1.13194
  Beta  occ. eigenvalues --   -1.13182  -1.13180  -1.13132  -1.13118  -1.13104
  Beta  occ. eigenvalues --   -0.16747  -0.12480  -0.11883
  Beta virt. eigenvalues --   -0.07322  -0.06504  -0.05296  -0.03454  -0.03180
  Beta virt. eigenvalues --   -0.02715  -0.02218  -0.01595  -0.01324  -0.00499
  Beta virt. eigenvalues --   -0.00133  -0.00022   0.00149   0.00280   0.00636

 Mulliken charges and spin densities:
               1          2
     1  Na   0.138332   0.148422
     2  Na   0.149217   0.245896
     3  Na  -0.220474   0.167685
     4  Na   0.147256   0.101652
     5  Na   0.115714  -0.101535
     6  Na  -0.093937   0.093592
     7  Na  -0.236109   0.344289
 Sum of Mulliken charges =  -0.00000   1.00000

 Dipole moment (field-independent basis, Debye):
    X=              0.4300    Y=              0.0413    Z=              0.3031  Tot=              0.5277
 Quadrupole moment (field-independent basis, Debye-Ang):
   XX=            -58.5639   YY=            -65.6874   ZZ=            -69.8386
   XY=              1.3421   XZ=              2.3528   YZ=             -1.6199

 Normal termination of Gaussian 16 at Tue Nov 28 23:14:13 2023.
