 Gaussian 16, Revision B.01,
 Gaussian 16:  ES64L-G16RevB.01 20-Dec-2017

 -------------------------
 #P B3LYP/6-311+g(d) force
 -------------------------

 -----
 DPGEN
 -----
 Symbolic Z-matrix:
 Charge =  0 Multiplicity = 2

                         Standard orientation:
 ---------------------------------------------------------------------
 Center     Atomic      Atomic             Coordinates (Angstroms)
 Number     Number       Type             X           Y           Z
 ---------------------------------------------------------------------
      1         11           0        3.960294    1.210096    0.380030
      2         11           0        2.044487    3.311219    0.301058
      3         11           0       -4.843038    0.095857   -0.565162
      4         11           0        3.935654   -2.573521   -0.392271
      5         11           0        0.463467   -2.911539   -0.506363
      6         11           0       -3.326658   -2.122833    1.217792
      7         11           0       -2.234207    2.990721   -0.435083
 ---------------------------------------------------------------------

 SCF Done:  E(UB3LYP) =  -1136.09980294     A.U. after   22 cycles

 The electronic state is 2-A.
 Alpha  occ. eigenvalues --  -38.45357 -38.45355 -38.44869 -38.44589 -38.44470
 Alpha  occ. eigenvalues --  -38.44248 -38.43847  -2.21119  -2.21079  -2.20635
 Alpha  occ. eigenvalues --   -2.20388  -2.20240  -2.20090  -2.19672  -1.14803
 Alpha  occ. eigenvalues --   -1.14793  -1.14768  -1.14767  -1.14760  -1.14698
 Alpha  occ. eigenvalues --   -1.14285  -1.14273  -1.14239  -1.14036  -1.14025
 Alpha  occ. eigenvalues --   -1.14023  -1.13906  -1.13899  -1.13884  -1.13871
 Alpha  occ. eigenvalues --   -1.13731  -1.13705  -1.13316  -1.13311  -1.13293
 Alpha  occ. eigenvalues --   -0.15295  -0.14129  -0.12929  -0.10929
 Alpha virt. eigenvalues --   -0.07710  -0.05228  -0.04578  -0.03444  -0.03328
 Alpha virt. eigenvalues --   -0.02680  -0.02495  -0.01903  -0.01189  -0.00893
 Alpha virt. eigenvalues --   -0.00799  -0.00385   0.00007   0.00340   0.00487

  Beta  occ. eigenvalues --  -38.45368 -38.45357 -38.44759 -38.44531 -38.44447
  Beta  occ. eigenvalues --  -38.44216 -38.43840  -2.21145  -2.21085  -2.20430
  Beta  occ. eigenvalues --   -2.20279  -2.20198  -2.20033  -2.19664  -1.14823
  Beta  occ. eigenvalues --   -1.14811  -1.14773  -1.14767  -1.14755  -1.14687
  Beta  occ. eigenvalues --   -1.14146  -1.14135  -1.14102  -1.13960  -1.13956
  Beta  occ. eigenvalues --   -1.13951  -1.13877  -1.13868  -1.13843  -1.13839
  Beta  occ. eigenvalues --   -1.13694  -1.13664  -1.13310  -1.13309  -1.13264
  Beta  occ. eigenvalues --   -0.14797  -0.13611  -0.12206
  Beta virt. eigenvalues --   -0.07780  -0.07595  -0.04806  -0.04263  -0.03242
  Beta virt. eigenvalues --   -0.02975  -0.02492  -0.02259  -0.01616  -0.01006
  Beta virt. eigenvalues --   -0.00680  -0.00557  -0.00147   0.00209   0.00428

 Mulliken charges and spin densities:
               1          2
     1  Na   0.049160   0.152577
     2  Na   0.018083  -0.058721
     3  Na   0.150773  -0.081016
     4  Na   0.477062   0.094945
     5  Na  -0.444976   0.011914
     6  Na  -0.123707   0.289265
     7  Na  -0.126395   0.591036
 Sum of Mulliken charges =  -0.00000   1.00000

 Dipole moment (field-independent basis, Debye):
    X=             -0.7045    Y=             -0.8770    Z=             -0.1118  Tot=              1.1305
 Quadrupole moment (field-independent basis, Debye-Ang):
   XX=            -55.8432   YY=            -73.3503   ZZ=            -72.5666
   XY=             -3.8701   XZ=              1.9616   YZ=             -0.9355

 Normal termination of Gaussian 16 at Sun Dec  3 20:34:57 2023.
