 Gaussian 16, Revision B.01,
 Gaussian 16:  ES64L-G16RevB.01 20-Dec-2017

 -------------------------
 #P B3LYP/6-311+g(d) force
 -------------------------

 -----
 DPGEN
 -----
 Symbolic Z-matrix:
 Charge =  0 Multiplicity = 2

                         Standard orientation:
 ---------------------------------------------------------------------
 Center     Atomic      Atomic             Coordinates (Angstroms)
 Number     Number       Type             X           Y           Z
 ---------------------------------------------------------------------
      1         11           0        4.150803    0.205754   -0.705291
      2         11           0       -0.253633    3.412141   -0.509138
      3         11           0       -4.096478    1.367629    0.315989
      4         11           0        2.720975   -2.870265   -0.079844
      5         11           0       -3.537758   -1.363280   -0.817078
      6         11           0        2.214876    2.255452    1.046301
      7         11           0       -1.198786   -3.007431    0.749062
 ---------------------------------------------------------------------

 SCF Done:  E(UB3LYP) =  -1136.10621170     A.U. after   20 cycles

 The electronic state is 2-A.
 Alpha  occ. eigenvalues --  -38.44897 -38.44505 -38.44496 -38.44408 -38.44395
 Alpha  occ. eigenvalues --  -38.44323 -38.43996  -2.20632  -2.20322  -2.20292
 Alpha  occ. eigenvalues --   -2.20250  -2.20208  -2.20145  -2.19800  -1.14323
 Alpha  occ. eigenvalues --   -1.14306  -1.14277  -1.14101  -1.13998  -1.13959
 Alpha  occ. eigenvalues --   -1.13947  -1.13944  -1.13928  -1.13911  -1.13897
 Alpha  occ. eigenvalues --   -1.13895  -1.13860  -1.13840  -1.13834  -1.13801
 Alpha  occ. eigenvalues --   -1.13787  -1.13756  -1.13452  -1.13440  -1.13417
 Alpha  occ. eigenvalues --   -0.15708  -0.14322  -0.12906  -0.10633
 Alpha virt. eigenvalues --   -0.07266  -0.05108  -0.04217  -0.03642  -0.03194
 Alpha virt. eigenvalues --   -0.02694  -0.02249  -0.01719  -0.01138  -0.00830
 Alpha virt. eigenvalues --   -0.00212  -0.00121   0.00113   0.00433   0.00643

  Beta  occ. eigenvalues --  -38.44910 -38.44472 -38.44426 -38.44401 -38.44347
  Beta  occ. eigenvalues --  -38.44315 -38.43920  -2.20659  -2.20248  -2.20235
  Beta  occ. eigenvalues --   -2.20193  -2.20133  -2.20120  -2.19658  -1.14346
  Beta  occ. eigenvalues --   -1.14328  -1.14265  -1.14035  -1.13954  -1.13915
  Beta  occ. eigenvalues --   -1.13910  -1.13905  -1.13889  -1.13862  -1.13852
  Beta  occ. eigenvalues --   -1.13846  -1.13802  -1.13798  -1.13778  -1.13776
  Beta  occ. eigenvalues --   -1.13762  -1.13718  -1.13356  -1.13345  -1.13326
  Beta  occ. eigenvalues --   -0.15201  -0.13631  -0.12183
  Beta virt. eigenvalues --   -0.07507  -0.07329  -0.04775  -0.03796  -0.03422
  Beta virt. eigenvalues --   -0.02698  -0.02443  -0.02017  -0.01629  -0.00972
  Beta virt. eigenvalues --   -0.00506  -0.00075   0.00074   0.00306   0.00443

 Mulliken charges and spin densities:
               1          2
     1  Na   0.195648   0.236832
     2  Na  -0.014286   0.107416
     3  Na   0.089341   0.309432
     4  Na   0.050703  -0.064491
     5  Na   0.018197   0.037372
     6  Na  -0.160408   0.024247
     7  Na  -0.179196   0.349193
 Sum of Mulliken charges =  -0.00000   1.00000

 Dipole moment (field-independent basis, Debye):
    X=              0.2116    Y=              0.4630    Z=             -0.1207  Tot=              0.5231
 Quadrupole moment (field-independent basis, Debye-Ang):
   XX=            -66.5281   YY=            -68.4551   ZZ=            -67.8572
   XY=             -1.7659   XZ=              0.3795   YZ=             -0.0355

 Normal termination of Gaussian 16 at Sun Dec  3 23:07:06 2023.
