 Gaussian 16, Revision B.01,
 Gaussian 16:  ES64L-G16RevB.01 20-Dec-2017

 -------------------------
 #P B3LYP/6-311+g(d) force
 -------------------------

 -----
 DPGEN
 -----
 Symbolic Z-matrix:
 Charge =  0 Multiplicity = 2

                         Standard orientation:
 ---------------------------------------------------------------------
 Center     Atomic      Atomic             Coordinates (Angstroms)
 Number     Number       Type             X           Y           Z
 ---------------------------------------------------------------------
      1         11           0       -2.581667   -1.672045   -0.168922
      2         11           0        1.263377   -2.559037    0.145636
      3         11           0        3.215916    0.326021   -0.230955
      4         11           0       -0.058648   -0.210167    1.733383
      5         11           0        0.559449    2.658307    0.248832
      6         11           0        0.089636   -0.002596   -1.634876
      7         11           0       -2.488063    1.459517   -0.093097
 ---------------------------------------------------------------------

 SCF Done:  E(UB3LYP) =  -1136.13656160     A.U. after   19 cycles

 The electronic state is 2-A.
 Alpha  occ. eigenvalues --  -38.44330 -38.43804 -38.43566 -38.43400 -38.43068
 Alpha  occ. eigenvalues --  -38.42991 -38.42902  -2.20161  -2.19673  -2.19490
 Alpha  occ. eigenvalues --   -2.19282  -2.19087  -2.19002  -2.18812  -1.13836
 Alpha  occ. eigenvalues --   -1.13812  -1.13804  -1.13393  -1.13335  -1.13310
 Alpha  occ. eigenvalues --   -1.13170  -1.13144  -1.13119  -1.13014  -1.12960
 Alpha  occ. eigenvalues --   -1.12890  -1.12801  -1.12721  -1.12697  -1.12674
 Alpha  occ. eigenvalues --   -1.12635  -1.12608  -1.12484  -1.12466  -1.12435
 Alpha  occ. eigenvalues --   -0.19246  -0.13422  -0.12449  -0.10604
 Alpha virt. eigenvalues --   -0.05870  -0.05062  -0.04403  -0.03200  -0.02715
 Alpha virt. eigenvalues --   -0.02196  -0.01773  -0.01034  -0.00279  -0.00104
 Alpha virt. eigenvalues --    0.00033   0.00349   0.00804   0.00896   0.00940

  Beta  occ. eigenvalues --  -38.44325 -38.43798 -38.43558 -38.43391 -38.43000
  Beta  occ. eigenvalues --  -38.42906 -38.42893  -2.20153  -2.19666  -2.19481
  Beta  occ. eigenvalues --   -2.19271  -2.18963  -2.18848  -2.18799  -1.13817
  Beta  occ. eigenvalues --   -1.13804  -1.13800  -1.13391  -1.13315  -1.13296
  Beta  occ. eigenvalues --   -1.13165  -1.13123  -1.13099  -1.12998  -1.12923
  Beta  occ. eigenvalues --   -1.12887  -1.12717  -1.12640  -1.12604  -1.12575
  Beta  occ. eigenvalues --   -1.12533  -1.12503  -1.12462  -1.12434  -1.12414
  Beta  occ. eigenvalues --   -0.18522  -0.13145  -0.12169
  Beta virt. eigenvalues --   -0.06694  -0.05820  -0.05067  -0.04400  -0.02401
  Beta virt. eigenvalues --   -0.01926  -0.01662  -0.01167  -0.00973  -0.00327
  Beta virt. eigenvalues --   -0.00141   0.00155   0.00379   0.00849   0.00893

 Mulliken charges and spin densities:
               1          2
     1  Na   0.204778  -0.071057
     2  Na   0.137546  -0.132644
     3  Na   0.089686  -0.041096
     4  Na  -0.359422   0.656344
     5  Na   0.174643  -0.029323
     6  Na  -0.464555   0.606405
     7  Na   0.217324   0.011370
 Sum of Mulliken charges =  -0.00000   1.00000

 Dipole moment (field-independent basis, Debye):
    X=              0.2559    Y=             -0.1812    Z=             -0.0239  Tot=              0.3145
 Quadrupole moment (field-independent basis, Debye-Ang):
   XX=            -53.2896   YY=            -63.6460   ZZ=            -75.2903
   XY=              0.6232   XZ=              0.1350   YZ=              0.4999

 Normal termination of Gaussian 16 at Wed Nov 29 03:37:50 2023.
