 Gaussian 16, Revision B.01,
 Gaussian 16:  ES64L-G16RevB.01 20-Dec-2017

 -------------------------
 #P B3LYP/6-311+g(d) force
 -------------------------

 -----
 DPGEN
 -----
 Symbolic Z-matrix:
 Charge =  0 Multiplicity = 2

                         Standard orientation:
 ---------------------------------------------------------------------
 Center     Atomic      Atomic             Coordinates (Angstroms)
 Number     Number       Type             X           Y           Z
 ---------------------------------------------------------------------
      1         11           0       -3.216097    0.387098   -1.022713
      2         11           0       -1.029399   -2.262156    0.637640
      3         11           0       -0.055992   -1.312384   -1.565080
      4         11           0       -1.642108    1.471778    1.555906
      5         11           0        1.096601    2.247054   -0.911952
      6         11           0        3.365841   -0.221488   -0.583683
      7         11           0        1.481154   -0.309901    1.889882
 ---------------------------------------------------------------------

 SCF Done:  E(UB3LYP) =  -1136.11963061     A.U. after   23 cycles

 The electronic state is 2-A.
 Alpha  occ. eigenvalues --  -38.44643 -38.44584 -38.44113 -38.43858 -38.43788
 Alpha  occ. eigenvalues --  -38.43376 -38.43364  -2.20458  -2.20435  -2.20024
 Alpha  occ. eigenvalues --   -2.19761  -2.19673  -2.19319  -2.19215  -1.14149
 Alpha  occ. eigenvalues --   -1.14143  -1.14115  -1.14086  -1.14081  -1.14059
 Alpha  occ. eigenvalues --   -1.13834  -1.13699  -1.13661  -1.13632  -1.13380
 Alpha  occ. eigenvalues --   -1.13353  -1.13333  -1.13323  -1.13294  -1.12936
 Alpha  occ. eigenvalues --   -1.12883  -1.12879  -1.12875  -1.12869  -1.12850
 Alpha  occ. eigenvalues --   -0.18627  -0.13573  -0.11754  -0.11451
 Alpha virt. eigenvalues --   -0.06315  -0.04679  -0.04399  -0.03367  -0.03297
 Alpha virt. eigenvalues --   -0.02952  -0.01904  -0.00753  -0.00386   0.00088
 Alpha virt. eigenvalues --    0.00235   0.00274   0.00377   0.00853   0.00878

  Beta  occ. eigenvalues --  -38.44629 -38.44576 -38.44044 -38.43836 -38.43752
  Beta  occ. eigenvalues --  -38.43366 -38.43333  -2.20432  -2.20422  -2.19898
  Beta  occ. eigenvalues --   -2.19698  -2.19635  -2.19303  -2.19160  -1.14133
  Beta  occ. eigenvalues --   -1.14122  -1.14094  -1.14067  -1.14063  -1.14052
  Beta  occ. eigenvalues --   -1.13797  -1.13606  -1.13572  -1.13543  -1.13342
  Beta  occ. eigenvalues --   -1.13320  -1.13298  -1.13272  -1.13265  -1.12910
  Beta  occ. eigenvalues --   -1.12870  -1.12842  -1.12840  -1.12832  -1.12803
  Beta  occ. eigenvalues --   -0.17842  -0.13382  -0.11285
  Beta virt. eigenvalues --   -0.07776  -0.06186  -0.04268  -0.04062  -0.03230
  Beta virt. eigenvalues --   -0.02637  -0.01991  -0.01803  -0.00391  -0.00335
  Beta virt. eigenvalues --    0.00163   0.00275   0.00298   0.00453   0.00901

 Mulliken charges and spin densities:
               1          2
     1  Na  -0.025386  -0.066237
     2  Na  -0.114884   0.235304
     3  Na   0.203495   0.236365
     4  Na   0.023293   0.162820
     5  Na  -0.503588   0.140392
     6  Na   0.367022   0.130630
     7  Na   0.050048   0.160725
 Sum of Mulliken charges =  -0.00000   1.00000

 Dipole moment (field-independent basis, Debye):
    X=              0.3372    Y=              0.1763    Z=             -0.3603  Tot=              0.5240
 Quadrupole moment (field-independent basis, Debye-Ang):
   XX=            -54.0060   YY=            -76.4568   ZZ=            -65.5455
   XY=             -0.6853   XZ=              0.7127   YZ=             -2.3684

 Normal termination of Gaussian 16 at Thu Dec  7 18:20:00 2023.
