 Gaussian 16, Revision B.01,
 Gaussian 16:  ES64L-G16RevB.01 20-Dec-2017

 -------------------------
 #P B3LYP/6-311+g(d) force
 -------------------------

 -----
 DPGEN
 -----
 Symbolic Z-matrix:
 Charge =  0 Multiplicity = 2

                         Standard orientation:
 ---------------------------------------------------------------------
 Center     Atomic      Atomic             Coordinates (Angstroms)
 Number     Number       Type             X           Y           Z
 ---------------------------------------------------------------------
      1         11           0        0.100377   -2.685197   -0.387675
      2         11           0       -0.675717    1.394764    0.633531
      3         11           0        3.520427    0.699789   -0.760414
      4         11           0       -4.424001    0.654428    0.737720
      5         11           0        3.536237   -1.957087    1.085916
      6         11           0       -3.104567   -1.585237   -0.948629
      7         11           0        1.047244    3.478540   -0.360449
 ---------------------------------------------------------------------

 SCF Done:  E(UB3LYP) =  -1136.11649112     A.U. after   20 cycles

 The electronic state is 2-A.
 Alpha  occ. eigenvalues --  -38.45060 -38.44605 -38.44392 -38.43966 -38.43875
 Alpha  occ. eigenvalues --  -38.43856 -38.43436  -2.20850  -2.20440  -2.20230
 Alpha  occ. eigenvalues --   -2.19813  -2.19679  -2.19658  -2.19289  -1.14536
 Alpha  occ. eigenvalues --   -1.14512  -1.14467  -1.14168  -1.14101  -1.14076
 Alpha  occ. eigenvalues --   -1.13931  -1.13899  -1.13883  -1.13458  -1.13443
 Alpha  occ. eigenvalues --   -1.13424  -1.13349  -1.13340  -1.13326  -1.13319
 Alpha  occ. eigenvalues --   -1.13299  -1.13274  -1.12985  -1.12923  -1.12904
 Alpha  occ. eigenvalues --   -0.16529  -0.14176  -0.12707  -0.10666
 Alpha virt. eigenvalues --   -0.06803  -0.04936  -0.04363  -0.03892  -0.03209
 Alpha virt. eigenvalues --   -0.02478  -0.01748  -0.01228  -0.01071  -0.00680
 Alpha virt. eigenvalues --   -0.00480  -0.00175   0.00391   0.00567   0.00625

  Beta  occ. eigenvalues --  -38.45030 -38.44595 -38.44376 -38.43886 -38.43838
  Beta  occ. eigenvalues --  -38.43809 -38.43429  -2.20797  -2.20423  -2.20210
  Beta  occ. eigenvalues --   -2.19664  -2.19626  -2.19559  -2.19276  -1.14497
  Beta  occ. eigenvalues --   -1.14481  -1.14417  -1.14153  -1.14087  -1.14062
  Beta  occ. eigenvalues --   -1.13901  -1.13886  -1.13833  -1.13358  -1.13342
  Beta  occ. eigenvalues --   -1.13328  -1.13303  -1.13290  -1.13273  -1.13267
  Beta  occ. eigenvalues --   -1.13259  -1.13192  -1.12971  -1.12914  -1.12899
  Beta  occ. eigenvalues --   -0.16043  -0.13486  -0.12262
  Beta virt. eigenvalues --   -0.07213  -0.06726  -0.04792  -0.03868  -0.03686
  Beta virt. eigenvalues --   -0.02713  -0.02317  -0.01408  -0.01126  -0.00748
  Beta virt. eigenvalues --   -0.00406  -0.00322   0.00116   0.00484   0.00644

 Mulliken charges and spin densities:
               1          2
     1  Na  -0.432169   0.210220
     2  Na  -1.693628   0.069363
     3  Na   0.073774   0.242995
     4  Na   0.058936   0.348619
     5  Na   0.266299   0.133397
     6  Na   0.458682   0.037975
     7  Na   1.268106  -0.042568
 Sum of Mulliken charges =  -0.00000   1.00000

 Dipole moment (field-independent basis, Debye):
    X=              0.2673    Y=              0.2872    Z=             -0.1689  Tot=              0.4271
 Quadrupole moment (field-independent basis, Debye-Ang):
   XX=            -65.8551   YY=            -67.5428   ZZ=            -66.9385
   XY=              2.9339   XZ=             -0.5613   YZ=             -1.9178

 Normal termination of Gaussian 16 at Mon Dec  4 01:42:37 2023.
