 Gaussian 16, Revision B.01,
 Gaussian 16:  ES64L-G16RevB.01 20-Dec-2017

 -------------------------
 #P B3LYP/6-311+g(d) force
 -------------------------

 -----
 DPGEN
 -----
 Symbolic Z-matrix:
 Charge =  0 Multiplicity = 2

                         Standard orientation:
 ---------------------------------------------------------------------
 Center     Atomic      Atomic             Coordinates (Angstroms)
 Number     Number       Type             X           Y           Z
 ---------------------------------------------------------------------
      1         11           0        0.260799    2.723338   -0.507380
      2         11           0       -5.814398    0.046288   -0.075214
      3         11           0       -2.843821    0.614715    0.958056
      4         11           0       -2.786657   -2.132304   -0.415023
      5         11           0        0.312518   -0.464132    0.102849
      6         11           0        3.862105   -0.328168   -0.532031
      7         11           0        7.009454   -0.459736    0.468743
 ---------------------------------------------------------------------

 SCF Done:  E(UB3LYP) =  -1136.11513622     A.U. after   20 cycles

 The electronic state is 2-A.
 Alpha  occ. eigenvalues --  -38.44725 -38.44668 -38.44467 -38.44363 -38.43889
 Alpha  occ. eigenvalues --  -38.43665 -38.43574  -2.20632  -2.20541  -2.20272
 Alpha  occ. eigenvalues --   -2.20187  -2.19644  -2.19552  -2.19361  -1.14407
 Alpha  occ. eigenvalues --   -1.14322  -1.14252  -1.14196  -1.14177  -1.14118
 Alpha  occ. eigenvalues --   -1.13928  -1.13913  -1.13907  -1.13847  -1.13837
 Alpha  occ. eigenvalues --   -1.13796  -1.13312  -1.13311  -1.13298  -1.13239
 Alpha  occ. eigenvalues --   -1.13223  -1.13185  -1.13042  -1.13033  -1.12967
 Alpha  occ. eigenvalues --   -0.17342  -0.13913  -0.11825  -0.11196
 Alpha virt. eigenvalues --   -0.06858  -0.05875  -0.04135  -0.03665  -0.02974
 Alpha virt. eigenvalues --   -0.02502  -0.01821  -0.01698  -0.01402  -0.00786
 Alpha virt. eigenvalues --   -0.00325  -0.00166   0.00017   0.00284   0.00574

  Beta  occ. eigenvalues --  -38.44709 -38.44601 -38.44415 -38.44318 -38.43902
  Beta  occ. eigenvalues --  -38.43643 -38.43569  -2.20608  -2.20421  -2.20174
  Beta  occ. eigenvalues --   -2.20103  -2.19669  -2.19518  -2.19351  -1.14360
  Beta  occ. eigenvalues --   -1.14293  -1.14228  -1.14118  -1.14101  -1.14019
  Beta  occ. eigenvalues --   -1.13862  -1.13851  -1.13836  -1.13782  -1.13779
  Beta  occ. eigenvalues --   -1.13747  -1.13329  -1.13328  -1.13313  -1.13222
  Beta  occ. eigenvalues --   -1.13203  -1.13116  -1.13034  -1.13024  -1.12969
  Beta  occ. eigenvalues --   -0.16585  -0.13739  -0.11673
  Beta virt. eigenvalues --   -0.07391  -0.06719  -0.05343  -0.03817  -0.03457
  Beta virt. eigenvalues --   -0.02394  -0.02335  -0.01635  -0.01547  -0.00921
  Beta virt. eigenvalues --   -0.00705  -0.00122   0.00127   0.00202   0.00394

 Mulliken charges and spin densities:
               1          2
     1  Na   0.362777   0.271971
     2  Na   0.180504   0.201003
     3  Na   0.312034   0.178380
     4  Na   0.398195   0.123676
     5  Na  -1.105510   0.274932
     6  Na  -0.327208   0.008099
     7  Na   0.179208  -0.058062
 Sum of Mulliken charges =  -0.00000   1.00000

 Dipole moment (field-independent basis, Debye):
    X=             -2.0727    Y=              0.2557    Z=             -0.2943  Tot=              2.1090
 Quadrupole moment (field-independent basis, Debye-Ang):
   XX=            -58.8114   YY=            -67.2075   ZZ=            -70.1974
   XY=              3.8434   XZ=              4.5554   YZ=              0.3658

 Normal termination of Gaussian 16 at Tue Nov 28 23:16:49 2023.
