 Gaussian 16, Revision B.01,
 Gaussian 16:  ES64L-G16RevB.01 20-Dec-2017

 -------------------------
 #P B3LYP/6-311+g(d) force
 -------------------------

 -----
 DPGEN
 -----
 Symbolic Z-matrix:
 Charge =  0 Multiplicity = 2

                         Standard orientation:
 ---------------------------------------------------------------------
 Center     Atomic      Atomic             Coordinates (Angstroms)
 Number     Number       Type             X           Y           Z
 ---------------------------------------------------------------------
      1         11           0       -3.725146   -1.401242    0.258388
      2         11           0       -0.412781   -0.167972    2.084452
      3         11           0        3.126360   -1.956894    0.512763
      4         11           0        0.532905   -1.680815   -1.320925
      5         11           0        2.091689    1.112001   -0.633471
      6         11           0        0.196069    3.394558    0.308433
      7         11           0       -1.809096    0.700364   -1.209639
 ---------------------------------------------------------------------

 SCF Done:  E(UB3LYP) =  -1136.12906125     A.U. after   20 cycles

 The electronic state is 2-A.
 Alpha  occ. eigenvalues --  -38.44444 -38.44402 -38.44012 -38.43796 -38.43578
 Alpha  occ. eigenvalues --  -38.43445 -38.43036  -2.20227  -2.20215  -2.19843
 Alpha  occ. eigenvalues --   -2.19705  -2.19493  -2.19347  -2.18868  -1.13916
 Alpha  occ. eigenvalues --   -1.13890  -1.13882  -1.13864  -1.13848  -1.13823
 Alpha  occ. eigenvalues --   -1.13537  -1.13510  -1.13486  -1.13423  -1.13353
 Alpha  occ. eigenvalues --   -1.13299  -1.13181  -1.13169  -1.13120  -1.13048
 Alpha  occ. eigenvalues --   -1.13008  -1.12945  -1.12546  -1.12515  -1.12505
 Alpha  occ. eigenvalues --   -0.18195  -0.13243  -0.12123  -0.10815
 Alpha virt. eigenvalues --   -0.06337  -0.05041  -0.04390  -0.03483  -0.02738
 Alpha virt. eigenvalues --   -0.02713  -0.01965  -0.01328  -0.00605  -0.00215
 Alpha virt. eigenvalues --    0.00206   0.00318   0.00595   0.00694   0.00784

  Beta  occ. eigenvalues --  -38.44449 -38.44311 -38.44009 -38.43754 -38.43566
  Beta  occ. eigenvalues --  -38.43411 -38.43037  -2.20238  -2.20047  -2.19838
  Beta  occ. eigenvalues --   -2.19631  -2.19474  -2.19288  -2.18871  -1.13924
  Beta  occ. eigenvalues --   -1.13882  -1.13869  -1.13776  -1.13729  -1.13703
  Beta  occ. eigenvalues --   -1.13529  -1.13507  -1.13471  -1.13371  -1.13288
  Beta  occ. eigenvalues --   -1.13249  -1.13164  -1.13133  -1.13109  -1.13006
  Beta  occ. eigenvalues --   -1.12947  -1.12908  -1.12550  -1.12510  -1.12502
  Beta  occ. eigenvalues --   -0.17427  -0.13130  -0.12004
  Beta virt. eigenvalues --   -0.06866  -0.06106  -0.04956  -0.04298  -0.02892
  Beta virt. eigenvalues --   -0.02186  -0.01921  -0.01623  -0.01215  -0.00523
  Beta virt. eigenvalues --   -0.00068   0.00249   0.00397   0.00710   0.00792

 Mulliken charges and spin densities:
               1          2
     1  Na   0.089266  -0.148507
     2  Na  -0.709708   0.782213
     3  Na   0.435768  -0.016420
     4  Na   0.001714   0.055507
     5  Na  -0.330800   0.214835
     6  Na   0.469117  -0.144890
     7  Na   0.044644   0.257261
 Sum of Mulliken charges =  -0.00000   1.00000

 Dipole moment (field-independent basis, Debye):
    X=             -0.1602    Y=             -0.6315    Z=              0.3751  Tot=              0.7518
 Quadrupole moment (field-independent basis, Debye-Ang):
   XX=            -55.2568   YY=            -65.1699   ZZ=            -72.7229
   XY=             -0.3089   XZ=              0.7789   YZ=             -0.8899

 Normal termination of Gaussian 16 at Fri Dec  8 04:36:24 2023.
