 Gaussian 16, Revision B.01,
 Gaussian 16:  ES64L-G16RevB.01 20-Dec-2017

 -------------------------
 #P B3LYP/6-311+g(d) force
 -------------------------

 -----
 DPGEN
 -----
 Symbolic Z-matrix:
 Charge =  0 Multiplicity = 2

                         Standard orientation:
 ---------------------------------------------------------------------
 Center     Atomic      Atomic             Coordinates (Angstroms)
 Number     Number       Type             X           Y           Z
 ---------------------------------------------------------------------
      1         11           0       -1.649381   -2.462224   -0.531377
      2         11           0       -3.175612    0.292756    0.253247
      3         11           0        3.010497    1.310269   -0.048520
      4         11           0        0.023576    0.133058   -1.683626
      5         11           0        2.512296   -2.099350    0.109007
      6         11           0       -0.601777    3.042543   -0.139097
      7         11           0       -0.119601   -0.217051    2.040366
 ---------------------------------------------------------------------

 SCF Done:  E(UB3LYP) =  -1136.13550140     A.U. after   19 cycles

 The electronic state is 2-A.
 Alpha  occ. eigenvalues --  -38.44429 -38.44294 -38.43939 -38.43812 -38.43410
 Alpha  occ. eigenvalues --  -38.43293 -38.43214  -2.20221  -2.20131  -2.19733
 Alpha  occ. eigenvalues --   -2.19668  -2.19268  -2.19225  -2.19020  -1.13903
 Alpha  occ. eigenvalues --   -1.13882  -1.13855  -1.13803  -1.13800  -1.13769
 Alpha  occ. eigenvalues --   -1.13406  -1.13391  -1.13379  -1.13339  -1.13297
 Alpha  occ. eigenvalues --   -1.13284  -1.12985  -1.12920  -1.12909  -1.12902
 Alpha  occ. eigenvalues --   -1.12858  -1.12840  -1.12697  -1.12679  -1.12655
 Alpha  occ. eigenvalues --   -0.18225  -0.13198  -0.12015  -0.10640
 Alpha virt. eigenvalues --   -0.05944  -0.05425  -0.04596  -0.03308  -0.02709
 Alpha virt. eigenvalues --   -0.02544  -0.01748  -0.01222  -0.00595  -0.00495
 Alpha virt. eigenvalues --   -0.00029   0.00352   0.00727   0.00812   0.00855

  Beta  occ. eigenvalues --  -38.44429 -38.44288 -38.43938 -38.43722 -38.43394
  Beta  occ. eigenvalues --  -38.43227 -38.43213  -2.20221  -2.20123  -2.19733
  Beta  occ. eigenvalues --   -2.19503  -2.19243  -2.19104  -2.19021  -1.13893
  Beta  occ. eigenvalues --   -1.13880  -1.13857  -1.13801  -1.13769  -1.13766
  Beta  occ. eigenvalues --   -1.13392  -1.13390  -1.13380  -1.13228  -1.13183
  Beta  occ. eigenvalues --   -1.13162  -1.12949  -1.12896  -1.12878  -1.12828
  Beta  occ. eigenvalues --   -1.12782  -1.12756  -1.12680  -1.12674  -1.12653
  Beta  occ. eigenvalues --   -0.17502  -0.13005  -0.11784
  Beta virt. eigenvalues --   -0.06752  -0.05865  -0.05417  -0.04536  -0.02557
  Beta virt. eigenvalues --   -0.02005  -0.01649  -0.01496  -0.01144  -0.00645
  Beta virt. eigenvalues --   -0.00518   0.00117   0.00380   0.00794   0.00812

 Mulliken charges and spin densities:
               1          2
     1  Na   0.106366  -0.013178
     2  Na   0.209732   0.052430
     3  Na  -0.003028  -0.102157
     4  Na   0.054801   0.515989
     5  Na   0.031038  -0.066070
     6  Na  -0.086935  -0.116462
     7  Na  -0.311972   0.729448
 Sum of Mulliken charges =  -0.00000   1.00000

 Dipole moment (field-independent basis, Debye):
    X=              0.2078    Y=             -0.0041    Z=              0.1768  Tot=              0.2729
 Quadrupole moment (field-independent basis, Debye-Ang):
   XX=            -54.3959   YY=            -63.6377   ZZ=            -75.2255
   XY=             -0.0292   XZ=             -0.0460   YZ=              0.9691

 Normal termination of Gaussian 16 at Fri Dec  8 02:57:12 2023.
