 Gaussian 16, Revision B.01,
 Gaussian 16:  ES64L-G16RevB.01 20-Dec-2017

 -------------------------
 #P B3LYP/6-311+g(d) force
 -------------------------

 -----
 DPGEN
 -----
 Symbolic Z-matrix:
 Charge =  0 Multiplicity = 2

                         Standard orientation:
 ---------------------------------------------------------------------
 Center     Atomic      Atomic             Coordinates (Angstroms)
 Number     Number       Type             X           Y           Z
 ---------------------------------------------------------------------
      1         11           0        1.476754   -3.059471    0.415184
      2         11           0       -2.538151    2.671828    0.584727
      3         11           0       -4.282236   -0.757601   -0.280277
      4         11           0       -1.964279   -3.400612   -0.167611
      5         11           0        0.120970    3.821808   -0.468343
      6         11           0        3.009663    1.808181    0.216031
      7         11           0        4.177279   -1.084133   -0.299710
 ---------------------------------------------------------------------

 SCF Done:  E(UB3LYP) =  -1136.11000353     A.U. after   23 cycles

 The electronic state is 2-A.
 Alpha  occ. eigenvalues --  -38.45503 -38.45290 -38.44527 -38.44370 -38.44352
 Alpha  occ. eigenvalues --  -38.43888 -38.43763  -2.21282  -2.21087  -2.20293
 Alpha  occ. eigenvalues --   -2.20178  -2.20169  -2.19718  -2.19554  -1.14968
 Alpha  occ. eigenvalues --   -1.14949  -1.14921  -1.14759  -1.14748  -1.14729
 Alpha  occ. eigenvalues --   -1.13978  -1.13972  -1.13938  -1.13854  -1.13842
 Alpha  occ. eigenvalues --   -1.13835  -1.13828  -1.13823  -1.13762  -1.13389
 Alpha  occ. eigenvalues --   -1.13360  -1.13357  -1.13208  -1.13194  -1.13184
 Alpha  occ. eigenvalues --   -0.15779  -0.13981  -0.13665  -0.10703
 Alpha virt. eigenvalues --   -0.07804  -0.04676  -0.04453  -0.03678  -0.03342
 Alpha virt. eigenvalues --   -0.02527  -0.02347  -0.01915  -0.01555  -0.00477
 Alpha virt. eigenvalues --   -0.00159  -0.00065   0.00254   0.00327   0.00499

  Beta  occ. eigenvalues --  -38.45488 -38.45259 -38.44524 -38.44338 -38.44314
  Beta  occ. eigenvalues --  -38.43860 -38.43693  -2.21260  -2.21033  -2.20292
  Beta  occ. eigenvalues --   -2.20155  -2.20066  -2.19666  -2.19422  -1.14952
  Beta  occ. eigenvalues --   -1.14939  -1.14878  -1.14725  -1.14716  -1.14671
  Beta  occ. eigenvalues --   -1.13983  -1.13974  -1.13896  -1.13827  -1.13819
  Beta  occ. eigenvalues --   -1.13808  -1.13765  -1.13756  -1.13693  -1.13350
  Beta  occ. eigenvalues --   -1.13325  -1.13324  -1.13118  -1.13106  -1.13098
  Beta  occ. eigenvalues --   -0.15311  -0.13358  -0.12920
  Beta virt. eigenvalues --   -0.07971  -0.07401  -0.04401  -0.03896  -0.03458
  Beta virt. eigenvalues --   -0.02824  -0.02335  -0.02154  -0.01788  -0.01445
  Beta virt. eigenvalues --   -0.00128  -0.00010   0.00231   0.00282   0.00420

 Mulliken charges and spin densities:
               1          2
     1  Na  -0.237276   0.259462
     2  Na  -0.043760   0.088218
     3  Na   0.012871   0.360939
     4  Na   0.174506  -0.048174
     5  Na  -0.047518   0.091161
     6  Na  -0.292814   0.160279
     7  Na   0.433990   0.088115
 Sum of Mulliken charges =  -0.00000   1.00000

 Dipole moment (field-independent basis, Debye):
    X=              0.8488    Y=              0.6330    Z=              0.0584  Tot=              1.0605
 Quadrupole moment (field-independent basis, Debye-Ang):
   XX=            -63.2615   YY=            -65.6251   ZZ=            -72.2281
   XY=             -2.0576   XZ=             -1.4923   YZ=              0.9679

 Normal termination of Gaussian 16 at Mon Dec  4 03:01:04 2023.
