 Gaussian 16, Revision B.01,
 Gaussian 16:  ES64L-G16RevB.01 20-Dec-2017

 -------------------------
 #P B3LYP/6-311+g(d) force
 -------------------------

 -----
 DPGEN
 -----
 Symbolic Z-matrix:
 Charge =  0 Multiplicity = 2

                         Standard orientation:
 ---------------------------------------------------------------------
 Center     Atomic      Atomic             Coordinates (Angstroms)
 Number     Number       Type             X           Y           Z
 ---------------------------------------------------------------------
      1         11           0        0.707619   -2.628965    0.271923
      2         11           0       -0.234165    0.238283   -1.739286
      3         11           0        0.066063   -0.258341    1.919537
      4         11           0       -2.709042   -1.479762   -0.190957
      5         11           0        3.049274   -0.334363   -0.697948
      6         11           0       -2.344022    1.993352   -0.064313
      7         11           0        1.464274    2.469797    0.501044
 ---------------------------------------------------------------------

 SCF Done:  E(UB3LYP) =  -1136.13726029     A.U. after   19 cycles

 The electronic state is 2-A.
 Alpha  occ. eigenvalues --  -38.43878 -38.43872 -38.43734 -38.43556 -38.43430
 Alpha  occ. eigenvalues --  -38.43384 -38.43068  -2.19728  -2.19714  -2.19574
 Alpha  occ. eigenvalues --   -2.19515  -2.19391  -2.19232  -2.18974  -1.13405
 Alpha  occ. eigenvalues --   -1.13402  -1.13384  -1.13376  -1.13374  -1.13346
 Alpha  occ. eigenvalues --   -1.13285  -1.13244  -1.13235  -1.13196  -1.13160
 Alpha  occ. eigenvalues --   -1.13118  -1.13065  -1.13022  -1.13007  -1.12910
 Alpha  occ. eigenvalues --   -1.12886  -1.12859  -1.12669  -1.12619  -1.12580
 Alpha  occ. eigenvalues --   -0.18839  -0.13145  -0.12338  -0.11030
 Alpha virt. eigenvalues --   -0.05428  -0.05289  -0.04348  -0.03358  -0.03012
 Alpha virt. eigenvalues --   -0.02636  -0.01517  -0.01062  -0.00283  -0.00074
 Alpha virt. eigenvalues --    0.00041   0.00359   0.00816   0.00889   0.00926

  Beta  occ. eigenvalues --  -38.43868 -38.43859 -38.43733 -38.43467 -38.43371
  Beta  occ. eigenvalues --  -38.43367 -38.43059  -2.19710  -2.19694  -2.19574
  Beta  occ. eigenvalues --   -2.19352  -2.19275  -2.19212  -2.18962  -1.13393
  Beta  occ. eigenvalues --   -1.13377  -1.13370  -1.13357  -1.13344  -1.13338
  Beta  occ. eigenvalues --   -1.13275  -1.13228  -1.13191  -1.13136  -1.13050
  Beta  occ. eigenvalues --   -1.13008  -1.12987  -1.12945  -1.12920  -1.12884
  Beta  occ. eigenvalues --   -1.12858  -1.12847  -1.12646  -1.12591  -1.12571
  Beta  occ. eigenvalues --   -0.18115  -0.12875  -0.12071
  Beta virt. eigenvalues --   -0.07133  -0.05365  -0.05264  -0.04298  -0.02618
  Beta virt. eigenvalues --   -0.02227  -0.01619  -0.01386  -0.00999  -0.00268
  Beta virt. eigenvalues --   -0.00097   0.00126   0.00385   0.00876   0.00891

 Mulliken charges and spin densities:
               1          2
     1  Na   0.257117   0.013183
     2  Na  -0.164003   0.513387
     3  Na  -0.194149   0.570681
     4  Na   0.034769  -0.097743
     5  Na   0.023799   0.076575
     6  Na   0.026711  -0.093360
     7  Na   0.015756   0.017278
 Sum of Mulliken charges =  -0.00000   1.00000

 Dipole moment (field-independent basis, Debye):
    X=             -0.2257    Y=              0.1026    Z=             -0.0711  Tot=              0.2579
 Quadrupole moment (field-independent basis, Debye-Ang):
   XX=            -56.4104   YY=            -64.5578   ZZ=            -72.8479
   XY=              0.1935   XZ=             -1.1282   YZ=              1.5430

 Normal termination of Gaussian 16 at Thu Dec  7 21:29:57 2023.
