 Gaussian 16, Revision B.01,
 Gaussian 16:  ES64L-G16RevB.01 20-Dec-2017

 -------------------------
 #P B3LYP/6-311+g(d) force
 -------------------------

 -----
 DPGEN
 -----
 Symbolic Z-matrix:
 Charge =  0 Multiplicity = 2

                         Standard orientation:
 ---------------------------------------------------------------------
 Center     Atomic      Atomic             Coordinates (Angstroms)
 Number     Number       Type             X           Y           Z
 ---------------------------------------------------------------------
      1         11           0       -3.078098    0.634922   -0.068126
      2         11           0       -0.159563   -0.232136   -1.535334
      3         11           0       -1.654051   -2.766787   -0.163361
      4         11           0        1.992587   -2.063403    0.198618
      5         11           0       -0.102509    0.419432    2.188919
      6         11           0       -0.143916    3.378016   -0.321094
      7         11           0        3.145551    0.629957   -0.299622
 ---------------------------------------------------------------------

 SCF Done:  E(UB3LYP) =  -1136.13201167     A.U. after   20 cycles

 The electronic state is 2-A.
 Alpha  occ. eigenvalues --  -38.44440 -38.44072 -38.44056 -38.43690 -38.43671
 Alpha  occ. eigenvalues --  -38.43523 -38.43228  -2.20242  -2.19913  -2.19813
 Alpha  occ. eigenvalues --   -2.19529  -2.19493  -2.19419  -2.19185  -1.13931
 Alpha  occ. eigenvalues --   -1.13913  -1.13860  -1.13652  -1.13566  -1.13539
 Alpha  occ. eigenvalues --   -1.13490  -1.13468  -1.13455  -1.13194  -1.13188
 Alpha  occ. eigenvalues --   -1.13157  -1.13150  -1.13144  -1.13131  -1.13102
 Alpha  occ. eigenvalues --   -1.13061  -1.13050  -1.12874  -1.12822  -1.12803
 Alpha  occ. eigenvalues --   -0.18197  -0.13018  -0.12264  -0.10539
 Alpha virt. eigenvalues --   -0.05953  -0.05218  -0.04910  -0.03191  -0.02864
 Alpha virt. eigenvalues --   -0.02442  -0.01547  -0.01448  -0.00657  -0.00482
 Alpha virt. eigenvalues --   -0.00029   0.00336   0.00732   0.00821   0.00847

  Beta  occ. eigenvalues --  -38.44436 -38.44068 -38.44053 -38.43669 -38.43587
  Beta  occ. eigenvalues --  -38.43517 -38.43177  -2.20238  -2.19908  -2.19809
  Beta  occ. eigenvalues --   -2.19492  -2.19411  -2.19338  -2.19093  -1.13921
  Beta  occ. eigenvalues --   -1.13896  -1.13860  -1.13652  -1.13545  -1.13537
  Beta  occ. eigenvalues --   -1.13473  -1.13467  -1.13454  -1.13184  -1.13136
  Beta  occ. eigenvalues --   -1.13133  -1.13097  -1.13061  -1.13049  -1.13031
  Beta  occ. eigenvalues --   -1.13022  -1.13006  -1.12807  -1.12757  -1.12735
  Beta  occ. eigenvalues --   -0.17497  -0.12819  -0.12067
  Beta virt. eigenvalues --   -0.06625  -0.05951  -0.05106  -0.04884  -0.02413
  Beta virt. eigenvalues --   -0.02144  -0.01456  -0.01449  -0.01371  -0.00696
  Beta virt. eigenvalues --   -0.00505   0.00134   0.00374   0.00747   0.00859

 Mulliken charges and spin densities:
               1          2
     1  Na   0.146858  -0.060857
     2  Na  -0.168980   0.334138
     3  Na   0.244416   0.026690
     4  Na   0.264973   0.114692
     5  Na  -0.496117   0.719343
     6  Na  -0.045765  -0.080552
     7  Na   0.054614  -0.053454
 Sum of Mulliken charges =  -0.00000   1.00000

 Dipole moment (field-independent basis, Debye):
    X=             -0.3051    Y=              0.2161    Z=              0.0622  Tot=              0.3791
 Quadrupole moment (field-independent basis, Debye-Ang):
   XX=            -57.5673   YY=            -60.0093   ZZ=            -75.8149
   XY=              1.0577   XZ=             -0.3386   YZ=             -1.5646

 Normal termination of Gaussian 16 at Thu Dec  7 09:01:39 2023.
