 Gaussian 16, Revision B.01,
 Gaussian 16:  ES64L-G16RevB.01 20-Dec-2017

 -------------------------
 #P B3LYP/6-311+g(d) force
 -------------------------

 -----
 DPGEN
 -----
 Symbolic Z-matrix:
 Charge =  0 Multiplicity = 2

                         Standard orientation:
 ---------------------------------------------------------------------
 Center     Atomic      Atomic             Coordinates (Angstroms)
 Number     Number       Type             X           Y           Z
 ---------------------------------------------------------------------
      1         11           0       -2.369613    1.799892    0.025103
      2         11           0        3.210783    0.016540    0.129777
      3         11           0        1.251212   -2.522678   -0.360352
      4         11           0        1.064347    2.596327    0.044234
      5         11           0        0.019840    0.130195   -1.768517
      6         11           0       -0.181774   -0.514728    2.083490
      7         11           0       -2.994795   -1.505547   -0.153735
 ---------------------------------------------------------------------

 SCF Done:  E(UB3LYP) =  -1136.13568124     A.U. after   20 cycles

 The electronic state is 2-A.
 Alpha  occ. eigenvalues --  -38.44371 -38.44305 -38.43824 -38.43759 -38.43428
 Alpha  occ. eigenvalues --  -38.43286 -38.42835  -2.20216  -2.20102  -2.19684
 Alpha  occ. eigenvalues --   -2.19611  -2.19383  -2.19160  -2.18706  -1.13884
 Alpha  occ. eigenvalues --   -1.13875  -1.13871  -1.13770  -1.13769  -1.13745
 Alpha  occ. eigenvalues --   -1.13352  -1.13322  -1.13299  -1.13296  -1.13275
 Alpha  occ. eigenvalues --   -1.13241  -1.13071  -1.13046  -1.12998  -1.12833
 Alpha  occ. eigenvalues --   -1.12816  -1.12788  -1.12393  -1.12362  -1.12343
 Alpha  occ. eigenvalues --   -0.18588  -0.13351  -0.12073  -0.10844
 Alpha virt. eigenvalues --   -0.06067  -0.05287  -0.04176  -0.03430  -0.02901
 Alpha virt. eigenvalues --   -0.02597  -0.01805  -0.01076  -0.00377  -0.00175
 Alpha virt. eigenvalues --   -0.00049   0.00351   0.00735   0.00842   0.00859

  Beta  occ. eigenvalues --  -38.44368 -38.44306 -38.43756 -38.43735 -38.43356
  Beta  occ. eigenvalues --  -38.43275 -38.42830  -2.20214  -2.20105  -2.19607
  Beta  occ. eigenvalues --   -2.19519  -2.19252  -2.19144  -2.18701  -1.13882
  Beta  occ. eigenvalues --   -1.13876  -1.13852  -1.13775  -1.13753  -1.13749
  Beta  occ. eigenvalues --   -1.13291  -1.13259  -1.13244  -1.13240  -1.13202
  Beta  occ. eigenvalues --   -1.13178  -1.12988  -1.12952  -1.12905  -1.12816
  Beta  occ. eigenvalues --   -1.12783  -1.12773  -1.12388  -1.12344  -1.12337
  Beta  occ. eigenvalues --   -0.17846  -0.13156  -0.11841
  Beta virt. eigenvalues --   -0.06928  -0.05987  -0.05292  -0.04140  -0.02641
  Beta virt. eigenvalues --   -0.02096  -0.01730  -0.01555  -0.01017  -0.00426
  Beta virt. eigenvalues --   -0.00210   0.00108   0.00373   0.00802   0.00862

 Mulliken charges and spin densities:
               1          2
     1  Na   0.101192  -0.009268
     2  Na   0.135485   0.029624
     3  Na   0.257232  -0.079218
     4  Na   0.072397  -0.006969
     5  Na  -0.193833   0.502075
     6  Na  -0.540964   0.675546
     7  Na   0.168490  -0.111789
 Sum of Mulliken charges =  -0.00000   1.00000

 Dipole moment (field-independent basis, Debye):
    X=             -0.1896    Y=             -0.2471    Z=              0.1503  Tot=              0.3458
 Quadrupole moment (field-independent basis, Debye-Ang):
   XX=            -53.6535   YY=            -66.7071   ZZ=            -73.6176
   XY=              0.6951   XZ=              0.7593   YZ=              1.4266

 Normal termination of Gaussian 16 at Tue Dec  5 17:45:36 2023.
