 Gaussian 16, Revision B.01,
 Gaussian 16:  ES64L-G16RevB.01 20-Dec-2017

 -------------------------
 #P B3LYP/6-311+g(d) force
 -------------------------

 -----
 DPGEN
 -----
 Symbolic Z-matrix:
 Charge =  0 Multiplicity = 2

                         Standard orientation:
 ---------------------------------------------------------------------
 Center     Atomic      Atomic             Coordinates (Angstroms)
 Number     Number       Type             X           Y           Z
 ---------------------------------------------------------------------
      1         11           0       -2.036947    2.318833    0.159872
      2         11           0       -3.041199   -1.052653   -0.073584
      3         11           0       -0.354578   -2.993402   -0.148314
      4         11           0        0.514653   -0.175534   -1.593956
      5         11           0        1.095969    2.566183   -0.440713
      6         11           0        0.491623    0.018306    1.983325
      7         11           0        3.330479   -0.681733    0.113369
 ---------------------------------------------------------------------

 SCF Done:  E(UB3LYP) =  -1136.13348422     A.U. after   19 cycles

 The electronic state is 2-A.
 Alpha  occ. eigenvalues --  -38.44433 -38.43988 -38.43730 -38.43596 -38.43583
 Alpha  occ. eigenvalues --  -38.43527 -38.43204  -2.20243  -2.19795  -2.19569
 Alpha  occ. eigenvalues --   -2.19502  -2.19468  -2.19361  -2.19187  -1.13918
 Alpha  occ. eigenvalues --   -1.13901  -1.13884  -1.13467  -1.13460  -1.13452
 Alpha  occ. eigenvalues --   -1.13273  -1.13253  -1.13229  -1.13189  -1.13175
 Alpha  occ. eigenvalues --   -1.13146  -1.13125  -1.13092  -1.13080  -1.13020
 Alpha  occ. eigenvalues --   -1.13014  -1.12992  -1.12852  -1.12824  -1.12791
 Alpha  occ. eigenvalues --   -0.18495  -0.12931  -0.12665  -0.10583
 Alpha virt. eigenvalues --   -0.05988  -0.05038  -0.04916  -0.03041  -0.02915
 Alpha virt. eigenvalues --   -0.02466  -0.01764  -0.01116  -0.00546  -0.00340
 Alpha virt. eigenvalues --   -0.00012   0.00320   0.00805   0.00823   0.00872

  Beta  occ. eigenvalues --  -38.44428 -38.43989 -38.43724 -38.43578 -38.43527
  Beta  occ. eigenvalues --  -38.43492 -38.43138  -2.20237  -2.19799  -2.19561
  Beta  occ. eigenvalues --   -2.19474  -2.19362  -2.19301  -2.19068  -1.13903
  Beta  occ. eigenvalues --   -1.13887  -1.13879  -1.13470  -1.13461  -1.13448
  Beta  occ. eigenvalues --   -1.13255  -1.13231  -1.13210  -1.13185  -1.13148
  Beta  occ. eigenvalues --   -1.13104  -1.13026  -1.13018  -1.13005  -1.12989
  Beta  occ. eigenvalues --   -1.12981  -1.12956  -1.12771  -1.12734  -1.12709
  Beta  occ. eigenvalues --   -0.17789  -0.12718  -0.12435
  Beta virt. eigenvalues --   -0.06676  -0.05942  -0.05003  -0.04857  -0.02336
  Beta virt. eigenvalues --   -0.02159  -0.01684  -0.01397  -0.01036  -0.00588
  Beta virt. eigenvalues --   -0.00369   0.00139   0.00365   0.00819   0.00855

 Mulliken charges and spin densities:
               1          2
     1  Na  -0.098985  -0.021006
     2  Na  -0.094275  -0.019442
     3  Na   0.161248  -0.064209
     4  Na  -0.076234   0.385502
     5  Na   0.375609   0.028085
     6  Na  -0.462015   0.795669
     7  Na   0.194653  -0.104599
 Sum of Mulliken charges =  -0.00000   1.00000

 Dipole moment (field-independent basis, Debye):
    X=              0.3617    Y=             -0.2686    Z=              0.1496  Tot=              0.4747
 Quadrupole moment (field-independent basis, Debye-Ang):
   XX=            -55.1003   YY=            -62.7080   ZZ=            -75.6803
   XY=             -1.1168   XZ=             -0.2419   YZ=             -0.2613

 Normal termination of Gaussian 16 at Sun Dec  3 13:05:13 2023.
