 Gaussian 16, Revision B.01,
 Gaussian 16:  ES64L-G16RevB.01 20-Dec-2017

 -------------------------
 #P B3LYP/6-311+g(d) force
 -------------------------

 -----
 DPGEN
 -----
 Symbolic Z-matrix:
 Charge =  0 Multiplicity = 2

                         Standard orientation:
 ---------------------------------------------------------------------
 Center     Atomic      Atomic             Coordinates (Angstroms)
 Number     Number       Type             X           Y           Z
 ---------------------------------------------------------------------
      1         11           0       -3.738036    0.057892   -0.594772
      2         11           0       -2.387684   -2.497851    0.509422
      3         11           0       -0.002068   -0.058464   -1.017213
      4         11           0        2.311003   -2.039806    0.829311
      5         11           0       -1.307010    2.845048    0.006041
      6         11           0        3.612851    0.060139   -1.580200
      7         11           0        1.510945    1.633041    1.847412
 ---------------------------------------------------------------------

 SCF Done:  E(UB3LYP) =  -1136.12333353     A.U. after   21 cycles

 The electronic state is 2-A.
 Alpha  occ. eigenvalues --  -38.44497 -38.44373 -38.44264 -38.44242 -38.44091
 Alpha  occ. eigenvalues --  -38.43855 -38.43048  -2.20325  -2.20172  -2.20119
 Alpha  occ. eigenvalues --   -2.20084  -2.19898  -2.19666  -2.18865  -1.14014
 Alpha  occ. eigenvalues --   -1.13991  -1.13954  -1.13862  -1.13836  -1.13829
 Alpha  occ. eigenvalues --   -1.13820  -1.13786  -1.13752  -1.13730  -1.13722
 Alpha  occ. eigenvalues --   -1.13684  -1.13569  -1.13543  -1.13509  -1.13331
 Alpha  occ. eigenvalues --   -1.13319  -1.13307  -1.12550  -1.12531  -1.12500
 Alpha  occ. eigenvalues --   -0.17386  -0.13952  -0.11825  -0.10369
 Alpha virt. eigenvalues --   -0.06433  -0.06006  -0.04706  -0.03246  -0.02670
 Alpha virt. eigenvalues --   -0.02546  -0.02087  -0.01295  -0.00813  -0.00603
 Alpha virt. eigenvalues --   -0.00355   0.00157   0.00274   0.00453   0.00698

  Beta  occ. eigenvalues --  -38.44493 -38.44362 -38.44229 -38.44187 -38.44031
  Beta  occ. eigenvalues --  -38.43848 -38.43052  -2.20316  -2.20153  -2.20099
  Beta  occ. eigenvalues --   -2.19942  -2.19787  -2.19653  -2.18874  -1.14009
  Beta  occ. eigenvalues --   -1.13985  -1.13947  -1.13847  -1.13814  -1.13794
  Beta  occ. eigenvalues --   -1.13788  -1.13774  -1.13729  -1.13632  -1.13628
  Beta  occ. eigenvalues --   -1.13597  -1.13488  -1.13470  -1.13432  -1.13324
  Beta  occ. eigenvalues --   -1.13310  -1.13294  -1.12557  -1.12538  -1.12494
  Beta  occ. eigenvalues --   -0.16896  -0.13636  -0.11629
  Beta virt. eigenvalues --   -0.06898  -0.06123  -0.05642  -0.04327  -0.03047
  Beta virt. eigenvalues --   -0.02365  -0.02192  -0.01489  -0.01163  -0.00517
  Beta virt. eigenvalues --   -0.00429  -0.00125   0.00245   0.00448   0.00625

 Mulliken charges and spin densities:
               1          2
     1  Na   0.978627  -0.022265
     2  Na  -0.160990   0.015406
     3  Na  -0.801422   0.417718
     4  Na   0.004089   0.127907
     5  Na  -0.174226  -0.076555
     6  Na   0.473602   0.255896
     7  Na  -0.319679   0.281892
 Sum of Mulliken charges =  -0.00000   1.00000

 Dipole moment (field-independent basis, Debye):
    X=             -0.0727    Y=             -0.0253    Z=              0.4402  Tot=              0.4469
 Quadrupole moment (field-independent basis, Debye-Ang):
   XX=            -55.2493   YY=            -68.4446   ZZ=            -72.6324
   XY=             -1.6820   XZ=              2.6636   YZ=             -2.3978

 Normal termination of Gaussian 16 at Tue Dec  5 18:28:28 2023.
