 Gaussian 16, Revision B.01,
 Gaussian 16:  ES64L-G16RevB.01 20-Dec-2017

 -------------------------
 #P B3LYP/6-311+g(d) force
 -------------------------

 -----
 DPGEN
 -----
 Symbolic Z-matrix:
 Charge =  0 Multiplicity = 2

                         Standard orientation:
 ---------------------------------------------------------------------
 Center     Atomic      Atomic             Coordinates (Angstroms)
 Number     Number       Type             X           Y           Z
 ---------------------------------------------------------------------
      1         11           0       -4.433371   -0.361683   -0.088567
      2         11           0        2.449393   -1.690661    0.600987
      3         11           0       -0.886371   -0.189194    1.857689
      4         11           0        4.431952    0.937485    0.108814
      5         11           0        1.457119    0.961935   -1.275260
      6         11           0       -0.934930   -2.153189   -1.175373
      7         11           0       -2.083793    2.495307   -0.028292
 ---------------------------------------------------------------------

 SCF Done:  E(UB3LYP) =  -1136.11429301     A.U. after   27 cycles

 The electronic state is 2-A.
 Alpha  occ. eigenvalues --  -38.45536 -38.44895 -38.44326 -38.43929 -38.43914
 Alpha  occ. eigenvalues --  -38.43394 -38.43250  -2.21341  -2.20727  -2.20172
 Alpha  occ. eigenvalues --   -2.19719  -2.19713  -2.19242  -2.19048  -1.15020
 Alpha  occ. eigenvalues --   -1.15006  -1.14955  -1.14422  -1.14392  -1.14359
 Alpha  occ. eigenvalues --   -1.13876  -1.13853  -1.13770  -1.13415  -1.13378
 Alpha  occ. eigenvalues --   -1.13371  -1.13349  -1.13330  -1.13326  -1.12900
 Alpha  occ. eigenvalues --   -1.12885  -1.12879  -1.12732  -1.12710  -1.12682
 Alpha  occ. eigenvalues --   -0.17501  -0.14211  -0.11120  -0.10443
 Alpha virt. eigenvalues --   -0.07653  -0.05404  -0.04470  -0.03513  -0.03034
 Alpha virt. eigenvalues --   -0.02267  -0.01902  -0.01752  -0.01095  -0.00751
 Alpha virt. eigenvalues --   -0.00488   0.00000   0.00231   0.00597   0.00661

  Beta  occ. eigenvalues --  -38.45517 -38.44889 -38.44318 -38.43924 -38.43814
  Beta  occ. eigenvalues --  -38.43357 -38.43237  -2.21308  -2.20718  -2.20160
  Beta  occ. eigenvalues --   -2.19707  -2.19532  -2.19174  -2.19026  -1.14990
  Beta  occ. eigenvalues --   -1.14977  -1.14934  -1.14421  -1.14388  -1.14328
  Beta  occ. eigenvalues --   -1.13868  -1.13848  -1.13742  -1.13409  -1.13369
  Beta  occ. eigenvalues --   -1.13312  -1.13251  -1.13219  -1.13204  -1.12852
  Beta  occ. eigenvalues --   -1.12842  -1.12833  -1.12719  -1.12695  -1.12647
  Beta  occ. eigenvalues --   -0.17032  -0.13605  -0.10921
  Beta virt. eigenvalues --   -0.07454  -0.06870  -0.05324  -0.03829  -0.03252
  Beta virt. eigenvalues --   -0.02806  -0.02141  -0.01754  -0.01256  -0.00685
  Beta virt. eigenvalues --   -0.00359  -0.00272   0.00128   0.00362   0.00666

 Mulliken charges and spin densities:
               1          2
     1  Na  -0.012065   0.570495
     2  Na   0.113308   0.076399
     3  Na   0.053135   0.072246
     4  Na   0.191845   0.205479
     5  Na  -0.282949  -0.012114
     6  Na  -0.056556   0.065903
     7  Na  -0.006717   0.021593
 Sum of Mulliken charges =  -0.00000   1.00000

 Dipole moment (field-independent basis, Debye):
    X=              0.8222    Y=             -0.3728    Z=              0.6136  Tot=              1.0915
 Quadrupole moment (field-independent basis, Debye-Ang):
   XX=            -72.8367   YY=            -75.7824   ZZ=            -59.4171
   XY=             -1.9067   XZ=              2.2072   YZ=             -1.6049

 Normal termination of Gaussian 16 at Sun Dec  3 23:47:35 2023.
