 Gaussian 16, Revision B.01,
 Gaussian 16:  ES64L-G16RevB.01 20-Dec-2017

 -------------------------
 #P B3LYP/6-311+g(d) force
 -------------------------

 -----
 DPGEN
 -----
 Symbolic Z-matrix:
 Charge =  0 Multiplicity = 2

                         Standard orientation:
 ---------------------------------------------------------------------
 Center     Atomic      Atomic             Coordinates (Angstroms)
 Number     Number       Type             X           Y           Z
 ---------------------------------------------------------------------
      1         11           0       -2.651937    1.456583   -0.782057
      2         11           0       -0.445076    3.311096    0.537171
      3         11           0        3.342167   -0.365173    1.413069
      4         11           0       -4.826201   -1.349874    0.184392
      5         11           0        6.076704   -0.928344   -0.819384
      6         11           0        0.613293    0.442068   -0.665996
      7         11           0       -2.108951   -2.566355    0.132806
 ---------------------------------------------------------------------

 SCF Done:  E(UB3LYP) =  -1136.11409176     A.U. after   19 cycles

 The electronic state is 2-A.
 Alpha  occ. eigenvalues --  -38.44472 -38.44390 -38.44185 -38.44162 -38.44144
 Alpha  occ. eigenvalues --  -38.43959 -38.43906  -2.20294  -2.20228  -2.20022
 Alpha  occ. eigenvalues --   -2.20009  -2.19936  -2.19774  -2.19716  -1.14024
 Alpha  occ. eigenvalues --   -1.13954  -1.13934  -1.13912  -1.13887  -1.13878
 Alpha  occ. eigenvalues --   -1.13707  -1.13681  -1.13668  -1.13663  -1.13644
 Alpha  occ. eigenvalues --   -1.13588  -1.13585  -1.13584  -1.13544  -1.13462
 Alpha  occ. eigenvalues --   -1.13435  -1.13403  -1.13400  -1.13367  -1.13353
 Alpha  occ. eigenvalues --   -0.16784  -0.13627  -0.12602  -0.10349
 Alpha virt. eigenvalues --   -0.06395  -0.05959  -0.04634  -0.03679  -0.02878
 Alpha virt. eigenvalues --   -0.02413  -0.01904  -0.01435  -0.01110  -0.00911
 Alpha virt. eigenvalues --   -0.00379  -0.00170   0.00175   0.00301   0.00615

  Beta  occ. eigenvalues --  -38.44450 -38.44381 -38.44174 -38.44113 -38.44079
  Beta  occ. eigenvalues --  -38.43980 -38.43864  -2.20252  -2.20213  -2.20002
  Beta  occ. eigenvalues --   -2.19953  -2.19780  -2.19759  -2.19696  -1.13994
  Beta  occ. eigenvalues --   -1.13926  -1.13903  -1.13898  -1.13873  -1.13863
  Beta  occ. eigenvalues --   -1.13660  -1.13655  -1.13643  -1.13639  -1.13629
  Beta  occ. eigenvalues --   -1.13550  -1.13478  -1.13476  -1.13450  -1.13439
  Beta  occ. eigenvalues --   -1.13429  -1.13397  -1.13378  -1.13356  -1.13317
  Beta  occ. eigenvalues --   -0.16294  -0.13439  -0.12115
  Beta virt. eigenvalues --   -0.07079  -0.06109  -0.05280  -0.04371  -0.03427
  Beta virt. eigenvalues --   -0.02614  -0.02268  -0.01700  -0.01107  -0.00981
  Beta virt. eigenvalues --   -0.00518  -0.00178   0.00076   0.00371   0.00472

 Mulliken charges and spin densities:
               1          2
     1  Na   0.518737   0.484806
     2  Na   0.476995   0.102421
     3  Na   0.099125  -0.072616
     4  Na   0.143365   0.018755
     5  Na   0.083981   0.427313
     6  Na  -1.397083  -0.107298
     7  Na   0.074881   0.146620
 Sum of Mulliken charges =  -0.00000   1.00000

 Dipole moment (field-independent basis, Debye):
    X=             -1.3351    Y=              0.5607    Z=              0.3255  Tot=              1.4842
 Quadrupole moment (field-independent basis, Debye-Ang):
   XX=            -69.0705   YY=            -66.3086   ZZ=            -66.3150
   XY=              3.4587   XZ=             -2.3303   YZ=              2.8269

 Normal termination of Gaussian 16 at Tue Nov 28 23:17:50 2023.
