 Gaussian 16, Revision B.01,
 Gaussian 16:  ES64L-G16RevB.01 20-Dec-2017

 -------------------------
 #P B3LYP/6-311+g(d) force
 -------------------------

 -----
 DPGEN
 -----
 Symbolic Z-matrix:
 Charge =  0 Multiplicity = 2

                         Standard orientation:
 ---------------------------------------------------------------------
 Center     Atomic      Atomic             Coordinates (Angstroms)
 Number     Number       Type             X           Y           Z
 ---------------------------------------------------------------------
      1         11           0        3.706910    0.760257    0.001391
      2         11           0       -0.959027   -2.621680   -0.598347
      3         11           0        0.399857    0.638940   -1.520668
      4         11           0       -0.641285    3.663868    0.276337
      5         11           0        1.803657   -2.018416    0.378004
      6         11           0       -3.280825    0.014744   -0.457743
      7         11           0       -1.029288   -0.437713    1.921025
 ---------------------------------------------------------------------

 SCF Done:  E(UB3LYP) =  -1136.12201805     A.U. after   24 cycles

 The electronic state is 2-A.
 Alpha  occ. eigenvalues --  -38.44891 -38.44878 -38.44588 -38.43490 -38.43448
 Alpha  occ. eigenvalues --  -38.43442 -38.43406  -2.20683  -2.20656  -2.20313
 Alpha  occ. eigenvalues --   -2.19413  -2.19337  -2.19313  -2.19310  -1.14369
 Alpha  occ. eigenvalues --   -1.14338  -1.14327  -1.14313  -1.14312  -1.14300
 Alpha  occ. eigenvalues --   -1.13989  -1.13973  -1.13954  -1.13216  -1.13078
 Alpha  occ. eigenvalues --   -1.13057  -1.13019  -1.12997  -1.12981  -1.12965
 Alpha  occ. eigenvalues --   -1.12955  -1.12948  -1.12932  -1.12927  -1.12904
 Alpha  occ. eigenvalues --   -0.18123  -0.13017  -0.12185  -0.10225
 Alpha virt. eigenvalues --   -0.06933  -0.05434  -0.04538  -0.03111  -0.02850
 Alpha virt. eigenvalues --   -0.02122  -0.02053  -0.01488  -0.00884  -0.00399
 Alpha virt. eigenvalues --   -0.00069   0.00303   0.00377   0.00601   0.00880

  Beta  occ. eigenvalues --  -38.44896 -38.44864 -38.44590 -38.43469 -38.43402
  Beta  occ. eigenvalues --  -38.43392 -38.43362  -2.20666  -2.20661  -2.20317
  Beta  occ. eigenvalues --   -2.19380  -2.19291  -2.19229  -2.19187  -1.14347
  Beta  occ. eigenvalues --   -1.14328  -1.14321  -1.14309  -1.14307  -1.14296
  Beta  occ. eigenvalues --   -1.13985  -1.13976  -1.13957  -1.13197  -1.13050
  Beta  occ. eigenvalues --   -1.12999  -1.12974  -1.12947  -1.12917  -1.12895
  Beta  occ. eigenvalues --   -1.12887  -1.12880  -1.12874  -1.12868  -1.12828
  Beta  occ. eigenvalues --   -0.17393  -0.12843  -0.12026
  Beta virt. eigenvalues --   -0.06899  -0.06376  -0.05220  -0.04496  -0.02479
  Beta virt. eigenvalues --   -0.02258  -0.01976  -0.01473  -0.01081  -0.00867
  Beta virt. eigenvalues --   -0.00411   0.00134   0.00354   0.00497   0.00623

 Mulliken charges and spin densities:
               1          2
     1  Na   0.037637  -0.072971
     2  Na   0.150533   0.254368
     3  Na   0.211047   0.268174
     4  Na  -0.258029  -0.112073
     5  Na   0.060004   0.095336
     6  Na   0.133699  -0.017093
     7  Na  -0.334891   0.584259
 Sum of Mulliken charges =  -0.00000   1.00000

 Dipole moment (field-independent basis, Debye):
    X=              0.0462    Y=              0.6136    Z=              0.0025  Tot=              0.6153
 Quadrupole moment (field-independent basis, Debye-Ang):
   XX=            -53.2642   YY=            -62.3689   ZZ=            -76.4713
   XY=              1.5972   XZ=              2.4109   YZ=              2.1408

 Normal termination of Gaussian 16 at Thu Dec  7 05:40:31 2023.
