 Gaussian 16, Revision B.01,
 Gaussian 16:  ES64L-G16RevB.01 20-Dec-2017

 -------------------------
 #P B3LYP/6-311+g(d) force
 -------------------------

 -----
 DPGEN
 -----
 Symbolic Z-matrix:
 Charge =  0 Multiplicity = 2

                         Standard orientation:
 ---------------------------------------------------------------------
 Center     Atomic      Atomic             Coordinates (Angstroms)
 Number     Number       Type             X           Y           Z
 ---------------------------------------------------------------------
      1         11           0       -4.559094   -0.224482   -0.348592
      2         11           0        0.864498   -3.151051   -0.115806
      3         11           0       -2.942446    2.507121   -0.174003
      4         11           0       -2.217143   -2.863062    0.542762
      5         11           0        3.433342    1.739657    0.026082
      6         11           0        0.908960    3.394408    0.333381
      7         11           0        4.511882   -1.402591   -0.263824
 ---------------------------------------------------------------------

 SCF Done:  E(UB3LYP) =  -1136.10858631     A.U. after   21 cycles

 The electronic state is 2-A.
 Alpha  occ. eigenvalues --  -38.45130 -38.44734 -38.44733 -38.44540 -38.44400
 Alpha  occ. eigenvalues --  -38.44291 -38.43970  -2.20899  -2.20543  -2.20508
 Alpha  occ. eigenvalues --   -2.20367  -2.20207  -2.20099  -2.19795  -1.14580
 Alpha  occ. eigenvalues --   -1.14572  -1.14550  -1.14198  -1.14197  -1.14190
 Alpha  occ. eigenvalues --   -1.14179  -1.14179  -1.14149  -1.14093  -1.14032
 Alpha  occ. eigenvalues --   -1.14022  -1.13849  -1.13840  -1.13827  -1.13760
 Alpha  occ. eigenvalues --   -1.13756  -1.13726  -1.13450  -1.13431  -1.13415
 Alpha  occ. eigenvalues --   -0.15683  -0.14341  -0.13385  -0.11224
 Alpha virt. eigenvalues --   -0.07542  -0.04690  -0.04261  -0.03704  -0.03650
 Alpha virt. eigenvalues --   -0.02603  -0.02114  -0.01947  -0.01211  -0.00794
 Alpha virt. eigenvalues --   -0.00550  -0.00214   0.00028   0.00534   0.00583

  Beta  occ. eigenvalues --  -38.45121 -38.44715 -38.44702 -38.44528 -38.44318
  Beta  occ. eigenvalues --  -38.44259 -38.43911  -2.20887  -2.20486  -2.20479
  Beta  occ. eigenvalues --   -2.20354  -2.20055  -2.20042  -2.19685  -1.14569
  Beta  occ. eigenvalues --   -1.14566  -1.14521  -1.14170  -1.14164  -1.14160
  Beta  occ. eigenvalues --   -1.14152  -1.14133  -1.14107  -1.14045  -1.14031
  Beta  occ. eigenvalues --   -1.13996  -1.13746  -1.13739  -1.13728  -1.13721
  Beta  occ. eigenvalues --   -1.13717  -1.13677  -1.13377  -1.13357  -1.13342
  Beta  occ. eigenvalues --   -0.15137  -0.13536  -0.12556
  Beta virt. eigenvalues --   -0.08089  -0.07757  -0.04155  -0.03746  -0.03495
  Beta virt. eigenvalues --   -0.03398  -0.02375  -0.01956  -0.01725  -0.01048
  Beta virt. eigenvalues --   -0.00462  -0.00214   0.00078   0.00195   0.00500

 Mulliken charges and spin densities:
               1          2
     1  Na   0.248341   0.061338
     2  Na  -0.250097   0.125705
     3  Na  -0.064867   0.081782
     4  Na  -0.375910   0.010888
     5  Na  -0.412029   0.085605
     6  Na   0.512698   0.240009
     7  Na   0.341866   0.394672
 Sum of Mulliken charges =  -0.00000   1.00000

 Dipole moment (field-independent basis, Debye):
    X=             -0.7632    Y=             -0.2282    Z=             -0.0958  Tot=              0.8023
 Quadrupole moment (field-independent basis, Debye-Ang):
   XX=            -58.3561   YY=            -67.5085   ZZ=            -73.8758
   XY=             -0.7222   XZ=             -0.4697   YZ=              0.4783

 Normal termination of Gaussian 16 at Sun Dec  3 22:12:38 2023.
