 Gaussian 16, Revision B.01,
 Gaussian 16:  ES64L-G16RevB.01 20-Dec-2017

 -------------------------
 #P B3LYP/6-311+g(d) force
 -------------------------

 -----
 DPGEN
 -----
 Symbolic Z-matrix:
 Charge =  0 Multiplicity = 2

                         Standard orientation:
 ---------------------------------------------------------------------
 Center     Atomic      Atomic             Coordinates (Angstroms)
 Number     Number       Type             X           Y           Z
 ---------------------------------------------------------------------
      1         11           0        2.893781    2.490263   -0.199195
      2         11           0       -1.195947   -2.688088   -0.183014
      3         11           0        4.286760   -0.562954   -0.365473
      4         11           0        2.214901   -3.035114    0.701911
      5         11           0       -4.445712   -1.251081   -0.596726
      6         11           0       -3.671423    1.792010    0.621436
      7         11           0       -0.082361    3.254963    0.021060
 ---------------------------------------------------------------------

 SCF Done:  E(UB3LYP) =  -1136.10879555     A.U. after   26 cycles

 The electronic state is 2-A.
 Alpha  occ. eigenvalues --  -38.45969 -38.44777 -38.44643 -38.44512 -38.44451
 Alpha  occ. eigenvalues --  -38.43916 -38.43447  -2.21722  -2.20551  -2.20441
 Alpha  occ. eigenvalues --   -2.20329  -2.20227  -2.19741  -2.19262  -1.15401
 Alpha  occ. eigenvalues --   -1.15381  -1.15356  -1.14226  -1.14218  -1.14171
 Alpha  occ. eigenvalues --   -1.14102  -1.14088  -1.14082  -1.14023  -1.13997
 Alpha  occ. eigenvalues --   -1.13987  -1.13905  -1.13896  -1.13874  -1.13389
 Alpha  occ. eigenvalues --   -1.13387  -1.13368  -1.12924  -1.12908  -1.12895
 Alpha  occ. eigenvalues --   -0.15744  -0.14270  -0.13214  -0.10660
 Alpha virt. eigenvalues --   -0.07956  -0.04818  -0.04459  -0.03620  -0.03482
 Alpha virt. eigenvalues --   -0.02517  -0.02225  -0.01737  -0.01136  -0.00794
 Alpha virt. eigenvalues --   -0.00472  -0.00221   0.00129   0.00458   0.00621

  Beta  occ. eigenvalues --  -38.45947 -38.44728 -38.44617 -38.44506 -38.44450
  Beta  occ. eigenvalues --  -38.43852 -38.43401  -2.21686  -2.20462  -2.20396
  Beta  occ. eigenvalues --   -2.20325  -2.20229  -2.19622  -2.19177  -1.15380
  Beta  occ. eigenvalues --   -1.15360  -1.15304  -1.14167  -1.14160  -1.14106
  Beta  occ. eigenvalues --   -1.14072  -1.14052  -1.14042  -1.14008  -1.13999
  Beta  occ. eigenvalues --   -1.13954  -1.13911  -1.13902  -1.13842  -1.13309
  Beta  occ. eigenvalues --   -1.13305  -1.13292  -1.12870  -1.12849  -1.12837
  Beta  occ. eigenvalues --   -0.15211  -0.13653  -0.12542
  Beta virt. eigenvalues --   -0.08107  -0.07429  -0.04311  -0.03983  -0.03321
  Beta virt. eigenvalues --   -0.03164  -0.02314  -0.02150  -0.01565  -0.00981
  Beta virt. eigenvalues --   -0.00449  -0.00274  -0.00085   0.00312   0.00520

 Mulliken charges and spin densities:
               1          2
     1  Na   0.032692   0.089303
     2  Na  -0.455027   0.306427
     3  Na  -0.216780   0.266389
     4  Na   0.019167  -0.205804
     5  Na   0.491596   0.261496
     6  Na   0.167038   0.106248
     7  Na  -0.038688   0.175940
 Sum of Mulliken charges =  -0.00000   1.00000

 Dipole moment (field-independent basis, Debye):
    X=             -1.4085    Y=             -0.3209    Z=              0.1080  Tot=              1.4487
 Quadrupole moment (field-independent basis, Debye-Ang):
   XX=            -59.2589   YY=            -68.2043   ZZ=            -71.8129
   XY=             -1.7561   XZ=              0.3837   YZ=              1.5405

 Normal termination of Gaussian 16 at Sun Dec  3 19:08:36 2023.
