 Gaussian 16, Revision B.01,
 Gaussian 16:  ES64L-G16RevB.01 20-Dec-2017

 -------------------------
 #P B3LYP/6-311+g(d) force
 -------------------------

 -----
 DPGEN
 -----
 Symbolic Z-matrix:
 Charge =  0 Multiplicity = 2

                         Standard orientation:
 ---------------------------------------------------------------------
 Center     Atomic      Atomic             Coordinates (Angstroms)
 Number     Number       Type             X           Y           Z
 ---------------------------------------------------------------------
      1         11           0        1.302131   -1.619825   -0.699131
      2         11           0        4.394284   -0.510598   -0.798554
      3         11           0        2.274819    2.126149   -0.122961
      4         11           0       -0.924032    2.110300    0.542396
      5         11           0       -1.767989   -0.628784   -0.845040
      6         11           0        0.545783   -1.295022    2.340290
      7         11           0       -5.824997   -0.182220   -0.417000
 ---------------------------------------------------------------------

 SCF Done:  E(UB3LYP) =  -1136.10508052     A.U. after   32 cycles

 The electronic state is 2-A.
 Alpha  occ. eigenvalues --  -38.46051 -38.45929 -38.44639 -38.44053 -38.43461
 Alpha  occ. eigenvalues --  -38.43001 -38.42748  -2.21860  -2.21699  -2.20460
 Alpha  occ. eigenvalues --   -2.19879  -2.19360  -2.18820  -2.18603  -1.15519
 Alpha  occ. eigenvalues --   -1.15486  -1.15470  -1.15330  -1.15327  -1.15296
 Alpha  occ. eigenvalues --   -1.14160  -1.14150  -1.14104  -1.13543  -1.13519
 Alpha  occ. eigenvalues --   -1.13513  -1.13074  -1.13046  -1.12977  -1.12514
 Alpha  occ. eigenvalues --   -1.12510  -1.12460  -1.12283  -1.12262  -1.12226
 Alpha  occ. eigenvalues --   -0.17463  -0.13740  -0.11976  -0.11151
 Alpha virt. eigenvalues --   -0.07535  -0.05124  -0.04301  -0.03261  -0.03023
 Alpha virt. eigenvalues --   -0.02529  -0.02163  -0.01811  -0.01427  -0.01082
 Alpha virt. eigenvalues --   -0.00327   0.00136   0.00303   0.00580   0.00627

  Beta  occ. eigenvalues --  -38.45970 -38.45789 -38.44674 -38.44008 -38.43485
  Beta  occ. eigenvalues --  -38.43013 -38.42741  -2.21709  -2.21437  -2.20527
  Beta  occ. eigenvalues --   -2.19796  -2.19408  -2.18844  -2.18591  -1.15419
  Beta  occ. eigenvalues --   -1.15386  -1.15362  -1.15152  -1.15149  -1.15120
  Beta  occ. eigenvalues --   -1.14216  -1.14180  -1.14140  -1.13490  -1.13465
  Beta  occ. eigenvalues --   -1.13455  -1.13098  -1.13071  -1.13004  -1.12530
  Beta  occ. eigenvalues --   -1.12524  -1.12467  -1.12277  -1.12246  -1.12225
  Beta  occ. eigenvalues --   -0.17233  -0.12665  -0.11156
  Beta virt. eigenvalues --   -0.08300  -0.07019  -0.04758  -0.04148  -0.03117
  Beta virt. eigenvalues --   -0.02648  -0.02214  -0.01742  -0.01255  -0.01104
  Beta virt. eigenvalues --   -0.00600  -0.00116   0.00230   0.00449   0.00625

 Mulliken charges and spin densities:
               1          2
     1  Na  -0.001678   0.523589
     2  Na   0.375895   0.080403
     3  Na  -0.133622   0.063180
     4  Na  -0.253809  -0.179772
     5  Na  -0.337980  -0.101520
     6  Na   0.162345   0.204232
     7  Na   0.188850   0.409887
 Sum of Mulliken charges =  -0.00000   1.00000

 Dipole moment (field-independent basis, Debye):
    X=             -0.5852    Y=             -0.6936    Z=              1.0856  Tot=              1.4150
 Quadrupole moment (field-independent basis, Debye-Ang):
   XX=            -55.5491   YY=            -80.5278   ZZ=            -62.2401
   XY=             -1.8556   XZ=             -0.2243   YZ=              0.9834

 Normal termination of Gaussian 16 at Wed Nov 29 04:13:44 2023.
