 Gaussian 16, Revision B.01,
 Gaussian 16:  ES64L-G16RevB.01 20-Dec-2017

 -------------------------
 #P B3LYP/6-311+g(d) force
 -------------------------

 -----
 DPGEN
 -----
 Symbolic Z-matrix:
 Charge =  0 Multiplicity = 2

                         Standard orientation:
 ---------------------------------------------------------------------
 Center     Atomic      Atomic             Coordinates (Angstroms)
 Number     Number       Type             X           Y           Z
 ---------------------------------------------------------------------
      1         11           0       -2.988072   -1.227029    0.498452
      2         11           0        0.248566   -0.041710   -1.856820
      3         11           0       -0.273411   -0.035693    1.892663
      4         11           0        0.297886   -2.858970   -0.547635
      5         11           0        1.251065    2.479450    0.236926
      6         11           0        3.291730   -0.554406    0.376305
      7         11           0       -1.827764    2.238359   -0.599891
 ---------------------------------------------------------------------

 SCF Done:  E(UB3LYP) =  -1136.13622539     A.U. after   19 cycles

 The electronic state is 2-A.
 Alpha  occ. eigenvalues --  -38.44073 -38.43809 -38.43740 -38.43616 -38.43582
 Alpha  occ. eigenvalues --  -38.43430 -38.43251  -2.19857  -2.19652  -2.19621
 Alpha  occ. eigenvalues --   -2.19531  -2.19456  -2.19304  -2.19145  -1.13534
 Alpha  occ. eigenvalues --   -1.13510  -1.13498  -1.13361  -1.13328  -1.13289
 Alpha  occ. eigenvalues --   -1.13278  -1.13272  -1.13254  -1.13233  -1.13202
 Alpha  occ. eigenvalues --   -1.13151  -1.13108  -1.13089  -1.13056  -1.12993
 Alpha  occ. eigenvalues --   -1.12972  -1.12931  -1.12822  -1.12808  -1.12753
 Alpha  occ. eigenvalues --   -0.18556  -0.12637  -0.12599  -0.11127
 Alpha virt. eigenvalues --   -0.05613  -0.04831  -0.04715  -0.03206  -0.03186
 Alpha virt. eigenvalues --   -0.02740  -0.01567  -0.01079  -0.00367  -0.00095
 Alpha virt. eigenvalues --    0.00010   0.00340   0.00832   0.00866   0.00902

  Beta  occ. eigenvalues --  -38.44069 -38.43799 -38.43666 -38.43601 -38.43503
  Beta  occ. eigenvalues --  -38.43415 -38.43244  -2.19851  -2.19605  -2.19517
  Beta  occ. eigenvalues --   -2.19431  -2.19385  -2.19281  -2.19136  -1.13526
  Beta  occ. eigenvalues --   -1.13503  -1.13491  -1.13314  -1.13260  -1.13249
  Beta  occ. eigenvalues --   -1.13234  -1.13214  -1.13192  -1.13153  -1.13109
  Beta  occ. eigenvalues --   -1.13078  -1.13057  -1.13041  -1.13022  -1.12977
  Beta  occ. eigenvalues --   -1.12937  -1.12904  -1.12813  -1.12789  -1.12738
  Beta  occ. eigenvalues --   -0.17831  -0.12372  -0.12311
  Beta virt. eigenvalues --   -0.07266  -0.05510  -0.04807  -0.04644  -0.02517
  Beta virt. eigenvalues --   -0.02420  -0.01741  -0.01443  -0.00988  -0.00334
  Beta virt. eigenvalues --   -0.00120   0.00100   0.00370   0.00864   0.00894

 Mulliken charges and spin densities:
               1          2
     1  Na   0.010221  -0.020685
     2  Na  -0.004096   0.471711
     3  Na  -0.220785   0.638056
     4  Na   0.028995  -0.070639
     5  Na   0.096602  -0.010656
     6  Na  -0.121923  -0.051698
     7  Na   0.210986   0.043911
 Sum of Mulliken charges =  -0.00000   1.00000

 Dipole moment (field-independent basis, Debye):
    X=              0.0657    Y=             -0.1684    Z=              0.1034  Tot=              0.2082
 Quadrupole moment (field-independent basis, Debye-Ang):
   XX=            -57.4771   YY=            -64.0087   ZZ=            -72.5437
   XY=             -0.3928   XZ=              1.5613   YZ=             -0.2315

 Normal termination of Gaussian 16 at Thu Dec  7 22:27:00 2023.
