 Gaussian 16, Revision B.01,
 Gaussian 16:  ES64L-G16RevB.01 20-Dec-2017

 -------------------------
 #P B3LYP/6-311+g(d) force
 -------------------------

 -----
 DPGEN
 -----
 Symbolic Z-matrix:
 Charge =  0 Multiplicity = 2

                         Standard orientation:
 ---------------------------------------------------------------------
 Center     Atomic      Atomic             Coordinates (Angstroms)
 Number     Number       Type             X           Y           Z
 ---------------------------------------------------------------------
      1         11           0       -0.712752    0.563008    2.308673
      2         11           0        2.303130   -0.602688    1.806121
      3         11           0        2.873591   -0.080616   -1.229822
      4         11           0        0.783173    2.410190   -0.889578
      5         11           0       -2.433192    2.088105   -0.637536
      6         11           0        0.663232   -2.417373   -1.100443
      7         11           0       -3.477183   -1.960626   -0.257415
 ---------------------------------------------------------------------

 SCF Done:  E(UB3LYP) =  -1136.11716487     A.U. after   23 cycles

 The electronic state is 2-A.
 Alpha  occ. eigenvalues --  -38.45138 -38.44845 -38.44324 -38.44171 -38.44138
 Alpha  occ. eigenvalues --  -38.44093 -38.43306  -2.20954  -2.20722  -2.20110
 Alpha  occ. eigenvalues --   -2.20004  -2.19964  -2.19853  -2.19150  -1.14654
 Alpha  occ. eigenvalues --   -1.14581  -1.14569  -1.14392  -1.14377  -1.14339
 Alpha  occ. eigenvalues --   -1.13821  -1.13775  -1.13742  -1.13669  -1.13657
 Alpha  occ. eigenvalues --   -1.13654  -1.13624  -1.13608  -1.13589  -1.13536
 Alpha  occ. eigenvalues --   -1.13510  -1.13497  -1.12828  -1.12800  -1.12790
 Alpha  occ. eigenvalues --   -0.17768  -0.13188  -0.12164  -0.11526
 Alpha virt. eigenvalues --   -0.06202  -0.05576  -0.04851  -0.03691  -0.03201
 Alpha virt. eigenvalues --   -0.02819  -0.01598  -0.01035  -0.00628  -0.00340
 Alpha virt. eigenvalues --   -0.00185   0.00163   0.00331   0.00404   0.00442

  Beta  occ. eigenvalues --  -38.45055 -38.44783 -38.44301 -38.44165 -38.44143
  Beta  occ. eigenvalues --  -38.44066 -38.43285  -2.20804  -2.20611  -2.20069
  Beta  occ. eigenvalues --   -2.19955  -2.19954  -2.19862  -2.19113  -1.14543
  Beta  occ. eigenvalues --   -1.14484  -1.14449  -1.14310  -1.14298  -1.14250
  Beta  occ. eigenvalues --   -1.13786  -1.13745  -1.13713  -1.13643  -1.13627
  Beta  occ. eigenvalues --   -1.13623  -1.13619  -1.13583  -1.13572  -1.13541
  Beta  occ. eigenvalues --   -1.13516  -1.13504  -1.12799  -1.12775  -1.12760
  Beta  occ. eigenvalues --   -0.16991  -0.13097  -0.11366
  Beta virt. eigenvalues --   -0.07993  -0.06062  -0.05331  -0.04333  -0.03393
  Beta virt. eigenvalues --   -0.02456  -0.02244  -0.01512  -0.00964  -0.00373
  Beta virt. eigenvalues --   -0.00186  -0.00136   0.00372   0.00418   0.00554

 Mulliken charges and spin densities:
               1          2
     1  Na  -0.303697   0.397280
     2  Na   0.382318   0.063178
     3  Na   0.294366   0.438300
     4  Na  -0.197054   0.062424
     5  Na   0.269606   0.021219
     6  Na  -0.432815   0.055251
     7  Na  -0.012724  -0.037652
 Sum of Mulliken charges =  -0.00000   1.00000

 Dipole moment (field-independent basis, Debye):
    X=              0.4356    Y=              0.1122    Z=              0.3089  Tot=              0.5457
 Quadrupole moment (field-independent basis, Debye-Ang):
   XX=            -58.9700   YY=            -73.8132   ZZ=            -67.0291
   XY=             -2.6394   XZ=              0.1412   YZ=             -0.3176

 Normal termination of Gaussian 16 at Wed Nov 29 03:12:27 2023.
