 Gaussian 16, Revision B.01,
 Gaussian 16:  ES64L-G16RevB.01 20-Dec-2017

 -------------------------
 #P B3LYP/6-311+g(d) force
 -------------------------

 -----
 DPGEN
 -----
 Symbolic Z-matrix:
 Charge =  0 Multiplicity = 2

                         Standard orientation:
 ---------------------------------------------------------------------
 Center     Atomic      Atomic             Coordinates (Angstroms)
 Number     Number       Type             X           Y           Z
 ---------------------------------------------------------------------
      1         11           0        0.256616    0.175877    1.656366
      2         11           0       -2.991287   -1.077215    0.497403
      3         11           0        2.186364    2.582011   -0.454445
      4         11           0       -2.687302    2.270693   -0.142500
      5         11           0       -0.173716   -0.318678   -1.542517
      6         11           0        3.098665   -0.623169    0.505721
      7         11           0        0.310660   -3.009519   -0.520027
 ---------------------------------------------------------------------

 SCF Done:  E(UB3LYP) =  -1136.12824938     A.U. after   21 cycles

 The electronic state is 2-A.
 Alpha  occ. eigenvalues --  -38.44374 -38.44301 -38.44255 -38.43962 -38.43588
 Alpha  occ. eigenvalues --  -38.43140 -38.43093  -2.20197  -2.20107  -2.20074
 Alpha  occ. eigenvalues --   -2.19751  -2.19512  -2.19119  -2.18962  -1.13874
 Alpha  occ. eigenvalues --   -1.13864  -1.13828  -1.13816  -1.13757  -1.13748
 Alpha  occ. eigenvalues --   -1.13727  -1.13726  -1.13711  -1.13421  -1.13404
 Alpha  occ. eigenvalues --   -1.13392  -1.13228  -1.13139  -1.13120  -1.12917
 Alpha  occ. eigenvalues --   -1.12798  -1.12721  -1.12593  -1.12580  -1.12566
 Alpha  occ. eigenvalues --   -0.18278  -0.13393  -0.12038  -0.10200
 Alpha virt. eigenvalues --   -0.05937  -0.05779  -0.04623  -0.03267  -0.02584
 Alpha virt. eigenvalues --   -0.02002  -0.01895  -0.01420  -0.00790  -0.00528
 Alpha virt. eigenvalues --    0.00030   0.00300   0.00717   0.00741   0.00816

  Beta  occ. eigenvalues --  -38.44362 -38.44305 -38.44236 -38.43951 -38.43525
  Beta  occ. eigenvalues --  -38.43079 -38.43075  -2.20175  -2.20083  -2.20077
  Beta  occ. eigenvalues --   -2.19732  -2.19397  -2.19002  -2.18940  -1.13853
  Beta  occ. eigenvalues --   -1.13845  -1.13815  -1.13784  -1.13749  -1.13730
  Beta  occ. eigenvalues --   -1.13723  -1.13714  -1.13711  -1.13404  -1.13388
  Beta  occ. eigenvalues --   -1.13375  -1.13147  -1.13051  -1.13040  -1.12853
  Beta  occ. eigenvalues --   -1.12709  -1.12642  -1.12569  -1.12558  -1.12519
  Beta  occ. eigenvalues --   -0.17624  -0.13163  -0.11772
  Beta virt. eigenvalues --   -0.06475  -0.05852  -0.05663  -0.04528  -0.02591
  Beta virt. eigenvalues --   -0.01970  -0.01777  -0.01346  -0.01058  -0.00798
  Beta virt. eigenvalues --   -0.00462   0.00153   0.00351   0.00743   0.00782

 Mulliken charges and spin densities:
               1          2
     1  Na   0.080766   0.383749
     2  Na   0.164315   0.045325
     3  Na  -0.298467   0.017270
     4  Na  -0.212539  -0.080341
     5  Na  -0.142140   0.576016
     6  Na   0.304708   0.082850
     7  Na   0.103357  -0.024868
 Sum of Mulliken charges =  -0.00000   1.00000

 Dipole moment (field-independent basis, Debye):
    X=             -0.1813    Y=              0.1997    Z=              0.1660  Tot=              0.3167
 Quadrupole moment (field-independent basis, Debye-Ang):
   XX=            -54.0243   YY=            -60.7243   ZZ=            -77.1354
   XY=             -0.4593   XZ=             -0.8962   YZ=             -2.0143

 Normal termination of Gaussian 16 at Tue Dec  5 14:41:45 2023.
