 Gaussian 16, Revision B.01,
 Gaussian 16:  ES64L-G16RevB.01 20-Dec-2017

 -------------------------
 #P B3LYP/6-311+g(d) force
 -------------------------

 -----
 DPGEN
 -----
 Symbolic Z-matrix:
 Charge =  0 Multiplicity = 2

                         Standard orientation:
 ---------------------------------------------------------------------
 Center     Atomic      Atomic             Coordinates (Angstroms)
 Number     Number       Type             X           Y           Z
 ---------------------------------------------------------------------
      1         11           0       -0.066007   -0.400519    2.013842
      2         11           0        0.111180   -0.399948   -1.916101
      3         11           0        3.116138   -2.115936    0.021596
      4         11           0        3.279537    1.195747    0.125702
      5         11           0       -0.124084    2.577808   -0.314150
      6         11           0       -3.063896    1.173446    0.276457
      7         11           0       -3.252867   -2.030598   -0.207347
 ---------------------------------------------------------------------

 SCF Done:  E(UB3LYP) =  -1136.12008060     A.U. after   24 cycles

 The electronic state is 2-A.
 Alpha  occ. eigenvalues --  -38.45331 -38.44816 -38.44659 -38.44371 -38.44179
 Alpha  occ. eigenvalues --  -38.44029 -38.42107  -2.21117  -2.20611  -2.20499
 Alpha  occ. eigenvalues --   -2.20198  -2.19960  -2.19810  -2.17976  -1.14795
 Alpha  occ. eigenvalues --   -1.14773  -1.14758  -1.14292  -1.14250  -1.14221
 Alpha  occ. eigenvalues --   -1.14169  -1.14158  -1.14153  -1.13878  -1.13839
 Alpha  occ. eigenvalues --   -1.13804  -1.13633  -1.13621  -1.13608  -1.13490
 Alpha  occ. eigenvalues --   -1.13467  -1.13453  -1.11662  -1.11634  -1.11628
 Alpha  occ. eigenvalues --   -0.17787  -0.13760  -0.11272  -0.10633
 Alpha virt. eigenvalues --   -0.06951  -0.06202  -0.03846  -0.03560  -0.02757
 Alpha virt. eigenvalues --   -0.02522  -0.02428  -0.01598  -0.01007  -0.00296
 Alpha virt. eigenvalues --   -0.00123   0.00202   0.00373   0.00505   0.00616

  Beta  occ. eigenvalues --  -38.45330 -38.44735 -38.44656 -38.44285 -38.44183
  Beta  occ. eigenvalues --  -38.44034 -38.42101  -2.21117  -2.20496  -2.20462
  Beta  occ. eigenvalues --   -2.20039  -2.19969  -2.19821  -2.17969  -1.14782
  Beta  occ. eigenvalues --   -1.14774  -1.14761  -1.14189  -1.14160  -1.14160
  Beta  occ. eigenvalues --   -1.14148  -1.14142  -1.14109  -1.13771  -1.13721
  Beta  occ. eigenvalues --   -1.13692  -1.13642  -1.13615  -1.13613  -1.13501
  Beta  occ. eigenvalues --   -1.13463  -1.13460  -1.11657  -1.11630  -1.11598
  Beta  occ. eigenvalues --   -0.17053  -0.13693  -0.11105
  Beta virt. eigenvalues --   -0.06772  -0.06693  -0.06182  -0.03746  -0.02979
  Beta virt. eigenvalues --   -0.02380  -0.01873  -0.01758  -0.01277  -0.01092
  Beta virt. eigenvalues --   -0.00182  -0.00045   0.00222   0.00594   0.00624

 Mulliken charges and spin densities:
               1          2
     1  Na  -0.353087   0.476107
     2  Na  -0.417413   0.545179
     3  Na   0.192881  -0.054590
     4  Na   0.131552   0.027495
     5  Na   0.009949  -0.018057
     6  Na   0.268450   0.083515
     7  Na   0.167669  -0.059649
 Sum of Mulliken charges =  -0.00000   1.00000

 Dipole moment (field-independent basis, Debye):
    X=              0.5208    Y=             -0.0600    Z=              0.2001  Tot=              0.5611
 Quadrupole moment (field-independent basis, Debye-Ang):
   XX=            -52.2348   YY=            -68.3969   ZZ=            -75.2749
   XY=              0.4819   XZ=              0.0640   YZ=              0.8320

 Normal termination of Gaussian 16 at Thu Dec  7 19:42:27 2023.
