 Gaussian 16, Revision B.01,
 Gaussian 16:  ES64L-G16RevB.01 20-Dec-2017

 -------------------------
 #P B3LYP/6-311+g(d) force
 -------------------------

 -----
 DPGEN
 -----
 Symbolic Z-matrix:
 Charge =  0 Multiplicity = 2

                         Standard orientation:
 ---------------------------------------------------------------------
 Center     Atomic      Atomic             Coordinates (Angstroms)
 Number     Number       Type             X           Y           Z
 ---------------------------------------------------------------------
      1         11           0        0.244284    0.832360   -0.580940
      2         11           0       -2.001486    3.709364    0.424553
      3         11           0       -3.334427    0.775589   -0.429672
      4         11           0       -0.391890   -1.737781    1.368008
      5         11           0        2.676805   -0.926665   -0.098618
      6         11           0       -2.628298   -3.227570   -0.505120
      7         11           0        5.435012    0.574703   -0.178210
 ---------------------------------------------------------------------

 SCF Done:  E(UB3LYP) =  -1136.11982699     A.U. after   20 cycles

 The electronic state is 2-A.
 Alpha  occ. eigenvalues --  -38.44539 -38.44442 -38.44321 -38.44033 -38.43980
 Alpha  occ. eigenvalues --  -38.43729 -38.43096  -2.20348  -2.20341  -2.20108
 Alpha  occ. eigenvalues --   -2.19905  -2.19809  -2.19529  -2.19008  -1.14053
 Alpha  occ. eigenvalues --   -1.14038  -1.14030  -1.13999  -1.13970  -1.13947
 Alpha  occ. eigenvalues --   -1.13775  -1.13771  -1.13727  -1.13589  -1.13572
 Alpha  occ. eigenvalues --   -1.13536  -1.13460  -1.13434  -1.13427  -1.13188
 Alpha  occ. eigenvalues --   -1.13177  -1.13155  -1.12714  -1.12661  -1.12650
 Alpha  occ. eigenvalues --   -0.17237  -0.13874  -0.12515  -0.10702
 Alpha virt. eigenvalues --   -0.06180  -0.05492  -0.04788  -0.03470  -0.02609
 Alpha virt. eigenvalues --   -0.02350  -0.02142  -0.01599  -0.01044  -0.00544
 Alpha virt. eigenvalues --   -0.00387  -0.00150   0.00492   0.00499   0.00572

  Beta  occ. eigenvalues --  -38.44517 -38.44408 -38.44321 -38.44014 -38.43877
  Beta  occ. eigenvalues --  -38.43695 -38.43086  -2.20307  -2.20280  -2.20109
  Beta  occ. eigenvalues --   -2.19875  -2.19616  -2.19464  -2.19002  -1.14026
  Beta  occ. eigenvalues --   -1.14008  -1.13982  -1.13967  -1.13925  -1.13910
  Beta  occ. eigenvalues --   -1.13776  -1.13767  -1.13727  -1.13571  -1.13555
  Beta  occ. eigenvalues --   -1.13486  -1.13334  -1.13303  -1.13298  -1.13144
  Beta  occ. eigenvalues --   -1.13133  -1.13111  -1.12709  -1.12666  -1.12578
  Beta  occ. eigenvalues --   -0.16689  -0.13204  -0.12177
  Beta virt. eigenvalues --   -0.07247  -0.06077  -0.05191  -0.04408  -0.03035
  Beta virt. eigenvalues --   -0.02464  -0.02211  -0.01807  -0.01289  -0.00771
  Beta virt. eigenvalues --   -0.00222  -0.00097   0.00029   0.00536   0.00624

 Mulliken charges and spin densities:
               1          2
     1  Na  -0.914025  -0.096715
     2  Na   0.274261  -0.036695
     3  Na   0.222455   0.294015
     4  Na   0.268666   0.025685
     5  Na  -0.331562   0.236499
     6  Na   0.182115   0.217611
     7  Na   0.298091   0.359600
 Sum of Mulliken charges =  -0.00000   1.00000

 Dipole moment (field-independent basis, Debye):
    X=             -0.9806    Y=              0.8554    Z=              0.3789  Tot=              1.3553
 Quadrupole moment (field-independent basis, Debye-Ang):
   XX=            -72.6165   YY=            -61.1563   ZZ=            -67.8225
   XY=             -0.7146   XZ=              1.3431   YZ=              2.3596

 Normal termination of Gaussian 16 at Tue Nov 28 20:27:11 2023.
