 Gaussian 16, Revision B.01,
 Gaussian 16:  ES64L-G16RevB.01 20-Dec-2017

 -------------------------
 #P B3LYP/6-311+g(d) force
 -------------------------

 -----
 DPGEN
 -----
 Symbolic Z-matrix:
 Charge =  0 Multiplicity = 2

                         Standard orientation:
 ---------------------------------------------------------------------
 Center     Atomic      Atomic             Coordinates (Angstroms)
 Number     Number       Type             X           Y           Z
 ---------------------------------------------------------------------
      1         11           0        0.207463    2.926268   -0.101068
      2         11           0       -0.449845   -0.249021    2.126929
      3         11           0        2.978826   -2.203370    0.060250
      4         11           0       -2.562342   -2.599832   -0.272212
      5         11           0       -0.270260   -0.283656   -1.622019
      6         11           0        2.822859    1.022840   -0.155109
      7         11           0       -2.726701    1.386771   -0.036771
 ---------------------------------------------------------------------

 SCF Done:  E(UB3LYP) =  -1136.12825657     A.U. after   22 cycles

 The electronic state is 2-A.
 Alpha  occ. eigenvalues --  -38.44549 -38.44451 -38.44235 -38.43867 -38.43788
 Alpha  occ. eigenvalues --  -38.43618 -38.43018  -2.20396  -2.20222  -2.20002
 Alpha  occ. eigenvalues --   -2.19703  -2.19646  -2.19513  -2.18889  -1.14085
 Alpha  occ. eigenvalues --   -1.14068  -1.14016  -1.13899  -1.13885  -1.13865
 Alpha  occ. eigenvalues --   -1.13674  -1.13665  -1.13638  -1.13366  -1.13330
 Alpha  occ. eigenvalues --   -1.13324  -1.13318  -1.13310  -1.13292  -1.13204
 Alpha  occ. eigenvalues --   -1.13156  -1.13128  -1.12567  -1.12547  -1.12534
 Alpha  occ. eigenvalues --   -0.18081  -0.13221  -0.12043  -0.10508
 Alpha virt. eigenvalues --   -0.06425  -0.05628  -0.04438  -0.03202  -0.02708
 Alpha virt. eigenvalues --   -0.02515  -0.01860  -0.01558  -0.00855  -0.00355
 Alpha virt. eigenvalues --   -0.00053   0.00299   0.00652   0.00701   0.00743

  Beta  occ. eigenvalues --  -38.44540 -38.44455 -38.44232 -38.43784 -38.43766
  Beta  occ. eigenvalues --  -38.43560 -38.43014  -2.20385  -2.20232  -2.19997
  Beta  occ. eigenvalues --   -2.19641  -2.19517  -2.19408  -2.18885  -1.14078
  Beta  occ. eigenvalues --   -1.14028  -1.14014  -1.13907  -1.13883  -1.13872
  Beta  occ. eigenvalues --   -1.13667  -1.13651  -1.13637  -1.13322  -1.13299
  Beta  occ. eigenvalues --   -1.13283  -1.13241  -1.13196  -1.13189  -1.13131
  Beta  occ. eigenvalues --   -1.13078  -1.13050  -1.12567  -1.12546  -1.12507
  Beta  occ. eigenvalues --   -0.17367  -0.13050  -0.11856
  Beta virt. eigenvalues --   -0.06639  -0.06348  -0.05466  -0.04444  -0.02523
  Beta virt. eigenvalues --   -0.02010  -0.01766  -0.01638  -0.01295  -0.00903
  Beta virt. eigenvalues --   -0.00383   0.00124   0.00344   0.00669   0.00817

 Mulliken charges and spin densities:
               1          2
     1  Na  -0.010293   0.022569
     2  Na  -0.444442   0.644916
     3  Na   0.069742  -0.048856
     4  Na  -0.060455  -0.080339
     5  Na  -0.019309   0.343938
     6  Na   0.037423   0.028108
     7  Na   0.427334   0.089665
 Sum of Mulliken charges =  -0.00000   1.00000

 Dipole moment (field-independent basis, Debye):
    X=             -0.3476    Y=             -0.5049    Z=              0.0525  Tot=              0.6152
 Quadrupole moment (field-independent basis, Debye-Ang):
   XX=            -56.6759   YY=            -60.9688   ZZ=            -76.2514
   XY=             -1.0205   XZ=              0.3224   YZ=             -0.3100

 Normal termination of Gaussian 16 at Fri Dec  8 02:06:05 2023.
