 Gaussian 16, Revision B.01,
 Gaussian 16:  ES64L-G16RevB.01 20-Dec-2017

 -------------------------
 #P B3LYP/6-311+g(d) force
 -------------------------

 -----
 DPGEN
 -----
 Symbolic Z-matrix:
 Charge =  0 Multiplicity = 2

                         Standard orientation:
 ---------------------------------------------------------------------
 Center     Atomic      Atomic             Coordinates (Angstroms)
 Number     Number       Type             X           Y           Z
 ---------------------------------------------------------------------
      1         11           0       -1.790423    1.951785   -0.221811
      2         11           0        2.093412   -1.587578    0.888901
      3         11           0        1.370967    2.010417    1.123257
      4         11           0       -3.844069   -0.566123   -0.841785
      5         11           0        0.176279   -0.687490   -1.532893
      6         11           0        3.660942    0.025879   -1.086596
      7         11           0       -1.667109   -1.146890    1.670927
 ---------------------------------------------------------------------

 SCF Done:  E(UB3LYP) =  -1136.12042274     A.U. after   28 cycles

 The electronic state is 2-A.
 Alpha  occ. eigenvalues --  -38.45194 -38.44920 -38.44666 -38.44228 -38.43950
 Alpha  occ. eigenvalues --  -38.42932 -38.42349  -2.21049  -2.20782  -2.20491
 Alpha  occ. eigenvalues --   -2.20075  -2.19862  -2.18808  -2.18184  -1.14771
 Alpha  occ. eigenvalues --   -1.14701  -1.14661  -1.14488  -1.14420  -1.14397
 Alpha  occ. eigenvalues --   -1.14163  -1.14154  -1.14126  -1.13745  -1.13718
 Alpha  occ. eigenvalues --   -1.13699  -1.13549  -1.13513  -1.13490  -1.12505
 Alpha  occ. eigenvalues --   -1.12481  -1.12427  -1.11856  -1.11842  -1.11822
 Alpha  occ. eigenvalues --   -0.18413  -0.14571  -0.11126  -0.10696
 Alpha virt. eigenvalues --   -0.07112  -0.05266  -0.04871  -0.03082  -0.02972
 Alpha virt. eigenvalues --   -0.02454  -0.02065  -0.01256  -0.00854  -0.00225
 Alpha virt. eigenvalues --    0.00062   0.00218   0.00325   0.00622   0.00721

  Beta  occ. eigenvalues --  -38.45161 -38.44892 -38.44658 -38.44168 -38.43927
  Beta  occ. eigenvalues --  -38.42928 -38.42332  -2.20992  -2.20730  -2.20477
  Beta  occ. eigenvalues --   -2.19967  -2.19826  -2.18802  -2.18152  -1.14710
  Beta  occ. eigenvalues --   -1.14667  -1.14616  -1.14461  -1.14379  -1.14357
  Beta  occ. eigenvalues --   -1.14155  -1.14136  -1.14117  -1.13671  -1.13640
  Beta  occ. eigenvalues --   -1.13614  -1.13526  -1.13481  -1.13435  -1.12503
  Beta  occ. eigenvalues --   -1.12472  -1.12416  -1.11830  -1.11816  -1.11804
  Beta  occ. eigenvalues --   -0.17719  -0.14357  -0.10579
  Beta virt. eigenvalues --   -0.07300  -0.06901  -0.04879  -0.04482  -0.02908
  Beta virt. eigenvalues --   -0.02717  -0.01833  -0.01469  -0.00848  -0.00708
  Beta virt. eigenvalues --   -0.00157   0.00101   0.00340   0.00363   0.00745

 Mulliken charges and spin densities:
               1          2
     1  Na  -0.198796   0.119521
     2  Na   0.093123   0.189138
     3  Na  -0.594425   0.167262
     4  Na   0.911699  -0.014788
     5  Na  -0.805723   0.168772
     6  Na   0.911246   0.099935
     7  Na  -0.317124   0.270160
 Sum of Mulliken charges =  -0.00000   1.00000

 Dipole moment (field-independent basis, Debye):
    X=             -0.0081    Y=             -0.3970    Z=             -0.4579  Tot=              0.6061
 Quadrupole moment (field-independent basis, Debye-Ang):
   XX=            -47.6955   YY=            -80.2970   ZZ=            -67.3864
   XY=              1.5940   XZ=              0.4743   YZ=             -2.7354

 Normal termination of Gaussian 16 at Fri Dec  8 07:38:12 2023.
