 Gaussian 16, Revision B.01,
 Gaussian 16:  ES64L-G16RevB.01 20-Dec-2017

 -------------------------
 #P B3LYP/6-311+g(d) force
 -------------------------

 -----
 DPGEN
 -----
 Symbolic Z-matrix:
 Charge =  0 Multiplicity = 2

                         Standard orientation:
 ---------------------------------------------------------------------
 Center     Atomic      Atomic             Coordinates (Angstroms)
 Number     Number       Type             X           Y           Z
 ---------------------------------------------------------------------
      1         11           0        0.579358   -2.849242   -0.488958
      2         11           0        3.301671   -0.376169    0.216076
      3         11           0       -0.094258   -0.253421    2.131651
      4         11           0       -3.060243   -1.118416    0.130493
      5         11           0       -2.243297    2.217511   -0.151505
      6         11           0        1.677071    2.613634   -0.252714
      7         11           0       -0.160301   -0.233896   -1.585042
 ---------------------------------------------------------------------

 SCF Done:  E(UB3LYP) =  -1136.13343108     A.U. after   19 cycles

 The electronic state is 2-A.
 Alpha  occ. eigenvalues --  -38.44444 -38.44405 -38.43914 -38.43800 -38.43483
 Alpha  occ. eigenvalues --  -38.43304 -38.43243  -2.20238  -2.20221  -2.19759
 Alpha  occ. eigenvalues --   -2.19609  -2.19282  -2.19222  -2.19169  -1.13912
 Alpha  occ. eigenvalues --   -1.13897  -1.13896  -1.13884  -1.13878  -1.13859
 Alpha  occ. eigenvalues --   -1.13424  -1.13389  -1.13373  -1.13288  -1.13270
 Alpha  occ. eigenvalues --   -1.13245  -1.13073  -1.12964  -1.12946  -1.12921
 Alpha  occ. eigenvalues --   -1.12884  -1.12832  -1.12802  -1.12770  -1.12748
 Alpha  occ. eigenvalues --   -0.18243  -0.13108  -0.12138  -0.10669
 Alpha virt. eigenvalues --   -0.06013  -0.05395  -0.04542  -0.03258  -0.02712
 Alpha virt. eigenvalues --   -0.02605  -0.01825  -0.01167  -0.00598  -0.00463
 Alpha virt. eigenvalues --   -0.00030   0.00339   0.00737   0.00818   0.00851

  Beta  occ. eigenvalues --  -38.44442 -38.44401 -38.43817 -38.43797 -38.43482
  Beta  occ. eigenvalues --  -38.43290 -38.43180  -2.20236  -2.20216  -2.19606
  Beta  occ. eigenvalues --   -2.19580  -2.19281  -2.19152  -2.19102  -1.13900
  Beta  occ. eigenvalues --   -1.13893  -1.13887  -1.13880  -1.13866  -1.13858
  Beta  occ. eigenvalues --   -1.13305  -1.13279  -1.13269  -1.13260  -1.13244
  Beta  occ. eigenvalues --   -1.13241  -1.13019  -1.12956  -1.12940  -1.12920
  Beta  occ. eigenvalues --   -1.12807  -1.12777  -1.12766  -1.12734  -1.12690
  Beta  occ. eigenvalues --   -0.17538  -0.12932  -0.11883
  Beta virt. eigenvalues --   -0.06774  -0.05903  -0.05415  -0.04476  -0.02526
  Beta virt. eigenvalues --   -0.02005  -0.01699  -0.01532  -0.01106  -0.00635
  Beta virt. eigenvalues --   -0.00500   0.00124   0.00373   0.00801   0.00823

 Mulliken charges and spin densities:
               1          2
     1  Na   0.232503  -0.028612
     2  Na   0.073655   0.013999
     3  Na  -0.420123   0.757059
     4  Na   0.265802  -0.000371
     5  Na  -0.045334  -0.067268
     6  Na  -0.083542  -0.067783
     7  Na  -0.022961   0.392976
 Sum of Mulliken charges =  -0.00000   1.00000

 Dipole moment (field-independent basis, Debye):
    X=             -0.1482    Y=             -0.1423    Z=              0.2698  Tot=              0.3391
 Quadrupole moment (field-independent basis, Debye-Ang):
   XX=            -53.7023   YY=            -64.2215   ZZ=            -75.3632
   XY=             -0.2601   XZ=              0.1731   YZ=             -0.3056

 Normal termination of Gaussian 16 at Thu Dec  7 21:12:03 2023.
