 Gaussian 16, Revision B.01,
 Gaussian 16:  ES64L-G16RevB.01 20-Dec-2017

 -------------------------
 #P B3LYP/6-311+g(d) force
 -------------------------

 -----
 DPGEN
 -----
 Symbolic Z-matrix:
 Charge =  0 Multiplicity = 2

                         Standard orientation:
 ---------------------------------------------------------------------
 Center     Atomic      Atomic             Coordinates (Angstroms)
 Number     Number       Type             X           Y           Z
 ---------------------------------------------------------------------
      1         11           0       -1.120224   -2.699916    0.713151
      2         11           0        3.925521   -0.768532   -0.797323
      3         11           0        2.267474    1.070275    1.723679
      4         11           0        1.016383    0.060827   -0.611216
      5         11           0       -1.221335    2.720887   -0.343536
      6         11           0       -1.934164   -0.298479   -1.787692
      7         11           0       -2.933655   -0.085062    1.102937
 ---------------------------------------------------------------------

 SCF Done:  E(UB3LYP) =  -1136.11404584     A.U. after   22 cycles

 The electronic state is 2-A.
 Alpha  occ. eigenvalues --  -38.45188 -38.44668 -38.44654 -38.43950 -38.43285
 Alpha  occ. eigenvalues --  -38.42984 -38.42612  -2.21011  -2.20548  -2.20535
 Alpha  occ. eigenvalues --   -2.19901  -2.19341  -2.18821  -2.18449  -1.14711
 Alpha  occ. eigenvalues --   -1.14651  -1.14633  -1.14314  -1.14265  -1.14209
 Alpha  occ. eigenvalues --   -1.14158  -1.14145  -1.14106  -1.13616  -1.13560
 Alpha  occ. eigenvalues --   -1.13463  -1.13072  -1.12985  -1.12942  -1.12501
 Alpha  occ. eigenvalues --   -1.12477  -1.12460  -1.12124  -1.12117  -1.12093
 Alpha  occ. eigenvalues --   -0.18231  -0.14292  -0.11373  -0.10500
 Alpha virt. eigenvalues --   -0.06856  -0.05250  -0.03947  -0.03703  -0.02502
 Alpha virt. eigenvalues --   -0.02433  -0.02114  -0.00863  -0.00524  -0.00284
 Alpha virt. eigenvalues --   -0.00127   0.00175   0.00314   0.00665   0.00751

  Beta  occ. eigenvalues --  -38.45173 -38.44626 -38.44616 -38.43899 -38.43251
  Beta  occ. eigenvalues --  -38.42980 -38.42615  -2.20983  -2.20495  -2.20438
  Beta  occ. eigenvalues --   -2.19808  -2.19288  -2.18816  -2.18456  -1.14689
  Beta  occ. eigenvalues --   -1.14633  -1.14609  -1.14249  -1.14223  -1.14169
  Beta  occ. eigenvalues --   -1.14109  -1.14090  -1.14034  -1.13542  -1.13496
  Beta  occ. eigenvalues --   -1.13401  -1.12974  -1.12956  -1.12908  -1.12496
  Beta  occ. eigenvalues --   -1.12461  -1.12456  -1.12125  -1.12124  -1.12082
  Beta  occ. eigenvalues --   -0.17601  -0.14052  -0.11164
  Beta virt. eigenvalues --   -0.06945  -0.06489  -0.04704  -0.03893  -0.03474
  Beta virt. eigenvalues --   -0.02298  -0.01869  -0.01469  -0.00641  -0.00336
  Beta virt. eigenvalues --   -0.00156   0.00112   0.00236   0.00455   0.00778

 Mulliken charges and spin densities:
               1          2
     1  Na  -0.265734   0.054715
     2  Na   0.289560  -0.011051
     3  Na  -0.043514   0.196215
     4  Na  -1.109720   0.586797
     5  Na   0.186397  -0.063258
     6  Na   0.858721  -0.045547
     7  Na   0.084290   0.282129
 Sum of Mulliken charges =  -0.00000   1.00000

 Dipole moment (field-independent basis, Debye):
    X=              1.0333    Y=             -0.1397    Z=              0.2267  Tot=              1.0671
 Quadrupole moment (field-independent basis, Debye-Ang):
   XX=            -50.4738   YY=            -72.2218   ZZ=            -69.2196
   XY=             -3.9902   XZ=             -0.3105   YZ=              2.4196

 Normal termination of Gaussian 16 at Thu Dec  7 15:08:46 2023.
