 Gaussian 16, Revision B.01,
 Gaussian 16:  ES64L-G16RevB.01 20-Dec-2017

 -------------------------
 #P B3LYP/6-311+g(d) force
 -------------------------

 -----
 DPGEN
 -----
 Symbolic Z-matrix:
 Charge =  0 Multiplicity = 2

                         Standard orientation:
 ---------------------------------------------------------------------
 Center     Atomic      Atomic             Coordinates (Angstroms)
 Number     Number       Type             X           Y           Z
 ---------------------------------------------------------------------
      1         11           0       -3.379824   -0.531695   -1.040271
      2         11           0        3.399810    0.006853   -1.731000
      3         11           0        1.408090    1.621613    2.071029
      4         11           0       -1.311147   -2.265145    1.052387
      5         11           0        1.640647   -1.574244    0.830669
      6         11           0       -1.953445    2.339381    0.138827
      7         11           0        0.195868    0.403237   -1.321641
 ---------------------------------------------------------------------

 SCF Done:  E(UB3LYP) =  -1136.12434955     A.U. after   23 cycles

 The electronic state is 2-A.
 Alpha  occ. eigenvalues --  -38.44788 -38.44766 -38.44427 -38.43789 -38.43390
 Alpha  occ. eigenvalues --  -38.43150 -38.42729  -2.20623  -2.20575  -2.20247
 Alpha  occ. eigenvalues --   -2.19731  -2.19215  -2.19086  -2.18582  -1.14291
 Alpha  occ. eigenvalues --   -1.14257  -1.14234  -1.14233  -1.14204  -1.14192
 Alpha  occ. eigenvalues --   -1.13927  -1.13897  -1.13875  -1.13442  -1.13402
 Alpha  occ. eigenvalues --   -1.13357  -1.12900  -1.12881  -1.12843  -1.12810
 Alpha  occ. eigenvalues --   -1.12744  -1.12720  -1.12259  -1.12233  -1.12217
 Alpha  occ. eigenvalues --   -0.18112  -0.13685  -0.11771  -0.11487
 Alpha virt. eigenvalues --   -0.06072  -0.05056  -0.04782  -0.03306  -0.02838
 Alpha virt. eigenvalues --   -0.02732  -0.02073  -0.01044  -0.00649   0.00044
 Alpha virt. eigenvalues --    0.00204   0.00226   0.00347   0.00523   0.00838

  Beta  occ. eigenvalues --  -38.44718 -38.44678 -38.44417 -38.43767 -38.43395
  Beta  occ. eigenvalues --  -38.43131 -38.42725  -2.20494  -2.20412  -2.20229
  Beta  occ. eigenvalues --   -2.19693  -2.19224  -2.19056  -2.18579  -1.14193
  Beta  occ. eigenvalues --   -1.14169  -1.14152  -1.14115  -1.14096  -1.14080
  Beta  occ. eigenvalues --   -1.13913  -1.13886  -1.13867  -1.13406  -1.13371
  Beta  occ. eigenvalues --   -1.13329  -1.12909  -1.12887  -1.12835  -1.12791
  Beta  occ. eigenvalues --   -1.12710  -1.12683  -1.12253  -1.12230  -1.12209
  Beta  occ. eigenvalues --   -0.17487  -0.13315  -0.11251
  Beta virt. eigenvalues --   -0.07956  -0.05774  -0.04844  -0.04349  -0.03062
  Beta virt. eigenvalues --   -0.02331  -0.02159  -0.01660  -0.00669  -0.00559
  Beta virt. eigenvalues --    0.00158   0.00257   0.00389   0.00437   0.00618

 Mulliken charges and spin densities:
               1          2
     1  Na   0.697392  -0.019317
     2  Na   0.445574   0.193651
     3  Na  -0.152019   0.368009
     4  Na  -0.397573  -0.021159
     5  Na   0.350047   0.224534
     6  Na   0.252811   0.066791
     7  Na  -1.196231   0.187492
 Sum of Mulliken charges =  -0.00000   1.00000

 Dipole moment (field-independent basis, Debye):
    X=              0.4066    Y=              0.5215    Z=             -0.1892  Tot=              0.6879
 Quadrupole moment (field-independent basis, Debye-Ang):
   XX=            -51.8480   YY=            -75.6546   ZZ=            -66.6202
   XY=              0.6492   XZ=              0.7466   YZ=              3.2378

 Normal termination of Gaussian 16 at Wed Nov 29 16:24:11 2023.
