 Gaussian 16, Revision B.01,
 Gaussian 16:  ES64L-G16RevB.01 20-Dec-2017

 -------------------------
 #P B3LYP/6-311+g(d) force
 -------------------------

 -----
 DPGEN
 -----
 Symbolic Z-matrix:
 Charge =  0 Multiplicity = 2

                         Standard orientation:
 ---------------------------------------------------------------------
 Center     Atomic      Atomic             Coordinates (Angstroms)
 Number     Number       Type             X           Y           Z
 ---------------------------------------------------------------------
      1         11           0       -3.620278    1.209123    1.149841
      2         11           0       -0.608869   -3.200943   -0.286371
      3         11           0        1.947972    2.738422   -0.948717
      4         11           0        4.295736    0.596634    0.539546
      5         11           0        3.179945   -2.589025    0.323578
      6         11           0       -3.641471   -2.249895   -0.613703
      7         11           0       -1.553034    3.495683   -0.164173
 ---------------------------------------------------------------------

 SCF Done:  E(UB3LYP) =  -1136.10829808     A.U. after   23 cycles

 The electronic state is 2-A.
 Alpha  occ. eigenvalues --  -38.45112 -38.44920 -38.44917 -38.44417 -38.44316
 Alpha  occ. eigenvalues --  -38.44170 -38.44033  -2.20880  -2.20700  -2.20692
 Alpha  occ. eigenvalues --   -2.20184  -2.20119  -2.19958  -2.19829  -1.14561
 Alpha  occ. eigenvalues --   -1.14549  -1.14534  -1.14370  -1.14363  -1.14361
 Alpha  occ. eigenvalues --   -1.14352  -1.14341  -1.14325  -1.13864  -1.13858
 Alpha  occ. eigenvalues --   -1.13830  -1.13776  -1.13768  -1.13755  -1.13616
 Alpha  occ. eigenvalues --   -1.13608  -1.13577  -1.13482  -1.13470  -1.13461
 Alpha  occ. eigenvalues --   -0.15489  -0.13964  -0.13387  -0.10750
 Alpha virt. eigenvalues --   -0.07808  -0.04900  -0.04495  -0.03552  -0.03497
 Alpha virt. eigenvalues --   -0.02292  -0.02251  -0.01842  -0.01234  -0.01125
 Alpha virt. eigenvalues --   -0.00685  -0.00249   0.00130   0.00318   0.00696

  Beta  occ. eigenvalues --  -38.45117 -38.44904 -38.44863 -38.44420 -38.44285
  Beta  occ. eigenvalues --  -38.44104 -38.43969  -2.20895  -2.20667  -2.20602
  Beta  occ. eigenvalues --   -2.20197  -2.20063  -2.19836  -2.19710  -1.14576
  Beta  occ. eigenvalues --   -1.14563  -1.14505  -1.14356  -1.14349  -1.14298
  Beta  occ. eigenvalues --   -1.14292  -1.14287  -1.14250  -1.13877  -1.13871
  Beta  occ. eigenvalues --   -1.13806  -1.13737  -1.13729  -1.13711  -1.13532
  Beta  occ. eigenvalues --   -1.13525  -1.13500  -1.13401  -1.13391  -1.13384
  Beta  occ. eigenvalues --   -0.14955  -0.13276  -0.12673
  Beta virt. eigenvalues --   -0.07910  -0.07629  -0.04441  -0.04054  -0.03320
  Beta virt. eigenvalues --   -0.03190  -0.02143  -0.02008  -0.01640  -0.01124
  Beta virt. eigenvalues --   -0.00785  -0.00412  -0.00026   0.00291   0.00328

 Mulliken charges and spin densities:
               1          2
     1  Na  -0.122656   0.239196
     2  Na  -0.170936   0.165244
     3  Na  -0.224738   0.312271
     4  Na   0.056606  -0.030383
     5  Na   0.148114   0.318733
     6  Na   0.158634   0.017474
     7  Na   0.154976  -0.022535
 Sum of Mulliken charges =  -0.00000   1.00000

 Dipole moment (field-independent basis, Debye):
    X=             -0.3695    Y=             -0.0646    Z=              0.1618  Tot=              0.4085
 Quadrupole moment (field-independent basis, Debye-Ang):
   XX=            -58.1533   YY=            -70.9202   ZZ=            -71.4330
   XY=              1.6355   XZ=              1.0399   YZ=             -0.3891

 Normal termination of Gaussian 16 at Mon Dec  4 03:01:50 2023.
