 Gaussian 16, Revision B.01,
 Gaussian 16:  ES64L-G16RevB.01 20-Dec-2017

 -------------------------
 #P B3LYP/6-311+g(d) force
 -------------------------

 -----
 DPGEN
 -----
 Symbolic Z-matrix:
 Charge =  0 Multiplicity = 2

                         Standard orientation:
 ---------------------------------------------------------------------
 Center     Atomic      Atomic             Coordinates (Angstroms)
 Number     Number       Type             X           Y           Z
 ---------------------------------------------------------------------
      1         11           0        0.479257   -0.020176    1.969448
      2         11           0        0.437141    0.103628   -1.759884
      3         11           0       -0.180373   -2.698957    0.004119
      4         11           0        1.096122    2.908500    0.455190
      5         11           0       -2.262660    1.806511   -0.597933
      6         11           0        3.346438   -0.917385   -0.356499
      7         11           0       -2.915924   -1.182122    0.285560
 ---------------------------------------------------------------------

 SCF Done:  E(UB3LYP) =  -1136.13378459     A.U. after   19 cycles

 The electronic state is 2-A.
 Alpha  occ. eigenvalues --  -38.44511 -38.43712 -38.43697 -38.43659 -38.43571
 Alpha  occ. eigenvalues --  -38.43538 -38.43448  -2.20298  -2.19604  -2.19522
 Alpha  occ. eigenvalues --   -2.19513  -2.19466  -2.19423  -2.19333  -1.13978
 Alpha  occ. eigenvalues --   -1.13945  -1.13935  -1.13285  -1.13269  -1.13245
 Alpha  occ. eigenvalues --   -1.13226  -1.13212  -1.13178  -1.13170  -1.13166
 Alpha  occ. eigenvalues --   -1.13154  -1.13146  -1.13128  -1.13101  -1.13071
 Alpha  occ. eigenvalues --   -1.13054  -1.13031  -1.13000  -1.12998  -1.12932
 Alpha  occ. eigenvalues --   -0.18453  -0.12931  -0.12447  -0.10930
 Alpha virt. eigenvalues --   -0.05997  -0.05125  -0.04417  -0.03237  -0.03023
 Alpha virt. eigenvalues --   -0.02662  -0.01825  -0.01133  -0.00383  -0.00136
 Alpha virt. eigenvalues --   -0.00027   0.00318   0.00763   0.00820   0.00896

  Beta  occ. eigenvalues --  -38.44502 -38.43684 -38.43659 -38.43626 -38.43558
  Beta  occ. eigenvalues --  -38.43472 -38.43441  -2.20282  -2.19524  -2.19493
  Beta  occ. eigenvalues --   -2.19447  -2.19401  -2.19345  -2.19323  -1.13954
  Beta  occ. eigenvalues --   -1.13931  -1.13927  -1.13247  -1.13219  -1.13205
  Beta  occ. eigenvalues --   -1.13169  -1.13155  -1.13150  -1.13137  -1.13119
  Beta  occ. eigenvalues --   -1.13096  -1.13092  -1.13074  -1.13051  -1.13027
  Beta  occ. eigenvalues --   -1.13018  -1.12990  -1.12977  -1.12964  -1.12923
  Beta  occ. eigenvalues --   -0.17751  -0.12677  -0.12177
  Beta virt. eigenvalues --   -0.07089  -0.05932  -0.04999  -0.04388  -0.02536
  Beta virt. eigenvalues --   -0.02299  -0.01739  -0.01631  -0.01028  -0.00361
  Beta virt. eigenvalues --   -0.00177   0.00095   0.00362   0.00809   0.00851

 Mulliken charges and spin densities:
               1          2
     1  Na  -0.236879   0.552182
     2  Na  -0.158761   0.442933
     3  Na   0.242802   0.061372
     4  Na  -0.042584  -0.049983
     5  Na   0.220944   0.080128
     6  Na   0.136802  -0.067294
     7  Na  -0.162325  -0.019338
 Sum of Mulliken charges =  -0.00000   1.00000

 Dipole moment (field-independent basis, Debye):
    X=              0.6354    Y=              0.0197    Z=              0.0847  Tot=              0.6413
 Quadrupole moment (field-independent basis, Debye-Ang):
   XX=            -56.1770   YY=            -64.4586   ZZ=            -73.4466
   XY=             -0.2185   XZ=             -0.2019   YZ=              0.0291

 Normal termination of Gaussian 16 at Thu Dec  7 11:55:47 2023.
