 Gaussian 16, Revision B.01,
 Gaussian 16:  ES64L-G16RevB.01 20-Dec-2017

 -------------------------
 #P B3LYP/6-311+g(d) force
 -------------------------

 -----
 DPGEN
 -----
 Symbolic Z-matrix:
 Charge =  0 Multiplicity = 2

                         Standard orientation:
 ---------------------------------------------------------------------
 Center     Atomic      Atomic             Coordinates (Angstroms)
 Number     Number       Type             X           Y           Z
 ---------------------------------------------------------------------
      1         11           0        1.638980    1.182573   -1.454279
      2         11           0       -1.324270    2.557951   -0.520300
      3         11           0       -3.990559   -0.747194    1.026175
      4         11           0       -1.672024   -1.318892   -1.271891
      5         11           0       -0.104892    0.168931    1.504593
      6         11           0        3.418824    0.021148    1.707738
      7         11           0        2.033939   -1.864518   -0.992036
 ---------------------------------------------------------------------

 SCF Done:  E(UB3LYP) =  -1136.12442725     A.U. after   23 cycles

 The electronic state is 2-A.
 Alpha  occ. eigenvalues --  -38.44616 -38.44515 -38.44365 -38.44133 -38.43864
 Alpha  occ. eigenvalues --  -38.43549 -38.42395  -2.20437  -2.20396  -2.20143
 Alpha  occ. eigenvalues --   -2.19972  -2.19736  -2.19449  -2.18230  -1.14107
 Alpha  occ. eigenvalues --   -1.14105  -1.14085  -1.14052  -1.14038  -1.14005
 Alpha  occ. eigenvalues --   -1.13823  -1.13801  -1.13784  -1.13668  -1.13616
 Alpha  occ. eigenvalues --   -1.13586  -1.13467  -1.13389  -1.13341  -1.13130
 Alpha  occ. eigenvalues --   -1.13103  -1.13058  -1.11911  -1.11890  -1.11865
 Alpha  occ. eigenvalues --   -0.18256  -0.13730  -0.11704  -0.10925
 Alpha virt. eigenvalues --   -0.06533  -0.05296  -0.04655  -0.03193  -0.02693
 Alpha virt. eigenvalues --   -0.02425  -0.02338  -0.01415  -0.00746  -0.00109
 Alpha virt. eigenvalues --    0.00081   0.00139   0.00365   0.00598   0.00654

  Beta  occ. eigenvalues --  -38.44557 -38.44476 -38.44363 -38.44104 -38.43823
  Beta  occ. eigenvalues --  -38.43523 -38.42397  -2.20328  -2.20325  -2.20138
  Beta  occ. eigenvalues --   -2.19922  -2.19666  -2.19404  -2.18235  -1.14050
  Beta  occ. eigenvalues --   -1.14021  -1.14010  -1.13992  -1.13985  -1.13945
  Beta  occ. eigenvalues --   -1.13819  -1.13798  -1.13777  -1.13636  -1.13583
  Beta  occ. eigenvalues --   -1.13533  -1.13414  -1.13345  -1.13272  -1.13093
  Beta  occ. eigenvalues --   -1.13052  -1.13035  -1.11909  -1.11893  -1.11867
  Beta  occ. eigenvalues --   -0.17506  -0.13537  -0.10799
  Beta virt. eigenvalues --   -0.07767  -0.06263  -0.04699  -0.04540  -0.02865
  Beta virt. eigenvalues --   -0.02340  -0.01949  -0.01863  -0.00954  -0.00666
  Beta virt. eigenvalues --   -0.00031   0.00158   0.00293   0.00465   0.00643

 Mulliken charges and spin densities:
               1          2
     1  Na   0.104436   0.299125
     2  Na  -0.075978  -0.100666
     3  Na   0.331571   0.018762
     4  Na  -0.201607   0.066926
     5  Na  -0.581391   0.438639
     6  Na   0.212953   0.079898
     7  Na   0.210016   0.197316
 Sum of Mulliken charges =  -0.00000   1.00000

 Dipole moment (field-independent basis, Debye):
    X=              0.1881    Y=              0.0568    Z=              0.3883  Tot=              0.4352
 Quadrupole moment (field-independent basis, Debye-Ang):
   XX=            -52.7833   YY=            -76.5184   ZZ=            -66.3225
   XY=             -1.3987   XZ=             -1.1192   YZ=              2.4902

 Normal termination of Gaussian 16 at Thu Dec  7 20:28:26 2023.
