 Gaussian 16, Revision B.01,
 Gaussian 16:  ES64L-G16RevB.01 20-Dec-2017

 -------------------------
 #P B3LYP/6-311+g(d) force
 -------------------------

 -----
 DPGEN
 -----
 Symbolic Z-matrix:
 Charge =  0 Multiplicity = 2

                         Standard orientation:
 ---------------------------------------------------------------------
 Center     Atomic      Atomic             Coordinates (Angstroms)
 Number     Number       Type             X           Y           Z
 ---------------------------------------------------------------------
      1         11           0        1.112560    1.371849    0.299146
      2         11           0       -1.366639    3.039317    0.394199
      3         11           0        4.162171    1.129670   -0.885651
      4         11           0        1.879721   -2.357350    0.384217
      5         11           0       -3.719523    0.482236   -0.846707
      6         11           0       -1.290634   -2.533602   -1.032743
      7         11           0       -0.777655   -1.132121    1.687538
 ---------------------------------------------------------------------

 SCF Done:  E(UB3LYP) =  -1136.12028670     A.U. after   21 cycles

 The electronic state is 2-A.
 Alpha  occ. eigenvalues --  -38.44638 -38.44571 -38.44383 -38.44251 -38.44028
 Alpha  occ. eigenvalues --  -38.43675 -38.42952  -2.20484  -2.20468  -2.20223
 Alpha  occ. eigenvalues --   -2.20025  -2.19855  -2.19480  -2.18867  -1.14230
 Alpha  occ. eigenvalues --   -1.14185  -1.14152  -1.14130  -1.14088  -1.14042
 Alpha  occ. eigenvalues --   -1.13895  -1.13887  -1.13823  -1.13700  -1.13664
 Alpha  occ. eigenvalues --   -1.13654  -1.13587  -1.13500  -1.13465  -1.13135
 Alpha  occ. eigenvalues --   -1.13124  -1.13099  -1.12546  -1.12532  -1.12517
 Alpha  occ. eigenvalues --   -0.17630  -0.13108  -0.12990  -0.10500
 Alpha virt. eigenvalues --   -0.06197  -0.05884  -0.04706  -0.03478  -0.02901
 Alpha virt. eigenvalues --   -0.01863  -0.01582  -0.01511  -0.01157  -0.00664
 Alpha virt. eigenvalues --   -0.00290   0.00193   0.00439   0.00450   0.00680

  Beta  occ. eigenvalues --  -38.44634 -38.44532 -38.44368 -38.44203 -38.44015
  Beta  occ. eigenvalues --  -38.43604 -38.42939  -2.20463  -2.20415  -2.20196
  Beta  occ. eigenvalues --   -2.19937  -2.19833  -2.19347  -2.18851  -1.14198
  Beta  occ. eigenvalues --   -1.14155  -1.14129  -1.14088  -1.14079  -1.14006
  Beta  occ. eigenvalues --   -1.13879  -1.13868  -1.13786  -1.13641  -1.13607
  Beta  occ. eigenvalues --   -1.13588  -1.13567  -1.13478  -1.13454  -1.13047
  Beta  occ. eigenvalues --   -1.13032  -1.13010  -1.12533  -1.12528  -1.12466
  Beta  occ. eigenvalues --   -0.17160  -0.12861  -0.12277
  Beta virt. eigenvalues --   -0.07181  -0.05948  -0.05662  -0.04402  -0.03019
  Beta virt. eigenvalues --   -0.02512  -0.01592  -0.01436  -0.01144  -0.00918
  Beta virt. eigenvalues --   -0.00508  -0.00028   0.00321   0.00510   0.00591

 Mulliken charges and spin densities:
               1          2
     1  Na  -1.647776   0.133249
     2  Na   1.059183  -0.141436
     3  Na   0.369439   0.401424
     4  Na   0.162736   0.079737
     5  Na  -0.226406   0.284252
     6  Na   0.376698   0.121411
     7  Na  -0.093874   0.121364
 Sum of Mulliken charges =  -0.00000   1.00000

 Dipole moment (field-independent basis, Debye):
    X=             -0.4138    Y=             -1.0012    Z=              0.2985  Tot=              1.1237
 Quadrupole moment (field-independent basis, Debye-Ang):
   XX=            -66.1624   YY=            -62.9644   ZZ=            -69.3983
   XY=             -6.5207   XZ=             -1.4463   YZ=              0.1186

 Normal termination of Gaussian 16 at Sun Dec  3 12:58:04 2023.
