 Gaussian 16, Revision B.01,
 Gaussian 16:  ES64L-G16RevB.01 20-Dec-2017

 -------------------------
 #P B3LYP/6-311+g(d) force
 -------------------------

 -----
 DPGEN
 -----
 Symbolic Z-matrix:
 Charge =  0 Multiplicity = 2

                         Standard orientation:
 ---------------------------------------------------------------------
 Center     Atomic      Atomic             Coordinates (Angstroms)
 Number     Number       Type             X           Y           Z
 ---------------------------------------------------------------------
      1         11           0        0.179237    3.125149   -0.340165
      2         11           0       -5.689178   -0.679970    0.511659
      3         11           0       -2.745007    1.302546    0.332385
      4         11           0       -2.948624   -1.730608   -0.834614
      5         11           0        0.200618   -0.810815   -0.244957
      6         11           0        4.002048   -0.884285    0.852955
      7         11           0        7.000905   -0.322018   -0.277263
 ---------------------------------------------------------------------

 SCF Done:  E(UB3LYP) =  -1136.11657022     A.U. after   21 cycles

 The electronic state is 2-A.
 Alpha  occ. eigenvalues --  -38.44422 -38.44388 -38.44297 -38.44288 -38.44083
 Alpha  occ. eigenvalues --  -38.43944 -38.43927  -2.20318  -2.20256  -2.20081
 Alpha  occ. eigenvalues --   -2.20056  -2.19907  -2.19765  -2.19715  -1.14046
 Alpha  occ. eigenvalues --   -1.13984  -1.13959  -1.13954  -1.13922  -1.13836
 Alpha  occ. eigenvalues --   -1.13741  -1.13729  -1.13715  -1.13714  -1.13706
 Alpha  occ. eigenvalues --   -1.13691  -1.13567  -1.13561  -1.13532  -1.13439
 Alpha  occ. eigenvalues --   -1.13429  -1.13388  -1.13383  -1.13371  -1.13343
 Alpha  occ. eigenvalues --   -0.17011  -0.13509  -0.12259  -0.11293
 Alpha virt. eigenvalues --   -0.06766  -0.05624  -0.04040  -0.03786  -0.03128
 Alpha virt. eigenvalues --   -0.02232  -0.02002  -0.01786  -0.01484  -0.00847
 Alpha virt. eigenvalues --   -0.00507  -0.00078   0.00209   0.00370   0.00554

  Beta  occ. eigenvalues --  -38.44383 -38.44360 -38.44276 -38.44246 -38.44067
  Beta  occ. eigenvalues --  -38.43948 -38.43865  -2.20250  -2.20206  -2.20034
  Beta  occ. eigenvalues --   -2.19987  -2.19876  -2.19722  -2.19655  -1.14005
  Beta  occ. eigenvalues --   -1.13943  -1.13925  -1.13885  -1.13868  -1.13790
  Beta  occ. eigenvalues --   -1.13700  -1.13700  -1.13692  -1.13677  -1.13656
  Beta  occ. eigenvalues --   -1.13634  -1.13543  -1.13540  -1.13511  -1.13393
  Beta  occ. eigenvalues --   -1.13390  -1.13368  -1.13352  -1.13336  -1.13283
  Beta  occ. eigenvalues --   -0.16304  -0.13381  -0.11836
  Beta virt. eigenvalues --   -0.07687  -0.06374  -0.05230  -0.03873  -0.03518
  Beta virt. eigenvalues --   -0.02590  -0.02163  -0.01712  -0.01557  -0.01218
  Beta virt. eigenvalues --   -0.00499  -0.00228   0.00032   0.00404   0.00444

 Mulliken charges and spin densities:
               1          2
     1  Na   0.577264   0.119609
     2  Na   0.569804   0.079812
     3  Na  -0.812826   0.324485
     4  Na   0.290786  -0.115563
     5  Na  -0.570206   0.596134
     6  Na  -0.435147  -0.043462
     7  Na   0.380325   0.038985
 Sum of Mulliken charges =  -0.00000   1.00000

 Dipole moment (field-independent basis, Debye):
    X=             -0.9487    Y=              0.2945    Z=             -0.2440  Tot=              1.0229
 Quadrupole moment (field-independent basis, Debye-Ang):
   XX=            -53.3707   YY=            -68.6724   ZZ=            -70.9231
   XY=              6.7202   XZ=             -5.2580   YZ=             -0.3245

 Normal termination of Gaussian 16 at Wed Nov 29 04:04:33 2023.
