 Gaussian 16, Revision B.01,
 Gaussian 16:  ES64L-G16RevB.01 20-Dec-2017

 -------------------------
 #P B3LYP/6-311+g(d) force
 -------------------------

 -----
 DPGEN
 -----
 Symbolic Z-matrix:
 Charge =  0 Multiplicity = 2

                         Standard orientation:
 ---------------------------------------------------------------------
 Center     Atomic      Atomic             Coordinates (Angstroms)
 Number     Number       Type             X           Y           Z
 ---------------------------------------------------------------------
      1         11           0        3.141934    0.883358    0.220503
      2         11           0        0.201849   -0.264816   -1.543387
      3         11           0       -3.796055   -1.267709   -0.540050
      4         11           0        2.822539   -2.328493   -0.253264
      5         11           0       -2.022440    1.394745    0.384615
      6         11           0        0.250024    3.308394    0.113933
      7         11           0       -0.597850   -1.725479    1.617651
 ---------------------------------------------------------------------

 SCF Done:  E(UB3LYP) =  -1136.12244381     A.U. after   23 cycles

 The electronic state is 2-A.
 Alpha  occ. eigenvalues --  -38.45123 -38.44903 -38.44334 -38.44267 -38.43587
 Alpha  occ. eigenvalues --  -38.43283 -38.43032  -2.20922  -2.20749  -2.20134
 Alpha  occ. eigenvalues --   -2.20082  -2.19517  -2.19121  -2.18877  -1.14599
 Alpha  occ. eigenvalues --   -1.14590  -1.14559  -1.14461  -1.14405  -1.14362
 Alpha  occ. eigenvalues --   -1.13815  -1.13784  -1.13762  -1.13752  -1.13734
 Alpha  occ. eigenvalues --   -1.13723  -1.13232  -1.13179  -1.13169  -1.12791
 Alpha  occ. eigenvalues --   -1.12769  -1.12718  -1.12561  -1.12521  -1.12501
 Alpha  occ. eigenvalues --   -0.17860  -0.13772  -0.12346  -0.09750
 Alpha virt. eigenvalues --   -0.06895  -0.05808  -0.04685  -0.03317  -0.02719
 Alpha virt. eigenvalues --   -0.02428  -0.01717  -0.01453  -0.01094  -0.00448
 Alpha virt. eigenvalues --   -0.00133   0.00117   0.00470   0.00606   0.00661

  Beta  occ. eigenvalues --  -38.45120 -38.44875 -38.44299 -38.44268 -38.43574
  Beta  occ. eigenvalues --  -38.43197 -38.43029  -2.20920  -2.20698  -2.20086
  Beta  occ. eigenvalues --   -2.20069  -2.19498  -2.18962  -2.18873  -1.14590
  Beta  occ. eigenvalues --   -1.14586  -1.14558  -1.14412  -1.14373  -1.14324
  Beta  occ. eigenvalues --   -1.13771  -1.13769  -1.13735  -1.13728  -1.13710
  Beta  occ. eigenvalues --   -1.13705  -1.13222  -1.13165  -1.13126  -1.12684
  Beta  occ. eigenvalues --   -1.12656  -1.12609  -1.12556  -1.12513  -1.12498
  Beta  occ. eigenvalues --   -0.17341  -0.13480  -0.12082
  Beta virt. eigenvalues --   -0.06672  -0.06193  -0.05727  -0.04508  -0.02727
  Beta virt. eigenvalues --   -0.02370  -0.02022  -0.01462  -0.01060  -0.01024
  Beta virt. eigenvalues --   -0.00291   0.00111   0.00225   0.00617   0.00693

 Mulliken charges and spin densities:
               1          2
     1  Na  -0.023515   0.071983
     2  Na  -0.323584   0.156877
     3  Na   0.450295   0.229248
     4  Na   0.383222  -0.009947
     5  Na  -0.014197   0.316068
     6  Na  -0.054729  -0.129053
     7  Na  -0.417492   0.364824
 Sum of Mulliken charges =  -0.00000   1.00000

 Dipole moment (field-independent basis, Debye):
    X=              0.9074    Y=             -0.4780    Z=             -0.0362  Tot=              1.0263
 Quadrupole moment (field-independent basis, Debye-Ang):
   XX=            -54.6817   YY=            -65.2298   ZZ=            -75.7313
   XY=              0.8476   XZ=              0.9707   YZ=              2.4799

 Normal termination of Gaussian 16 at Thu Dec  7 12:46:56 2023.
