 Gaussian 16, Revision B.01,
 Gaussian 16:  ES64L-G16RevB.01 20-Dec-2017

 -------------------------
 #P B3LYP/6-311+g(d) force
 -------------------------

 -----
 DPGEN
 -----
 Symbolic Z-matrix:
 Charge =  0 Multiplicity = 2

                         Standard orientation:
 ---------------------------------------------------------------------
 Center     Atomic      Atomic             Coordinates (Angstroms)
 Number     Number       Type             X           Y           Z
 ---------------------------------------------------------------------
      1         11           0       -0.560534    3.103345   -1.258660
      2         11           0        2.677610   -3.061460   -0.514990
      3         11           0        3.468548   -0.082832    0.799171
      4         11           0        2.154912    3.293170    0.623731
      5         11           0       -3.537281    1.340221   -0.079999
      6         11           0       -0.779224   -2.970420   -0.850994
      7         11           0       -3.424030   -1.622023    1.281742
 ---------------------------------------------------------------------

 SCF Done:  E(UB3LYP) =  -1136.11090442     A.U. after   24 cycles

 The electronic state is 2-A.
 Alpha  occ. eigenvalues --  -38.45691 -38.45328 -38.44600 -38.44387 -38.43944
 Alpha  occ. eigenvalues --  -38.43745 -38.43678  -2.21447  -2.21105  -2.20383
 Alpha  occ. eigenvalues --   -2.20167  -2.19746  -2.19566  -2.19484  -1.15134
 Alpha  occ. eigenvalues --   -1.15117  -1.15059  -1.14789  -1.14771  -1.14745
 Alpha  occ. eigenvalues --   -1.14060  -1.14045  -1.14011  -1.13844  -1.13839
 Alpha  occ. eigenvalues --   -1.13810  -1.13410  -1.13405  -1.13395  -1.13224
 Alpha  occ. eigenvalues --   -1.13212  -1.13198  -1.13143  -1.13137  -1.13116
 Alpha  occ. eigenvalues --   -0.15762  -0.13763  -0.13467  -0.10467
 Alpha virt. eigenvalues --   -0.07703  -0.04904  -0.04535  -0.03694  -0.03398
 Alpha virt. eigenvalues --   -0.02161  -0.01762  -0.01530  -0.01486  -0.01139
 Alpha virt. eigenvalues --   -0.00804  -0.00025   0.00055   0.00400   0.00741

  Beta  occ. eigenvalues --  -38.45660 -38.45308 -38.44564 -38.44386 -38.43934
  Beta  occ. eigenvalues --  -38.43696 -38.43630  -2.21393  -2.21074  -2.20316
  Beta  occ. eigenvalues --   -2.20169  -2.19729  -2.19476  -2.19395  -1.15099
  Beta  occ. eigenvalues --   -1.15085  -1.14997  -1.14772  -1.14756  -1.14679
  Beta  occ. eigenvalues --   -1.14015  -1.14001  -1.13960  -1.13850  -1.13844
  Beta  occ. eigenvalues --   -1.13786  -1.13400  -1.13399  -1.13368  -1.13161
  Beta  occ. eigenvalues --   -1.13149  -1.13140  -1.13085  -1.13077  -1.13052
  Beta  occ. eigenvalues --   -0.15256  -0.13221  -0.12933
  Beta virt. eigenvalues --   -0.07791  -0.07146  -0.04470  -0.03964  -0.03556
  Beta virt. eigenvalues --   -0.03035  -0.02002  -0.01660  -0.01339  -0.01330
  Beta virt. eigenvalues --   -0.00816  -0.00547   0.00231   0.00308   0.00406

 Mulliken charges and spin densities:
               1          2
     1  Na  -0.250568   0.213649
     2  Na   0.664786   0.117849
     3  Na  -0.376813   0.172931
     4  Na   0.193833  -0.021208
     5  Na  -0.038814   0.105106
     6  Na  -0.474820   0.161284
     7  Na   0.282395   0.250389
 Sum of Mulliken charges =  -0.00000   1.00000

 Dipole moment (field-independent basis, Debye):
    X=             -0.3344    Y=             -0.5350    Z=              0.0491  Tot=              0.6328
 Quadrupole moment (field-independent basis, Debye-Ang):
   XX=            -64.6602   YY=            -65.8166   ZZ=            -70.4370
   XY=             -1.2333   XZ=              0.5828   YZ=              1.6898

 Normal termination of Gaussian 16 at Mon Dec  4 03:24:27 2023.
