 Gaussian 16, Revision B.01,
 Gaussian 16:  ES64L-G16RevB.01 20-Dec-2017

 -------------------------
 #P B3LYP/6-311+g(d) force
 -------------------------

 -----
 DPGEN
 -----
 Symbolic Z-matrix:
 Charge =  0 Multiplicity = 2

                         Standard orientation:
 ---------------------------------------------------------------------
 Center     Atomic      Atomic             Coordinates (Angstroms)
 Number     Number       Type             X           Y           Z
 ---------------------------------------------------------------------
      1         11           0        3.751495    1.986863   -0.203968
      2         11           0       -1.078009   -2.076032   -1.613277
      3         11           0       -0.157395   -1.016269    2.208017
      4         11           0       -3.111139   -0.447985    0.205557
      5         11           0       -2.531244    2.657645   -0.131288
      6         11           0        0.512623    0.776837   -0.426573
      7         11           0        2.613669   -1.881058   -0.038468
 ---------------------------------------------------------------------

 SCF Done:  E(UB3LYP) =  -1136.11926836     A.U. after   23 cycles

 The electronic state is 2-A.
 Alpha  occ. eigenvalues --  -38.45074 -38.44420 -38.44338 -38.43996 -38.43802
 Alpha  occ. eigenvalues --  -38.43445 -38.43444  -2.20856  -2.20224  -2.20173
 Alpha  occ. eigenvalues --   -2.19799  -2.19672  -2.19379  -2.19309  -1.14541
 Alpha  occ. eigenvalues --   -1.14531  -1.14471  -1.13914  -1.13886  -1.13880
 Alpha  occ. eigenvalues --   -1.13844  -1.13841  -1.13806  -1.13461  -1.13453
 Alpha  occ. eigenvalues --   -1.13445  -1.13368  -1.13293  -1.13266  -1.13111
 Alpha  occ. eigenvalues --   -1.13048  -1.12992  -1.12967  -1.12961  -1.12902
 Alpha  occ. eigenvalues --   -0.18073  -0.13532  -0.11596  -0.10719
 Alpha virt. eigenvalues --   -0.06725  -0.06123  -0.04029  -0.03319  -0.02433
 Alpha virt. eigenvalues --   -0.02308  -0.02235  -0.01795  -0.00981  -0.00284
 Alpha virt. eigenvalues --   -0.00136   0.00158   0.00350   0.00541   0.00643

  Beta  occ. eigenvalues --  -38.45073 -38.44423 -38.44327 -38.43997 -38.43701
  Beta  occ. eigenvalues --  -38.43432 -38.43376  -2.20857  -2.20209  -2.20179
  Beta  occ. eigenvalues --   -2.19802  -2.19483  -2.19358  -2.19183  -1.14537
  Beta  occ. eigenvalues --   -1.14517  -1.14476  -1.13891  -1.13881  -1.13848
  Beta  occ. eigenvalues --   -1.13846  -1.13845  -1.13810  -1.13464  -1.13453
  Beta  occ. eigenvalues --   -1.13443  -1.13244  -1.13162  -1.13138  -1.13052
  Beta  occ. eigenvalues --   -1.13037  -1.12977  -1.12887  -1.12878  -1.12816
  Beta  occ. eigenvalues --   -0.17396  -0.13360  -0.11380
  Beta virt. eigenvalues --   -0.06882  -0.06503  -0.06025  -0.03736  -0.02645
  Beta virt. eigenvalues --   -0.02257  -0.01850  -0.01803  -0.01423  -0.00951
  Beta virt. eigenvalues --   -0.00128   0.00042   0.00242   0.00490   0.00552

 Mulliken charges and spin densities:
               1          2
     1  Na   0.014819  -0.076066
     2  Na   0.137154   0.152192
     3  Na  -0.293526   0.296494
     4  Na   0.991219   0.305993
     5  Na  -0.010524  -0.113896
     6  Na  -1.584432   0.347128
     7  Na   0.745291   0.088154
 Sum of Mulliken charges =  -0.00000   1.00000

 Dipole moment (field-independent basis, Debye):
    X=              0.6451    Y=             -0.4249    Z=              0.3001  Tot=              0.8288
 Quadrupole moment (field-independent basis, Debye-Ang):
   XX=            -53.0774   YY=            -65.7617   ZZ=            -74.3890
   XY=             -2.3523   XZ=             -0.5765   YZ=              0.2231

 Normal termination of Gaussian 16 at Tue Dec  5 20:42:04 2023.
