 Gaussian 16, Revision B.01,
 Gaussian 16:  ES64L-G16RevB.01 20-Dec-2017

 -------------------------
 #P B3LYP/6-311+g(d) force
 -------------------------

 -----
 DPGEN
 -----
 Symbolic Z-matrix:
 Charge =  0 Multiplicity = 2

                         Standard orientation:
 ---------------------------------------------------------------------
 Center     Atomic      Atomic             Coordinates (Angstroms)
 Number     Number       Type             X           Y           Z
 ---------------------------------------------------------------------
      1         11           0        1.181823    2.319749   -0.420818
      2         11           0       -2.642366   -1.827106    0.278965
      3         11           0       -1.943720    0.628888   -1.790554
      4         11           0        0.867568   -0.607912    1.824495
      5         11           0        4.049447   -0.532648   -0.087617
      6         11           0        0.528945   -1.409706   -1.196098
      7         11           0       -2.041696    1.428734    1.391627
 ---------------------------------------------------------------------

 SCF Done:  E(UB3LYP) =  -1136.12739206     A.U. after   23 cycles

 The electronic state is 2-A.
 Alpha  occ. eigenvalues --  -38.45286 -38.44392 -38.43895 -38.43498 -38.43471
 Alpha  occ. eigenvalues --  -38.43445 -38.43035  -2.21038  -2.20267  -2.19816
 Alpha  occ. eigenvalues --   -2.19378  -2.19368  -2.19300  -2.18837  -1.14719
 Alpha  occ. eigenvalues --   -1.14698  -1.14660  -1.13994  -1.13898  -1.13865
 Alpha  occ. eigenvalues --   -1.13516  -1.13486  -1.13409  -1.13098  -1.13051
 Alpha  occ. eigenvalues --   -1.13042  -1.13039  -1.12988  -1.12974  -1.12963
 Alpha  occ. eigenvalues --   -1.12945  -1.12923  -1.12527  -1.12513  -1.12450
 Alpha  occ. eigenvalues --   -0.18532  -0.13552  -0.11513  -0.11017
 Alpha virt. eigenvalues --   -0.06766  -0.04820  -0.04344  -0.03125  -0.02819
 Alpha virt. eigenvalues --   -0.02650  -0.02408  -0.00889  -0.00695  -0.00109
 Alpha virt. eigenvalues --    0.00217   0.00272   0.00312   0.00713   0.00869

  Beta  occ. eigenvalues --  -38.45288 -38.44333 -38.43837 -38.43464 -38.43439
  Beta  occ. eigenvalues --  -38.43438 -38.43026  -2.21044  -2.20160  -2.19710
  Beta  occ. eigenvalues --   -2.19323  -2.19307  -2.19293  -2.18822  -1.14718
  Beta  occ. eigenvalues --   -1.14703  -1.14664  -1.13925  -1.13822  -1.13776
  Beta  occ. eigenvalues --   -1.13434  -1.13415  -1.13333  -1.13061  -1.13009
  Beta  occ. eigenvalues --   -1.12987  -1.12983  -1.12964  -1.12953  -1.12937
  Beta  occ. eigenvalues --   -1.12913  -1.12901  -1.12516  -1.12488  -1.12443
  Beta  occ. eigenvalues --   -0.17729  -0.13429  -0.10833
  Beta virt. eigenvalues --   -0.07457  -0.06609  -0.04764  -0.03767  -0.02946
  Beta virt. eigenvalues --   -0.02348  -0.02069  -0.01794  -0.00815  -0.00308
  Beta virt. eigenvalues --   -0.00093   0.00246   0.00286   0.00454   0.00774

 Mulliken charges and spin densities:
               1          2
     1  Na  -0.400771  -0.050373
     2  Na   0.215226  -0.008867
     3  Na   0.258554   0.275757
     4  Na  -0.153792   0.299868
     5  Na   0.270518  -0.017792
     6  Na  -0.203937   0.248173
     7  Na   0.014202   0.253233
 Sum of Mulliken charges =  -0.00000   1.00000

 Dipole moment (field-independent basis, Debye):
    X=              1.0758    Y=             -0.1368    Z=              0.1206  Tot=              1.0911
 Quadrupole moment (field-independent basis, Debye-Ang):
   XX=            -47.3344   YY=            -76.9164   ZZ=            -67.9371
   XY=              0.1736   XZ=             -1.4042   YZ=             -1.8078

 Normal termination of Gaussian 16 at Thu Dec  7 13:13:42 2023.
