 Gaussian 16, Revision B.01,
 Gaussian 16:  ES64L-G16RevB.01 20-Dec-2017

 -------------------------
 #P B3LYP/6-311+g(d) force
 -------------------------

 -----
 DPGEN
 -----
 Symbolic Z-matrix:
 Charge =  0 Multiplicity = 2

                         Standard orientation:
 ---------------------------------------------------------------------
 Center     Atomic      Atomic             Coordinates (Angstroms)
 Number     Number       Type             X           Y           Z
 ---------------------------------------------------------------------
      1         11           0        3.059126    0.760181   -0.342678
      2         11           0        0.019403   -0.013619    1.793999
      3         11           0       -2.961346    1.162617   -0.323835
      4         11           0       -0.311168   -0.215954   -1.656795
      5         11           0        0.281812    2.849551    0.294798
      6         11           0        1.805951   -2.258424   -0.027031
      7         11           0       -1.893778   -2.284351    0.261542
 ---------------------------------------------------------------------

 SCF Done:  E(UB3LYP) =  -1136.13893455     A.U. after   19 cycles

 The electronic state is 2-A.
 Alpha  occ. eigenvalues --  -38.44038 -38.43893 -38.43601 -38.43422 -38.43241
 Alpha  occ. eigenvalues --  -38.43187 -38.43121  -2.19871  -2.19732  -2.19473
 Alpha  occ. eigenvalues --   -2.19304  -2.19173  -2.19096  -2.19092  -1.13563
 Alpha  occ. eigenvalues --   -1.13523  -1.13502  -1.13405  -1.13397  -1.13376
 Alpha  occ. eigenvalues --   -1.13174  -1.13153  -1.13091  -1.12998  -1.12980
 Alpha  occ. eigenvalues --   -1.12927  -1.12870  -1.12829  -1.12799  -1.12788
 Alpha  occ. eigenvalues --   -1.12758  -1.12747  -1.12719  -1.12702  -1.12688
 Alpha  occ. eigenvalues --   -0.18893  -0.13153  -0.12509  -0.10619
 Alpha virt. eigenvalues --   -0.05605  -0.05258  -0.04594  -0.03150  -0.02835
 Alpha virt. eigenvalues --   -0.02296  -0.01591  -0.01175  -0.00330  -0.00263
 Alpha virt. eigenvalues --    0.00025   0.00349   0.00811   0.00875   0.00908

  Beta  occ. eigenvalues --  -38.44029 -38.43887 -38.43592 -38.43416 -38.43232
  Beta  occ. eigenvalues --  -38.43123 -38.43035  -2.19857  -2.19723  -2.19460
  Beta  occ. eigenvalues --   -2.19297  -2.19083  -2.19055  -2.18937  -1.13542
  Beta  occ. eigenvalues --   -1.13507  -1.13493  -1.13402  -1.13382  -1.13361
  Beta  occ. eigenvalues --   -1.13166  -1.13117  -1.13081  -1.12991  -1.12953
  Beta  occ. eigenvalues --   -1.12915  -1.12808  -1.12774  -1.12738  -1.12716
  Beta  occ. eigenvalues --   -1.12707  -1.12699  -1.12655  -1.12600  -1.12584
  Beta  occ. eigenvalues --   -0.18185  -0.12877  -0.12240
  Beta virt. eigenvalues --   -0.06750  -0.05528  -0.05255  -0.04575  -0.02390
  Beta virt. eigenvalues --   -0.02059  -0.01478  -0.01276  -0.01110  -0.00348
  Beta virt. eigenvalues --   -0.00316   0.00145   0.00383   0.00859   0.00881

 Mulliken charges and spin densities:
               1          2
     1  Na  -0.051932  -0.011895
     2  Na  -0.210716   0.648224
     3  Na   0.081416  -0.060540
     4  Na  -0.310210   0.599983
     5  Na   0.072599  -0.054676
     6  Na   0.202493  -0.042266
     7  Na   0.216350  -0.078829
 Sum of Mulliken charges =  -0.00000   1.00000

 Dipole moment (field-independent basis, Debye):
    X=             -0.1776    Y=             -0.0157    Z=             -0.0135  Tot=              0.1788
 Quadrupole moment (field-independent basis, Debye-Ang):
   XX=            -55.2284   YY=            -62.2836   ZZ=            -75.0472
   XY=              0.1465   XZ=             -0.8276   YZ=             -0.7289

 Normal termination of Gaussian 16 at Thu Dec  7 19:08:02 2023.
