 Gaussian 16, Revision B.01,
 Gaussian 16:  ES64L-G16RevB.01 20-Dec-2017

 -------------------------
 #P B3LYP/6-311+g(d) force
 -------------------------

 -----
 DPGEN
 -----
 Symbolic Z-matrix:
 Charge =  0 Multiplicity = 2

                         Standard orientation:
 ---------------------------------------------------------------------
 Center     Atomic      Atomic             Coordinates (Angstroms)
 Number     Number       Type             X           Y           Z
 ---------------------------------------------------------------------
      1         11           0        2.098058    0.144952    1.513936
      2         11           0        3.778329   -0.979241   -0.672979
      3         11           0       -3.681229   -0.705277   -1.199733
      4         11           0       -1.172106   -1.254816    1.781201
      5         11           0        1.350707    2.228161   -1.026517
      6         11           0       -2.215306    1.745949    0.796622
      7         11           0       -0.158454   -1.179729   -1.192529
 ---------------------------------------------------------------------

 SCF Done:  E(UB3LYP) =  -1136.11393734     A.U. after   34 cycles

 The electronic state is 2-A.
 Alpha  occ. eigenvalues --  -38.44970 -38.44843 -38.44503 -38.44419 -38.44086
 Alpha  occ. eigenvalues --  -38.43731 -38.43036  -2.20788  -2.20652  -2.20357
 Alpha  occ. eigenvalues --   -2.20329  -2.19990  -2.19546  -2.18848  -1.14539
 Alpha  occ. eigenvalues --   -1.14421  -1.14412  -1.14317  -1.14305  -1.14266
 Alpha  occ. eigenvalues --   -1.14115  -1.14022  -1.14001  -1.13984  -1.13949
 Alpha  occ. eigenvalues --   -1.13944  -1.13674  -1.13630  -1.13583  -1.13238
 Alpha  occ. eigenvalues --   -1.13207  -1.13170  -1.12541  -1.12518  -1.12455
 Alpha  occ. eigenvalues --   -0.18287  -0.14319  -0.11380  -0.10483
 Alpha virt. eigenvalues --   -0.07219  -0.05571  -0.04599  -0.03156  -0.02867
 Alpha virt. eigenvalues --   -0.02441  -0.02203  -0.01540  -0.00593  -0.00301
 Alpha virt. eigenvalues --    0.00041   0.00098   0.00207   0.00598   0.00618

  Beta  occ. eigenvalues --  -38.44965 -38.44799 -38.44489 -38.44393 -38.44009
  Beta  occ. eigenvalues --  -38.43723 -38.43020  -2.20779  -2.20569  -2.20334
  Beta  occ. eigenvalues --   -2.20285  -2.19851  -2.19536  -2.18819  -1.14534
  Beta  occ. eigenvalues --   -1.14413  -1.14401  -1.14255  -1.14247  -1.14216
  Beta  occ. eigenvalues --   -1.14077  -1.14005  -1.13970  -1.13936  -1.13928
  Beta  occ. eigenvalues --   -1.13911  -1.13586  -1.13533  -1.13471  -1.13213
  Beta  occ. eigenvalues --   -1.13194  -1.13167  -1.12518  -1.12500  -1.12431
  Beta  occ. eigenvalues --   -0.17584  -0.14067  -0.10343
  Beta virt. eigenvalues --   -0.07530  -0.07011  -0.05196  -0.04178  -0.02823
  Beta virt. eigenvalues --   -0.02669  -0.01946  -0.01607  -0.01277  -0.00365
  Beta virt. eigenvalues --   -0.00180   0.00095   0.00232   0.00277   0.00649

 Mulliken charges and spin densities:
               1          2
     1  Na   0.254987  -0.057978
     2  Na   0.352709   0.098179
     3  Na   0.386428   0.067847
     4  Na   0.239632   0.295155
     5  Na  -0.259531   0.103085
     6  Na  -0.360002   0.137493
     7  Na  -0.614222   0.356219
 Sum of Mulliken charges =  -0.00000   1.00000

 Dipole moment (field-independent basis, Debye):
    X=             -0.0408    Y=             -0.3965    Z=             -0.1818  Tot=              0.4381
 Quadrupole moment (field-independent basis, Debye-Ang):
   XX=            -47.5035   YY=            -81.0990   ZZ=            -66.3157
   XY=             -1.2384   XZ=             -0.7138   YZ=             -0.1658

 Normal termination of Gaussian 16 at Thu Dec  7 19:12:22 2023.
