 Gaussian 16, Revision B.01,
 Gaussian 16:  ES64L-G16RevB.01 20-Dec-2017

 -------------------------
 #P B3LYP/6-311+g(d) force
 -------------------------

 -----
 DPGEN
 -----
 Symbolic Z-matrix:
 Charge =  0 Multiplicity = 2

                         Standard orientation:
 ---------------------------------------------------------------------
 Center     Atomic      Atomic             Coordinates (Angstroms)
 Number     Number       Type             X           Y           Z
 ---------------------------------------------------------------------
      1         11           0        0.157884   -0.033269    2.191487
      2         11           0       -0.272652    0.041711   -1.525754
      3         11           0        3.140679   -1.228018   -0.183826
      4         11           0       -1.612190    2.415400    0.214390
      5         11           0       -0.417660   -2.570886    0.014237
      6         11           0       -3.399728   -0.583894   -0.323054
      7         11           0        2.403668    1.958956   -0.387480
 ---------------------------------------------------------------------

 SCF Done:  E(UB3LYP) =  -1136.13225397     A.U. after   19 cycles

 The electronic state is 2-A.
 Alpha  occ. eigenvalues --  -38.44685 -38.44403 -38.43737 -38.43723 -38.43523
 Alpha  occ. eigenvalues --  -38.43245 -38.42822  -2.20500  -2.20209  -2.19612
 Alpha  occ. eigenvalues --   -2.19549  -2.19512  -2.19090  -2.18712  -1.14175
 Alpha  occ. eigenvalues --   -1.14148  -1.14138  -1.13882  -1.13878  -1.13843
 Alpha  occ. eigenvalues --   -1.13281  -1.13239  -1.13236  -1.13227  -1.13225
 Alpha  occ. eigenvalues --   -1.13209  -1.13191  -1.13175  -1.13112  -1.12773
 Alpha  occ. eigenvalues --   -1.12755  -1.12712  -1.12427  -1.12378  -1.12306
 Alpha  occ. eigenvalues --   -0.18511  -0.13402  -0.11864  -0.10829
 Alpha virt. eigenvalues --   -0.06289  -0.05286  -0.04010  -0.03281  -0.02687
 Alpha virt. eigenvalues --   -0.02654  -0.02145  -0.01167  -0.00372  -0.00185
 Alpha virt. eigenvalues --   -0.00075   0.00279   0.00693   0.00845   0.00865

  Beta  occ. eigenvalues --  -38.44677 -38.44400 -38.43715 -38.43626 -38.43479
  Beta  occ. eigenvalues --  -38.43238 -38.42814  -2.20487  -2.20205  -2.19537
  Beta  occ. eigenvalues --   -2.19433  -2.19406  -2.19081  -2.18702  -1.14152
  Beta  occ. eigenvalues --   -1.14140  -1.14133  -1.13883  -1.13862  -1.13839
  Beta  occ. eigenvalues --   -1.13220  -1.13202  -1.13180  -1.13168  -1.13140
  Beta  occ. eigenvalues --   -1.13123  -1.13091  -1.13077  -1.13052  -1.12767
  Beta  occ. eigenvalues --   -1.12728  -1.12707  -1.12421  -1.12342  -1.12300
  Beta  occ. eigenvalues --   -0.17807  -0.13152  -0.11633
  Beta virt. eigenvalues --   -0.06908  -0.06179  -0.05288  -0.03973  -0.02591
  Beta virt. eigenvalues --   -0.02035  -0.01897  -0.01580  -0.01125  -0.00386
  Beta virt. eigenvalues --   -0.00202   0.00084   0.00327   0.00771   0.00846

 Mulliken charges and spin densities:
               1          2
     1  Na  -0.498215   0.696164
     2  Na  -0.401212   0.276674
     3  Na   0.108369  -0.016643
     4  Na   0.112912   0.018931
     5  Na   0.207213  -0.006989
     6  Na   0.301360   0.003875
     7  Na   0.169572   0.027989
 Sum of Mulliken charges =  -0.00000   1.00000

 Dipole moment (field-independent basis, Debye):
    X=             -0.1317    Y=             -0.0891    Z=              0.1508  Tot=              0.2192
 Quadrupole moment (field-independent basis, Debye-Ang):
   XX=            -50.8664   YY=            -68.0906   ZZ=            -73.9163
   XY=             -0.3959   XZ=             -0.3473   YZ=              0.2301

 Normal termination of Gaussian 16 at Fri Dec  8 04:21:02 2023.
