 Gaussian 16, Revision B.01,
 Gaussian 16:  ES64L-G16RevB.01 20-Dec-2017

 -------------------------
 #P B3LYP/6-311+g(d) force
 -------------------------

 -----
 DPGEN
 -----
 Symbolic Z-matrix:
 Charge =  0 Multiplicity = 2

                         Standard orientation:
 ---------------------------------------------------------------------
 Center     Atomic      Atomic             Coordinates (Angstroms)
 Number     Number       Type             X           Y           Z
 ---------------------------------------------------------------------
      1         11           0        4.205636    0.053042    0.670493
      2         11           0       -4.140449   -1.556092    0.214856
      3         11           0       -4.201227    1.314306   -0.190604
      4         11           0        2.810864    3.084333   -0.540791
      5         11           0       -0.855025    2.864247    0.292937
      6         11           0       -0.588649   -2.556420   -0.082476
      7         11           0        2.768848   -3.203416   -0.364416
 ---------------------------------------------------------------------

 SCF Done:  E(UB3LYP) =  -1136.10612472     A.U. after   26 cycles

 The electronic state is 2-A.
 Alpha  occ. eigenvalues --  -38.45424 -38.45187 -38.44714 -38.44502 -38.44291
 Alpha  occ. eigenvalues --  -38.44236 -38.43934  -2.21249  -2.20947  -2.20489
 Alpha  occ. eigenvalues --   -2.20245  -2.20095  -2.20063  -2.19714  -1.14982
 Alpha  occ. eigenvalues --   -1.14905  -1.14880  -1.14628  -1.14619  -1.14559
 Alpha  occ. eigenvalues --   -1.14158  -1.14139  -1.14109  -1.13933  -1.13915
 Alpha  occ. eigenvalues --   -1.13890  -1.13774  -1.13736  -1.13722  -1.13719
 Alpha  occ. eigenvalues --   -1.13714  -1.13710  -1.13375  -1.13368  -1.13321
 Alpha  occ. eigenvalues --   -0.15849  -0.14164  -0.12959  -0.10608
 Alpha virt. eigenvalues --   -0.07821  -0.05209  -0.04326  -0.03610  -0.03278
 Alpha virt. eigenvalues --   -0.02845  -0.02180  -0.02035  -0.01137  -0.00510
 Alpha virt. eigenvalues --   -0.00264  -0.00131   0.00027   0.00221   0.00474

  Beta  occ. eigenvalues --  -38.45407 -38.45154 -38.44655 -38.44518 -38.44291
  Beta  occ. eigenvalues --  -38.44188 -38.43857  -2.21226  -2.20887  -2.20381
  Beta  occ. eigenvalues --   -2.20280  -2.20066  -2.20008  -2.19570  -1.14947
  Beta  occ. eigenvalues --   -1.14896  -1.14836  -1.14590  -1.14579  -1.14506
  Beta  occ. eigenvalues --   -1.14084  -1.14068  -1.14035  -1.13960  -1.13942
  Beta  occ. eigenvalues --   -1.13887  -1.13740  -1.13725  -1.13713  -1.13697
  Beta  occ. eigenvalues --   -1.13663  -1.13651  -1.13276  -1.13270  -1.13228
  Beta  occ. eigenvalues --   -0.15263  -0.13621  -0.12365
  Beta virt. eigenvalues --   -0.07872  -0.07332  -0.04835  -0.03883  -0.03344
  Beta virt. eigenvalues --   -0.02840  -0.02647  -0.02043  -0.01894  -0.01020
  Beta virt. eigenvalues --   -0.00219  -0.00100   0.00097   0.00261   0.00316

 Mulliken charges and spin densities:
               1          2
     1  Na  -0.205735   0.327464
     2  Na   0.526191   0.368948
     3  Na   0.200114   0.052329
     4  Na   0.068690  -0.079044
     5  Na  -0.310083   0.361537
     6  Na  -0.930343   0.243734
     7  Na   0.651167  -0.274968
 Sum of Mulliken charges =  -0.00000   1.00000

 Dipole moment (field-independent basis, Debye):
    X=             -0.3268    Y=             -0.4759    Z=             -0.1179  Tot=              0.5892
 Quadrupole moment (field-independent basis, Debye-Ang):
   XX=            -59.6154   YY=            -67.6467   ZZ=            -72.7048
   XY=             -4.2345   XZ=             -0.1018   YZ=             -1.9114

 Normal termination of Gaussian 16 at Mon Dec  4 04:29:31 2023.
