 Gaussian 16, Revision B.01,
 Gaussian 16:  ES64L-G16RevB.01 20-Dec-2017

 -------------------------
 #P B3LYP/6-311+g(d) force
 -------------------------

 -----
 DPGEN
 -----
 Symbolic Z-matrix:
 Charge =  0 Multiplicity = 2

                         Standard orientation:
 ---------------------------------------------------------------------
 Center     Atomic      Atomic             Coordinates (Angstroms)
 Number     Number       Type             X           Y           Z
 ---------------------------------------------------------------------
      1         11           0        0.031338    0.266924   -0.603820
      2         11           0        0.396942   -2.847985   -1.300672
      3         11           0        3.388300   -0.202669   -0.305046
      4         11           0        0.818677   -1.457949    2.330498
      5         11           0       -3.273740   -1.036979   -0.098151
      6         11           0       -2.766188    1.871836    0.150665
      7         11           0        1.404671    3.406823   -0.173475
 ---------------------------------------------------------------------

 SCF Done:  E(UB3LYP) =  -1136.12095445     A.U. after   22 cycles

 The electronic state is 2-A.
 Alpha  occ. eigenvalues --  -38.45460 -38.44481 -38.44206 -38.43905 -38.43627
 Alpha  occ. eigenvalues --  -38.43608 -38.42787  -2.21220  -2.20315  -2.20057
 Alpha  occ. eigenvalues --   -2.19661  -2.19451  -2.19435  -2.18791  -1.14902
 Alpha  occ. eigenvalues --   -1.14887  -1.14842  -1.14075  -1.13967  -1.13944
 Alpha  occ. eigenvalues --   -1.13719  -1.13702  -1.13664  -1.13337  -1.13325
 Alpha  occ. eigenvalues --   -1.13298  -1.13148  -1.13094  -1.13089  -1.13068
 Alpha  occ. eigenvalues --   -1.13058  -1.13038  -1.12510  -1.12453  -1.12422
 Alpha  occ. eigenvalues --   -0.17564  -0.13381  -0.12052  -0.10202
 Alpha virt. eigenvalues --   -0.06536  -0.05448  -0.04914  -0.03079  -0.02471
 Alpha virt. eigenvalues --   -0.02184  -0.02091  -0.01409  -0.01002  -0.00839
 Alpha virt. eigenvalues --   -0.00147   0.00260   0.00464   0.00622   0.00762

  Beta  occ. eigenvalues --  -38.45458 -38.44481 -38.44204 -38.43910 -38.43578
  Beta  occ. eigenvalues --  -38.43499 -38.42769  -2.21218  -2.20317  -2.20054
  Beta  occ. eigenvalues --   -2.19670  -2.19362  -2.19231  -2.18763  -1.14893
  Beta  occ. eigenvalues --   -1.14873  -1.14843  -1.14076  -1.13960  -1.13945
  Beta  occ. eigenvalues --   -1.13717  -1.13696  -1.13665  -1.13341  -1.13332
  Beta  occ. eigenvalues --   -1.13305  -1.13084  -1.13021  -1.13006  -1.12954
  Beta  occ. eigenvalues --   -1.12916  -1.12904  -1.12454  -1.12439  -1.12404
  Beta  occ. eigenvalues --   -0.17028  -0.13204  -0.11833
  Beta virt. eigenvalues --   -0.06495  -0.06195  -0.05407  -0.04700  -0.02522
  Beta virt. eigenvalues --   -0.02100  -0.01923  -0.01516  -0.01199  -0.00866
  Beta virt. eigenvalues --   -0.00753   0.00159   0.00340   0.00639   0.00654

 Mulliken charges and spin densities:
               1          2
     1  Na  -2.149187   0.513160
     2  Na   1.143957   0.210827
     3  Na   0.536538   0.089226
     4  Na  -0.577155   0.439413
     5  Na   0.960544   0.055578
     6  Na  -0.231322  -0.155953
     7  Na   0.316624  -0.152251
 Sum of Mulliken charges =  -0.00000   1.00000

 Dipole moment (field-independent basis, Debye):
    X=              0.1394    Y=              0.0289    Z=             -0.0740  Tot=              0.1604
 Quadrupole moment (field-independent basis, Debye-Ang):
   XX=            -51.9677   YY=            -62.2345   ZZ=            -77.8124
   XY=              0.4876   XZ=             -2.0660   YZ=              2.2792

 Normal termination of Gaussian 16 at Tue Dec  5 17:07:17 2023.
