 Gaussian 16, Revision B.01,
 Gaussian 16:  ES64L-G16RevB.01 20-Dec-2017

 -------------------------
 #P B3LYP/6-311+g(d) force
 -------------------------

 -----
 DPGEN
 -----
 Symbolic Z-matrix:
 Charge =  0 Multiplicity = 2

                         Standard orientation:
 ---------------------------------------------------------------------
 Center     Atomic      Atomic             Coordinates (Angstroms)
 Number     Number       Type             X           Y           Z
 ---------------------------------------------------------------------
      1         11           0        2.351371    1.167480    0.349833
      2         11           0       -0.789124    0.397923    1.875431
      3         11           0       -2.971189   -2.248657    0.138505
      4         11           0        0.652665   -2.229651    0.389471
      5         11           0        4.035429   -1.052138   -1.050511
      6         11           0       -2.873430    0.730478   -1.768086
      7         11           0       -0.405721    3.234564    0.065357
 ---------------------------------------------------------------------

 SCF Done:  E(UB3LYP) =  -1136.12866100     A.U. after   20 cycles

 The electronic state is 2-A.
 Alpha  occ. eigenvalues --  -38.44622 -38.44142 -38.44120 -38.44086 -38.43752
 Alpha  occ. eigenvalues --  -38.43688 -38.43335  -2.20412  -2.20002  -2.19956
 Alpha  occ. eigenvalues --   -2.19874  -2.19580  -2.19560  -2.19151  -1.14073
 Alpha  occ. eigenvalues --   -1.14041  -1.14029  -1.13733  -1.13656  -1.13649
 Alpha  occ. eigenvalues --   -1.13641  -1.13595  -1.13559  -1.13541  -1.13534
 Alpha  occ. eigenvalues --   -1.13504  -1.13325  -1.13250  -1.13245  -1.13219
 Alpha  occ. eigenvalues --   -1.13199  -1.13122  -1.12828  -1.12807  -1.12795
 Alpha  occ. eigenvalues --   -0.17394  -0.13635  -0.12316  -0.10985
 Alpha virt. eigenvalues --   -0.05819  -0.05377  -0.05014  -0.03660  -0.03061
 Alpha virt. eigenvalues --   -0.02232  -0.01702  -0.01171  -0.00817  -0.00566
 Alpha virt. eigenvalues --   -0.00335   0.00278   0.00467   0.00504   0.00576

  Beta  occ. eigenvalues --  -38.44533 -38.44124 -38.44089 -38.44061 -38.43709
  Beta  occ. eigenvalues --  -38.43682 -38.43338  -2.20247  -2.19927  -2.19896
  Beta  occ. eigenvalues --   -2.19883  -2.19553  -2.19499  -2.19158  -1.13961
  Beta  occ. eigenvalues --   -1.13933  -1.13912  -1.13673  -1.13624  -1.13599
  Beta  occ. eigenvalues --   -1.13580  -1.13566  -1.13546  -1.13528  -1.13504
  Beta  occ. eigenvalues --   -1.13490  -1.13281  -1.13244  -1.13231  -1.13167
  Beta  occ. eigenvalues --   -1.13147  -1.13090  -1.12834  -1.12814  -1.12786
  Beta  occ. eigenvalues --   -0.16790  -0.13013  -0.12162
  Beta virt. eigenvalues --   -0.07477  -0.05596  -0.05128  -0.04625  -0.03298
  Beta virt. eigenvalues --   -0.02487  -0.01845  -0.01485  -0.01069  -0.00664
  Beta virt. eigenvalues --   -0.00431   0.00011   0.00369   0.00595   0.00671

 Mulliken charges and spin densities:
               1          2
     1  Na  -0.445521  -0.020351
     2  Na   0.025132   0.269461
     3  Na   0.253129   0.029716
     4  Na  -0.362601  -0.065897
     5  Na   0.532397   0.272278
     6  Na  -0.152426   0.479090
     7  Na   0.149890   0.035703
 Sum of Mulliken charges =  -0.00000   1.00000

 Dipole moment (field-independent basis, Debye):
    X=             -0.3023    Y=             -0.3278    Z=             -0.0378  Tot=              0.4475
 Quadrupole moment (field-independent basis, Debye-Ang):
   XX=            -64.3598   YY=            -64.6024   ZZ=            -69.0571
   XY=              1.2492   XZ=             -2.7218   YZ=             -0.0572

 Normal termination of Gaussian 16 at Tue Nov 28 20:18:28 2023.
