 Gaussian 16, Revision B.01,
 Gaussian 16:  ES64L-G16RevB.01 20-Dec-2017

 -------------------------
 #P B3LYP/6-311+g(d) force
 -------------------------

 -----
 DPGEN
 -----
 Symbolic Z-matrix:
 Charge =  0 Multiplicity = 2

                         Standard orientation:
 ---------------------------------------------------------------------
 Center     Atomic      Atomic             Coordinates (Angstroms)
 Number     Number       Type             X           Y           Z
 ---------------------------------------------------------------------
      1         11           0        0.058179    3.115704   -0.056010
      2         11           0        1.969387   -2.612718   -0.613148
      3         11           0        3.265230    0.841147    0.221363
      4         11           0       -0.200398   -0.331709   -1.445059
      5         11           0       -2.798927   -2.203108    0.414795
      6         11           0        0.255125   -0.349747    1.828410
      7         11           0       -2.548596    1.540431   -0.350351
 ---------------------------------------------------------------------

 SCF Done:  E(UB3LYP) =  -1136.13008878     A.U. after   20 cycles

 The electronic state is 2-A.
 Alpha  occ. eigenvalues --  -38.44503 -38.44126 -38.44042 -38.43741 -38.43691
 Alpha  occ. eigenvalues --  -38.43371 -38.43263  -2.20281  -2.19898  -2.19863
 Alpha  occ. eigenvalues --   -2.19614  -2.19578  -2.19224  -2.19212  -1.13960
 Alpha  occ. eigenvalues --   -1.13936  -1.13916  -1.13566  -1.13556  -1.13550
 Alpha  occ. eigenvalues --   -1.13534  -1.13511  -1.13482  -1.13327  -1.13300
 Alpha  occ. eigenvalues --   -1.13259  -1.13249  -1.13208  -1.13200  -1.12924
 Alpha  occ. eigenvalues --   -1.12881  -1.12872  -1.12858  -1.12845  -1.12827
 Alpha  occ. eigenvalues --   -0.18151  -0.13124  -0.12309  -0.10266
 Alpha virt. eigenvalues --   -0.06096  -0.05413  -0.04894  -0.03018  -0.02703
 Alpha virt. eigenvalues --   -0.02061  -0.01944  -0.01541  -0.00738  -0.00482
 Alpha virt. eigenvalues --   -0.00043   0.00273   0.00675   0.00724   0.00782

  Beta  occ. eigenvalues --  -38.44496 -38.44113 -38.44010 -38.43680 -38.43670
  Beta  occ. eigenvalues --  -38.43372 -38.43213  -2.20270  -2.19877  -2.19806
  Beta  occ. eigenvalues --   -2.19562  -2.19483  -2.19217  -2.19133  -1.13943
  Beta  occ. eigenvalues --   -1.13927  -1.13906  -1.13543  -1.13540  -1.13521
  Beta  occ. eigenvalues --   -1.13502  -1.13464  -1.13446  -1.13289  -1.13247
  Beta  occ. eigenvalues --   -1.13236  -1.13177  -1.13162  -1.13107  -1.12886
  Beta  occ. eigenvalues --   -1.12872  -1.12851  -1.12831  -1.12787  -1.12771
  Beta  occ. eigenvalues --   -0.17539  -0.12819  -0.12028
  Beta virt. eigenvalues --   -0.06648  -0.05902  -0.05266  -0.04839  -0.02404
  Beta virt. eigenvalues --   -0.02144  -0.01720  -0.01372  -0.01173  -0.00763
  Beta virt. eigenvalues --   -0.00474   0.00109   0.00336   0.00722   0.00794

 Mulliken charges and spin densities:
               1          2
     1  Na  -0.188151  -0.036995
     2  Na   0.064090   0.055589
     3  Na   0.026677   0.019476
     4  Na   0.040429   0.157223
     5  Na   0.009555   0.068288
     6  Na  -0.276041   0.657026
     7  Na   0.323440   0.079392
 Sum of Mulliken charges =  -0.00000   1.00000

 Dipole moment (field-independent basis, Debye):
    X=              0.3234    Y=             -0.3193    Z=              0.1569  Tot=              0.4808
 Quadrupole moment (field-independent basis, Debye-Ang):
   XX=            -54.9963   YY=            -61.2339   ZZ=            -76.2850
   XY=              1.4869   XZ=             -0.5740   YZ=             -0.1753

 Normal termination of Gaussian 16 at Sun Dec  3 14:26:48 2023.
