 Gaussian 16, Revision B.01,
 Gaussian 16:  ES64L-G16RevB.01 20-Dec-2017

 -------------------------
 #P B3LYP/6-311+g(d) force
 -------------------------

 -----
 DPGEN
 -----
 Symbolic Z-matrix:
 Charge =  0 Multiplicity = 2

                         Standard orientation:
 ---------------------------------------------------------------------
 Center     Atomic      Atomic             Coordinates (Angstroms)
 Number     Number       Type             X           Y           Z
 ---------------------------------------------------------------------
      1         11           0        3.800314    1.677572    0.348186
      2         11           0        4.012224   -1.722514   -0.605851
      3         11           0       -2.859876   -2.686696   -0.245534
      4         11           0       -4.302352   -0.059429   -0.421654
      5         11           0        0.346427    3.006045   -0.838168
      6         11           0       -2.105899    2.552491    0.956069
      7         11           0        1.109163   -2.767468    0.806952
 ---------------------------------------------------------------------

 SCF Done:  E(UB3LYP) =  -1136.10695841     A.U. after   21 cycles

 The electronic state is 2-A.
 Alpha  occ. eigenvalues --  -38.44899 -38.44488 -38.44482 -38.44415 -38.44334
 Alpha  occ. eigenvalues --  -38.44226 -38.44212  -2.20667  -2.20313  -2.20287
 Alpha  occ. eigenvalues --   -2.20204  -2.20123  -2.20047  -2.19998  -1.14348
 Alpha  occ. eigenvalues --   -1.14336  -1.14321  -1.14115  -1.13971  -1.13952
 Alpha  occ. eigenvalues --   -1.13938  -1.13936  -1.13918  -1.13869  -1.13854
 Alpha  occ. eigenvalues --   -1.13854  -1.13777  -1.13758  -1.13745  -1.13696
 Alpha  occ. eigenvalues --   -1.13681  -1.13661  -1.13652  -1.13643  -1.13615
 Alpha  occ. eigenvalues --   -0.15676  -0.14075  -0.13072  -0.10528
 Alpha virt. eigenvalues --   -0.07407  -0.05166  -0.04226  -0.03611  -0.03140
 Alpha virt. eigenvalues --   -0.02793  -0.02339  -0.01830  -0.00913  -0.00691
 Alpha virt. eigenvalues --   -0.00330  -0.00184   0.00058   0.00388   0.00628

  Beta  occ. eigenvalues --  -38.44909 -38.44475 -38.44450 -38.44415 -38.44251
  Beta  occ. eigenvalues --  -38.44193 -38.44139  -2.20691  -2.20273  -2.20253
  Beta  occ. eigenvalues --   -2.20210  -2.19987  -2.19970  -2.19862  -1.14370
  Beta  occ. eigenvalues --   -1.14354  -1.14299  -1.14075  -1.13948  -1.13922
  Beta  occ. eigenvalues --   -1.13920  -1.13914  -1.13892  -1.13876  -1.13849
  Beta  occ. eigenvalues --   -1.13812  -1.13671  -1.13656  -1.13656  -1.13645
  Beta  occ. eigenvalues --   -1.13643  -1.13621  -1.13558  -1.13551  -1.13528
  Beta  occ. eigenvalues --   -0.15203  -0.13411  -0.12414
  Beta virt. eigenvalues --   -0.07453  -0.07323  -0.04819  -0.03918  -0.03316
  Beta virt. eigenvalues --   -0.02620  -0.02558  -0.02162  -0.01647  -0.00828
  Beta virt. eigenvalues --   -0.00423  -0.00195   0.00113   0.00252   0.00409

 Mulliken charges and spin densities:
               1          2
     1  Na  -0.014230   0.436429
     2  Na   0.266564  -0.069954
     3  Na   0.124043   0.020087
     4  Na   0.064754   0.139075
     5  Na  -0.123198  -0.041174
     6  Na  -0.007163   0.149994
     7  Na  -0.310771   0.365543
 Sum of Mulliken charges =  -0.00000   1.00000

 Dipole moment (field-independent basis, Debye):
    X=             -0.1372    Y=              0.0517    Z=             -0.1573  Tot=              0.2150
 Quadrupole moment (field-independent basis, Debye-Ang):
   XX=            -63.3801   YY=            -70.7468   ZZ=            -68.5362
   XY=             -4.4719   XZ=             -2.9948   YZ=              1.0899

 Normal termination of Gaussian 16 at Sun Dec  3 15:36:02 2023.
