 Gaussian 16, Revision B.01,
 Gaussian 16:  ES64L-G16RevB.01 20-Dec-2017

 -------------------------
 #P B3LYP/6-311+g(d) force
 -------------------------

 -----
 DPGEN
 -----
 Symbolic Z-matrix:
 Charge =  0 Multiplicity = 2

                         Standard orientation:
 ---------------------------------------------------------------------
 Center     Atomic      Atomic             Coordinates (Angstroms)
 Number     Number       Type             X           Y           Z
 ---------------------------------------------------------------------
      1         11           0       -4.555804   -2.139342    0.423881
      2         11           0       -1.229209   -2.732855   -0.229350
      3         11           0       -3.822275    1.465425   -0.300253
      4         11           0       -1.119895    3.634467   -0.330132
      5         11           0        2.757265   -1.735341   -0.104132
      6         11           0        2.244515    2.091787    0.767816
      7         11           0        5.725401   -0.584142   -0.227830
 ---------------------------------------------------------------------

 SCF Done:  E(UB3LYP) =  -1136.10913182     A.U. after   22 cycles

 The electronic state is 2-A.
 Alpha  occ. eigenvalues --  -38.46005 -38.44670 -38.44602 -38.44568 -38.44501
 Alpha  occ. eigenvalues --  -38.44167 -38.43755  -2.21732  -2.20464  -2.20367
 Alpha  occ. eigenvalues --   -2.20328  -2.20318  -2.19941  -2.19507  -1.15419
 Alpha  occ. eigenvalues --   -1.15404  -1.15322  -1.14156  -1.14148  -1.14120
 Alpha  occ. eigenvalues --   -1.14051  -1.14036  -1.14008  -1.13994  -1.13989
 Alpha  occ. eigenvalues --   -1.13961  -1.13958  -1.13957  -1.13913  -1.13614
 Alpha  occ. eigenvalues --   -1.13603  -1.13547  -1.13193  -1.13184  -1.13153
 Alpha  occ. eigenvalues --   -0.15555  -0.14043  -0.12563  -0.10832
 Alpha virt. eigenvalues --   -0.07533  -0.05825  -0.04225  -0.03602  -0.02951
 Alpha virt. eigenvalues --   -0.02691  -0.02448  -0.01703  -0.01393  -0.01017
 Alpha virt. eigenvalues --   -0.00514  -0.00249   0.00000   0.00292   0.00485

  Beta  occ. eigenvalues --  -38.45961 -38.44656 -38.44585 -38.44569 -38.44425
  Beta  occ. eigenvalues --  -38.44113 -38.43776  -2.21651  -2.20444  -2.20361
  Beta  occ. eigenvalues --   -2.20303  -2.20177  -2.19840  -2.19547  -1.15364
  Beta  occ. eigenvalues --   -1.15349  -1.15262  -1.14143  -1.14123  -1.14074
  Beta  occ. eigenvalues --   -1.14032  -1.14014  -1.14006  -1.13996  -1.13991
  Beta  occ. eigenvalues --   -1.13936  -1.13862  -1.13860  -1.13827  -1.13546
  Beta  occ. eigenvalues --   -1.13534  -1.13476  -1.13222  -1.13214  -1.13165
  Beta  occ. eigenvalues --   -0.14970  -0.13718  -0.12324
  Beta virt. eigenvalues --   -0.07593  -0.06995  -0.05187  -0.04034  -0.03424
  Beta virt. eigenvalues --   -0.02748  -0.02340  -0.02207  -0.01461  -0.01212
  Beta virt. eigenvalues --   -0.00786  -0.00202  -0.00051   0.00211   0.00418

 Mulliken charges and spin densities:
               1          2
     1  Na   0.459938  -0.045889
     2  Na  -0.697827  -0.140107
     3  Na  -0.361579   0.191726
     4  Na   0.269556  -0.049623
     5  Na  -0.822406   0.348584
     6  Na  -0.246375   0.241231
     7  Na   1.398692   0.454078
 Sum of Mulliken charges =  -0.00000   1.00000

 Dipole moment (field-independent basis, Debye):
    X=              0.7009    Y=              0.1279    Z=              0.2779  Tot=              0.7648
 Quadrupole moment (field-independent basis, Debye-Ang):
   XX=            -54.1377   YY=            -68.8037   ZZ=            -73.3942
   XY=              6.5029   XZ=             -0.2143   YZ=             -0.0559

 Normal termination of Gaussian 16 at Sun Dec  3 17:00:15 2023.
