 Gaussian 16, Revision B.01,
 Gaussian 16:  ES64L-G16RevB.01 20-Dec-2017

 -------------------------
 #P B3LYP/6-311+g(d) force
 -------------------------

 -----
 DPGEN
 -----
 Symbolic Z-matrix:
 Charge =  0 Multiplicity = 2

                         Standard orientation:
 ---------------------------------------------------------------------
 Center     Atomic      Atomic             Coordinates (Angstroms)
 Number     Number       Type             X           Y           Z
 ---------------------------------------------------------------------
      1         11           0        1.853546    1.732550    0.832801
      2         11           0        3.212507   -0.320501   -1.437774
      3         11           0       -1.485991    0.075255    1.584213
      4         11           0        1.611002   -1.819272    1.408962
      5         11           0       -0.096765   -0.724603   -1.238510
      6         11           0       -1.667614    2.507774   -0.511616
      7         11           0       -3.426684   -1.451203   -0.638076
 ---------------------------------------------------------------------

 SCF Done:  E(UB3LYP) =  -1136.12832885     A.U. after   22 cycles

 The electronic state is 2-A.
 Alpha  occ. eigenvalues --  -38.44260 -38.44114 -38.43910 -38.43589 -38.43581
 Alpha  occ. eigenvalues --  -38.43521 -38.43231  -2.20120  -2.19921  -2.19779
 Alpha  occ. eigenvalues --   -2.19531  -2.19476  -2.19433  -2.19055  -1.13791
 Alpha  occ. eigenvalues --   -1.13772  -1.13736  -1.13603  -1.13571  -1.13562
 Alpha  occ. eigenvalues --   -1.13470  -1.13426  -1.13390  -1.13283  -1.13189
 Alpha  occ. eigenvalues --   -1.13171  -1.13136  -1.13122  -1.13115  -1.13104
 Alpha  occ. eigenvalues --   -1.13080  -1.13048  -1.12734  -1.12722  -1.12668
 Alpha  occ. eigenvalues --   -0.18566  -0.13843  -0.11249  -0.11082
 Alpha virt. eigenvalues --   -0.06211  -0.05177  -0.04784  -0.03128  -0.02515
 Alpha virt. eigenvalues --   -0.02395  -0.02063  -0.01002  -0.00879   0.00021
 Alpha virt. eigenvalues --    0.00220   0.00246   0.00356   0.00647   0.00744

  Beta  occ. eigenvalues --  -38.44215 -38.44110 -38.43854 -38.43578 -38.43543
  Beta  occ. eigenvalues --  -38.43491 -38.43228  -2.20037  -2.19914  -2.19677
  Beta  occ. eigenvalues --   -2.19464  -2.19425  -2.19415  -2.19049  -1.13725
  Beta  occ. eigenvalues --   -1.13717  -1.13683  -1.13595  -1.13566  -1.13555
  Beta  occ. eigenvalues --   -1.13402  -1.13348  -1.13310  -1.13239  -1.13121
  Beta  occ. eigenvalues --   -1.13115  -1.13106  -1.13087  -1.13079  -1.13070
  Beta  occ. eigenvalues --   -1.13043  -1.13040  -1.12725  -1.12717  -1.12662
  Beta  occ. eigenvalues --   -0.17824  -0.13614  -0.10957
  Beta virt. eigenvalues --   -0.07303  -0.06035  -0.05040  -0.04201  -0.02916
  Beta virt. eigenvalues --   -0.02094  -0.01915  -0.01493  -0.00918  -0.00473
  Beta virt. eigenvalues --    0.00093   0.00280   0.00318   0.00460   0.00733

 Mulliken charges and spin densities:
               1          2
     1  Na  -0.256867   0.196710
     2  Na   0.972290  -0.000831
     3  Na   0.430366   0.053801
     4  Na  -0.186776   0.324979
     5  Na  -0.987452   0.348807
     6  Na  -0.196549  -0.014854
     7  Na   0.224988   0.091388
 Sum of Mulliken charges =  -0.00000   1.00000

 Dipole moment (field-independent basis, Debye):
    X=              0.1922    Y=             -0.1614    Z=             -0.0690  Tot=              0.2603
 Quadrupole moment (field-independent basis, Debye-Ang):
   XX=            -51.6383   YY=            -73.5692   ZZ=            -67.7447
   XY=             -0.0353   XZ=              0.6799   YZ=             -2.1004

 Normal termination of Gaussian 16 at Thu Dec  7 09:43:23 2023.
