 Gaussian 16, Revision B.01,
 Gaussian 16:  ES64L-G16RevB.01 20-Dec-2017

 -------------------------
 #P B3LYP/6-311+g(d) force
 -------------------------

 -----
 DPGEN
 -----
 Symbolic Z-matrix:
 Charge =  0 Multiplicity = 2

                         Standard orientation:
 ---------------------------------------------------------------------
 Center     Atomic      Atomic             Coordinates (Angstroms)
 Number     Number       Type             X           Y           Z
 ---------------------------------------------------------------------
      1         11           0       -0.302606    1.031142   -0.596851
      2         11           0       -8.977206   -0.103536   -0.672211
      3         11           0       -7.054132   -0.934690    1.256890
      4         11           0       -3.134174   -0.301078   -0.502139
      5         11           0        3.597025    2.002212    0.951848
      6         11           0        6.701398   -0.071881   -0.674777
      7         11           0        9.169695   -1.622169    0.237240
 ---------------------------------------------------------------------

 SCF Done:  E(UB3LYP) =  -1136.09979655     A.U. after   18 cycles

 The electronic state is 2-A.
 Alpha  occ. eigenvalues --  -38.45548 -38.44997 -38.44659 -38.44502 -38.44231
 Alpha  occ. eigenvalues --  -38.44031 -38.43872  -2.21317  -2.20819  -2.20483
 Alpha  occ. eigenvalues --   -2.20313  -2.20030  -2.19815  -2.19642  -1.14957
 Alpha  occ. eigenvalues --   -1.14946  -1.14922  -1.14616  -1.14453  -1.14450
 Alpha  occ. eigenvalues --   -1.14122  -1.14112  -1.14100  -1.13992  -1.13948
 Alpha  occ. eigenvalues --   -1.13948  -1.13690  -1.13683  -1.13673  -1.13485
 Alpha  occ. eigenvalues --   -1.13483  -1.13463  -1.13316  -1.13314  -1.13285
 Alpha  occ. eigenvalues --   -0.14643  -0.14242  -0.13006  -0.11728
 Alpha virt. eigenvalues --   -0.06562  -0.05466  -0.04528  -0.03193  -0.03043
 Alpha virt. eigenvalues --   -0.02850  -0.02430  -0.02070  -0.01848  -0.01436
 Alpha virt. eigenvalues --   -0.00930  -0.00676  -0.00290   0.00179   0.00478

  Beta  occ. eigenvalues --  -38.45422 -38.44986 -38.44661 -38.44448 -38.44184
  Beta  occ. eigenvalues --  -38.44041 -38.43885  -2.21082  -2.20798  -2.20487
  Beta  occ. eigenvalues --   -2.20211  -2.19943  -2.19840  -2.19672  -1.14797
  Beta  occ. eigenvalues --   -1.14786  -1.14765  -1.14605  -1.14439  -1.14436
  Beta  occ. eigenvalues --   -1.14126  -1.14114  -1.14095  -1.13928  -1.13879
  Beta  occ. eigenvalues --   -1.13879  -1.13635  -1.13624  -1.13616  -1.13507
  Beta  occ. eigenvalues --   -1.13504  -1.13442  -1.13340  -1.13338  -1.13271
  Beta  occ. eigenvalues --   -0.14301  -0.13432  -0.12532
  Beta virt. eigenvalues --   -0.08316  -0.06311  -0.05094  -0.04154  -0.03108
  Beta virt. eigenvalues --   -0.02795  -0.02607  -0.02233  -0.01881  -0.01515
  Beta virt. eigenvalues --   -0.01075  -0.00690  -0.00294  -0.00101   0.00352

 Mulliken charges and spin densities:
               1          2
     1  Na  -0.202830  -0.097268
     2  Na   0.215803   0.049077
     3  Na  -0.041367  -0.011922
     4  Na  -0.121464   0.240308
     5  Na   0.184774   0.619245
     6  Na  -0.432942  -0.020030
     7  Na   0.398026   0.220591
 Sum of Mulliken charges =  -0.00000   1.00000

 Dipole moment (field-independent basis, Debye):
    X=             -1.3455    Y=             -0.1794    Z=              0.2942  Tot=              1.3889
 Quadrupole moment (field-independent basis, Debye-Ang):
   XX=            -39.9802   YY=            -70.8650   ZZ=            -68.6204
   XY=             -3.9459   XZ=              8.3218   YZ=             -1.9776

 Normal termination of Gaussian 16 at Sun Dec  3 18:09:59 2023.
