 Gaussian 16, Revision B.01,
 Gaussian 16:  ES64L-G16RevB.01 20-Dec-2017

 -------------------------
 #P B3LYP/6-311+g(d) force
 -------------------------

 -----
 DPGEN
 -----
 Symbolic Z-matrix:
 Charge =  0 Multiplicity = 2

                         Standard orientation:
 ---------------------------------------------------------------------
 Center     Atomic      Atomic             Coordinates (Angstroms)
 Number     Number       Type             X           Y           Z
 ---------------------------------------------------------------------
      1         11           0       -2.360085    1.896716    0.019603
      2         11           0        3.246474   -0.295571   -0.073243
      3         11           0        0.574547   -2.700611    0.336626
      4         11           0        1.278064    2.588115   -0.083242
      5         11           0        0.126716   -0.216857   -1.783296
      6         11           0       -0.206108    0.132398    1.888985
      7         11           0       -2.659609   -1.404190   -0.305433
 ---------------------------------------------------------------------

 SCF Done:  E(UB3LYP) =  -1136.14050480     A.U. after   19 cycles

 The electronic state is 2-A.
 Alpha  occ. eigenvalues --  -38.44202 -38.43705 -38.43594 -38.43340 -38.43339
 Alpha  occ. eigenvalues --  -38.43332 -38.43102  -2.20016  -2.19576  -2.19449
 Alpha  occ. eigenvalues --   -2.19288  -2.19281  -2.19187  -2.18986  -1.13690
 Alpha  occ. eigenvalues --   -1.13671  -1.13662  -1.13268  -1.13242  -1.13221
 Alpha  occ. eigenvalues --   -1.13134  -1.13107  -1.13080  -1.12987  -1.12947
 Alpha  occ. eigenvalues --   -1.12939  -1.12923  -1.12904  -1.12901  -1.12855
 Alpha  occ. eigenvalues --   -1.12847  -1.12810  -1.12664  -1.12650  -1.12602
 Alpha  occ. eigenvalues --   -0.18839  -0.13123  -0.12407  -0.10798
 Alpha virt. eigenvalues --   -0.05717  -0.05105  -0.04507  -0.03210  -0.02908
 Alpha virt. eigenvalues --   -0.02527  -0.01616  -0.01036  -0.00281  -0.00240
 Alpha virt. eigenvalues --   -0.00001   0.00364   0.00799   0.00906   0.00914

  Beta  occ. eigenvalues --  -38.44201 -38.43696 -38.43590 -38.43336 -38.43259
  Beta  occ. eigenvalues --  -38.43253 -38.43091  -2.20017  -2.19562  -2.19445
  Beta  occ. eigenvalues --   -2.19183  -2.19154  -2.19123  -2.18969  -1.13676
  Beta  occ. eigenvalues --   -1.13673  -1.13661  -1.13258  -1.13223  -1.13201
  Beta  occ. eigenvalues --   -1.13121  -1.13091  -1.13077  -1.12905  -1.12877
  Beta  occ. eigenvalues --   -1.12853  -1.12842  -1.12820  -1.12814  -1.12795
  Beta  occ. eigenvalues --   -1.12792  -1.12781  -1.12649  -1.12606  -1.12595
  Beta  occ. eigenvalues --   -0.18097  -0.12886  -0.12149
  Beta virt. eigenvalues --   -0.06877  -0.05677  -0.05114  -0.04472  -0.02432
  Beta virt. eigenvalues --   -0.02105  -0.01533  -0.01464  -0.00973  -0.00332
  Beta virt. eigenvalues --   -0.00277   0.00122   0.00383   0.00853   0.00895

 Mulliken charges and spin densities:
               1          2
     1  Na   0.117703  -0.091997
     2  Na   0.053700  -0.098356
     3  Na   0.150910  -0.056227
     4  Na   0.019216  -0.139910
     5  Na  -0.290178   0.666316
     6  Na  -0.297753   0.726594
     7  Na   0.246401  -0.006420
 Sum of Mulliken charges =  -0.00000   1.00000

 Dipole moment (field-independent basis, Debye):
    X=              0.1608    Y=              0.0247    Z=             -0.0144  Tot=              0.1633
 Quadrupole moment (field-independent basis, Debye-Ang):
   XX=            -55.0905   YY=            -64.0906   ZZ=            -74.0370
   XY=             -0.2508   XZ=              0.7210   YZ=             -0.6222

 Normal termination of Gaussian 16 at Thu Dec  7 18:39:26 2023.
