 Gaussian 16, Revision B.01,
 Gaussian 16:  ES64L-G16RevB.01 20-Dec-2017

 -------------------------
 #P B3LYP/6-311+g(d) force
 -------------------------

 -----
 DPGEN
 -----
 Symbolic Z-matrix:
 Charge =  0 Multiplicity = 2

                         Standard orientation:
 ---------------------------------------------------------------------
 Center     Atomic      Atomic             Coordinates (Angstroms)
 Number     Number       Type             X           Y           Z
 ---------------------------------------------------------------------
      1         11           0        3.067876    0.500605   -0.197629
      2         11           0       -2.155779   -2.042970   -0.280337
      3         11           0       -0.196269   -0.093253   -1.763683
      4         11           0       -0.168305   -0.285612    1.916863
      5         11           0       -2.809488    1.306460    0.118103
      6         11           0        1.743825   -2.165659    0.165735
      7         11           0        0.518141    2.780429    0.040948
 ---------------------------------------------------------------------

 SCF Done:  E(UB3LYP) =  -1136.13653957     A.U. after   19 cycles

 The electronic state is 2-A.
 Alpha  occ. eigenvalues --  -38.44095 -38.44041 -38.43608 -38.43479 -38.43364
 Alpha  occ. eigenvalues --  -38.43355 -38.43017  -2.19937  -2.19915  -2.19489
 Alpha  occ. eigenvalues --   -2.19420  -2.19331  -2.19282  -2.18863  -1.13636
 Alpha  occ. eigenvalues --   -1.13611  -1.13606  -1.13574  -1.13565  -1.13555
 Alpha  occ. eigenvalues --   -1.13224  -1.13160  -1.13119  -1.13106  -1.13061
 Alpha  occ. eigenvalues --   -1.13030  -1.13005  -1.12970  -1.12947  -1.12933
 Alpha  occ. eigenvalues --   -1.12919  -1.12895  -1.12541  -1.12533  -1.12496
 Alpha  occ. eigenvalues --   -0.19016  -0.13452  -0.12257  -0.10905
 Alpha virt. eigenvalues --   -0.05762  -0.05223  -0.04295  -0.03419  -0.02780
 Alpha virt. eigenvalues --   -0.02595  -0.01597  -0.01051  -0.00234  -0.00132
 Alpha virt. eigenvalues --   -0.00004   0.00363   0.00787   0.00901   0.00936

  Beta  occ. eigenvalues --  -38.44090 -38.44038 -38.43598 -38.43391 -38.43355
  Beta  occ. eigenvalues --  -38.43280 -38.43014  -2.19932  -2.19913  -2.19474
  Beta  occ. eigenvalues --   -2.19271  -2.19258  -2.19194  -2.18861  -1.13639
  Beta  occ. eigenvalues --   -1.13605  -1.13585  -1.13572  -1.13556  -1.13541
  Beta  occ. eigenvalues --   -1.13198  -1.13121  -1.13104  -1.13033  -1.12956
  Beta  occ. eigenvalues --   -1.12940  -1.12923  -1.12911  -1.12892  -1.12866
  Beta  occ. eigenvalues --   -1.12851  -1.12839  -1.12540  -1.12514  -1.12494
  Beta  occ. eigenvalues --   -0.18273  -0.13203  -0.11999
  Beta virt. eigenvalues --   -0.06970  -0.05721  -0.05219  -0.04274  -0.02591
  Beta virt. eigenvalues --   -0.02006  -0.01524  -0.01504  -0.00992  -0.00280
  Beta virt. eigenvalues --   -0.00176   0.00123   0.00387   0.00855   0.00896

 Mulliken charges and spin densities:
               1          2
     1  Na  -0.082115  -0.051585
     2  Na   0.344363  -0.077287
     3  Na  -0.372246   0.612868
     4  Na  -0.431914   0.703584
     5  Na   0.064115  -0.078074
     6  Na   0.477245  -0.019304
     7  Na   0.000553  -0.090201
 Sum of Mulliken charges =  -0.00000   1.00000

 Dipole moment (field-independent basis, Debye):
    X=             -0.2786    Y=              0.0122    Z=              0.0496  Tot=              0.2833
 Quadrupole moment (field-independent basis, Debye-Ang):
   XX=            -54.9779   YY=            -65.3959   ZZ=            -73.6961
   XY=              0.1035   XZ=             -0.4014   YZ=              0.4595

 Normal termination of Gaussian 16 at Fri Dec  8 06:48:51 2023.
