 Gaussian 16, Revision B.01,
 Gaussian 16:  ES64L-G16RevB.01 20-Dec-2017

 -------------------------
 #P B3LYP/6-311+g(d) force
 -------------------------

 -----
 DPGEN
 -----
 Symbolic Z-matrix:
 Charge =  0 Multiplicity = 2

                         Standard orientation:
 ---------------------------------------------------------------------
 Center     Atomic      Atomic             Coordinates (Angstroms)
 Number     Number       Type             X           Y           Z
 ---------------------------------------------------------------------
      1         11           0       -0.122043   -2.528781    0.991264
      2         11           0        0.807461    0.574024    2.325435
      3         11           0        1.643907    2.414530   -0.524118
      4         11           0       -1.573762    2.037166    0.158185
      5         11           0        2.512442   -1.489482   -0.882936
      6         11           0       -3.081711   -0.697372   -0.409932
      7         11           0       -0.186294   -0.310085   -1.657897
 ---------------------------------------------------------------------

 SCF Done:  E(UB3LYP) =  -1136.13425683     A.U. after   19 cycles

 The electronic state is 2-A.
 Alpha  occ. eigenvalues --  -38.44409 -38.43719 -38.43628 -38.43405 -38.43387
 Alpha  occ. eigenvalues --  -38.43215 -38.43197  -2.20266  -2.19581  -2.19488
 Alpha  occ. eigenvalues --   -2.19414  -2.19260  -2.19136  -2.19068  -1.13931
 Alpha  occ. eigenvalues --   -1.13895  -1.13880  -1.13353  -1.13230  -1.13203
 Alpha  occ. eigenvalues --   -1.13170  -1.13143  -1.13104  -1.13099  -1.13059
 Alpha  occ. eigenvalues --   -1.13032  -1.12944  -1.12918  -1.12900  -1.12839
 Alpha  occ. eigenvalues --   -1.12808  -1.12781  -1.12733  -1.12697  -1.12666
 Alpha  occ. eigenvalues --   -0.18770  -0.12717  -0.12472  -0.11814
 Alpha virt. eigenvalues --   -0.04982  -0.04775  -0.04566  -0.03546  -0.03436
 Alpha virt. eigenvalues --   -0.03138  -0.01132  -0.00920  -0.00325   0.00175
 Alpha virt. eigenvalues --    0.00293   0.00394   0.00822   0.00912   0.00951

  Beta  occ. eigenvalues --  -38.44316 -38.43700 -38.43602 -38.43399 -38.43330
  Beta  occ. eigenvalues --  -38.43210 -38.43197  -2.20095  -2.19548  -2.19441
  Beta  occ. eigenvalues --   -2.19312  -2.19251  -2.19129  -2.19069  -1.13813
  Beta  occ. eigenvalues --   -1.13782  -1.13753  -1.13312  -1.13197  -1.13182
  Beta  occ. eigenvalues --   -1.13135  -1.13090  -1.13077  -1.13037  -1.12991
  Beta  occ. eigenvalues --   -1.12972  -1.12930  -1.12906  -1.12882  -1.12833
  Beta  occ. eigenvalues --   -1.12787  -1.12771  -1.12722  -1.12695  -1.12667
  Beta  occ. eigenvalues --   -0.18023  -0.12471  -0.12294
  Beta virt. eigenvalues --   -0.07757  -0.04872  -0.04714  -0.04380  -0.02897
  Beta virt. eigenvalues --   -0.02703  -0.02156  -0.01046  -0.00883  -0.00085
  Beta virt. eigenvalues --    0.00201   0.00293   0.00433   0.00887   0.00944

 Mulliken charges and spin densities:
               1          2
     1  Na  -0.155837   0.339394
     2  Na  -0.355145   0.337627
     3  Na   0.090854   0.005670
     4  Na   0.077360   0.183886
     5  Na   0.211394  -0.037218
     6  Na   0.361000  -0.045688
     7  Na  -0.229625   0.216329
 Sum of Mulliken charges =  -0.00000   1.00000

 Dipole moment (field-independent basis, Debye):
    X=              0.3596    Y=             -0.0456    Z=              0.3649  Tot=              0.5144
 Quadrupole moment (field-independent basis, Debye-Ang):
   XX=            -61.8613   YY=            -65.8281   ZZ=            -68.0436
   XY=              1.0895   XZ=             -1.7788   YZ=             -1.2850

 Normal termination of Gaussian 16 at Tue Dec  5 13:36:23 2023.
