 Gaussian 16, Revision B.01,
 Gaussian 16:  ES64L-G16RevB.01 20-Dec-2017

 -------------------------
 #P B3LYP/6-311+g(d) force
 -------------------------

 -----
 DPGEN
 -----
 Symbolic Z-matrix:
 Charge =  0 Multiplicity = 2

                         Standard orientation:
 ---------------------------------------------------------------------
 Center     Atomic      Atomic             Coordinates (Angstroms)
 Number     Number       Type             X           Y           Z
 ---------------------------------------------------------------------
      1         11           0       -2.016774   -2.526424   -0.470508
      2         11           0        0.063116    3.032085   -0.105803
      3         11           0        2.868651    0.713036   -0.402255
      4         11           0        1.984327   -2.281577    0.266892
      5         11           0        0.191250    0.038446    1.872137
      6         11           0       -3.205774    0.882279    0.163282
      7         11           0        0.115204    0.142155   -1.323744
 ---------------------------------------------------------------------

 SCF Done:  E(UB3LYP) =  -1136.13200793     A.U. after   22 cycles

 The electronic state is 2-A.
 Alpha  occ. eigenvalues --  -38.44526 -38.43854 -38.43816 -38.43576 -38.43394
 Alpha  occ. eigenvalues --  -38.43219 -38.42906  -2.20302  -2.19784  -2.19606
 Alpha  occ. eigenvalues --   -2.19453  -2.19248  -2.19159  -2.18978  -1.13985
 Alpha  occ. eigenvalues --   -1.13956  -1.13939  -1.13540  -1.13429  -1.13409
 Alpha  occ. eigenvalues --   -1.13286  -1.13258  -1.13242  -1.13132  -1.13112
 Alpha  occ. eigenvalues --   -1.13085  -1.12975  -1.12916  -1.12876  -1.12868
 Alpha  occ. eigenvalues --   -1.12770  -1.12758  -1.12659  -1.12606  -1.12579
 Alpha  occ. eigenvalues --   -0.18772  -0.13154  -0.12423  -0.10316
 Alpha virt. eigenvalues --   -0.05853  -0.05211  -0.04864  -0.03006  -0.02649
 Alpha virt. eigenvalues --   -0.02056  -0.01693  -0.01286  -0.00563  -0.00465
 Alpha virt. eigenvalues --    0.00032   0.00325   0.00762   0.00835   0.00869

  Beta  occ. eigenvalues --  -38.44526 -38.43836 -38.43805 -38.43567 -38.43390
  Beta  occ. eigenvalues --  -38.43127 -38.42855  -2.20305  -2.19757  -2.19587
  Beta  occ. eigenvalues --   -2.19440  -2.19245  -2.18991  -2.18888  -1.13976
  Beta  occ. eigenvalues --   -1.13959  -1.13939  -1.13517  -1.13398  -1.13378
  Beta  occ. eigenvalues --   -1.13264  -1.13244  -1.13231  -1.13121  -1.13086
  Beta  occ. eigenvalues --   -1.13068  -1.12965  -1.12896  -1.12859  -1.12774
  Beta  occ. eigenvalues --   -1.12657  -1.12634  -1.12585  -1.12532  -1.12517
  Beta  occ. eigenvalues --   -0.18071  -0.12913  -0.12142
  Beta virt. eigenvalues --   -0.06467  -0.05814  -0.05117  -0.04836  -0.02287
  Beta virt. eigenvalues --   -0.01939  -0.01623  -0.01203  -0.01052  -0.00574
  Beta virt. eigenvalues --   -0.00489   0.00173   0.00373   0.00789   0.00859

 Mulliken charges and spin densities:
               1          2
     1  Na  -0.058452   0.010844
     2  Na   0.065740  -0.051365
     3  Na   0.519451   0.082416
     4  Na   0.259028   0.080380
     5  Na  -0.258508   0.678035
     6  Na  -0.000357  -0.034154
     7  Na  -0.526903   0.233844
 Sum of Mulliken charges =  -0.00000   1.00000

 Dipole moment (field-independent basis, Debye):
    X=             -0.3424    Y=              0.0792    Z=              0.2323  Tot=              0.4213
 Quadrupole moment (field-independent basis, Debye-Ang):
   XX=            -54.7495   YY=            -59.7202   ZZ=            -76.7389
   XY=             -1.3609   XZ=             -0.5056   YZ=              0.3485

 Normal termination of Gaussian 16 at Thu Dec  7 19:25:19 2023.
