 Gaussian 16, Revision B.01,
 Gaussian 16:  ES64L-G16RevB.01 20-Dec-2017

 -------------------------
 #P B3LYP/6-311+g(d) force
 -------------------------

 -----
 DPGEN
 -----
 Symbolic Z-matrix:
 Charge =  0 Multiplicity = 2

                         Standard orientation:
 ---------------------------------------------------------------------
 Center     Atomic      Atomic             Coordinates (Angstroms)
 Number     Number       Type             X           Y           Z
 ---------------------------------------------------------------------
      1         11           0        0.192274   -0.155345    2.204479
      2         11           0        3.210671   -0.010544   -0.003661
      3         11           0        0.854639    2.616463   -0.501276
      4         11           0       -0.392974    0.162981   -1.579840
      5         11           0       -2.249219   -1.663874   -0.304016
      6         11           0       -2.396764    1.607459    0.450689
      7         11           0        0.781372   -2.557141   -0.266377
 ---------------------------------------------------------------------

 SCF Done:  E(UB3LYP) =  -1136.13259780     A.U. after   19 cycles

 The electronic state is 2-A.
 Alpha  occ. eigenvalues --  -38.44075 -38.43955 -38.43535 -38.43414 -38.43360
 Alpha  occ. eigenvalues --  -38.43337 -38.43120  -2.19952  -2.19763  -2.19436
 Alpha  occ. eigenvalues --   -2.19426  -2.19363  -2.19245  -2.19032  -1.13612
 Alpha  occ. eigenvalues --   -1.13583  -1.13568  -1.13436  -1.13416  -1.13413
 Alpha  occ. eigenvalues --   -1.13328  -1.13205  -1.13109  -1.13086  -1.13069
 Alpha  occ. eigenvalues --   -1.13032  -1.12998  -1.12983  -1.12954  -1.12884
 Alpha  occ. eigenvalues --   -1.12868  -1.12840  -1.12714  -1.12690  -1.12645
 Alpha  occ. eigenvalues --   -0.19158  -0.12960  -0.12629  -0.11311
 Alpha virt. eigenvalues --   -0.05467  -0.04764  -0.04483  -0.03372  -0.03076
 Alpha virt. eigenvalues --   -0.02926  -0.01359  -0.00901  -0.00141   0.00007
 Alpha virt. eigenvalues --    0.00103   0.00357   0.00859   0.00948   0.00970

  Beta  occ. eigenvalues --  -38.43975 -38.43956 -38.43524 -38.43404 -38.43347
  Beta  occ. eigenvalues --  -38.43274 -38.43112  -2.19770  -2.19765  -2.19409
  Beta  occ. eigenvalues --   -2.19359  -2.19314  -2.19224  -2.19021  -1.13492
  Beta  occ. eigenvalues --   -1.13455  -1.13440  -1.13431  -1.13414  -1.13408
  Beta  occ. eigenvalues --   -1.13273  -1.13165  -1.13078  -1.13054  -1.13045
  Beta  occ. eigenvalues --   -1.13002  -1.12959  -1.12948  -1.12909  -1.12857
  Beta  occ. eigenvalues --   -1.12832  -1.12821  -1.12704  -1.12665  -1.12633
  Beta  occ. eigenvalues --   -0.18409  -0.12744  -0.12346
  Beta virt. eigenvalues --   -0.07302  -0.05416  -0.04762  -0.04446  -0.02564
  Beta virt. eigenvalues --   -0.02280  -0.01831  -0.01271  -0.00832  -0.00099
  Beta virt. eigenvalues --    0.00007   0.00137   0.00382   0.00906   0.00946

 Mulliken charges and spin densities:
               1          2
     1  Na  -0.716688   0.686726
     2  Na  -0.003624  -0.053036
     3  Na   0.215405  -0.028521
     4  Na  -0.404262   0.200478
     5  Na   0.524542   0.063807
     6  Na   0.203392   0.137847
     7  Na   0.181236  -0.007301
 Sum of Mulliken charges =  -0.00000   1.00000

 Dipole moment (field-independent basis, Debye):
    X=              0.2135    Y=              0.0904    Z=              0.4483  Tot=              0.5047
 Quadrupole moment (field-independent basis, Debye-Ang):
   XX=            -57.9973   YY=            -65.1858   ZZ=            -71.5567
   XY=             -0.3139   XZ=             -1.1262   YZ=              0.7224

 Normal termination of Gaussian 16 at Fri Dec  8 01:19:28 2023.
