 Gaussian 16, Revision B.01,
 Gaussian 16:  ES64L-G16RevB.01 20-Dec-2017

 -------------------------
 #P B3LYP/6-311+g(d) force
 -------------------------

 -----
 DPGEN
 -----
 Symbolic Z-matrix:
 Charge =  0 Multiplicity = 2

                         Standard orientation:
 ---------------------------------------------------------------------
 Center     Atomic      Atomic             Coordinates (Angstroms)
 Number     Number       Type             X           Y           Z
 ---------------------------------------------------------------------
      1         11           0       -0.880403    2.028351    1.869533
      2         11           0       -2.647763    0.906979   -0.730799
      3         11           0        1.355851   -0.774531   -1.114379
      4         11           0       -2.878915   -2.408749   -0.846433
      5         11           0        4.345823   -1.304340    0.171418
      6         11           0        1.123230    2.997827   -1.095359
      7         11           0       -0.417823   -1.445536    1.746019
 ---------------------------------------------------------------------

 SCF Done:  E(UB3LYP) =  -1136.11889792     A.U. after   22 cycles

 The electronic state is 2-A.
 Alpha  occ. eigenvalues --  -38.44767 -38.44592 -38.44312 -38.44295 -38.43789
 Alpha  occ. eigenvalues --  -38.43711 -38.43696  -2.20513  -2.20417  -2.20147
 Alpha  occ. eigenvalues --   -2.20058  -2.19614  -2.19538  -2.19515  -1.14183
 Alpha  occ. eigenvalues --   -1.14174  -1.14160  -1.14113  -1.14085  -1.14032
 Alpha  occ. eigenvalues --   -1.13839  -1.13791  -1.13751  -1.13731  -1.13717
 Alpha  occ. eigenvalues --   -1.13674  -1.13314  -1.13263  -1.13239  -1.13219
 Alpha  occ. eigenvalues --   -1.13199  -1.13182  -1.13174  -1.13145  -1.13142
 Alpha  occ. eigenvalues --   -0.17338  -0.12765  -0.12039  -0.11027
 Alpha virt. eigenvalues --   -0.06821  -0.05445  -0.03962  -0.03490  -0.03122
 Alpha virt. eigenvalues --   -0.02645  -0.02157  -0.01429  -0.00685  -0.00349
 Alpha virt. eigenvalues --   -0.00194   0.00073   0.00222   0.00609   0.00673

  Beta  occ. eigenvalues --  -38.44780 -38.44568 -38.44264 -38.44245 -38.43776
  Beta  occ. eigenvalues --  -38.43689 -38.43650  -2.20536  -2.20374  -2.20025
  Beta  occ. eigenvalues --   -2.20000  -2.19592  -2.19476  -2.19455  -1.14198
  Beta  occ. eigenvalues --   -1.14189  -1.14175  -1.14067  -1.14058  -1.14000
  Beta  occ. eigenvalues --   -1.13759  -1.13687  -1.13685  -1.13677  -1.13671
  Beta  occ. eigenvalues --   -1.13638  -1.13290  -1.13243  -1.13227  -1.13167
  Beta  occ. eigenvalues --   -1.13149  -1.13142  -1.13138  -1.13123  -1.13067
  Beta  occ. eigenvalues --   -0.16637  -0.12552  -0.11899
  Beta virt. eigenvalues --   -0.07210  -0.06620  -0.05260  -0.03473  -0.03209
  Beta virt. eigenvalues --   -0.02748  -0.02264  -0.01580  -0.01270  -0.00573
  Beta virt. eigenvalues --   -0.00148  -0.00023   0.00135   0.00270   0.00638

 Mulliken charges and spin densities:
               1          2
     1  Na   0.133593   0.144759
     2  Na   0.098210   0.255162
     3  Na  -0.176969   0.161355
     4  Na   0.151772   0.087940
     5  Na   0.144031  -0.104999
     6  Na  -0.085976   0.103889
     7  Na  -0.264661   0.351893
 Sum of Mulliken charges =  -0.00000   1.00000

 Dipole moment (field-independent basis, Debye):
    X=              0.5679    Y=              0.0575    Z=              0.2822  Tot=              0.6368
 Quadrupole moment (field-independent basis, Debye-Ang):
   XX=            -57.6589   YY=            -66.1324   ZZ=            -70.2037
   XY=              0.7363   XZ=              2.6603   YZ=             -1.1931

 Normal termination of Gaussian 16 at Tue Nov 28 23:37:16 2023.
