 Gaussian 16, Revision B.01,
 Gaussian 16:  ES64L-G16RevB.01 20-Dec-2017

 -------------------------
 #P B3LYP/6-311+g(d) force
 -------------------------

 -----
 DPGEN
 -----
 Symbolic Z-matrix:
 Charge =  0 Multiplicity = 2

                         Standard orientation:
 ---------------------------------------------------------------------
 Center     Atomic      Atomic             Coordinates (Angstroms)
 Number     Number       Type             X           Y           Z
 ---------------------------------------------------------------------
      1         11           0        1.672380    3.219457    0.081059
      2         11           0        4.378459    0.747786    0.239598
      3         11           0       -3.384855   -1.964966    0.765040
      4         11           0        0.086231   -2.599547   -0.443152
      5         11           0       -4.477513    1.144734   -0.447793
      6         11           0       -1.383167    1.838516   -0.009687
      7         11           0        3.108465   -2.385980   -0.185065
 ---------------------------------------------------------------------

 SCF Done:  E(UB3LYP) =  -1136.11178838     A.U. after   26 cycles

 The electronic state is 2-A.
 Alpha  occ. eigenvalues --  -38.46057 -38.44693 -38.44579 -38.44264 -38.44156
 Alpha  occ. eigenvalues --  -38.43587 -38.43541  -2.21814  -2.20477  -2.20399
 Alpha  occ. eigenvalues --   -2.20107  -2.19979  -2.19405  -2.19335  -1.15501
 Alpha  occ. eigenvalues --   -1.15469  -1.15442  -1.14147  -1.14134  -1.14102
 Alpha  occ. eigenvalues --   -1.14096  -1.14080  -1.14029  -1.13762  -1.13745
 Alpha  occ. eigenvalues --   -1.13716  -1.13690  -1.13643  -1.13623  -1.13066
 Alpha  occ. eigenvalues --   -1.13058  -1.13039  -1.13001  -1.12999  -1.12974
 Alpha  occ. eigenvalues --   -0.16272  -0.14256  -0.12821  -0.10676
 Alpha virt. eigenvalues --   -0.07651  -0.04871  -0.04490  -0.03537  -0.03404
 Alpha virt. eigenvalues --   -0.02544  -0.02160  -0.01593  -0.00907  -0.00628
 Alpha virt. eigenvalues --   -0.00399  -0.00216   0.00203   0.00402   0.00623

  Beta  occ. eigenvalues --  -38.46037 -38.44648 -38.44542 -38.44203 -38.44160
  Beta  occ. eigenvalues --  -38.43563 -38.43520  -2.21781  -2.20395  -2.20337
  Beta  occ. eigenvalues --   -2.19993  -2.19989  -2.19359  -2.19300  -1.15483
  Beta  occ. eigenvalues --   -1.15447  -1.15388  -1.14092  -1.14078  -1.14049
  Beta  occ. eigenvalues --   -1.14041  -1.14032  -1.13966  -1.13695  -1.13682
  Beta  occ. eigenvalues --   -1.13667  -1.13652  -1.13643  -1.13613  -1.13038
  Beta  occ. eigenvalues --   -1.13024  -1.13011  -1.12979  -1.12969  -1.12943
  Beta  occ. eigenvalues --   -0.15683  -0.13727  -0.12331
  Beta virt. eigenvalues --   -0.07679  -0.07294  -0.04451  -0.04155  -0.03174
  Beta virt. eigenvalues --   -0.02880  -0.02374  -0.02007  -0.01467  -0.00720
  Beta virt. eigenvalues --   -0.00271  -0.00202  -0.00029   0.00383   0.00465

 Mulliken charges and spin densities:
               1          2
     1  Na   0.228806  -0.360479
     2  Na  -0.368534   0.244911
     3  Na   0.296800   0.100844
     4  Na  -1.117862  -0.122571
     5  Na   1.716466   0.436910
     6  Na  -1.724406   0.464004
     7  Na   0.968729   0.236381
 Sum of Mulliken charges =  -0.00000   1.00000

 Dipole moment (field-independent basis, Debye):
    X=             -1.2604    Y=             -0.3460    Z=              0.2936  Tot=              1.3396
 Quadrupole moment (field-independent basis, Debye-Ang):
   XX=            -56.6163   YY=            -68.6230   ZZ=            -71.8161
   XY=              5.4812   XZ=             -0.7338   YZ=             -2.1873

 Normal termination of Gaussian 16 at Sun Dec  3 19:58:34 2023.
