 Gaussian 16, Revision B.01,
 Gaussian 16:  ES64L-G16RevB.01 20-Dec-2017

 -------------------------
 #P B3LYP/6-311+g(d) force
 -------------------------

 -----
 DPGEN
 -----
 Symbolic Z-matrix:
 Charge =  0 Multiplicity = 2

                         Standard orientation:
 ---------------------------------------------------------------------
 Center     Atomic      Atomic             Coordinates (Angstroms)
 Number     Number       Type             X           Y           Z
 ---------------------------------------------------------------------
      1         11           0        0.067368   -1.453909   -1.420079
      2         11           0       -0.283849    3.066492    0.243029
      3         11           0       -3.157174   -1.786011    0.449513
      4         11           0       -0.214758   -0.065009    2.239216
      5         11           0        3.557948   -1.654370    0.246495
      6         11           0        1.855929    1.265030   -0.549186
      7         11           0       -1.825464    0.627777   -1.208988
 ---------------------------------------------------------------------

 SCF Done:  E(UB3LYP) =  -1136.12407439     A.U. after   20 cycles

 The electronic state is 2-A.
 Alpha  occ. eigenvalues --  -38.44705 -38.44201 -38.44047 -38.43865 -38.43619
 Alpha  occ. eigenvalues --  -38.43407 -38.42975  -2.20530  -2.20015  -2.19971
 Alpha  occ. eigenvalues --   -2.19635  -2.19620  -2.19356  -2.18884  -1.14191
 Alpha  occ. eigenvalues --   -1.14159  -1.14146  -1.13836  -1.13705  -1.13665
 Alpha  occ. eigenvalues --   -1.13658  -1.13608  -1.13560  -1.13314  -1.13300
 Alpha  occ. eigenvalues --   -1.13283  -1.13266  -1.13248  -1.13192  -1.13081
 Alpha  occ. eigenvalues --   -1.13044  -1.12999  -1.12544  -1.12524  -1.12502
 Alpha  occ. eigenvalues --   -0.18667  -0.13071  -0.12112  -0.11412
 Alpha virt. eigenvalues --   -0.06071  -0.05046  -0.03958  -0.03571  -0.03152
 Alpha virt. eigenvalues --   -0.02812  -0.01760  -0.01297  -0.00333  -0.00121
 Alpha virt. eigenvalues --    0.00229   0.00357   0.00649   0.00725   0.00877

  Beta  occ. eigenvalues --  -38.44606 -38.44197 -38.43999 -38.43869 -38.43578
  Beta  occ. eigenvalues --  -38.43397 -38.42973  -2.20347  -2.20009  -2.19887
  Beta  occ. eigenvalues --   -2.19643  -2.19549  -2.19341  -2.18884  -1.14069
  Beta  occ. eigenvalues --   -1.14029  -1.14012  -1.13769  -1.13702  -1.13654
  Beta  occ. eigenvalues --   -1.13642  -1.13536  -1.13504  -1.13320  -1.13300
  Beta  occ. eigenvalues --   -1.13272  -1.13226  -1.13183  -1.13146  -1.13075
  Beta  occ. eigenvalues --   -1.13027  -1.12971  -1.12546  -1.12523  -1.12482
  Beta  occ. eigenvalues --   -0.17860  -0.12920  -0.11984
  Beta virt. eigenvalues --   -0.07343  -0.05846  -0.04984  -0.03927  -0.02882
  Beta virt. eigenvalues --   -0.02255  -0.02058  -0.01629  -0.01165  -0.00211
  Beta virt. eigenvalues --   -0.00071   0.00269   0.00438   0.00733   0.00859

 Mulliken charges and spin densities:
               1          2
     1  Na  -0.148401   0.078383
     2  Na   0.817552  -0.094851
     3  Na  -0.016195  -0.117012
     4  Na  -0.669820   0.747916
     5  Na   0.183117  -0.090689
     6  Na  -0.443038   0.142482
     7  Na   0.276785   0.333772
 Sum of Mulliken charges =  -0.00000   1.00000

 Dipole moment (field-independent basis, Debye):
    X=             -0.3760    Y=             -0.5259    Z=              0.6083  Tot=              0.8877
 Quadrupole moment (field-independent basis, Debye-Ang):
   XX=            -58.1170   YY=            -65.7889   ZZ=            -70.4827
   XY=              0.3731   XZ=              0.1113   YZ=             -1.4013

 Normal termination of Gaussian 16 at Thu Dec  7 09:00:58 2023.
