 Gaussian 16, Revision B.01,
 Gaussian 16:  ES64L-G16RevB.01 20-Dec-2017

 -------------------------
 #P B3LYP/6-311+g(d) force
 -------------------------

 -----
 DPGEN
 -----
 Symbolic Z-matrix:
 Charge =  0 Multiplicity = 2

                         Standard orientation:
 ---------------------------------------------------------------------
 Center     Atomic      Atomic             Coordinates (Angstroms)
 Number     Number       Type             X           Y           Z
 ---------------------------------------------------------------------
      1         11           0       -3.465437    2.207915    0.541431
      2         11           0       -1.505471   -3.261882   -0.194917
      3         11           0        4.247219   -1.050142   -0.724409
      4         11           0        1.621915   -2.960657    1.105502
      5         11           0       -4.100335   -1.047261   -0.707557
      6         11           0        0.179901    3.786746   -0.009119
      7         11           0        3.022207    2.325281   -0.010931
 ---------------------------------------------------------------------

 SCF Done:  E(UB3LYP) =  -1136.10701462     A.U. after   23 cycles

 The electronic state is 2-A.
 Alpha  occ. eigenvalues --  -38.45275 -38.45180 -38.44882 -38.44838 -38.44082
 Alpha  occ. eigenvalues --  -38.44069 -38.43863  -2.21024  -2.20935  -2.20651
 Alpha  occ. eigenvalues --   -2.20625  -2.19880  -2.19862  -2.19662  -1.14698
 Alpha  occ. eigenvalues --   -1.14682  -1.14651  -1.14618  -1.14611  -1.14569
 Alpha  occ. eigenvalues --   -1.14328  -1.14319  -1.14305  -1.14301  -1.14290
 Alpha  occ. eigenvalues --   -1.14264  -1.13542  -1.13538  -1.13513  -1.13513
 Alpha  occ. eigenvalues --   -1.13500  -1.13488  -1.13324  -1.13317  -1.13293
 Alpha  occ. eigenvalues --   -0.15428  -0.13885  -0.13445  -0.10803
 Alpha virt. eigenvalues --   -0.07875  -0.04885  -0.04446  -0.03541  -0.03375
 Alpha virt. eigenvalues --   -0.02508  -0.02296  -0.01817  -0.01385  -0.00935
 Alpha virt. eigenvalues --   -0.00592  -0.00169   0.00152   0.00273   0.00521

  Beta  occ. eigenvalues --  -38.45243 -38.45171 -38.44878 -38.44815 -38.44042
  Beta  occ. eigenvalues --  -38.43994 -38.43819  -2.20967  -2.20925  -2.20646
  Beta  occ. eigenvalues --   -2.20590  -2.19807  -2.19723  -2.19584  -1.14661
  Beta  occ. eigenvalues --   -1.14646  -1.14616  -1.14607  -1.14600  -1.14529
  Beta  occ. eigenvalues --   -1.14327  -1.14319  -1.14286  -1.14280  -1.14269
  Beta  occ. eigenvalues --   -1.14198  -1.13492  -1.13488  -1.13464  -1.13418
  Beta  occ. eigenvalues --   -1.13405  -1.13398  -1.13269  -1.13265  -1.13234
  Beta  occ. eigenvalues --   -0.14910  -0.13143  -0.12677
  Beta virt. eigenvalues --   -0.08106  -0.07647  -0.04416  -0.03996  -0.03349
  Beta virt. eigenvalues --   -0.03069  -0.02278  -0.02007  -0.01672  -0.01248
  Beta virt. eigenvalues --   -0.00578  -0.00441  -0.00003   0.00283   0.00323

 Mulliken charges and spin densities:
               1          2
     1  Na  -0.006046   0.159115
     2  Na  -0.092048   0.174088
     3  Na   0.128784   0.351047
     4  Na  -0.079397  -0.023937
     5  Na   0.170080   0.074311
     6  Na   0.075774   0.133215
     7  Na  -0.197147   0.132161
 Sum of Mulliken charges =  -0.00000   1.00000

 Dipole moment (field-independent basis, Debye):
    X=             -0.5709    Y=             -0.1859    Z=              0.1313  Tot=              0.6146
 Quadrupole moment (field-independent basis, Debye-Ang):
   XX=            -62.7360   YY=            -67.7715   ZZ=            -70.2186
   XY=             -1.3582   XZ=              1.0334   YZ=              1.1848

 Normal termination of Gaussian 16 at Sun Dec  3 21:43:25 2023.
