 Gaussian 16, Revision B.01,
 Gaussian 16:  ES64L-G16RevB.01 20-Dec-2017

 -------------------------
 #P B3LYP/6-311+g(d) force
 -------------------------

 -----
 DPGEN
 -----
 Symbolic Z-matrix:
 Charge =  0 Multiplicity = 2

                         Standard orientation:
 ---------------------------------------------------------------------
 Center     Atomic      Atomic             Coordinates (Angstroms)
 Number     Number       Type             X           Y           Z
 ---------------------------------------------------------------------
      1         11           0        0.289860    0.166512    1.543428
      2         11           0        3.983568   -0.483596    0.346050
      3         11           0       -2.474010   -2.035545    1.052508
      4         11           0       -1.825117    2.758087    0.209939
      5         11           0        0.345452   -2.329837   -1.142287
      6         11           0        1.412567    1.912480   -0.612279
      7         11           0       -1.732320    0.011898   -1.397359
 ---------------------------------------------------------------------

 SCF Done:  E(UB3LYP) =  -1136.12979905     A.U. after   20 cycles

 The electronic state is 2-A.
 Alpha  occ. eigenvalues --  -38.44389 -38.43810 -38.43795 -38.43727 -38.43649
 Alpha  occ. eigenvalues --  -38.43459 -38.43156  -2.20142  -2.19697  -2.19642
 Alpha  occ. eigenvalues --   -2.19589  -2.19581  -2.19314  -2.19137  -1.13820
 Alpha  occ. eigenvalues --   -1.13808  -1.13768  -1.13531  -1.13365  -1.13323
 Alpha  occ. eigenvalues --   -1.13311  -1.13298  -1.13272  -1.13270  -1.13262
 Alpha  occ. eigenvalues --   -1.13229  -1.13204  -1.13175  -1.13174  -1.13022
 Alpha  occ. eigenvalues --   -1.12962  -1.12947  -1.12825  -1.12783  -1.12725
 Alpha  occ. eigenvalues --   -0.18461  -0.12978  -0.12398  -0.10558
 Alpha virt. eigenvalues --   -0.06130  -0.05056  -0.04560  -0.03307  -0.02725
 Alpha virt. eigenvalues --   -0.02194  -0.01923  -0.01353  -0.00580  -0.00118
 Alpha virt. eigenvalues --    0.00089   0.00262   0.00612   0.00756   0.00781

  Beta  occ. eigenvalues --  -38.44393 -38.43802 -38.43762 -38.43688 -38.43594
  Beta  occ. eigenvalues --  -38.43457 -38.43110  -2.20149  -2.19682  -2.19581
  Beta  occ. eigenvalues --   -2.19513  -2.19490  -2.19313  -2.19055  -1.13824
  Beta  occ. eigenvalues --   -1.13811  -1.13774  -1.13505  -1.13337  -1.13283
  Beta  occ. eigenvalues --   -1.13263  -1.13262  -1.13241  -1.13217  -1.13201
  Beta  occ. eigenvalues --   -1.13169  -1.13141  -1.13132  -1.13100  -1.13015
  Beta  occ. eigenvalues --   -1.12950  -1.12944  -1.12767  -1.12707  -1.12673
  Beta  occ. eigenvalues --   -0.17758  -0.12787  -0.12213
  Beta virt. eigenvalues --   -0.06636  -0.06021  -0.04941  -0.04453  -0.02679
  Beta virt. eigenvalues --   -0.02201  -0.01923  -0.01381  -0.01092  -0.00285
  Beta virt. eigenvalues --   -0.00099   0.00160   0.00317   0.00736   0.00807

 Mulliken charges and spin densities:
               1          2
     1  Na  -0.430872   0.397080
     2  Na   0.243171  -0.026229
     3  Na  -0.070940   0.099928
     4  Na   0.381293  -0.014950
     5  Na  -0.331642   0.126968
     6  Na  -0.118508   0.061399
     7  Na   0.327497   0.355805
 Sum of Mulliken charges =  -0.00000   1.00000

 Dipole moment (field-independent basis, Debye):
    X=              0.2940    Y=             -0.0837    Z=              0.1026  Tot=              0.3224
 Quadrupole moment (field-independent basis, Debye-Ang):
   XX=            -54.2907   YY=            -63.8357   ZZ=            -73.6462
   XY=             -2.1849   XZ=             -1.8626   YZ=             -0.6965

 Normal termination of Gaussian 16 at Thu Dec  7 02:16:19 2023.
