 Gaussian 16, Revision B.01,
 Gaussian 16:  ES64L-G16RevB.01 20-Dec-2017

 -------------------------
 #P B3LYP/6-311+g(d) force
 -------------------------

 -----
 DPGEN
 -----
 Symbolic Z-matrix:
 Charge =  0 Multiplicity = 2

                         Standard orientation:
 ---------------------------------------------------------------------
 Center     Atomic      Atomic             Coordinates (Angstroms)
 Number     Number       Type             X           Y           Z
 ---------------------------------------------------------------------
      1         11           0       -1.403622    2.533905   -0.208995
      2         11           0       -3.298030   -0.603598    0.144475
      3         11           0       -0.485458   -2.623170   -0.561654
      4         11           0        0.113689    0.247546   -1.512608
      5         11           0       -0.023441   -0.009164    2.117293
      6         11           0        2.276571    1.871571   -0.131433
      7         11           0        2.820291   -1.417088    0.152923
 ---------------------------------------------------------------------

 SCF Done:  E(UB3LYP) =  -1136.13438402     A.U. after   19 cycles

 The electronic state is 2-A.
 Alpha  occ. eigenvalues --  -38.44407 -38.43859 -38.43804 -38.43697 -38.43397
 Alpha  occ. eigenvalues --  -38.43108 -38.43074  -2.20199  -2.19700  -2.19675
 Alpha  occ. eigenvalues --   -2.19582  -2.19261  -2.19135  -2.18983  -1.13872
 Alpha  occ. eigenvalues --   -1.13853  -1.13845  -1.13388  -1.13367  -1.13352
 Alpha  occ. eigenvalues --   -1.13340  -1.13318  -1.13303  -1.13286  -1.13227
 Alpha  occ. eigenvalues --   -1.13190  -1.13038  -1.12915  -1.12873  -1.12850
 Alpha  occ. eigenvalues --   -1.12780  -1.12726  -1.12639  -1.12629  -1.12588
 Alpha  occ. eigenvalues --   -0.18789  -0.13123  -0.12311  -0.10825
 Alpha virt. eigenvalues --   -0.05899  -0.05188  -0.04275  -0.03239  -0.02795
 Alpha virt. eigenvalues --   -0.02626  -0.01755  -0.01107  -0.00279  -0.00185
 Alpha virt. eigenvalues --    0.00000   0.00337   0.00766   0.00868   0.00917

  Beta  occ. eigenvalues --  -38.44407 -38.43856 -38.43706 -38.43691 -38.43391
  Beta  occ. eigenvalues --  -38.43093 -38.43011  -2.20202  -2.19698  -2.19574
  Beta  occ. eigenvalues --   -2.19495  -2.19253  -2.19022  -2.18958  -1.13862
  Beta  occ. eigenvalues --   -1.13853  -1.13848  -1.13387  -1.13353  -1.13337
  Beta  occ. eigenvalues --   -1.13304  -1.13228  -1.13206  -1.13187  -1.13176
  Beta  occ. eigenvalues --   -1.13154  -1.13015  -1.12893  -1.12866  -1.12791
  Beta  occ. eigenvalues --   -1.12704  -1.12654  -1.12602  -1.12586  -1.12574
  Beta  occ. eigenvalues --   -0.18060  -0.12920  -0.12037
  Beta virt. eigenvalues --   -0.06880  -0.05831  -0.05200  -0.04248  -0.02474
  Beta virt. eigenvalues --   -0.02026  -0.01655  -0.01518  -0.01059  -0.00327
  Beta virt. eigenvalues --   -0.00194   0.00128   0.00364   0.00820   0.00860

 Mulliken charges and spin densities:
               1          2
     1  Na   0.195266  -0.051640
     2  Na   0.030808  -0.013288
     3  Na   0.222278   0.012331
     4  Na  -0.295179   0.243640
     5  Na  -0.624684   0.783203
     6  Na   0.314830  -0.012720
     7  Na   0.156681   0.038474
 Sum of Mulliken charges =  -0.00000   1.00000

 Dipole moment (field-independent basis, Debye):
    X=             -0.1625    Y=              0.0142    Z=              0.3715  Tot=              0.4058
 Quadrupole moment (field-independent basis, Debye-Ang):
   XX=            -53.1558   YY=            -65.2670   ZZ=            -74.3377
   XY=             -0.2974   XZ=              0.0716   YZ=              0.3024

 Normal termination of Gaussian 16 at Thu Dec  7 11:08:00 2023.
