 Gaussian 16, Revision B.01,
 Gaussian 16:  ES64L-G16RevB.01 20-Dec-2017

 -------------------------
 #P B3LYP/6-311+g(d) force
 -------------------------

 -----
 DPGEN
 -----
 Symbolic Z-matrix:
 Charge =  0 Multiplicity = 2

                         Standard orientation:
 ---------------------------------------------------------------------
 Center     Atomic      Atomic             Coordinates (Angstroms)
 Number     Number       Type             X           Y           Z
 ---------------------------------------------------------------------
      1         11           0       -0.776344   -2.837523   -0.492260
      2         11           0        2.291572    2.073427   -0.081238
      3         11           0       -3.076745   -0.207719    0.052275
      4         11           0        0.250336   -0.052722   -1.607208
      5         11           0       -0.398714   -0.114243    2.011193
      6         11           0        2.863435   -1.571363    0.324700
      7         11           0       -1.153539    2.710143   -0.207461
 ---------------------------------------------------------------------

 SCF Done:  E(UB3LYP) =  -1136.13880868     A.U. after   19 cycles

 The electronic state is 2-A.
 Alpha  occ. eigenvalues --  -38.44068 -38.43816 -38.43760 -38.43607 -38.43542
 Alpha  occ. eigenvalues --  -38.43363 -38.43065  -2.19856  -2.19670  -2.19588
 Alpha  occ. eigenvalues --   -2.19496  -2.19394  -2.19217  -2.19046  -1.13530
 Alpha  occ. eigenvalues --   -1.13512  -1.13499  -1.13364  -1.13332  -1.13310
 Alpha  occ. eigenvalues --   -1.13281  -1.13252  -1.13217  -1.13163  -1.13124
 Alpha  occ. eigenvalues --   -1.13113  -1.13108  -1.13041  -1.13011  -1.12907
 Alpha  occ. eigenvalues --   -1.12881  -1.12847  -1.12724  -1.12680  -1.12661
 Alpha  occ. eigenvalues --   -0.18542  -0.12898  -0.12533  -0.10643
 Alpha virt. eigenvalues --   -0.05574  -0.05264  -0.04807  -0.03132  -0.02905
 Alpha virt. eigenvalues --   -0.02453  -0.01496  -0.01217  -0.00468  -0.00390
 Alpha virt. eigenvalues --   -0.00001   0.00354   0.00802   0.00855   0.00878

  Beta  occ. eigenvalues --  -38.44063 -38.43811 -38.43758 -38.43527 -38.43519
  Beta  occ. eigenvalues --  -38.43358 -38.43001  -2.19848  -2.19665  -2.19587
  Beta  occ. eigenvalues --   -2.19369  -2.19332  -2.19210  -2.18932  -1.13512
  Beta  occ. eigenvalues --   -1.13506  -1.13495  -1.13350  -1.13320  -1.13299
  Beta  occ. eigenvalues --   -1.13274  -1.13245  -1.13214  -1.13087  -1.13054
  Beta  occ. eigenvalues --   -1.13021  -1.13001  -1.12998  -1.12989  -1.12896
  Beta  occ. eigenvalues --   -1.12865  -1.12837  -1.12647  -1.12593  -1.12582
  Beta  occ. eigenvalues --   -0.17831  -0.12670  -0.12273
  Beta virt. eigenvalues --   -0.06775  -0.05510  -0.05246  -0.04752  -0.02383
  Beta virt. eigenvalues --   -0.02164  -0.01422  -0.01384  -0.01136  -0.00504
  Beta virt. eigenvalues --   -0.00437   0.00137   0.00384   0.00839   0.00873

 Mulliken charges and spin densities:
               1          2
     1  Na   0.150862  -0.035893
     2  Na   0.036914  -0.071337
     3  Na   0.328085   0.001271
     4  Na  -0.076831   0.423509
     5  Na  -0.468656   0.777081
     6  Na  -0.043459  -0.010262
     7  Na   0.073085  -0.084369
 Sum of Mulliken charges =  -0.00000   1.00000

 Dipole moment (field-independent basis, Debye):
    X=              0.1253    Y=             -0.0874    Z=              0.1772  Tot=              0.2340
 Quadrupole moment (field-independent basis, Debye-Ang):
   XX=            -56.6847   YY=            -61.3965   ZZ=            -74.8805
   XY=             -0.2331   XZ=              1.5486   YZ=             -0.0176

 Normal termination of Gaussian 16 at Thu Dec  7 06:41:22 2023.
