 Gaussian 16, Revision B.01,
 Gaussian 16:  ES64L-G16RevB.01 20-Dec-2017

 -------------------------
 #P B3LYP/6-311+g(d) force
 -------------------------

 -----
 DPGEN
 -----
 Symbolic Z-matrix:
 Charge =  0 Multiplicity = 2

                         Standard orientation:
 ---------------------------------------------------------------------
 Center     Atomic      Atomic             Coordinates (Angstroms)
 Number     Number       Type             X           Y           Z
 ---------------------------------------------------------------------
      1         11           0       -2.215254    1.617585   -0.633981
      2         11           0        0.594428    3.438937   -0.435018
      3         11           0        0.558269   -3.001706   -0.763402
      4         11           0       -3.293259   -0.245828    2.316913
      5         11           0        3.789114    1.502830    0.234657
      6         11           0       -2.852671   -1.281129   -1.352111
      7         11           0        3.419374   -2.030689    0.632942
 ---------------------------------------------------------------------

 SCF Done:  E(UB3LYP) =  -1136.10924908     A.U. after   22 cycles

 The electronic state is 2-A.
 Alpha  occ. eigenvalues --  -38.45038 -38.45032 -38.44749 -38.44441 -38.44394
 Alpha  occ. eigenvalues --  -38.44216 -38.43839  -2.20853  -2.20772  -2.20555
 Alpha  occ. eigenvalues --   -2.20292  -2.20158  -2.19998  -2.19615  -1.14581
 Alpha  occ. eigenvalues --   -1.14500  -1.14480  -1.14457  -1.14436  -1.14401
 Alpha  occ. eigenvalues --   -1.14200  -1.14193  -1.14149  -1.13981  -1.13957
 Alpha  occ. eigenvalues --   -1.13916  -1.13837  -1.13832  -1.13797  -1.13672
 Alpha  occ. eigenvalues --   -1.13658  -1.13632  -1.13288  -1.13281  -1.13246
 Alpha  occ. eigenvalues --   -0.16375  -0.13844  -0.12515  -0.10849
 Alpha virt. eigenvalues --   -0.07255  -0.06549  -0.03861  -0.03360  -0.02913
 Alpha virt. eigenvalues --   -0.02667  -0.02075  -0.01839  -0.01478  -0.00923
 Alpha virt. eigenvalues --   -0.00449  -0.00181   0.00032   0.00337   0.00498

  Beta  occ. eigenvalues --  -38.45026 -38.45024 -38.44628 -38.44426 -38.44380
  Beta  occ. eigenvalues --  -38.44218 -38.43822  -2.20833  -2.20757  -2.20330
  Beta  occ. eigenvalues --   -2.20268  -2.20131  -2.20000  -2.19585  -1.14573
  Beta  occ. eigenvalues --   -1.14486  -1.14447  -1.14441  -1.14426  -1.14388
  Beta  occ. eigenvalues --   -1.14045  -1.14039  -1.14002  -1.13963  -1.13944
  Beta  occ. eigenvalues --   -1.13869  -1.13819  -1.13816  -1.13779  -1.13673
  Beta  occ. eigenvalues --   -1.13658  -1.13628  -1.13266  -1.13258  -1.13224
  Beta  occ. eigenvalues --   -0.15820  -0.13600  -0.12260
  Beta virt. eigenvalues --   -0.07363  -0.06816  -0.06055  -0.03703  -0.03138
  Beta virt. eigenvalues --   -0.02528  -0.02165  -0.01855  -0.01626  -0.01236
  Beta virt. eigenvalues --   -0.00863  -0.00041   0.00181   0.00271   0.00431

 Mulliken charges and spin densities:
               1          2
     1  Na  -0.562970   0.185297
     2  Na   0.142087  -0.028290
     3  Na  -0.297318  -0.004827
     4  Na   0.054785   0.554919
     5  Na  -0.265911   0.074468
     6  Na   0.809028   0.146568
     7  Na   0.120300   0.071865
 Sum of Mulliken charges =  -0.00000   1.00000

 Dipole moment (field-independent basis, Debye):
    X=             -0.0754    Y=             -0.3888    Z=              0.1412  Tot=              0.4205
 Quadrupole moment (field-independent basis, Debye-Ang):
   XX=            -61.7144   YY=            -68.7163   ZZ=            -71.1538
   XY=              2.4475   XZ=              4.7453   YZ=             -0.2726

 Normal termination of Gaussian 16 at Sun Dec  3 17:59:32 2023.
