 Gaussian 16, Revision B.01,
 Gaussian 16:  ES64L-G16RevB.01 20-Dec-2017

 -------------------------
 #P B3LYP/6-311+g(d) force
 -------------------------

 -----
 DPGEN
 -----
 Symbolic Z-matrix:
 Charge =  0 Multiplicity = 2

                         Standard orientation:
 ---------------------------------------------------------------------
 Center     Atomic      Atomic             Coordinates (Angstroms)
 Number     Number       Type             X           Y           Z
 ---------------------------------------------------------------------
      1         11           0        0.114379    0.421422    2.169206
      2         11           0       -3.421116    0.930968   -0.089315
      3         11           0        1.177306   -2.411005   -0.383043
      4         11           0        0.781379    3.027103   -0.307737
      5         11           0       -0.405725    0.237828   -1.586057
      6         11           0       -2.017016   -2.077811    0.215694
      7         11           0        3.770792   -0.128505   -0.018748
 ---------------------------------------------------------------------

 SCF Done:  E(UB3LYP) =  -1136.12556459     A.U. after   22 cycles

 The electronic state is 2-A.
 Alpha  occ. eigenvalues --  -38.45517 -38.45108 -38.43752 -38.43535 -38.43380
 Alpha  occ. eigenvalues --  -38.43329 -38.42935  -2.21251  -2.20898  -2.19586
 Alpha  occ. eigenvalues --   -2.19328  -2.19280  -2.19267  -2.18805  -1.14928
 Alpha  occ. eigenvalues --   -1.14912  -1.14885  -1.14569  -1.14561  -1.14536
 Alpha  occ. eigenvalues --   -1.13250  -1.13212  -1.13204  -1.13047  -1.13003
 Alpha  occ. eigenvalues --   -1.12987  -1.12958  -1.12938  -1.12928  -1.12919
 Alpha  occ. eigenvalues --   -1.12908  -1.12876  -1.12498  -1.12462  -1.12433
 Alpha  occ. eigenvalues --   -0.18114  -0.13025  -0.12000  -0.10532
 Alpha virt. eigenvalues --   -0.07050  -0.04980  -0.04275  -0.03206  -0.02752
 Alpha virt. eigenvalues --   -0.02543  -0.02423  -0.01139  -0.00761  -0.00210
 Alpha virt. eigenvalues --   -0.00117   0.00212   0.00564   0.00696   0.00765

  Beta  occ. eigenvalues --  -38.45521 -38.45104 -38.43651 -38.43531 -38.43372
  Beta  occ. eigenvalues --  -38.43272 -38.42927  -2.21261  -2.20895  -2.19398
  Beta  occ. eigenvalues --   -2.19323  -2.19257  -2.19176  -2.18793  -1.14926
  Beta  occ. eigenvalues --   -1.14919  -1.14892  -1.14564  -1.14546  -1.14535
  Beta  occ. eigenvalues --   -1.13125  -1.13082  -1.13070  -1.13028  -1.12974
  Beta  occ. eigenvalues --   -1.12968  -1.12955  -1.12920  -1.12886  -1.12879
  Beta  occ. eigenvalues --   -1.12839  -1.12815  -1.12487  -1.12434  -1.12427
  Beta  occ. eigenvalues --   -0.17397  -0.12890  -0.11758
  Beta virt. eigenvalues --   -0.07010  -0.06599  -0.04924  -0.04255  -0.02522
  Beta virt. eigenvalues --   -0.02384  -0.01979  -0.01462  -0.01092  -0.00770
  Beta virt. eigenvalues --   -0.00202   0.00030   0.00248   0.00678   0.00723

 Mulliken charges and spin densities:
               1          2
     1  Na  -0.474765   0.677783
     2  Na   0.240412  -0.030892
     3  Na   0.012632   0.040537
     4  Na  -0.059337  -0.120838
     5  Na   0.095464   0.312064
     6  Na   0.175652   0.174888
     7  Na   0.009942  -0.053543
 Sum of Mulliken charges =  -0.00000   1.00000

 Dipole moment (field-independent basis, Debye):
    X=              0.1032    Y=              0.4589    Z=              0.1796  Tot=              0.5035
 Quadrupole moment (field-independent basis, Debye-Ang):
   XX=            -47.7284   YY=            -67.8790   ZZ=            -76.0315
   XY=             -0.1715   XZ=             -0.6164   YZ=             -0.4113

 Normal termination of Gaussian 16 at Fri Dec  8 04:19:41 2023.
