 Gaussian 16, Revision B.01,
 Gaussian 16:  ES64L-G16RevB.01 20-Dec-2017

 -------------------------
 #P B3LYP/6-311+g(d) force
 -------------------------

 -----
 DPGEN
 -----
 Symbolic Z-matrix:
 Charge =  0 Multiplicity = 2

                         Standard orientation:
 ---------------------------------------------------------------------
 Center     Atomic      Atomic             Coordinates (Angstroms)
 Number     Number       Type             X           Y           Z
 ---------------------------------------------------------------------
      1         11           0        0.091891   -0.004973    2.095561
      2         11           0        1.317496   -1.654745   -0.952816
      3         11           0       -1.324418    1.562268   -0.750505
      4         11           0        1.578646    1.916112   -0.794064
      5         11           0       -1.998976   -1.602621   -0.768165
      6         11           0       -3.984472    0.125902    0.634294
      7         11           0        4.319833   -0.341943    0.535695
 ---------------------------------------------------------------------

 SCF Done:  E(UB3LYP) =  -1136.10926996     A.U. after   31 cycles

 The electronic state is 2-A.
 Alpha  occ. eigenvalues --  -38.47211 -38.45000 -38.44897 -38.43411 -38.43357
 Alpha  occ. eigenvalues --  -38.42779 -38.42463  -2.22969  -2.20775  -2.20766
 Alpha  occ. eigenvalues --   -2.19356  -2.19231  -2.18682  -2.18447  -1.16665
 Alpha  occ. eigenvalues --   -1.16611  -1.16589  -1.14463  -1.14442  -1.14429
 Alpha  occ. eigenvalues --   -1.14411  -1.14391  -1.14385  -1.13046  -1.13024
 Alpha  occ. eigenvalues --   -1.12998  -1.12917  -1.12883  -1.12843  -1.12473
 Alpha  occ. eigenvalues --   -1.12332  -1.12308  -1.12112  -1.12094  -1.12053
 Alpha  occ. eigenvalues --   -0.18621  -0.14292  -0.11186  -0.10751
 Alpha virt. eigenvalues --   -0.08147  -0.04686  -0.04633  -0.03466  -0.03187
 Alpha virt. eigenvalues --   -0.02244  -0.02179  -0.01508  -0.01139  -0.00338
 Alpha virt. eigenvalues --   -0.00152   0.00206   0.00254   0.00641   0.00735

  Beta  occ. eigenvalues --  -38.47185 -38.44965 -38.44866 -38.43376 -38.43310
  Beta  occ. eigenvalues --  -38.42771 -38.42451  -2.22920  -2.20710  -2.20705
  Beta  occ. eigenvalues --   -2.19298  -2.19149  -2.18672  -2.18430  -1.16623
  Beta  occ. eigenvalues --   -1.16580  -1.16550  -1.14431  -1.14395  -1.14382
  Beta  occ. eigenvalues --   -1.14371  -1.14348  -1.14340  -1.12997  -1.12981
  Beta  occ. eigenvalues --   -1.12934  -1.12867  -1.12826  -1.12756  -1.12453
  Beta  occ. eigenvalues --   -1.12319  -1.12303  -1.12101  -1.12065  -1.12032
  Beta  occ. eigenvalues --   -0.17955  -0.14013  -0.10641
  Beta virt. eigenvalues --   -0.07794  -0.07365  -0.04623  -0.04081  -0.03155
  Beta virt. eigenvalues --   -0.02927  -0.01754  -0.01710  -0.01010  -0.00996
  Beta virt. eigenvalues --   -0.00218  -0.00084   0.00281   0.00388   0.00751

 Mulliken charges and spin densities:
               1          2
     1  Na  -0.442926   0.194957
     2  Na  -0.572806   0.059081
     3  Na  -0.624191   0.166040
     4  Na  -0.333033  -0.081049
     5  Na  -0.514203  -0.051645
     6  Na   1.736017   0.423376
     7  Na   0.751142   0.289240
 Sum of Mulliken charges =  -0.00000   1.00000

 Dipole moment (field-independent basis, Debye):
    X=              0.0075    Y=              0.2649    Z=              1.1689  Tot=              1.1986
 Quadrupole moment (field-independent basis, Debye-Ang):
   XX=            -50.8971   YY=            -81.3219   ZZ=            -65.8996
   XY=              0.6464   XZ=             -1.1239   YZ=              0.1438

 Normal termination of Gaussian 16 at Fri Dec  8 00:51:50 2023.
