 Gaussian 16, Revision B.01,
 Gaussian 16:  ES64L-G16RevB.01 20-Dec-2017

 -------------------------
 #P B3LYP/6-311+g(d) force
 -------------------------

 -----
 DPGEN
 -----
 Symbolic Z-matrix:
 Charge =  0 Multiplicity = 2

                         Standard orientation:
 ---------------------------------------------------------------------
 Center     Atomic      Atomic             Coordinates (Angstroms)
 Number     Number       Type             X           Y           Z
 ---------------------------------------------------------------------
      1         11           0        1.500944    2.095789    0.146271
      2         11           0       -0.699030    0.231367    1.168774
      3         11           0       -1.380647   -2.941071   -0.118955
      4         11           0        1.879529   -1.235661   -0.802592
      5         11           0        4.653151   -0.406974    0.196677
      6         11           0       -4.077544   -0.638697    0.036732
      7         11           0       -1.876404    2.895247   -0.626907
 ---------------------------------------------------------------------

 SCF Done:  E(UB3LYP) =  -1136.12566822     A.U. after   20 cycles

 The electronic state is 2-A.
 Alpha  occ. eigenvalues --  -38.44313 -38.44074 -38.43985 -38.43853 -38.43714
 Alpha  occ. eigenvalues --  -38.43692 -38.43529  -2.20100  -2.19950  -2.19927
 Alpha  occ. eigenvalues --   -2.19662  -2.19579  -2.19558  -2.19343  -1.13784
 Alpha  occ. eigenvalues --   -1.13779  -1.13760  -1.13729  -1.13640  -1.13602
 Alpha  occ. eigenvalues --   -1.13573  -1.13534  -1.13486  -1.13348  -1.13328
 Alpha  occ. eigenvalues --   -1.13299  -1.13281  -1.13251  -1.13244  -1.13189
 Alpha  occ. eigenvalues --   -1.13182  -1.13113  -1.13020  -1.12999  -1.12977
 Alpha  occ. eigenvalues --   -0.17596  -0.13923  -0.12484  -0.10311
 Alpha virt. eigenvalues --   -0.06264  -0.05396  -0.04950  -0.03349  -0.02804
 Alpha virt. eigenvalues --   -0.02278  -0.01839  -0.01126  -0.00788  -0.00663
 Alpha virt. eigenvalues --   -0.00400  -0.00103   0.00522   0.00606   0.00689

  Beta  occ. eigenvalues --  -38.44315 -38.44064 -38.43958 -38.43784 -38.43680
  Beta  occ. eigenvalues --  -38.43636 -38.43516  -2.20105  -2.19933  -2.19884
  Beta  occ. eigenvalues --   -2.19563  -2.19532  -2.19415  -2.19323  -1.13788
  Beta  occ. eigenvalues --   -1.13779  -1.13733  -1.13714  -1.13628  -1.13578
  Beta  occ. eigenvalues --   -1.13529  -1.13519  -1.13464  -1.13297  -1.13242
  Beta  occ. eigenvalues --   -1.13239  -1.13213  -1.13212  -1.13192  -1.13091
  Beta  occ. eigenvalues --   -1.13084  -1.13038  -1.13009  -1.12984  -1.12946
  Beta  occ. eigenvalues --   -0.17086  -0.13223  -0.12253
  Beta virt. eigenvalues --   -0.06902  -0.06053  -0.05274  -0.04474  -0.02814
  Beta virt. eigenvalues --   -0.02513  -0.02154  -0.01440  -0.00963  -0.00628
  Beta virt. eigenvalues --   -0.00429  -0.00080   0.00173   0.00661   0.00720

 Mulliken charges and spin densities:
               1          2
     1  Na   0.075154  -0.058811
     2  Na   0.337336  -0.018688
     3  Na   0.074648   0.018184
     4  Na  -0.661981   0.128075
     5  Na   0.407280   0.364321
     6  Na  -0.028234   0.498353
     7  Na  -0.204202   0.068566
 Sum of Mulliken charges =  -0.00000   1.00000

 Dipole moment (field-independent basis, Debye):
    X=             -0.1398    Y=              0.5402    Z=             -0.1847  Tot=              0.5878
 Quadrupole moment (field-independent basis, Debye-Ang):
   XX=            -70.2891   YY=            -63.9484   ZZ=            -67.5476
   XY=              1.4643   XZ=              3.0988   YZ=             -0.7347

 Normal termination of Gaussian 16 at Tue Nov 28 20:38:49 2023.
