 Gaussian 16, Revision B.01,
 Gaussian 16:  ES64L-G16RevB.01 20-Dec-2017

 -------------------------
 #P B3LYP/6-311+g(d) force
 -------------------------

 -----
 DPGEN
 -----
 Symbolic Z-matrix:
 Charge =  0 Multiplicity = 2

                         Standard orientation:
 ---------------------------------------------------------------------
 Center     Atomic      Atomic             Coordinates (Angstroms)
 Number     Number       Type             X           Y           Z
 ---------------------------------------------------------------------
      1         11           0       -2.952981    1.997504    0.089925
      2         11           0       -3.716146   -1.502772    0.078840
      3         11           0       -0.080270   -1.428673   -1.804328
      4         11           0        3.286783   -1.127125   -0.410928
      5         11           0        0.806828   -2.228267    1.637032
      6         11           0        1.358102    2.244919   -1.453676
      7         11           0        1.297684    2.044413    1.863136
 ---------------------------------------------------------------------

 SCF Done:  E(UB3LYP) =  -1136.11664345     A.U. after   19 cycles

 The electronic state is 2-A.
 Alpha  occ. eigenvalues --  -38.45034 -38.45007 -38.44387 -38.44314 -38.44073
 Alpha  occ. eigenvalues --  -38.43947 -38.43590  -2.20787  -2.20751  -2.20180
 Alpha  occ. eigenvalues --   -2.20057  -2.19875  -2.19729  -2.19388  -1.14464
 Alpha  occ. eigenvalues --   -1.14444  -1.14441  -1.14432  -1.14413  -1.14380
 Alpha  occ. eigenvalues --   -1.13859  -1.13834  -1.13796  -1.13734  -1.13709
 Alpha  occ. eigenvalues --   -1.13702  -1.13534  -1.13516  -1.13508  -1.13390
 Alpha  occ. eigenvalues --   -1.13389  -1.13361  -1.13055  -1.13047  -1.13022
 Alpha  occ. eigenvalues --   -0.16794  -0.12767  -0.11874  -0.10800
 Alpha virt. eigenvalues --   -0.06416  -0.05885  -0.04691  -0.03520  -0.03148
 Alpha virt. eigenvalues --   -0.02745  -0.01845  -0.01431  -0.00769  -0.00442
 Alpha virt. eigenvalues --   -0.00278   0.00008   0.00311   0.00428   0.00630

  Beta  occ. eigenvalues --  -38.45035 -38.45005 -38.44336 -38.44316 -38.44023
  Beta  occ. eigenvalues --  -38.43905 -38.43565  -2.20788  -2.20753  -2.20088
  Beta  occ. eigenvalues --   -2.20060  -2.19783  -2.19652  -2.19342  -1.14451
  Beta  occ. eigenvalues --   -1.14441  -1.14438  -1.14426  -1.14414  -1.14382
  Beta  occ. eigenvalues --   -1.13799  -1.13760  -1.13734  -1.13729  -1.13711
  Beta  occ. eigenvalues --   -1.13704  -1.13473  -1.13453  -1.13438  -1.13341
  Beta  occ. eigenvalues --   -1.13333  -1.13303  -1.13024  -1.13017  -1.12975
  Beta  occ. eigenvalues --   -0.16095  -0.12681  -0.11718
  Beta virt. eigenvalues --   -0.07072  -0.06304  -0.05821  -0.03956  -0.03277
  Beta virt. eigenvalues --   -0.02696  -0.01908  -0.01811  -0.01335  -0.00766
  Beta virt. eigenvalues --   -0.00358  -0.00014   0.00218   0.00395   0.00517

 Mulliken charges and spin densities:
               1          2
     1  Na  -0.003919  -0.030463
     2  Na   0.079993  -0.032541
     3  Na  -0.075748   0.317177
     4  Na   0.462754  -0.000856
     5  Na  -0.203278   0.362197
     6  Na  -0.018656   0.121579
     7  Na  -0.241146   0.262908
 Sum of Mulliken charges =  -0.00000   1.00000

 Dipole moment (field-independent basis, Debye):
    X=              0.0987    Y=             -0.3407    Z=             -0.0302  Tot=              0.3560
 Quadrupole moment (field-independent basis, Debye-Ang):
   XX=            -57.8186   YY=            -69.7150   ZZ=            -70.0409
   XY=             -0.9487   XZ=             -1.9396   YZ=             -1.0516

 Normal termination of Gaussian 16 at Mon Dec  4 01:01:41 2023.
