 Gaussian 16, Revision B.01,
 Gaussian 16:  ES64L-G16RevB.01 20-Dec-2017

 -------------------------
 #P B3LYP/6-311+g(d) force
 -------------------------

 -----
 DPGEN
 -----
 Symbolic Z-matrix:
 Charge =  0 Multiplicity = 2

                         Standard orientation:
 ---------------------------------------------------------------------
 Center     Atomic      Atomic             Coordinates (Angstroms)
 Number     Number       Type             X           Y           Z
 ---------------------------------------------------------------------
      1         11           0       -0.153578    3.080309    0.752781
      2         11           0        4.377394   -1.340834   -0.139813
      3         11           0        3.501532    2.431583   -0.734085
      4         11           0       -4.254372   -0.762455   -0.622778
      5         11           0       -3.166686    2.484985    0.132559
      6         11           0       -1.962070   -3.376888   -0.015147
      7         11           0        1.657779   -2.516700    0.626484
 ---------------------------------------------------------------------

 SCF Done:  E(UB3LYP) =  -1136.10407497     A.U. after   24 cycles

 The electronic state is 2-A.
 Alpha  occ. eigenvalues --  -38.45382 -38.45064 -38.44955 -38.44479 -38.44447
 Alpha  occ. eigenvalues --  -38.44366 -38.43807  -2.21143  -2.20834  -2.20756
 Alpha  occ. eigenvalues --   -2.20255  -2.20239  -2.20143  -2.19635  -1.14821
 Alpha  occ. eigenvalues --   -1.14804  -1.14780  -1.14516  -1.14510  -1.14481
 Alpha  occ. eigenvalues --   -1.14468  -1.14414  -1.14383  -1.13916  -1.13912
 Alpha  occ. eigenvalues --   -1.13909  -1.13904  -1.13888  -1.13867  -1.13794
 Alpha  occ. eigenvalues --   -1.13774  -1.13764  -1.13298  -1.13282  -1.13272
 Alpha  occ. eigenvalues --   -0.15557  -0.14129  -0.13253  -0.10772
 Alpha virt. eigenvalues --   -0.08016  -0.04758  -0.04552  -0.03666  -0.03573
 Alpha virt. eigenvalues --   -0.02403  -0.02220  -0.01872  -0.01359  -0.00939
 Alpha virt. eigenvalues --   -0.00803  -0.00154   0.00169   0.00197   0.00610

  Beta  occ. eigenvalues --  -38.45366 -38.45057 -38.44937 -38.44464 -38.44413
  Beta  occ. eigenvalues --  -38.44267 -38.43771  -2.21117  -2.20827  -2.20729
  Beta  occ. eigenvalues --   -2.20215  -2.20194  -2.19960  -2.19568  -1.14805
  Beta  occ. eigenvalues --   -1.14788  -1.14744  -1.14513  -1.14509  -1.14441
  Beta  occ. eigenvalues --   -1.14434  -1.14400  -1.14351  -1.13898  -1.13893
  Beta  occ. eigenvalues --   -1.13874  -1.13867  -1.13852  -1.13828  -1.13669
  Beta  occ. eigenvalues --   -1.13649  -1.13642  -1.13252  -1.13237  -1.13229
  Beta  occ. eigenvalues --   -0.15104  -0.13469  -0.12481
  Beta virt. eigenvalues --   -0.08239  -0.07511  -0.04296  -0.04113  -0.03486
  Beta virt. eigenvalues --   -0.03284  -0.02221  -0.01968  -0.01646  -0.01082
  Beta virt. eigenvalues --   -0.00670  -0.00576   0.00073   0.00123   0.00380

 Mulliken charges and spin densities:
               1          2
     1  Na  -0.406568   0.030894
     2  Na   0.609686  -0.029969
     3  Na   0.014735   0.503888
     4  Na   0.032020   0.101524
     5  Na   0.223545   0.137819
     6  Na   0.229543   0.125986
     7  Na  -0.702960   0.129858
 Sum of Mulliken charges =  -0.00000   1.00000

 Dipole moment (field-independent basis, Debye):
    X=             -0.1959    Y=             -0.3939    Z=             -0.0912  Tot=              0.4493
 Quadrupole moment (field-independent basis, Debye-Ang):
   XX=            -55.0032   YY=            -72.8333   ZZ=            -72.7247
   XY=             -1.7930   XZ=              0.6467   YZ=              0.1589

 Normal termination of Gaussian 16 at Sun Dec  3 23:43:40 2023.
