 Gaussian 16, Revision B.01,
 Gaussian 16:  ES64L-G16RevB.01 20-Dec-2017

 -------------------------
 #P B3LYP/6-311+g(d) force
 -------------------------

 -----
 DPGEN
 -----
 Symbolic Z-matrix:
 Charge =  0 Multiplicity = 2

                         Standard orientation:
 ---------------------------------------------------------------------
 Center     Atomic      Atomic             Coordinates (Angstroms)
 Number     Number       Type             X           Y           Z
 ---------------------------------------------------------------------
      1         11           0        2.592813    1.706915    0.097242
      2         11           0        0.491516   -0.045297   -1.358723
      3         11           0       -1.093335    2.834713   -0.282336
      4         11           0       -3.100766    0.297933    0.023831
      5         11           0       -0.271072   -0.451086    2.076550
      6         11           0       -1.498655   -2.741695   -0.535941
      7         11           0        2.879499   -1.601483   -0.020624
 ---------------------------------------------------------------------

 SCF Done:  E(UB3LYP) =  -1136.13251594     A.U. after   20 cycles

 The electronic state is 2-A.
 Alpha  occ. eigenvalues --  -38.44469 -38.44216 -38.44213 -38.43543 -38.43468
 Alpha  occ. eigenvalues --  -38.43140 -38.43043  -2.20307  -2.20068  -2.20062
 Alpha  occ. eigenvalues --   -2.19365  -2.19334  -2.19056  -2.18974  -1.14008
 Alpha  occ. eigenvalues --   -1.13963  -1.13943  -1.13778  -1.13737  -1.13731
 Alpha  occ. eigenvalues --   -1.13720  -1.13705  -1.13683  -1.13043  -1.13022
 Alpha  occ. eigenvalues --   -1.13008  -1.13002  -1.12955  -1.12946  -1.12749
 Alpha  occ. eigenvalues --   -1.12708  -1.12690  -1.12641  -1.12629  -1.12613
 Alpha  occ. eigenvalues --   -0.18455  -0.13526  -0.12126  -0.10349
 Alpha virt. eigenvalues --   -0.05984  -0.05578  -0.04568  -0.03321  -0.02549
 Alpha virt. eigenvalues --   -0.02239  -0.01770  -0.01301  -0.00645  -0.00447
 Alpha virt. eigenvalues --   -0.00002   0.00336   0.00727   0.00782   0.00857

  Beta  occ. eigenvalues --  -38.44466 -38.44212 -38.44210 -38.43529 -38.43370
  Beta  occ. eigenvalues --  -38.43137 -38.42995  -2.20305  -2.20064  -2.20059
  Beta  occ. eigenvalues --   -2.19342  -2.19152  -2.18972  -2.18970  -1.14004
  Beta  occ. eigenvalues --   -1.13952  -1.13935  -1.13773  -1.13736  -1.13709
  Beta  occ. eigenvalues --   -1.13703  -1.13700  -1.13684  -1.13021  -1.12996
  Beta  occ. eigenvalues --   -1.12988  -1.12884  -1.12827  -1.12820  -1.12682
  Beta  occ. eigenvalues --   -1.12667  -1.12632  -1.12628  -1.12612  -1.12598
  Beta  occ. eigenvalues --   -0.17774  -0.13327  -0.11897
  Beta virt. eigenvalues --   -0.06469  -0.05935  -0.05526  -0.04506  -0.02549
  Beta virt. eigenvalues --   -0.01890  -0.01673  -0.01232  -0.01200  -0.00689
  Beta virt. eigenvalues --   -0.00458   0.00174   0.00383   0.00775   0.00809

 Mulliken charges and spin densities:
               1          2
     1  Na   0.155581   0.081880
     2  Na  -0.314113   0.180544
     3  Na  -0.013343  -0.014509
     4  Na   0.273248   0.079670
     5  Na  -0.483645   0.669827
     6  Na   0.098875   0.017586
     7  Na   0.283397  -0.014998
 Sum of Mulliken charges =  -0.00000   1.00000

 Dipole moment (field-independent basis, Debye):
    X=              0.4764    Y=             -0.2369    Z=              0.1931  Tot=              0.5661
 Quadrupole moment (field-independent basis, Debye-Ang):
   XX=            -53.2743   YY=            -62.6460   ZZ=            -76.6814
   XY=             -0.2186   XZ=              1.3115   YZ=              0.9848

 Normal termination of Gaussian 16 at Thu Dec  7 06:33:21 2023.
