 Gaussian 16, Revision B.01,
 Gaussian 16:  ES64L-G16RevB.01 20-Dec-2017

 -------------------------
 #P B3LYP/6-311+g(d) force
 -------------------------

 -----
 DPGEN
 -----
 Symbolic Z-matrix:
 Charge =  0 Multiplicity = 2

                         Standard orientation:
 ---------------------------------------------------------------------
 Center     Atomic      Atomic             Coordinates (Angstroms)
 Number     Number       Type             X           Y           Z
 ---------------------------------------------------------------------
      1         11           0       -7.341807    0.134138    1.674556
      2         11           0        3.495117    2.322274   -0.096099
      3         11           0        5.142818   -0.141374    1.662767
      4         11           0        7.360352   -2.423414   -0.366380
      5         11           0       -2.889167   -0.508549   -1.306142
      6         11           0       -6.155426   -1.486002   -0.551796
      7         11           0        0.388113    2.102927   -1.016906
 ---------------------------------------------------------------------

 SCF Done:  E(UB3LYP) =  -1136.09962781     A.U. after   19 cycles

 The electronic state is 2-A.
 Alpha  occ. eigenvalues --  -38.45131 -38.45076 -38.44863 -38.44586 -38.44350
 Alpha  occ. eigenvalues --  -38.44201 -38.44118  -2.20897  -2.20879  -2.20646
 Alpha  occ. eigenvalues --   -2.20322  -2.20176  -2.19946  -2.19933  -1.14582
 Alpha  occ. eigenvalues --   -1.14533  -1.14532  -1.14526  -1.14520  -1.14483
 Alpha  occ. eigenvalues --   -1.14298  -1.14291  -1.14251  -1.14016  -1.14010
 Alpha  occ. eigenvalues --   -1.13963  -1.13853  -1.13835  -1.13823  -1.13661
 Alpha  occ. eigenvalues --   -1.13634  -1.13622  -1.13591  -1.13581  -1.13518
 Alpha  occ. eigenvalues --   -0.15086  -0.14316  -0.12445  -0.11331
 Alpha virt. eigenvalues --   -0.07389  -0.05680  -0.03979  -0.03343  -0.03203
 Alpha virt. eigenvalues --   -0.02646  -0.02531  -0.02203  -0.01294  -0.01205
 Alpha virt. eigenvalues --   -0.00956  -0.00571  -0.00173   0.00033   0.00305

  Beta  occ. eigenvalues --  -38.45056 -38.45005 -38.44764 -38.44619 -38.44356
  Beta  occ. eigenvalues --  -38.44239 -38.44079  -2.20765  -2.20738  -2.20460
  Beta  occ. eigenvalues --   -2.20386  -2.20195  -2.20019  -2.19859  -1.14497
  Beta  occ. eigenvalues --   -1.14436  -1.14436  -1.14435  -1.14429  -1.14391
  Beta  occ. eigenvalues --   -1.14171  -1.14165  -1.14134  -1.14061  -1.14054
  Beta  occ. eigenvalues --   -1.13989  -1.13854  -1.13854  -1.13801  -1.13690
  Beta  occ. eigenvalues --   -1.13685  -1.13656  -1.13539  -1.13533  -1.13501
  Beta  occ. eigenvalues --   -0.14465  -0.14014  -0.11887
  Beta virt. eigenvalues --   -0.08108  -0.06858  -0.05296  -0.03777  -0.03153
  Beta virt. eigenvalues --   -0.02991  -0.02543  -0.02211  -0.01871  -0.01125
  Beta virt. eigenvalues --   -0.00962  -0.00598  -0.00271   0.00078   0.00205

 Mulliken charges and spin densities:
               1          2
     1  Na  -0.003746   0.283402
     2  Na  -0.028657   0.136029
     3  Na  -0.165772  -0.130598
     4  Na   0.135630   0.397951
     5  Na  -0.169896   0.547117
     6  Na   0.016706   0.023113
     7  Na   0.215735  -0.257015
 Sum of Mulliken charges =  -0.00000   1.00000

 Dipole moment (field-independent basis, Debye):
    X=             -0.7667    Y=             -0.3436    Z=              0.3798  Tot=              0.9220
 Quadrupole moment (field-independent basis, Debye-Ang):
   XX=            -56.4997   YY=            -67.6028   ZZ=            -67.3076
   XY=             -4.1951   XZ=             -6.6486   YZ=              5.0698

 Normal termination of Gaussian 16 at Sun Dec  3 18:44:22 2023.
