 Gaussian 16, Revision B.01,
 Gaussian 16:  ES64L-G16RevB.01 20-Dec-2017

 -------------------------
 #P B3LYP/6-311+g(d) force
 -------------------------

 -----
 DPGEN
 -----
 Symbolic Z-matrix:
 Charge =  0 Multiplicity = 2

                         Standard orientation:
 ---------------------------------------------------------------------
 Center     Atomic      Atomic             Coordinates (Angstroms)
 Number     Number       Type             X           Y           Z
 ---------------------------------------------------------------------
      1         11           0        1.745597   -2.327281   -0.278691
      2         11           0       -0.091656    3.241065    0.055722
      3         11           0        3.123211    0.733686    0.176659
      4         11           0       -0.234143    0.478770   -1.818259
      5         11           0       -1.413473   -2.364029   -0.073217
      6         11           0       -0.164696   -0.162950    1.841281
      7         11           0       -2.964840    0.400739    0.096506
 ---------------------------------------------------------------------

 SCF Done:  E(UB3LYP) =  -1136.13563797     A.U. after   19 cycles

 The electronic state is 2-A.
 Alpha  occ. eigenvalues --  -38.44169 -38.43995 -38.43882 -38.43383 -38.43368
 Alpha  occ. eigenvalues --  -38.43287 -38.43247  -2.19959  -2.19786  -2.19767
 Alpha  occ. eigenvalues --   -2.19330  -2.19244  -2.19217  -2.19196  -1.13635
 Alpha  occ. eigenvalues --   -1.13625  -1.13597  -1.13474  -1.13467  -1.13445
 Alpha  occ. eigenvalues --   -1.13436  -1.13422  -1.13397  -1.13055  -1.12977
 Alpha  occ. eigenvalues --   -1.12964  -1.12945  -1.12904  -1.12891  -1.12887
 Alpha  occ. eigenvalues --   -1.12856  -1.12841  -1.12835  -1.12820  -1.12800
 Alpha  occ. eigenvalues --   -0.18794  -0.12901  -0.12652  -0.10698
 Alpha virt. eigenvalues --   -0.05840  -0.05067  -0.04727  -0.03079  -0.03038
 Alpha virt. eigenvalues --   -0.02446  -0.01417  -0.01271  -0.00452  -0.00224
 Alpha virt. eigenvalues --    0.00001   0.00363   0.00811   0.00877   0.00932

  Beta  occ. eigenvalues --  -38.44168 -38.43995 -38.43873 -38.43361 -38.43302
  Beta  occ. eigenvalues --  -38.43237 -38.43212  -2.19959  -2.19788  -2.19756
  Beta  occ. eigenvalues --   -2.19234  -2.19185  -2.19178  -2.19080  -1.13627
  Beta  occ. eigenvalues --   -1.13618  -1.13600  -1.13466  -1.13461  -1.13440
  Beta  occ. eigenvalues --   -1.13426  -1.13399  -1.13386  -1.13002  -1.12938
  Beta  occ. eigenvalues --   -1.12891  -1.12872  -1.12867  -1.12832  -1.12828
  Beta  occ. eigenvalues --   -1.12798  -1.12793  -1.12771  -1.12745  -1.12733
  Beta  occ. eigenvalues --   -0.18040  -0.12670  -0.12416
  Beta virt. eigenvalues --   -0.06786  -0.05840  -0.04965  -0.04729  -0.02305
  Beta virt. eigenvalues --   -0.02262  -0.01448  -0.01329  -0.01173  -0.00488
  Beta virt. eigenvalues --   -0.00279   0.00138   0.00390   0.00812   0.00900

 Mulliken charges and spin densities:
               1          2
     1  Na   0.001387  -0.020772
     2  Na  -0.061653  -0.195947
     3  Na  -0.048099  -0.091498
     4  Na  -0.298272   0.626155
     5  Na   0.385594   0.109955
     6  Na  -0.382490   0.655115
     7  Na   0.403533  -0.083008
 Sum of Mulliken charges =  -0.00000   1.00000

 Dipole moment (field-independent basis, Debye):
    X=              0.0871    Y=              0.5054    Z=              0.0485  Tot=              0.5152
 Quadrupole moment (field-independent basis, Debye-Ang):
   XX=            -58.3034   YY=            -60.7278   ZZ=            -74.5393
   XY=              0.2169   XZ=             -0.0624   YZ=              1.6142

 Normal termination of Gaussian 16 at Thu Dec  7 20:38:09 2023.
