 Gaussian 16, Revision B.01,
 Gaussian 16:  ES64L-G16RevB.01 20-Dec-2017

 -------------------------
 #P B3LYP/6-311+g(d) force
 -------------------------

 -----
 DPGEN
 -----
 Symbolic Z-matrix:
 Charge =  0 Multiplicity = 2

                         Standard orientation:
 ---------------------------------------------------------------------
 Center     Atomic      Atomic             Coordinates (Angstroms)
 Number     Number       Type             X           Y           Z
 ---------------------------------------------------------------------
      1         11           0        0.561643    0.641715    1.673997
      2         11           0        0.589676   -2.152425   -0.493743
      3         11           0       -2.078111    0.136147   -1.204133
      4         11           0        3.996606   -0.598979    0.359097
      5         11           0       -2.909689   -2.472336    0.631811
      6         11           0        1.453455    1.162583   -1.404789
      7         11           0       -1.613581    3.283295    0.437759
 ---------------------------------------------------------------------

 SCF Done:  E(UB3LYP) =  -1136.13012193     A.U. after   20 cycles

 The electronic state is 2-A.
 Alpha  occ. eigenvalues --  -38.44786 -38.44028 -38.43919 -38.43771 -38.43662
 Alpha  occ. eigenvalues --  -38.43552 -38.43429  -2.20562  -2.19868  -2.19786
 Alpha  occ. eigenvalues --   -2.19568  -2.19552  -2.19334  -2.19305  -1.14239
 Alpha  occ. eigenvalues --   -1.14227  -1.14184  -1.13599  -1.13562  -1.13503
 Alpha  occ. eigenvalues --   -1.13449  -1.13446  -1.13368  -1.13255  -1.13246
 Alpha  occ. eigenvalues --   -1.13222  -1.13212  -1.13196  -1.13132  -1.13014
 Alpha  occ. eigenvalues --   -1.13000  -1.12999  -1.12978  -1.12962  -1.12899
 Alpha  occ. eigenvalues --   -0.18006  -0.13149  -0.12101  -0.10198
 Alpha virt. eigenvalues --   -0.06461  -0.05368  -0.04713  -0.03094  -0.02689
 Alpha virt. eigenvalues --   -0.02283  -0.02075  -0.01468  -0.00776  -0.00335
 Alpha virt. eigenvalues --    0.00099   0.00196   0.00577   0.00619   0.00715

  Beta  occ. eigenvalues --  -38.44782 -38.44014 -38.43861 -38.43762 -38.43608
  Beta  occ. eigenvalues --  -38.43548 -38.43404  -2.20556  -2.19846  -2.19680
  Beta  occ. eigenvalues --   -2.19552  -2.19456  -2.19329  -2.19263  -1.14236
  Beta  occ. eigenvalues --   -1.14211  -1.14181  -1.13585  -1.13509  -1.13440
  Beta  occ. eigenvalues --   -1.13424  -1.13374  -1.13289  -1.13244  -1.13207
  Beta  occ. eigenvalues --   -1.13186  -1.13184  -1.13118  -1.13068  -1.13011
  Beta  occ. eigenvalues --   -1.12983  -1.12971  -1.12962  -1.12923  -1.12877
  Beta  occ. eigenvalues --   -0.17284  -0.13009  -0.11914
  Beta virt. eigenvalues --   -0.06471  -0.06252  -0.05286  -0.04467  -0.02678
  Beta virt. eigenvalues --   -0.02192  -0.02145  -0.01390  -0.01223  -0.00419
  Beta virt. eigenvalues --   -0.00294   0.00159   0.00278   0.00654   0.00685

 Mulliken charges and spin densities:
               1          2
     1  Na  -0.389265   0.668170
     2  Na  -0.194936   0.035536
     3  Na   0.215034   0.319858
     4  Na   0.498996   0.064914
     5  Na   0.062571  -0.118299
     6  Na  -0.111152   0.181354
     7  Na  -0.081249  -0.151533
 Sum of Mulliken charges =  -0.00000   1.00000

 Dipole moment (field-independent basis, Debye):
    X=              0.7990    Y=             -0.1826    Z=              0.0565  Tot=              0.8215
 Quadrupole moment (field-independent basis, Debye-Ang):
   XX=            -51.2687   YY=            -64.9556   ZZ=            -74.5802
   XY=             -2.0789   XZ=             -0.8235   YZ=             -1.9278

 Normal termination of Gaussian 16 at Thu Dec  7 14:33:32 2023.
