 Gaussian 16, Revision B.01,
 Gaussian 16:  ES64L-G16RevB.01 20-Dec-2017

 -------------------------
 #P B3LYP/6-311+g(d) force
 -------------------------

 -----
 DPGEN
 -----
 Symbolic Z-matrix:
 Charge =  0 Multiplicity = 2

                         Standard orientation:
 ---------------------------------------------------------------------
 Center     Atomic      Atomic             Coordinates (Angstroms)
 Number     Number       Type             X           Y           Z
 ---------------------------------------------------------------------
      1         11           0       -1.646871   -2.313600   -1.904984
      2         11           0       -3.335529   -0.484317    0.499265
      3         11           0        2.746363   -0.033367    0.983529
      4         11           0       -2.763899    2.749513   -0.327643
      5         11           0        5.312801    0.447840   -0.957868
      6         11           0       -0.058779   -1.059554    2.274443
      7         11           0       -0.254087    0.693485   -0.566741
 ---------------------------------------------------------------------

 SCF Done:  E(UB3LYP) =  -1136.11071868     A.U. after   25 cycles

 The electronic state is 2-A.
 Alpha  occ. eigenvalues --  -38.45000 -38.44644 -38.44618 -38.44604 -38.44226
 Alpha  occ. eigenvalues --  -38.43258 -38.42725  -2.20851  -2.20530  -2.20450
 Alpha  occ. eigenvalues --   -2.20431  -2.20084  -2.19128  -2.18556  -1.14550
 Alpha  occ. eigenvalues --   -1.14530  -1.14460  -1.14256  -1.14195  -1.14160
 Alpha  occ. eigenvalues --   -1.14090  -1.14082  -1.14082  -1.14072  -1.14062
 Alpha  occ. eigenvalues --   -1.14025  -1.13749  -1.13745  -1.13697  -1.12816
 Alpha  occ. eigenvalues --   -1.12795  -1.12784  -1.12229  -1.12213  -1.12208
 Alpha  occ. eigenvalues --   -0.17758  -0.14088  -0.11664  -0.11427
 Alpha virt. eigenvalues --   -0.07327  -0.05024  -0.04222  -0.03355  -0.03013
 Alpha virt. eigenvalues --   -0.02371  -0.02266  -0.01629  -0.01332  -0.00609
 Alpha virt. eigenvalues --   -0.00443  -0.00189   0.00110   0.00595   0.00751

  Beta  occ. eigenvalues --  -38.44997 -38.44627 -38.44552 -38.44500 -38.44182
  Beta  occ. eigenvalues --  -38.43252 -38.42735  -2.20850  -2.20549  -2.20279
  Beta  occ. eigenvalues --   -2.20237  -2.20006  -2.19128  -2.18575  -1.14537
  Beta  occ. eigenvalues --   -1.14526  -1.14459  -1.14237  -1.14216  -1.14181
  Beta  occ. eigenvalues --   -1.13974  -1.13966  -1.13959  -1.13951  -1.13926
  Beta  occ. eigenvalues --   -1.13903  -1.13694  -1.13687  -1.13649  -1.12827
  Beta  occ. eigenvalues --   -1.12801  -1.12717  -1.12251  -1.12222  -1.12214
  Beta  occ. eigenvalues --   -0.17317  -0.13250  -0.11130
  Beta virt. eigenvalues --   -0.08039  -0.07184  -0.04617  -0.03960  -0.03003
  Beta virt. eigenvalues --   -0.02757  -0.02171  -0.01930  -0.01253  -0.00894
  Beta virt. eigenvalues --   -0.00353  -0.00214   0.00009   0.00152   0.00660

 Mulliken charges and spin densities:
               1          2
     1  Na  -0.093098   0.283502
     2  Na   0.974422   0.218971
     3  Na  -0.125121   0.300807
     4  Na   0.368384  -0.164895
     5  Na   0.127023   0.384137
     6  Na   0.283541  -0.153610
     7  Na  -1.535150   0.131087
 Sum of Mulliken charges =  -0.00000   1.00000

 Dipole moment (field-independent basis, Debye):
    X=             -0.5655    Y=             -0.9147    Z=              0.2017  Tot=              1.0941
 Quadrupole moment (field-independent basis, Debye-Ang):
   XX=            -60.6837   YY=            -73.6015   ZZ=            -65.0270
   XY=              3.0719   XZ=             -6.2226   YZ=             -0.7714

 Normal termination of Gaussian 16 at Wed Nov 29 02:06:43 2023.
