 Gaussian 16, Revision B.01,
 Gaussian 16:  ES64L-G16RevB.01 20-Dec-2017

 -------------------------
 #P B3LYP/6-311+g(d) force
 -------------------------

 -----
 DPGEN
 -----
 Symbolic Z-matrix:
 Charge =  0 Multiplicity = 2

                         Standard orientation:
 ---------------------------------------------------------------------
 Center     Atomic      Atomic             Coordinates (Angstroms)
 Number     Number       Type             X           Y           Z
 ---------------------------------------------------------------------
      1         11           0       -1.421739   -0.147368    2.549328
      2         11           0        2.524222   -0.695902    1.235008
      3         11           0        2.884333   -1.305189   -1.516708
      4         11           0       -0.048380    0.570929   -0.371093
      5         11           0       -1.693512   -2.259414   -0.128956
      6         11           0       -2.859338    0.243108   -1.649922
      7         11           0        0.614413    3.593836   -0.117658
 ---------------------------------------------------------------------

 SCF Done:  E(UB3LYP) =  -1136.11326008     A.U. after   22 cycles

 The electronic state is 2-A.
 Alpha  occ. eigenvalues --  -38.45143 -38.44869 -38.44283 -38.44140 -38.43689
 Alpha  occ. eigenvalues --  -38.42742 -38.42134  -2.20986  -2.20735  -2.20164
 Alpha  occ. eigenvalues --   -2.19995  -2.19570  -2.18528  -2.18216  -1.14646
 Alpha  occ. eigenvalues --   -1.14606  -1.14593  -1.14426  -1.14358  -1.14352
 Alpha  occ. eigenvalues --   -1.14013  -1.13824  -1.13779  -1.13625  -1.13608
 Alpha  occ. eigenvalues --   -1.13566  -1.13260  -1.13232  -1.13200  -1.12235
 Alpha  occ. eigenvalues --   -1.12179  -1.12172  -1.11949  -1.11874  -1.11829
 Alpha  occ. eigenvalues --   -0.18180  -0.13417  -0.11813  -0.11097
 Alpha virt. eigenvalues --   -0.05512  -0.05186  -0.04831  -0.03356  -0.03013
 Alpha virt. eigenvalues --   -0.02494  -0.01472  -0.01139  -0.01010   0.00113
 Alpha virt. eigenvalues --    0.00141   0.00334   0.00477   0.00663   0.00797

  Beta  occ. eigenvalues --  -38.45035 -38.44813 -38.44281 -38.44121 -38.43682
  Beta  occ. eigenvalues --  -38.42750 -38.42115  -2.20788  -2.20633  -2.20162
  Beta  occ. eigenvalues --   -2.19959  -2.19563  -2.18544  -2.18189  -1.14511
  Beta  occ. eigenvalues --   -1.14466  -1.14456  -1.14354  -1.14288  -1.14279
  Beta  occ. eigenvalues --   -1.13997  -1.13818  -1.13779  -1.13599  -1.13584
  Beta  occ. eigenvalues --   -1.13546  -1.13261  -1.13201  -1.13184  -1.12244
  Beta  occ. eigenvalues --   -1.12188  -1.12183  -1.11878  -1.11862  -1.11816
  Beta  occ. eigenvalues --   -0.17392  -0.13135  -0.11030
  Beta virt. eigenvalues --   -0.07863  -0.05207  -0.04785  -0.04523  -0.02992
  Beta virt. eigenvalues --   -0.02455  -0.01945  -0.01285  -0.00992  -0.00593
  Beta virt. eigenvalues --    0.00197   0.00247   0.00419   0.00573   0.00755

 Mulliken charges and spin densities:
               1          2
     1  Na   0.025874   0.535810
     2  Na   0.515662   0.061797
     3  Na   0.288648  -0.030060
     4  Na  -1.999431   0.256249
     5  Na   1.054215  -0.074054
     6  Na   0.056357   0.130523
     7  Na   0.058674   0.119734
 Sum of Mulliken charges =  -0.00000   1.00000

 Dipole moment (field-independent basis, Debye):
    X=             -0.6263    Y=             -0.8846    Z=              0.1555  Tot=              1.0950
 Quadrupole moment (field-independent basis, Debye-Ang):
   XX=            -61.0861   YY=            -72.2587   ZZ=            -60.7568
   XY=             -0.8632   XZ=              0.5286   YZ=              1.0984

 Normal termination of Gaussian 16 at Tue Dec  5 16:44:34 2023.
