 Gaussian 16, Revision B.01,
 Gaussian 16:  ES64L-G16RevB.01 20-Dec-2017

 -------------------------
 #P B3LYP/6-311+g(d) force
 -------------------------

 -----
 DPGEN
 -----
 Symbolic Z-matrix:
 Charge =  0 Multiplicity = 2

                         Standard orientation:
 ---------------------------------------------------------------------
 Center     Atomic      Atomic             Coordinates (Angstroms)
 Number     Number       Type             X           Y           Z
 ---------------------------------------------------------------------
      1         11           0       -1.435124    2.332863    0.153932
      2         11           0       -0.280651    0.228393   -1.662593
      3         11           0       -3.199798   -0.645400    0.077733
      4         11           0       -0.370725   -2.487663    0.344201
      5         11           0        2.393443   -1.458201   -0.691376
      6         11           0        0.994720   -0.068129    1.759627
      7         11           0        1.898134    2.098138    0.018475
 ---------------------------------------------------------------------

 SCF Done:  E(UB3LYP) =  -1136.13109279     A.U. after   20 cycles

 The electronic state is 2-A.
 Alpha  occ. eigenvalues --  -38.43914 -38.43638 -38.43580 -38.43467 -38.43432
 Alpha  occ. eigenvalues --  -38.43168 -38.43139  -2.19743  -2.19581  -2.19482
 Alpha  occ. eigenvalues --   -2.19463  -2.19404  -2.19207  -2.19087  -1.13412
 Alpha  occ. eigenvalues --   -1.13404  -1.13399  -1.13330  -1.13298  -1.13255
 Alpha  occ. eigenvalues --   -1.13246  -1.13215  -1.13143  -1.13122  -1.13104
 Alpha  occ. eigenvalues --   -1.13055  -1.13040  -1.12994  -1.12973  -1.12880
 Alpha  occ. eigenvalues --   -1.12838  -1.12808  -1.12762  -1.12735  -1.12696
 Alpha  occ. eigenvalues --   -0.19473  -0.13230  -0.12844  -0.10955
 Alpha virt. eigenvalues --   -0.05460  -0.05080  -0.04502  -0.03280  -0.03023
 Alpha virt. eigenvalues --   -0.02378  -0.01347  -0.00985  -0.00099  -0.00029
 Alpha virt. eigenvalues --    0.00111   0.00350   0.00901   0.00929   0.00958

  Beta  occ. eigenvalues --  -38.43915 -38.43615 -38.43576 -38.43456 -38.43357
  Beta  occ. eigenvalues --  -38.43126 -38.43096  -2.19747  -2.19543  -2.19476
  Beta  occ. eigenvalues --   -2.19395  -2.19320  -2.19078  -2.19068  -1.13414
  Beta  occ. eigenvalues --   -1.13404  -1.13394  -1.13296  -1.13259  -1.13230
  Beta  occ. eigenvalues --   -1.13196  -1.13176  -1.13114  -1.13106  -1.13048
  Beta  occ. eigenvalues --   -1.13011  -1.12996  -1.12944  -1.12911  -1.12804
  Beta  occ. eigenvalues --   -1.12762  -1.12731  -1.12709  -1.12691  -1.12678
  Beta  occ. eigenvalues --   -0.18734  -0.13024  -0.12556
  Beta virt. eigenvalues --   -0.06954  -0.05377  -0.05049  -0.04492  -0.02549
  Beta virt. eigenvalues --   -0.02212  -0.01395  -0.01212  -0.00913  -0.00077
  Beta virt. eigenvalues --    0.00004   0.00164   0.00394   0.00917   0.00957

 Mulliken charges and spin densities:
               1          2
     1  Na   0.049198  -0.062595
     2  Na  -0.395968   0.480378
     3  Na  -0.102717  -0.064521
     4  Na   0.170777   0.069623
     5  Na   0.211180   0.053695
     6  Na  -0.323420   0.520292
     7  Na   0.390950   0.003128
 Sum of Mulliken charges =  -0.00000   1.00000

 Dipole moment (field-independent basis, Debye):
    X=             -0.1822    Y=              0.1000    Z=              0.0042  Tot=              0.2079
 Quadrupole moment (field-independent basis, Debye-Ang):
   XX=            -56.8726   YY=            -64.2585   ZZ=            -73.0871
   XY=              0.0062   XZ=             -2.4292   YZ=              0.6947

 Normal termination of Gaussian 16 at Thu Dec  7 10:45:14 2023.
