 Gaussian 16, Revision B.01,
 Gaussian 16:  ES64L-G16RevB.01 20-Dec-2017

 -------------------------
 #P B3LYP/6-311+g(d) force
 -------------------------

 -----
 DPGEN
 -----
 Symbolic Z-matrix:
 Charge =  0 Multiplicity = 2

                         Standard orientation:
 ---------------------------------------------------------------------
 Center     Atomic      Atomic             Coordinates (Angstroms)
 Number     Number       Type             X           Y           Z
 ---------------------------------------------------------------------
      1         11           0        0.871182   -1.190454   -1.353591
      2         11           0        3.807448   -1.299894    0.604075
      3         11           0        0.210473   -0.129587    1.974307
      4         11           0       -3.367563   -0.247855    1.537895
      5         11           0        1.892066    2.221766   -0.451382
      6         11           0       -1.100669    2.037067   -0.700500
      7         11           0       -2.312937   -1.391043   -1.610803
 ---------------------------------------------------------------------

 SCF Done:  E(UB3LYP) =  -1136.12476114     A.U. after   23 cycles

 The electronic state is 2-A.
 Alpha  occ. eigenvalues --  -38.45226 -38.44736 -38.44078 -38.44075 -38.43917
 Alpha  occ. eigenvalues --  -38.43063 -38.42715  -2.21050  -2.20540  -2.19931
 Alpha  occ. eigenvalues --   -2.19843  -2.19805  -2.18930  -2.18608  -1.14745
 Alpha  occ. eigenvalues --   -1.14690  -1.14658  -1.14202  -1.14191  -1.14169
 Alpha  occ. eigenvalues --   -1.13653  -1.13576  -1.13542  -1.13519  -1.13511
 Alpha  occ. eigenvalues --   -1.13494  -1.13480  -1.13444  -1.13404  -1.12662
 Alpha  occ. eigenvalues --   -1.12594  -1.12555  -1.12278  -1.12267  -1.12221
 Alpha  occ. eigenvalues --   -0.18232  -0.13494  -0.12026  -0.11171
 Alpha virt. eigenvalues --   -0.06524  -0.04977  -0.04778  -0.03506  -0.02733
 Alpha virt. eigenvalues --   -0.02526  -0.02359  -0.01161  -0.00894  -0.00032
 Alpha virt. eigenvalues --    0.00132   0.00188   0.00415   0.00512   0.00699

  Beta  occ. eigenvalues --  -38.45165 -38.44697 -38.44078 -38.44027 -38.43868
  Beta  occ. eigenvalues --  -38.43061 -38.42704  -2.20938  -2.20469  -2.19849
  Beta  occ. eigenvalues --   -2.19840  -2.19719  -2.18928  -2.18591  -1.14672
  Beta  occ. eigenvalues --   -1.14615  -1.14563  -1.14149  -1.14132  -1.14128
  Beta  occ. eigenvalues --   -1.13574  -1.13520  -1.13515  -1.13513  -1.13482
  Beta  occ. eigenvalues --   -1.13477  -1.13441  -1.13385  -1.13321  -1.12659
  Beta  occ. eigenvalues --   -1.12588  -1.12555  -1.12267  -1.12234  -1.12217
  Beta  occ. eigenvalues --   -0.17468  -0.13337  -0.11013
  Beta virt. eigenvalues --   -0.07948  -0.06285  -0.04784  -0.04321  -0.03041
  Beta virt. eigenvalues --   -0.02284  -0.02092  -0.01914  -0.00924  -0.00660
  Beta virt. eigenvalues --    0.00002   0.00174   0.00333   0.00485   0.00596

 Mulliken charges and spin densities:
               1          2
     1  Na  -0.576039   0.352307
     2  Na   0.627017  -0.001260
     3  Na  -0.524750   0.392769
     4  Na   0.348961   0.153856
     5  Na   0.171494  -0.160194
     6  Na  -0.219606   0.296615
     7  Na   0.172924  -0.034093
 Sum of Mulliken charges =  -0.00000   1.00000

 Dipole moment (field-independent basis, Debye):
    X=             -0.2737    Y=             -0.0496    Z=              0.6247  Tot=              0.6838
 Quadrupole moment (field-independent basis, Debye-Ang):
   XX=            -51.2471   YY=            -78.0823   ZZ=            -66.7976
   XY=              1.0107   XZ=              0.1825   YZ=              0.8034

 Normal termination of Gaussian 16 at Sun Dec  3 23:23:20 2023.
