 Gaussian 16, Revision B.01,
 Gaussian 16:  ES64L-G16RevB.01 20-Dec-2017

 -------------------------
 #P B3LYP/6-311+g(d) force
 -------------------------

 -----
 DPGEN
 -----
 Symbolic Z-matrix:
 Charge =  0 Multiplicity = 2

                         Standard orientation:
 ---------------------------------------------------------------------
 Center     Atomic      Atomic             Coordinates (Angstroms)
 Number     Number       Type             X           Y           Z
 ---------------------------------------------------------------------
      1         11           0       -3.532792   -1.042418   -0.510744
      2         11           0        3.690271    0.625728   -1.134193
      3         11           0        1.794845   -1.917474    0.212895
      4         11           0       -0.341557   -0.025065   -1.633926
      5         11           0        1.601063    1.171856    1.623885
      6         11           0       -0.793306   -0.961881    1.432856
      7         11           0       -2.418524    2.149255    0.009227
 ---------------------------------------------------------------------

 SCF Done:  E(UB3LYP) =  -1136.11772513     A.U. after   31 cycles

 The electronic state is 2-A.
 Alpha  occ. eigenvalues --  -38.45306 -38.44761 -38.44302 -38.43878 -38.43782
 Alpha  occ. eigenvalues --  -38.43299 -38.42123  -2.21140  -2.20660  -2.20191
 Alpha  occ. eigenvalues --   -2.19677  -2.19612  -2.19240  -2.18142  -1.14820
 Alpha  occ. eigenvalues --   -1.14788  -1.14758  -1.14376  -1.14316  -1.14264
 Alpha  occ. eigenvalues --   -1.13873  -1.13828  -1.13812  -1.13354  -1.13343
 Alpha  occ. eigenvalues --   -1.13319  -1.13287  -1.13272  -1.13241  -1.12949
 Alpha  occ. eigenvalues --   -1.12909  -1.12851  -1.11853  -1.11790  -1.11762
 Alpha  occ. eigenvalues --   -0.18782  -0.14304  -0.11376  -0.10660
 Alpha virt. eigenvalues --   -0.06945  -0.05401  -0.04552  -0.03021  -0.02810
 Alpha virt. eigenvalues --   -0.02388  -0.02193  -0.01137  -0.00847  -0.00207
 Alpha virt. eigenvalues --    0.00088   0.00237   0.00361   0.00584   0.00728

  Beta  occ. eigenvalues --  -38.45284 -38.44720 -38.44236 -38.43884 -38.43759
  Beta  occ. eigenvalues --  -38.43293 -38.42096  -2.21099  -2.20587  -2.20071
  Beta  occ. eigenvalues --   -2.19690  -2.19571  -2.19229  -2.18098  -1.14787
  Beta  occ. eigenvalues --   -1.14758  -1.14731  -1.14326  -1.14250  -1.14207
  Beta  occ. eigenvalues --   -1.13794  -1.13739  -1.13721  -1.13362  -1.13347
  Beta  occ. eigenvalues --   -1.13325  -1.13256  -1.13241  -1.13205  -1.12953
  Beta  occ. eigenvalues --   -1.12874  -1.12846  -1.11833  -1.11741  -1.11706
  Beta  occ. eigenvalues --   -0.18038  -0.14158  -0.10486
  Beta virt. eigenvalues --   -0.07476  -0.06713  -0.05058  -0.04176  -0.02722
  Beta virt. eigenvalues --   -0.02558  -0.01769  -0.01589  -0.00804  -0.00616
  Beta virt. eigenvalues --   -0.00201   0.00115   0.00265   0.00431   0.00682

 Mulliken charges and spin densities:
               1          2
     1  Na   0.558861  -0.056505
     2  Na   0.082343  -0.084037
     3  Na   0.173350   0.131937
     4  Na  -0.559552   0.339283
     5  Na  -0.317597   0.233612
     6  Na   0.240162   0.305302
     7  Na  -0.177566   0.130407
 Sum of Mulliken charges =  -0.00000   1.00000

 Dipole moment (field-independent basis, Debye):
    X=             -0.8885    Y=             -0.4092    Z=             -0.1678  Tot=              0.9925
 Quadrupole moment (field-independent basis, Debye-Ang):
   XX=            -51.5292   YY=            -72.8721   ZZ=            -70.8506
   XY=              1.4516   XZ=              0.5871   YZ=              5.3308

 Normal termination of Gaussian 16 at Tue Dec  5 12:00:46 2023.
