 Gaussian 16, Revision B.01,
 Gaussian 16:  ES64L-G16RevB.01 20-Dec-2017

 -------------------------
 #P B3LYP/6-311+g(d) force
 -------------------------

 -----
 DPGEN
 -----
 Symbolic Z-matrix:
 Charge =  0 Multiplicity = 2

                         Standard orientation:
 ---------------------------------------------------------------------
 Center     Atomic      Atomic             Coordinates (Angstroms)
 Number     Number       Type             X           Y           Z
 ---------------------------------------------------------------------
      1         11           0        2.876577    1.753543   -0.137513
      2         11           0       -1.201664   -2.617631   -0.109633
      3         11           0       -0.347717    0.251476   -1.744623
      4         11           0       -3.438989    0.320828    0.412876
      5         11           0        0.961724   -0.356305    1.857845
      6         11           0       -0.805553    2.869684    0.059448
      7         11           0        1.955622   -2.221595   -0.338400
 ---------------------------------------------------------------------

 SCF Done:  E(UB3LYP) =  -1136.13303977     A.U. after   20 cycles

 The electronic state is 2-A.
 Alpha  occ. eigenvalues --  -38.44216 -38.44106 -38.44005 -38.43814 -38.43553
 Alpha  occ. eigenvalues --  -38.43519 -38.43237  -2.19999  -2.19886  -2.19818
 Alpha  occ. eigenvalues --   -2.19709  -2.19425  -2.19417  -2.19158  -1.13677
 Alpha  occ. eigenvalues --   -1.13657  -1.13642  -1.13556  -1.13541  -1.13537
 Alpha  occ. eigenvalues --   -1.13523  -1.13485  -1.13454  -1.13425  -1.13371
 Alpha  occ. eigenvalues --   -1.13344  -1.13102  -1.13086  -1.13074  -1.13058
 Alpha  occ. eigenvalues --   -1.13046  -1.13025  -1.12837  -1.12799  -1.12768
 Alpha  occ. eigenvalues --   -0.18266  -0.12937  -0.12630  -0.10328
 Alpha virt. eigenvalues --   -0.05867  -0.05345  -0.04960  -0.03207  -0.02952
 Alpha virt. eigenvalues --   -0.02202  -0.01622  -0.01247  -0.00630  -0.00488
 Alpha virt. eigenvalues --   -0.00018   0.00346   0.00791   0.00821   0.00838

  Beta  occ. eigenvalues --  -38.44216 -38.44094 -38.44001 -38.43805 -38.43546
  Beta  occ. eigenvalues --  -38.43450 -38.43165  -2.20002  -2.19865  -2.19815
  Beta  occ. eigenvalues --   -2.19697  -2.19409  -2.19296  -2.19026  -1.13665
  Beta  occ. eigenvalues --   -1.13661  -1.13640  -1.13534  -1.13529  -1.13526
  Beta  occ. eigenvalues --   -1.13509  -1.13472  -1.13437  -1.13424  -1.13351
  Beta  occ. eigenvalues --   -1.13321  -1.13092  -1.13051  -1.13039  -1.12997
  Beta  occ. eigenvalues --   -1.12970  -1.12935  -1.12748  -1.12701  -1.12675
  Beta  occ. eigenvalues --   -0.17575  -0.12699  -0.12403
  Beta virt. eigenvalues --   -0.06593  -0.05804  -0.05244  -0.04861  -0.02503
  Beta virt. eigenvalues --   -0.02219  -0.01568  -0.01246  -0.01161  -0.00661
  Beta virt. eigenvalues --   -0.00514   0.00147   0.00385   0.00805   0.00836

 Mulliken charges and spin densities:
               1          2
     1  Na   0.019147  -0.171646
     2  Na   0.013163   0.007916
     3  Na   0.074421   0.530788
     4  Na  -0.166649   0.050053
     5  Na  -0.293588   0.746515
     6  Na  -0.057997  -0.091383
     7  Na   0.411504  -0.072245
 Sum of Mulliken charges =  -0.00000   1.00000

 Dipole moment (field-independent basis, Debye):
    X=              0.1397    Y=              0.2443    Z=             -0.0042  Tot=              0.2815
 Quadrupole moment (field-independent basis, Debye-Ang):
   XX=            -56.6959   YY=            -61.3828   ZZ=            -75.4416
   XY=              0.8035   XZ=             -2.9773   YZ=              1.2039

 Normal termination of Gaussian 16 at Tue Dec  5 20:24:08 2023.
