 Gaussian 16, Revision B.01,
 Gaussian 16:  ES64L-G16RevB.01 20-Dec-2017

 -------------------------
 #P B3LYP/6-311+g(d) force
 -------------------------

 -----
 DPGEN
 -----
 Symbolic Z-matrix:
 Charge =  0 Multiplicity = 2

                         Standard orientation:
 ---------------------------------------------------------------------
 Center     Atomic      Atomic             Coordinates (Angstroms)
 Number     Number       Type             X           Y           Z
 ---------------------------------------------------------------------
      1         11           0       -1.091267    3.531826    0.061237
      2         11           0        4.247528    0.036480   -0.807190
      3         11           0       -0.610220   -3.644719   -0.319081
      4         11           0        2.824529   -2.489175    0.968253
      5         11           0        2.204946    3.204693    0.167499
      6         11           0       -4.052100    1.536138    0.099625
      7         11           0       -3.523416   -2.175244   -0.170343
 ---------------------------------------------------------------------

 SCF Done:  E(UB3LYP) =  -1136.10760347     A.U. after   23 cycles

 The electronic state is 2-A.
 Alpha  occ. eigenvalues --  -38.45228 -38.45143 -38.44901 -38.44544 -38.44244
 Alpha  occ. eigenvalues --  -38.44177 -38.43955  -2.20989  -2.20905  -2.20670
 Alpha  occ. eigenvalues --   -2.20317  -2.20035  -2.19972  -2.19748  -1.14661
 Alpha  occ. eigenvalues --   -1.14654  -1.14637  -1.14576  -1.14562  -1.14527
 Alpha  occ. eigenvalues --   -1.14350  -1.14346  -1.14314  -1.14000  -1.13997
 Alpha  occ. eigenvalues --   -1.13968  -1.13695  -1.13691  -1.13665  -1.13628
 Alpha  occ. eigenvalues --   -1.13621  -1.13593  -1.13400  -1.13386  -1.13375
 Alpha  occ. eigenvalues --   -0.15370  -0.13805  -0.13589  -0.10856
 Alpha virt. eigenvalues --   -0.07839  -0.05034  -0.04327  -0.03526  -0.03356
 Alpha virt. eigenvalues --   -0.02617  -0.02387  -0.01870  -0.01433  -0.00582
 Alpha virt. eigenvalues --   -0.00499  -0.00260   0.00138   0.00191   0.00357

  Beta  occ. eigenvalues --  -38.45211 -38.45124 -38.44892 -38.44537 -38.44201
  Beta  occ. eigenvalues --  -38.44119 -38.43878  -2.20961  -2.20873  -2.20660
  Beta  occ. eigenvalues --   -2.20311  -2.19959  -2.19866  -2.19605  -1.14643
  Beta  occ. eigenvalues --   -1.14633  -1.14605  -1.14555  -1.14543  -1.14492
  Beta  occ. eigenvalues --   -1.14347  -1.14340  -1.14273  -1.14003  -1.13998
  Beta  occ. eigenvalues --   -1.13917  -1.13644  -1.13640  -1.13606  -1.13557
  Beta  occ. eigenvalues --   -1.13551  -1.13517  -1.13303  -1.13292  -1.13280
  Beta  occ. eigenvalues --   -0.14852  -0.13045  -0.12778
  Beta virt. eigenvalues --   -0.08059  -0.07758  -0.04654  -0.03762  -0.03309
  Beta virt. eigenvalues --   -0.03050  -0.02355  -0.02168  -0.01726  -0.01302
  Beta virt. eigenvalues --   -0.00384  -0.00201  -0.00032   0.00247   0.00290

 Mulliken charges and spin densities:
               1          2
     1  Na   0.217677   0.041173
     2  Na   0.047843   0.083480
     3  Na  -0.328361   0.133114
     4  Na  -0.119032   0.110876
     5  Na  -0.305800   0.189098
     6  Na   0.175223   0.374446
     7  Na   0.312449   0.067813
 Sum of Mulliken charges =  -0.00000   1.00000

 Dipole moment (field-independent basis, Debye):
    X=              1.0529    Y=             -0.6243    Z=             -0.0374  Tot=              1.2247
 Quadrupole moment (field-independent basis, Debye-Ang):
   XX=            -59.8758   YY=            -69.3663   ZZ=            -71.1085
   XY=              1.0742   XZ=             -1.4575   YZ=             -1.7720

 Normal termination of Gaussian 16 at Sun Dec  3 22:35:45 2023.
