 Gaussian 16, Revision B.01,
 Gaussian 16:  ES64L-G16RevB.01 20-Dec-2017

 -------------------------
 #P B3LYP/6-311+g(d) force
 -------------------------

 -----
 DPGEN
 -----
 Symbolic Z-matrix:
 Charge =  0 Multiplicity = 2

                         Standard orientation:
 ---------------------------------------------------------------------
 Center     Atomic      Atomic             Coordinates (Angstroms)
 Number     Number       Type             X           Y           Z
 ---------------------------------------------------------------------
      1         11           0       -1.773055    0.785189   -1.355963
      2         11           0        3.245787   -1.489605   -0.175287
      3         11           0        2.141910    1.596826   -0.793684
      4         11           0       -0.919980    3.388385    0.395647
      5         11           0       -3.347147   -1.705688    0.452896
      6         11           0        0.768665   -0.095211    2.165546
      7         11           0       -0.116179   -2.479896   -0.689155
 ---------------------------------------------------------------------

 SCF Done:  E(UB3LYP) =  -1136.12981044     A.U. after   19 cycles

 The electronic state is 2-A.
 Alpha  occ. eigenvalues --  -38.44506 -38.44332 -38.44132 -38.43852 -38.43806
 Alpha  occ. eigenvalues --  -38.43696 -38.43594  -2.20285  -2.20144  -2.19943
 Alpha  occ. eigenvalues --   -2.19647  -2.19634  -2.19542  -2.19425  -1.13957
 Alpha  occ. eigenvalues --   -1.13945  -1.13926  -1.13827  -1.13822  -1.13767
 Alpha  occ. eigenvalues --   -1.13638  -1.13626  -1.13551  -1.13353  -1.13301
 Alpha  occ. eigenvalues --   -1.13301  -1.13291  -1.13287  -1.13275  -1.13230
 Alpha  occ. eigenvalues --   -1.13212  -1.13133  -1.13079  -1.13060  -1.13038
 Alpha  occ. eigenvalues --   -0.17538  -0.13125  -0.12535  -0.10187
 Alpha virt. eigenvalues --   -0.06204  -0.05473  -0.05072  -0.03260  -0.02999
 Alpha virt. eigenvalues --   -0.02361  -0.01804  -0.01478  -0.00672  -0.00586
 Alpha virt. eigenvalues --   -0.00034   0.00285   0.00580   0.00651   0.00716

  Beta  occ. eigenvalues --  -38.44510 -38.44313 -38.44121 -38.43853 -38.43797
  Beta  occ. eigenvalues --  -38.43673 -38.43489  -2.20293  -2.20112  -2.19925
  Beta  occ. eigenvalues --   -2.19651  -2.19620  -2.19500  -2.19231  -1.13964
  Beta  occ. eigenvalues --   -1.13942  -1.13931  -1.13804  -1.13785  -1.13742
  Beta  occ. eigenvalues --   -1.13626  -1.13595  -1.13542  -1.13353  -1.13294
  Beta  occ. eigenvalues --   -1.13292  -1.13288  -1.13274  -1.13255  -1.13201
  Beta  occ. eigenvalues --   -1.13180  -1.13107  -1.12947  -1.12924  -1.12903
  Beta  occ. eigenvalues --   -0.16913  -0.12937  -0.12403
  Beta virt. eigenvalues --   -0.06426  -0.06084  -0.05337  -0.04937  -0.02699
  Beta virt. eigenvalues --   -0.02415  -0.01702  -0.01410  -0.01353  -0.00684
  Beta virt. eigenvalues --   -0.00501   0.00168   0.00393   0.00681   0.00755

 Mulliken charges and spin densities:
               1          2
     1  Na   0.136532   0.164702
     2  Na   0.529908   0.112313
     3  Na  -0.252741   0.112266
     4  Na   0.088219  -0.060357
     5  Na   0.162547  -0.076623
     6  Na  -0.374462   0.702204
     7  Na  -0.290003   0.045495
 Sum of Mulliken charges =  -0.00000   1.00000

 Dipole moment (field-independent basis, Debye):
    X=             -0.3977    Y=             -0.1592    Z=              0.0637  Tot=              0.4331
 Quadrupole moment (field-independent basis, Debye-Ang):
   XX=            -56.9357   YY=            -62.3926   ZZ=            -75.3105
   XY=             -0.0282   XZ=             -3.2854   YZ=              0.7471

 Normal termination of Gaussian 16 at Mon Dec  4 04:36:27 2023.
