 Gaussian 16, Revision B.01,
 Gaussian 16:  ES64L-G16RevB.01 20-Dec-2017

 -------------------------
 #P B3LYP/6-311+g(d) force
 -------------------------

 -----
 DPGEN
 -----
 Symbolic Z-matrix:
 Charge =  0 Multiplicity = 2

                         Standard orientation:
 ---------------------------------------------------------------------
 Center     Atomic      Atomic             Coordinates (Angstroms)
 Number     Number       Type             X           Y           Z
 ---------------------------------------------------------------------
      1         11           0       -3.646195   -1.489390   -0.423095
      2         11           0        0.627024   -1.805580   -0.584084
      3         11           0       -1.666797   -0.217090    2.042167
      4         11           0       -0.960826    0.351249   -1.542144
      5         11           0       -0.653752    3.180255    0.473123
      6         11           0        2.465257    1.583287   -0.674779
      7         11           0        3.835289   -1.602730    0.708813
 ---------------------------------------------------------------------

 SCF Done:  E(UB3LYP) =  -1136.12112035     A.U. after   21 cycles

 The electronic state is 2-A.
 Alpha  occ. eigenvalues --  -38.45035 -38.44575 -38.44290 -38.44197 -38.43826
 Alpha  occ. eigenvalues --  -38.43458 -38.43095  -2.20825  -2.20356  -2.20126
 Alpha  occ. eigenvalues --   -2.20079  -2.19613  -2.19437  -2.18893  -1.14505
 Alpha  occ. eigenvalues --   -1.14490  -1.14455  -1.14056  -1.14033  -1.13958
 Alpha  occ. eigenvalues --   -1.13912  -1.13795  -1.13762  -1.13748  -1.13736
 Alpha  occ. eigenvalues --   -1.13642  -1.13276  -1.13273  -1.13238  -1.13155
 Alpha  occ. eigenvalues --   -1.13061  -1.12992  -1.12572  -1.12554  -1.12527
 Alpha  occ. eigenvalues --   -0.17871  -0.13436  -0.11846  -0.10669
 Alpha virt. eigenvalues --   -0.06728  -0.05510  -0.04188  -0.03428  -0.02724
 Alpha virt. eigenvalues --   -0.02651  -0.02259  -0.01178  -0.00744  -0.00367
 Alpha virt. eigenvalues --    0.00070   0.00124   0.00469   0.00561   0.00707

  Beta  occ. eigenvalues --  -38.45036 -38.44573 -38.44212 -38.44173 -38.43804
  Beta  occ. eigenvalues --  -38.43389 -38.43091  -2.20830  -2.20354  -2.20043
  Beta  occ. eigenvalues --   -2.19981  -2.19572  -2.19314  -2.18887  -1.14509
  Beta  occ. eigenvalues --   -1.14475  -1.14456  -1.14044  -1.14032  -1.13959
  Beta  occ. eigenvalues --   -1.13859  -1.13712  -1.13688  -1.13665  -1.13634
  Beta  occ. eigenvalues --   -1.13620  -1.13247  -1.13243  -1.13214  -1.13074
  Beta  occ. eigenvalues --   -1.12964  -1.12902  -1.12568  -1.12546  -1.12516
  Beta  occ. eigenvalues --   -0.17181  -0.13169  -0.11655
  Beta virt. eigenvalues --   -0.06962  -0.06535  -0.05212  -0.04085  -0.02943
  Beta virt. eigenvalues --   -0.02440  -0.02149  -0.01578  -0.01059  -0.00575
  Beta virt. eigenvalues --   -0.00185   0.00136   0.00190   0.00635   0.00713

 Mulliken charges and spin densities:
               1          2
     1  Na   0.378289  -0.044339
     2  Na  -0.546241  -0.068580
     3  Na  -0.521085   0.600228
     4  Na   0.562682   0.344226
     5  Na   0.005946   0.018069
     6  Na  -0.134326   0.007900
     7  Na   0.254734   0.142497
 Sum of Mulliken charges =  -0.00000   1.00000

 Dipole moment (field-independent basis, Debye):
    X=             -0.5671    Y=             -0.1811    Z=             -0.0165  Tot=              0.5955
 Quadrupole moment (field-independent basis, Debye-Ang):
   XX=            -52.3825   YY=            -68.7822   ZZ=            -72.5083
   XY=              4.3914   XZ=              3.0170   YZ=             -0.6687

 Normal termination of Gaussian 16 at Tue Dec  5 11:00:06 2023.
