 Gaussian 16, Revision B.01,
 Gaussian 16:  ES64L-G16RevB.01 20-Dec-2017

 -------------------------
 #P B3LYP/6-311+g(d) force
 -------------------------

 -----
 DPGEN
 -----
 Symbolic Z-matrix:
 Charge =  0 Multiplicity = 2

                         Standard orientation:
 ---------------------------------------------------------------------
 Center     Atomic      Atomic             Coordinates (Angstroms)
 Number     Number       Type             X           Y           Z
 ---------------------------------------------------------------------
      1         11           0       -1.325160   -1.902035   -0.808177
      2         11           0       -4.499572   -1.517883   -0.550432
      3         11           0       -5.391972    2.440681   -0.116454
      4         11           0       -2.196434    1.131286    0.694720
      5         11           0        1.102097   -1.182484    1.124956
      6         11           0        5.254489   -0.181155    0.808907
      7         11           0        7.056552    1.211589   -1.153521
 ---------------------------------------------------------------------

 SCF Done:  E(UB3LYP) =  -1136.11295511     A.U. after   20 cycles

 The electronic state is 2-A.
 Alpha  occ. eigenvalues --  -38.45063 -38.44692 -38.44288 -38.44203 -38.43994
 Alpha  occ. eigenvalues --  -38.43909 -38.43835  -2.20869  -2.20531  -2.20060
 Alpha  occ. eigenvalues --   -2.20005  -2.19888  -2.19704  -2.19645  -1.14577
 Alpha  occ. eigenvalues --   -1.14555  -1.14449  -1.14215  -1.14190  -1.14120
 Alpha  occ. eigenvalues --   -1.13725  -1.13721  -1.13718  -1.13676  -1.13650
 Alpha  occ. eigenvalues --   -1.13649  -1.13567  -1.13552  -1.13542  -1.13362
 Alpha  occ. eigenvalues --   -1.13357  -1.13331  -1.13307  -1.13299  -1.13260
 Alpha  occ. eigenvalues --   -0.16722  -0.13603  -0.12314  -0.11292
 Alpha virt. eigenvalues --   -0.06782  -0.05406  -0.04488  -0.03539  -0.02928
 Alpha virt. eigenvalues --   -0.02546  -0.02259  -0.01859  -0.01460  -0.01021
 Alpha virt. eigenvalues --   -0.00586  -0.00178   0.00211   0.00411   0.00521

  Beta  occ. eigenvalues --  -38.45037 -38.44612 -38.44254 -38.44190 -38.43963
  Beta  occ. eigenvalues --  -38.43912 -38.43808  -2.20820  -2.20386  -2.19997
  Beta  occ. eigenvalues --   -2.19981  -2.19837  -2.19712  -2.19593  -1.14546
  Beta  occ. eigenvalues --   -1.14513  -1.14411  -1.14107  -1.14094  -1.14009
  Beta  occ. eigenvalues --   -1.13708  -1.13683  -1.13668  -1.13639  -1.13634
  Beta  occ. eigenvalues --   -1.13633  -1.13534  -1.13523  -1.13470  -1.13369
  Beta  occ. eigenvalues --   -1.13363  -1.13326  -1.13269  -1.13262  -1.13227
  Beta  occ. eigenvalues --   -0.16009  -0.13374  -0.11999
  Beta virt. eigenvalues --   -0.07650  -0.06359  -0.05198  -0.04229  -0.03205
  Beta virt. eigenvalues --   -0.02518  -0.02281  -0.01997  -0.01654  -0.01275
  Beta virt. eigenvalues --   -0.00677  -0.00295  -0.00026   0.00369   0.00466

 Mulliken charges and spin densities:
               1          2
     1  Na  -0.244101   0.275751
     2  Na   0.254103   0.213029
     3  Na   0.573119   0.053320
     4  Na  -0.498175   0.319920
     5  Na  -0.057132   0.103319
     6  Na  -0.299308  -0.008839
     7  Na   0.271494   0.043500
 Sum of Mulliken charges =  -0.00000   1.00000

 Dipole moment (field-independent basis, Debye):
    X=             -1.1357    Y=              0.2446    Z=             -0.3597  Tot=              1.2162
 Quadrupole moment (field-independent basis, Debye-Ang):
   XX=            -59.0230   YY=            -68.4854   ZZ=            -68.2927
   XY=              1.2976   XZ=             -2.5258   YZ=             -2.7047

 Normal termination of Gaussian 16 at Wed Nov 29 02:37:40 2023.
