 Gaussian 16, Revision B.01,
 Gaussian 16:  ES64L-G16RevB.01 20-Dec-2017

 -------------------------
 #P B3LYP/6-311+g(d) force
 -------------------------

 -----
 DPGEN
 -----
 Symbolic Z-matrix:
 Charge =  0 Multiplicity = 2

                         Standard orientation:
 ---------------------------------------------------------------------
 Center     Atomic      Atomic             Coordinates (Angstroms)
 Number     Number       Type             X           Y           Z
 ---------------------------------------------------------------------
      1         11           0        2.072179   -2.338832    0.206109
      2         11           0        0.012701    0.167504   -1.715749
      3         11           0       -3.373610    0.522438   -0.038211
      4         11           0       -1.667123   -2.326439   -0.281842
      5         11           0       -0.069206    3.006029    0.224628
      6         11           0        2.892204    1.017504   -0.435527
      7         11           0        0.132855   -0.048204    2.040592
 ---------------------------------------------------------------------

 SCF Done:  E(UB3LYP) =  -1136.13790900     A.U. after   19 cycles

 The electronic state is 2-A.
 Alpha  occ. eigenvalues --  -38.44371 -38.43995 -38.43640 -38.43463 -38.43437
 Alpha  occ. eigenvalues --  -38.43425 -38.43357  -2.20160  -2.19842  -2.19519
 Alpha  occ. eigenvalues --   -2.19366  -2.19318  -2.19262  -2.19179  -1.13832
 Alpha  occ. eigenvalues --   -1.13823  -1.13800  -1.13543  -1.13497  -1.13467
 Alpha  occ. eigenvalues --   -1.13190  -1.13148  -1.13142  -1.13070  -1.13039
 Alpha  occ. eigenvalues --   -1.12992  -1.12983  -1.12964  -1.12941  -1.12932
 Alpha  occ. eigenvalues --   -1.12917  -1.12904  -1.12852  -1.12846  -1.12809
 Alpha  occ. eigenvalues --   -0.18405  -0.13029  -0.12235  -0.10772
 Alpha virt. eigenvalues --   -0.05862  -0.05045  -0.04717  -0.03194  -0.02895
 Alpha virt. eigenvalues --   -0.02624  -0.01697  -0.01136  -0.00469  -0.00341
 Alpha virt. eigenvalues --   -0.00024   0.00346   0.00770   0.00848   0.00887

  Beta  occ. eigenvalues --  -38.44373 -38.43982 -38.43545 -38.43456 -38.43433
  Beta  occ. eigenvalues --  -38.43360 -38.43351  -2.20165  -2.19821  -2.19346
  Beta  occ. eigenvalues --   -2.19308  -2.19259  -2.19248  -2.19173  -1.13834
  Beta  occ. eigenvalues --   -1.13818  -1.13803  -1.13518  -1.13469  -1.13457
  Beta  occ. eigenvalues --   -1.13078  -1.13033  -1.13023  -1.13016  -1.12967
  Beta  occ. eigenvalues --   -1.12962  -1.12936  -1.12924  -1.12915  -1.12903
  Beta  occ. eigenvalues --   -1.12899  -1.12892  -1.12839  -1.12825  -1.12803
  Beta  occ. eigenvalues --   -0.17676  -0.12800  -0.12005
  Beta virt. eigenvalues --   -0.06870  -0.05817  -0.05045  -0.04645  -0.02453
  Beta virt. eigenvalues --   -0.02129  -0.01631  -0.01552  -0.01052  -0.00507
  Beta virt. eigenvalues --   -0.00377   0.00110   0.00372   0.00827   0.00846

 Mulliken charges and spin densities:
               1          2
     1  Na   0.094624  -0.038606
     2  Na  -0.047123   0.481504
     3  Na  -0.017623  -0.098216
     4  Na   0.124343  -0.052798
     5  Na  -0.029240  -0.090286
     6  Na   0.252849  -0.001375
     7  Na  -0.377830   0.799777
 Sum of Mulliken charges =  -0.00000   1.00000

 Dipole moment (field-independent basis, Debye):
    X=             -0.1732    Y=              0.1449    Z=              0.0716  Tot=              0.2369
 Quadrupole moment (field-independent basis, Debye-Ang):
   XX=            -55.5071   YY=            -63.4978   ZZ=            -74.3501
   XY=             -1.0910   XZ=             -0.5563   YZ=              0.4084

 Normal termination of Gaussian 16 at Thu Dec  7 18:06:43 2023.
