 Gaussian 16, Revision B.01,
 Gaussian 16:  ES64L-G16RevB.01 20-Dec-2017

 -------------------------
 #P B3LYP/6-311+g(d) force
 -------------------------

 -----
 DPGEN
 -----
 Symbolic Z-matrix:
 Charge =  0 Multiplicity = 2

                         Standard orientation:
 ---------------------------------------------------------------------
 Center     Atomic      Atomic             Coordinates (Angstroms)
 Number     Number       Type             X           Y           Z
 ---------------------------------------------------------------------
      1         11           0        2.236739   -2.173432   -0.338110
      2         11           0       -4.629261    0.258871   -1.287531
      3         11           0       -0.730816   -1.942919    1.691749
      4         11           0       -1.494480   -0.361772   -1.463262
      5         11           0       -1.701853    1.191520    1.900215
      6         11           0        1.521948    2.564041    0.154797
      7         11           0        4.797723    0.463691   -0.657858
 ---------------------------------------------------------------------

 SCF Done:  E(UB3LYP) =  -1136.10938056     A.U. after   26 cycles

 The electronic state is 2-A.
 Alpha  occ. eigenvalues --  -38.45368 -38.44959 -38.44899 -38.44421 -38.44312
 Alpha  occ. eigenvalues --  -38.44063 -38.42999  -2.21188  -2.20790  -2.20644
 Alpha  occ. eigenvalues --   -2.20155  -2.20111  -2.19836  -2.18832  -1.14849
 Alpha  occ. eigenvalues --   -1.14837  -1.14807  -1.14482  -1.14453  -1.14410
 Alpha  occ. eigenvalues --   -1.14324  -1.14307  -1.14243  -1.13838  -1.13821
 Alpha  occ. eigenvalues --   -1.13795  -1.13771  -1.13758  -1.13734  -1.13531
 Alpha  occ. eigenvalues --   -1.13502  -1.13439  -1.12513  -1.12496  -1.12468
 Alpha  occ. eigenvalues --   -0.17046  -0.13357  -0.11902  -0.11300
 Alpha virt. eigenvalues --   -0.07102  -0.05355  -0.05013  -0.03087  -0.03019
 Alpha virt. eigenvalues --   -0.02620  -0.02399  -0.01536  -0.01445  -0.00515
 Alpha virt. eigenvalues --   -0.00203  -0.00124   0.00077   0.00243   0.00716

  Beta  occ. eigenvalues --  -38.45297 -38.44935 -38.44841 -38.44433 -38.44268
  Beta  occ. eigenvalues --  -38.44040 -38.42994  -2.21058  -2.20748  -2.20538
  Beta  occ. eigenvalues --   -2.20179  -2.20031  -2.19791  -2.18826  -1.14761
  Beta  occ. eigenvalues --   -1.14735  -1.14715  -1.14444  -1.14425  -1.14376
  Beta  occ. eigenvalues --   -1.14254  -1.14235  -1.14162  -1.13855  -1.13831
  Beta  occ. eigenvalues --   -1.13812  -1.13708  -1.13703  -1.13687  -1.13499
  Beta  occ. eigenvalues --   -1.13473  -1.13414  -1.12499  -1.12494  -1.12462
  Beta  occ. eigenvalues --   -0.16363  -0.13041  -0.10962
  Beta virt. eigenvalues --   -0.08320  -0.06699  -0.04928  -0.04718  -0.02806
  Beta virt. eigenvalues --   -0.02575  -0.02259  -0.02106  -0.01361  -0.01120
  Beta virt. eigenvalues --   -0.00375  -0.00074  -0.00014   0.00193   0.00403

 Mulliken charges and spin densities:
               1          2
     1  Na  -0.005334   0.185252
     2  Na   0.330868   0.073382
     3  Na   0.050846  -0.035186
     4  Na  -0.467856   0.291012
     5  Na   0.051233   0.281677
     6  Na  -0.089262   0.292678
     7  Na   0.129506  -0.088815
 Sum of Mulliken charges =  -0.00000   1.00000

 Dipole moment (field-independent basis, Debye):
    X=             -0.6325    Y=              0.1875    Z=              0.4069  Tot=              0.7751
 Quadrupole moment (field-independent basis, Debye-Ang):
   XX=            -56.4898   YY=            -73.5341   ZZ=            -69.4613
   XY=             -2.0849   XZ=             -5.5021   YZ=              3.6835

 Normal termination of Gaussian 16 at Sun Dec  3 20:56:20 2023.
