 Gaussian 16, Revision B.01,
 Gaussian 16:  ES64L-G16RevB.01 20-Dec-2017

 -------------------------
 #P B3LYP/6-311+g(d) force
 -------------------------

 -----
 DPGEN
 -----
 Symbolic Z-matrix:
 Charge =  0 Multiplicity = 2

                         Standard orientation:
 ---------------------------------------------------------------------
 Center     Atomic      Atomic             Coordinates (Angstroms)
 Number     Number       Type             X           Y           Z
 ---------------------------------------------------------------------
      1         11           0       -0.312620    0.160806   -1.688104
      2         11           0        2.132404    0.405917    1.315995
      3         11           0        2.505043   -2.430933   -0.760833
      4         11           0       -0.474588   -2.002748    1.163961
      5         11           0       -3.873703   -0.752663   -0.546626
      6         11           0       -1.199712    1.750969    1.495649
      7         11           0        1.223177    2.868651   -0.980042
 ---------------------------------------------------------------------

 SCF Done:  E(UB3LYP) =  -1136.13330792     A.U. after   20 cycles

 The electronic state is 2-A.
 Alpha  occ. eigenvalues --  -38.44128 -38.44080 -38.43838 -38.43780 -38.43695
 Alpha  occ. eigenvalues --  -38.43676 -38.43297  -2.19956  -2.19826  -2.19671
 Alpha  occ. eigenvalues --   -2.19651  -2.19589  -2.19475  -2.19152  -1.13645
 Alpha  occ. eigenvalues --   -1.13615  -1.13559  -1.13501  -1.13496  -1.13451
 Alpha  occ. eigenvalues --   -1.13390  -1.13357  -1.13336  -1.13320  -1.13274
 Alpha  occ. eigenvalues --   -1.13267  -1.13252  -1.13248  -1.13204  -1.13140
 Alpha  occ. eigenvalues --   -1.13134  -1.13102  -1.12829  -1.12801  -1.12771
 Alpha  occ. eigenvalues --   -0.18075  -0.12380  -0.12287  -0.11121
 Alpha virt. eigenvalues --   -0.05810  -0.05163  -0.04592  -0.03160  -0.03102
 Alpha virt. eigenvalues --   -0.02669  -0.01708  -0.01235  -0.00739  -0.00050
 Alpha virt. eigenvalues --    0.00203   0.00299   0.00488   0.00652   0.00753

  Beta  occ. eigenvalues --  -38.44084 -38.44079 -38.43819 -38.43748 -38.43668
  Beta  occ. eigenvalues --  -38.43630 -38.43278  -2.19876  -2.19824  -2.19637
  Beta  occ. eigenvalues --   -2.19597  -2.19472  -2.19460  -2.19119  -1.13588
  Beta  occ. eigenvalues --   -1.13544  -1.13507  -1.13496  -1.13493  -1.13450
  Beta  occ. eigenvalues --   -1.13366  -1.13311  -1.13294  -1.13266  -1.13245
  Beta  occ. eigenvalues --   -1.13221  -1.13194  -1.13161  -1.13129  -1.13122
  Beta  occ. eigenvalues --   -1.13111  -1.13093  -1.12792  -1.12782  -1.12744
  Beta  occ. eigenvalues --   -0.17296  -0.12231  -0.12103
  Beta virt. eigenvalues --   -0.07215  -0.05670  -0.04931  -0.04433  -0.02690
  Beta virt. eigenvalues --   -0.02588  -0.01830  -0.01552  -0.01098  -0.00362
  Beta virt. eigenvalues --   -0.00077   0.00271   0.00336   0.00623   0.00716

 Mulliken charges and spin densities:
               1          2
     1  Na  -0.246554   0.682869
     2  Na   0.265789   0.379579
     3  Na   0.045398  -0.149781
     4  Na  -0.135830   0.078606
     5  Na   0.174955  -0.064699
     6  Na  -0.190721   0.211082
     7  Na   0.086962  -0.137656
 Sum of Mulliken charges =  -0.00000   1.00000

 Dipole moment (field-independent basis, Debye):
    X=             -0.0357    Y=              0.0375    Z=              0.1368  Tot=              0.1462
 Quadrupole moment (field-independent basis, Debye-Ang):
   XX=            -58.4717   YY=            -65.2068   ZZ=            -69.3896
   XY=             -0.1500   XZ=             -1.3103   YZ=              1.3109

 Normal termination of Gaussian 16 at Tue Dec  5 20:26:23 2023.
