 Gaussian 16, Revision B.01,
 Gaussian 16:  ES64L-G16RevB.01 20-Dec-2017

 -------------------------
 #P B3LYP/6-311+g(d) force
 -------------------------

 -----
 DPGEN
 -----
 Symbolic Z-matrix:
 Charge =  0 Multiplicity = 2

                         Standard orientation:
 ---------------------------------------------------------------------
 Center     Atomic      Atomic             Coordinates (Angstroms)
 Number     Number       Type             X           Y           Z
 ---------------------------------------------------------------------
      1         11           0        3.225377   -0.474969    0.012528
      2         11           0       -0.220009   -0.048929   -1.510457
      3         11           0        0.609546   -3.049602   -0.337735
      4         11           0        1.416072    2.900442   -0.207960
      5         11           0       -2.889734   -1.328357    0.136204
      6         11           0       -2.252681    2.025619   -0.130568
      7         11           0        0.111430   -0.024203    2.037987
 ---------------------------------------------------------------------

 SCF Done:  E(UB3LYP) =  -1136.13752698     A.U. after   19 cycles

 The electronic state is 2-A.
 Alpha  occ. eigenvalues --  -38.44279 -38.43945 -38.43757 -38.43754 -38.43658
 Alpha  occ. eigenvalues --  -38.43451 -38.43008  -2.20064  -2.19774  -2.19606
 Alpha  occ. eigenvalues --   -2.19547  -2.19475  -2.19319  -2.18986  -1.13743
 Alpha  occ. eigenvalues --   -1.13722  -1.13702  -1.13455  -1.13438  -1.13418
 Alpha  occ. eigenvalues --   -1.13309  -1.13265  -1.13229  -1.13225  -1.13203
 Alpha  occ. eigenvalues --   -1.13185  -1.13168  -1.13133  -1.13102  -1.12995
 Alpha  occ. eigenvalues --   -1.12942  -1.12932  -1.12679  -1.12624  -1.12604
 Alpha  occ. eigenvalues --   -0.18310  -0.12890  -0.12413  -0.10366
 Alpha virt. eigenvalues --   -0.05710  -0.05362  -0.05027  -0.03027  -0.02728
 Alpha virt. eigenvalues --   -0.02323  -0.01588  -0.01344  -0.00689  -0.00613
 Alpha virt. eigenvalues --    0.00001   0.00341   0.00767   0.00831   0.00835

  Beta  occ. eigenvalues --  -38.44278 -38.43941 -38.43755 -38.43748 -38.43650
  Beta  occ. eigenvalues --  -38.43354 -38.42953  -2.20065  -2.19770  -2.19599
  Beta  occ. eigenvalues --   -2.19545  -2.19462  -2.19140  -2.18885  -1.13726
  Beta  occ. eigenvalues --   -1.13724  -1.13706  -1.13452  -1.13419  -1.13412
  Beta  occ. eigenvalues --   -1.13299  -1.13243  -1.13225  -1.13212  -1.13200
  Beta  occ. eigenvalues --   -1.13184  -1.13151  -1.13112  -1.13097  -1.12874
  Beta  occ. eigenvalues --   -1.12817  -1.12801  -1.12603  -1.12549  -1.12531
  Beta  occ. eigenvalues --   -0.17605  -0.12686  -0.12177
  Beta virt. eigenvalues --   -0.06484  -0.05680  -0.05368  -0.04949  -0.02264
  Beta virt. eigenvalues --   -0.02019  -0.01498  -0.01274  -0.01253  -0.00735
  Beta virt. eigenvalues --   -0.00671   0.00149   0.00377   0.00794   0.00832

 Mulliken charges and spin densities:
               1          2
     1  Na   0.054274  -0.068622
     2  Na  -0.198019   0.432483
     3  Na   0.102206  -0.051945
     4  Na  -0.002677  -0.083048
     5  Na   0.223038   0.004550
     6  Na   0.230220  -0.031530
     7  Na  -0.409042   0.798111
 Sum of Mulliken charges =  -0.00000   1.00000

 Dipole moment (field-independent basis, Debye):
    X=              0.0870    Y=             -0.0559    Z=              0.1191  Tot=              0.1578
 Quadrupole moment (field-independent basis, Debye-Ang):
   XX=            -55.4547   YY=            -59.7561   ZZ=            -76.7138
   XY=              0.4668   XZ=             -0.7129   YZ=             -0.1305

 Normal termination of Gaussian 16 at Thu Dec  7 18:52:44 2023.
