 Gaussian 16, Revision B.01,
 Gaussian 16:  ES64L-G16RevB.01 20-Dec-2017

 -------------------------
 #P B3LYP/6-311+g(d) force
 -------------------------

 -----
 DPGEN
 -----
 Symbolic Z-matrix:
 Charge =  0 Multiplicity = 2

                         Standard orientation:
 ---------------------------------------------------------------------
 Center     Atomic      Atomic             Coordinates (Angstroms)
 Number     Number       Type             X           Y           Z
 ---------------------------------------------------------------------
      1         11           0       -3.162340   -0.773516    1.515618
      2         11           0        0.044175    0.249485    0.486975
      3         11           0       -2.382554    1.834258   -0.748448
      4         11           0        2.141963   -2.646942    0.029492
      5         11           0        1.126629    2.964889   -0.162113
      6         11           0        3.642407    0.385185    0.302013
      7         11           0       -1.410279   -2.013359   -1.423536
 ---------------------------------------------------------------------

 SCF Done:  E(UB3LYP) =  -1136.12589908     A.U. after   21 cycles

 The electronic state is 2-A.
 Alpha  occ. eigenvalues --  -38.44669 -38.44087 -38.44070 -38.43875 -38.43559
 Alpha  occ. eigenvalues --  -38.43444 -38.43329  -2.20508  -2.19907  -2.19861
 Alpha  occ. eigenvalues --   -2.19708  -2.19406  -2.19361  -2.19304  -1.14211
 Alpha  occ. eigenvalues --   -1.14176  -1.14118  -1.13582  -1.13576  -1.13547
 Alpha  occ. eigenvalues --   -1.13541  -1.13515  -1.13483  -1.13400  -1.13363
 Alpha  occ. eigenvalues --   -1.13318  -1.13227  -1.13081  -1.13050  -1.13019
 Alpha  occ. eigenvalues --   -1.12990  -1.12963  -1.12943  -1.12941  -1.12904
 Alpha  occ. eigenvalues --   -0.17883  -0.13852  -0.12483  -0.09876
 Alpha virt. eigenvalues --   -0.06217  -0.05935  -0.04821  -0.03149  -0.02411
 Alpha virt. eigenvalues --   -0.02233  -0.01616  -0.01518  -0.00877  -0.00701
 Alpha virt. eigenvalues --   -0.00244   0.00231   0.00524   0.00589   0.00682

  Beta  occ. eigenvalues --  -38.44654 -38.44073 -38.44062 -38.43829 -38.43559
  Beta  occ. eigenvalues --  -38.43353 -38.43323  -2.20486  -2.19870  -2.19860
  Beta  occ. eigenvalues --   -2.19624  -2.19408  -2.19353  -2.19136  -1.14201
  Beta  occ. eigenvalues --   -1.14146  -1.14087  -1.13568  -1.13554  -1.13540
  Beta  occ. eigenvalues --   -1.13517  -1.13510  -1.13467  -1.13344  -1.13298
  Beta  occ. eigenvalues --   -1.13256  -1.13226  -1.13069  -1.13026  -1.13006
  Beta  occ. eigenvalues --   -1.12982  -1.12951  -1.12842  -1.12823  -1.12799
  Beta  occ. eigenvalues --   -0.17423  -0.13448  -0.12158
  Beta virt. eigenvalues --   -0.06369  -0.06146  -0.05646  -0.04500  -0.02715
  Beta virt. eigenvalues --   -0.02068  -0.01945  -0.01378  -0.01143  -0.00683
  Beta virt. eigenvalues --   -0.00531   0.00112   0.00375   0.00630   0.00737

 Mulliken charges and spin densities:
               1          2
     1  Na   0.568819   0.434924
     2  Na  -2.348310   0.311049
     3  Na   0.678526   0.148007
     4  Na   0.268996   0.038035
     5  Na   0.449724  -0.120320
     6  Na   0.298115   0.087602
     7  Na   0.084131   0.100703
 Sum of Mulliken charges =  -0.00000   1.00000

 Dipole moment (field-independent basis, Debye):
    X=              0.3110    Y=              0.2175    Z=             -0.8919  Tot=              0.9693
 Quadrupole moment (field-independent basis, Debye-Ang):
   XX=            -58.9083   YY=            -62.5794   ZZ=            -73.5546
   XY=             -1.3853   XZ=              4.4270   YZ=             -1.5248

 Normal termination of Gaussian 16 at Tue Dec  5 23:30:22 2023.
