 Gaussian 16, Revision B.01,
 Gaussian 16:  ES64L-G16RevB.01 20-Dec-2017

 -------------------------
 #P B3LYP/6-311+g(d) force
 -------------------------

 -----
 DPGEN
 -----
 Symbolic Z-matrix:
 Charge =  0 Multiplicity = 2

                         Standard orientation:
 ---------------------------------------------------------------------
 Center     Atomic      Atomic             Coordinates (Angstroms)
 Number     Number       Type             X           Y           Z
 ---------------------------------------------------------------------
      1         11           0        0.142723   -3.005434    0.184345
      2         11           0       -1.565239    2.442355    0.303045
      3         11           0       -0.302980   -0.144332    2.084360
      4         11           0       -3.144147   -0.684847   -0.651295
      5         11           0        0.314845   -0.269654   -1.639421
      6         11           0        2.812563   -0.706061    0.035101
      7         11           0        1.742234    2.367974   -0.316134
 ---------------------------------------------------------------------

 SCF Done:  E(UB3LYP) =  -1136.13674439     A.U. after   19 cycles

 The electronic state is 2-A.
 Alpha  occ. eigenvalues --  -38.44056 -38.43735 -38.43670 -38.43625 -38.43481
 Alpha  occ. eigenvalues --  -38.43321 -38.43255  -2.19846  -2.19623  -2.19574
 Alpha  occ. eigenvalues --   -2.19472  -2.19330  -2.19317  -2.19136  -1.13522
 Alpha  occ. eigenvalues --   -1.13490  -1.13487  -1.13337  -1.13290  -1.13265
 Alpha  occ. eigenvalues --   -1.13249  -1.13229  -1.13204  -1.13159  -1.13134
 Alpha  occ. eigenvalues --   -1.13092  -1.13013  -1.13003  -1.12984  -1.12964
 Alpha  occ. eigenvalues --   -1.12950  -1.12930  -1.12800  -1.12790  -1.12764
 Alpha  occ. eigenvalues --   -0.18712  -0.12864  -0.12617  -0.10958
 Alpha virt. eigenvalues --   -0.05517  -0.04937  -0.04834  -0.03262  -0.03053
 Alpha virt. eigenvalues --   -0.02631  -0.01378  -0.01147  -0.00309  -0.00192
 Alpha virt. eigenvalues --   -0.00006   0.00359   0.00840   0.00866   0.00917

  Beta  occ. eigenvalues --  -38.44037 -38.43665 -38.43642 -38.43619 -38.43475
  Beta  occ. eigenvalues --  -38.43262 -38.43251  -2.19814  -2.19569  -2.19466
  Beta  occ. eigenvalues --   -2.19451  -2.19322  -2.19210  -2.19132  -1.13487
  Beta  occ. eigenvalues --   -1.13469  -1.13467  -1.13321  -1.13225  -1.13198
  Beta  occ. eigenvalues --   -1.13174  -1.13157  -1.13140  -1.13127  -1.13097
  Beta  occ. eigenvalues --   -1.13087  -1.13003  -1.12977  -1.12956  -1.12921
  Beta  occ. eigenvalues --   -1.12884  -1.12854  -1.12787  -1.12781  -1.12749
  Beta  occ. eigenvalues --   -0.17999  -0.12609  -0.12356
  Beta virt. eigenvalues --   -0.07080  -0.05456  -0.04846  -0.04806  -0.02507
  Beta virt. eigenvalues --   -0.02296  -0.01624  -0.01256  -0.01075  -0.00336
  Beta virt. eigenvalues --   -0.00216   0.00118   0.00391   0.00863   0.00888

 Mulliken charges and spin densities:
               1          2
     1  Na   0.181218  -0.029398
     2  Na   0.157411   0.035985
     3  Na  -0.412667   0.580603
     4  Na  -0.051491   0.007134
     5  Na  -0.306981   0.390200
     6  Na   0.357598   0.042688
     7  Na   0.074912  -0.027212
 Sum of Mulliken charges =  -0.00000   1.00000

 Dipole moment (field-independent basis, Debye):
    X=             -0.1652    Y=             -0.2686    Z=              0.1514  Tot=              0.3498
 Quadrupole moment (field-independent basis, Debye-Ang):
   XX=            -59.5751   YY=            -61.5171   ZZ=            -73.0856
   XY=              0.2203   XZ=              1.4834   YZ=             -0.2237

 Normal termination of Gaussian 16 at Tue Dec  5 10:10:28 2023.
