 Gaussian 16, Revision B.01,
 Gaussian 16:  ES64L-G16RevB.01 20-Dec-2017

 -------------------------
 #P B3LYP/6-311+g(d) force
 -------------------------

 -----
 DPGEN
 -----
 Symbolic Z-matrix:
 Charge =  0 Multiplicity = 2

                         Standard orientation:
 ---------------------------------------------------------------------
 Center     Atomic      Atomic             Coordinates (Angstroms)
 Number     Number       Type             X           Y           Z
 ---------------------------------------------------------------------
      1         11           0        1.819189   -2.459714   -0.354254
      2         11           0       -0.468979   -0.456666   -1.720081
      3         11           0       -2.799924    1.622069   -0.131679
      4         11           0       -0.057882   -0.025896    1.997496
      5         11           0        3.280621    0.554970    0.195745
      6         11           0       -2.517956   -1.964517    0.327005
      7         11           0        0.744930    2.729754   -0.314231
 ---------------------------------------------------------------------

 SCF Done:  E(UB3LYP) =  -1136.13530669     A.U. after   19 cycles

 The electronic state is 2-A.
 Alpha  occ. eigenvalues --  -38.44269 -38.44253 -38.44133 -38.43763 -38.43599
 Alpha  occ. eigenvalues --  -38.43333 -38.43102  -2.20084  -2.20063  -2.19962
 Alpha  occ. eigenvalues --   -2.19630  -2.19423  -2.19263  -2.18931  -1.13755
 Alpha  occ. eigenvalues --   -1.13742  -1.13741  -1.13737  -1.13723  -1.13703
 Alpha  occ. eigenvalues --   -1.13644  -1.13628  -1.13590  -1.13303  -1.13261
 Alpha  occ. eigenvalues --   -1.13246  -1.13119  -1.13078  -1.13059  -1.12936
 Alpha  occ. eigenvalues --   -1.12903  -1.12878  -1.12611  -1.12599  -1.12566
 Alpha  occ. eigenvalues --   -0.18297  -0.13288  -0.12059  -0.10651
 Alpha virt. eigenvalues --   -0.05921  -0.05727  -0.04342  -0.03328  -0.02744
 Alpha virt. eigenvalues --   -0.02521  -0.01761  -0.01336  -0.00611  -0.00275
 Alpha virt. eigenvalues --   -0.00042   0.00338   0.00703   0.00790   0.00873

  Beta  occ. eigenvalues --  -38.44270 -38.44248 -38.44124 -38.43675 -38.43592
  Beta  occ. eigenvalues --  -38.43267 -38.43097  -2.20086  -2.20057  -2.19949
  Beta  occ. eigenvalues --   -2.19469  -2.19412  -2.19142  -2.18926  -1.13753
  Beta  occ. eigenvalues --   -1.13741  -1.13734  -1.13726  -1.13714  -1.13698
  Beta  occ. eigenvalues --   -1.13632  -1.13596  -1.13584  -1.13195  -1.13150
  Beta  occ. eigenvalues --   -1.13126  -1.13100  -1.13059  -1.13054  -1.12855
  Beta  occ. eigenvalues --   -1.12820  -1.12788  -1.12608  -1.12583  -1.12559
  Beta  occ. eigenvalues --   -0.17584  -0.13099  -0.11812
  Beta virt. eigenvalues --   -0.06784  -0.05812  -0.05738  -0.04258  -0.02606
  Beta virt. eigenvalues --   -0.02027  -0.01659  -0.01487  -0.01257  -0.00651
  Beta virt. eigenvalues --   -0.00306   0.00111   0.00372   0.00785   0.00791

 Mulliken charges and spin densities:
               1          2
     1  Na   0.123057  -0.087384
     2  Na  -0.007458   0.552477
     3  Na   0.105082  -0.029614
     4  Na  -0.272529   0.693295
     5  Na   0.009310  -0.007663
     6  Na   0.163561  -0.062258
     7  Na  -0.121022  -0.058854
 Sum of Mulliken charges =  -0.00000   1.00000

 Dipole moment (field-independent basis, Debye):
    X=             -0.2966    Y=             -0.1322    Z=              0.1682  Tot=              0.3657
 Quadrupole moment (field-independent basis, Debye-Ang):
   XX=            -53.0520   YY=            -65.5148   ZZ=            -74.9152
   XY=             -0.0135   XZ=             -0.3209   YZ=             -0.8754

 Normal termination of Gaussian 16 at Fri Dec  8 01:59:42 2023.
