 Gaussian 16, Revision B.01,
 Gaussian 16:  ES64L-G16RevB.01 20-Dec-2017

 -------------------------
 #P B3LYP/6-311+g(d) force
 -------------------------

 -----
 DPGEN
 -----
 Symbolic Z-matrix:
 Charge =  0 Multiplicity = 2

                         Standard orientation:
 ---------------------------------------------------------------------
 Center     Atomic      Atomic             Coordinates (Angstroms)
 Number     Number       Type             X           Y           Z
 ---------------------------------------------------------------------
      1         11           0       -2.034821   -2.304748    0.331031
      2         11           0        0.606961    2.622874    0.173189
      3         11           0        0.811417   -0.522129    2.247727
      4         11           0        0.774941   -1.821652   -1.223920
      5         11           0        3.514083   -0.075981   -0.260804
      6         11           0       -1.138423    0.821418   -1.864085
      7         11           0       -2.534158    1.280217    0.596861
 ---------------------------------------------------------------------

 SCF Done:  E(UB3LYP) =  -1136.12995092     A.U. after   19 cycles

 The electronic state is 2-A.
 Alpha  occ. eigenvalues --  -38.44524 -38.44213 -38.44062 -38.43942 -38.43368
 Alpha  occ. eigenvalues --  -38.43232 -38.43231  -2.20344  -2.19999  -2.19960
 Alpha  occ. eigenvalues --   -2.19898  -2.19212  -2.19133  -2.19065  -1.14009
 Alpha  occ. eigenvalues --   -1.13984  -1.13958  -1.13850  -1.13678  -1.13658
 Alpha  occ. eigenvalues --   -1.13636  -1.13615  -1.13562  -1.13553  -1.13482
 Alpha  occ. eigenvalues --   -1.13454  -1.12905  -1.12891  -1.12832  -1.12816
 Alpha  occ. eigenvalues --   -1.12816  -1.12767  -1.12724  -1.12708  -1.12690
 Alpha  occ. eigenvalues --   -0.18428  -0.12940  -0.12095  -0.11524
 Alpha virt. eigenvalues --   -0.05855  -0.04824  -0.04267  -0.03749  -0.03215
 Alpha virt. eigenvalues --   -0.03094  -0.01518  -0.00806  -0.00289  -0.00013
 Alpha virt. eigenvalues --    0.00186   0.00373   0.00549   0.00762   0.00857

  Beta  occ. eigenvalues --  -38.44445 -38.44214 -38.44053 -38.43887 -38.43362
  Beta  occ. eigenvalues --  -38.43228 -38.43194  -2.20199  -2.20003  -2.19944
  Beta  occ. eigenvalues --   -2.19800  -2.19204  -2.19067  -2.19060  -1.13912
  Beta  occ. eigenvalues --   -1.13882  -1.13851  -1.13815  -1.13673  -1.13658
  Beta  occ. eigenvalues --   -1.13639  -1.13588  -1.13549  -1.13489  -1.13418
  Beta  occ. eigenvalues --   -1.13397  -1.12897  -1.12867  -1.12814  -1.12804
  Beta  occ. eigenvalues --   -1.12764  -1.12718  -1.12713  -1.12696  -1.12665
  Beta  occ. eigenvalues --   -0.17657  -0.12796  -0.11909
  Beta virt. eigenvalues --   -0.07589  -0.05675  -0.04736  -0.03905  -0.03330
  Beta virt. eigenvalues --   -0.02511  -0.02119  -0.01433  -0.00763  -0.00040
  Beta virt. eigenvalues --   -0.00017   0.00206   0.00418   0.00741   0.00859

 Mulliken charges and spin densities:
               1          2
     1  Na   0.069731   0.009405
     2  Na  -0.098525  -0.027336
     3  Na  -0.584378   0.553889
     4  Na   0.011681   0.244704
     5  Na   0.201367  -0.103772
     6  Na   0.196927   0.129427
     7  Na   0.203198   0.193683
 Sum of Mulliken charges =  -0.00000   1.00000

 Dipole moment (field-independent basis, Debye):
    X=              0.2712    Y=              0.1758    Z=              0.3996  Tot=              0.5139
 Quadrupole moment (field-independent basis, Debye-Ang):
   XX=            -58.0599   YY=            -70.6882   ZZ=            -67.3657
   XY=              1.1442   XZ=             -2.1442   YZ=              0.1448

 Normal termination of Gaussian 16 at Fri Dec  8 02:42:21 2023.
