 Gaussian 16, Revision B.01,
 Gaussian 16:  ES64L-G16RevB.01 20-Dec-2017

 -------------------------
 #P B3LYP/6-311+g(d) force
 -------------------------

 -----
 DPGEN
 -----
 Symbolic Z-matrix:
 Charge =  0 Multiplicity = 2

                         Standard orientation:
 ---------------------------------------------------------------------
 Center     Atomic      Atomic             Coordinates (Angstroms)
 Number     Number       Type             X           Y           Z
 ---------------------------------------------------------------------
      1         11           0        1.941651   -0.393610    1.974543
      2         11           0       -0.618273    1.243187    1.342449
      3         11           0       -3.305021    1.393712   -0.658512
      4         11           0       -0.073762   -1.556854   -1.001661
      5         11           0        4.457644   -0.845073   -0.626110
      6         11           0        1.852735    1.713626   -1.121340
      7         11           0       -4.254975   -1.554988    0.090631
 ---------------------------------------------------------------------

 SCF Done:  E(UB3LYP) =  -1136.10670446     A.U. after   32 cycles

 The electronic state is 2-A.
 Alpha  occ. eigenvalues --  -38.47021 -38.44897 -38.44312 -38.44232 -38.44214
 Alpha  occ. eigenvalues --  -38.43948 -38.42117  -2.22745  -2.20723  -2.20151
 Alpha  occ. eigenvalues --   -2.20101  -2.20019  -2.19726  -2.18036  -1.16458
 Alpha  occ. eigenvalues --   -1.16415  -1.16344  -1.14407  -1.14375  -1.14360
 Alpha  occ. eigenvalues --   -1.13848  -1.13800  -1.13776  -1.13748  -1.13741
 Alpha  occ. eigenvalues --   -1.13717  -1.13687  -1.13679  -1.13653  -1.13403
 Alpha  occ. eigenvalues --   -1.13385  -1.13353  -1.11736  -1.11702  -1.11675
 Alpha  occ. eigenvalues --   -0.17771  -0.14198  -0.10907  -0.10653
 Alpha virt. eigenvalues --   -0.07791  -0.05980  -0.04340  -0.03341  -0.02893
 Alpha virt. eigenvalues --   -0.02486  -0.02227  -0.01887  -0.01228  -0.00591
 Alpha virt. eigenvalues --   -0.00376   0.00106   0.00248   0.00370   0.00499

  Beta  occ. eigenvalues --  -38.47011 -38.44880 -38.44244 -38.44224 -38.44157
  Beta  occ. eigenvalues --  -38.43928 -38.42112  -2.22732  -2.20692  -2.20023
  Beta  occ. eigenvalues --   -2.20005  -2.19997  -2.19691  -2.18033  -1.16425
  Beta  occ. eigenvalues --   -1.16406  -1.16342  -1.14389  -1.14356  -1.14331
  Beta  occ. eigenvalues --   -1.13762  -1.13719  -1.13693  -1.13676  -1.13675
  Beta  occ. eigenvalues --   -1.13668  -1.13645  -1.13643  -1.13640  -1.13380
  Beta  occ. eigenvalues --   -1.13348  -1.13333  -1.11719  -1.11704  -1.11648
  Beta  occ. eigenvalues --   -0.17154  -0.13892  -0.10608
  Beta virt. eigenvalues --   -0.07662  -0.07096  -0.05542  -0.04064  -0.03244
  Beta virt. eigenvalues --   -0.02753  -0.01901  -0.01734  -0.01446  -0.00811
  Beta virt. eigenvalues --   -0.00419  -0.00300   0.00138   0.00343   0.00445

 Mulliken charges and spin densities:
               1          2
     1  Na   0.031814   0.119957
     2  Na   0.205217   0.267917
     3  Na   0.303189   0.122921
     4  Na  -0.385357   0.021485
     5  Na   0.117903   0.132416
     6  Na  -0.250258   0.350371
     7  Na  -0.022508  -0.015067
 Sum of Mulliken charges =  -0.00000   1.00000

 Dipole moment (field-independent basis, Debye):
    X=             -0.4919    Y=             -0.2260    Z=             -0.0282  Tot=              0.5420
 Quadrupole moment (field-independent basis, Debye-Ang):
   XX=            -61.7409   YY=            -71.5178   ZZ=            -69.8090
   XY=             -1.4639   XZ=              2.2626   YZ=             -1.8256

 Normal termination of Gaussian 16 at Thu Dec  7 11:56:37 2023.
