 Gaussian 16, Revision B.01,
 Gaussian 16:  ES64L-G16RevB.01 20-Dec-2017

 -------------------------
 #P B3LYP/6-311+g(d) force
 -------------------------

 -----
 DPGEN
 -----
 Symbolic Z-matrix:
 Charge =  0 Multiplicity = 2

                         Standard orientation:
 ---------------------------------------------------------------------
 Center     Atomic      Atomic             Coordinates (Angstroms)
 Number     Number       Type             X           Y           Z
 ---------------------------------------------------------------------
      1         11           0       -0.652505    0.195167    1.153392
      2         11           0        0.826704   -2.695437   -0.525799
      3         11           0       -3.399348    1.018490   -0.458488
      4         11           0        2.270326    1.448905    0.921587
      5         11           0        0.026110    3.314797   -0.777468
      6         11           0       -2.726457   -2.262405    0.203459
      7         11           0        3.655170   -1.019517   -0.516684
 ---------------------------------------------------------------------

 SCF Done:  E(UB3LYP) =  -1136.12223878     A.U. after   23 cycles

 The electronic state is 2-A.
 Alpha  occ. eigenvalues --  -38.44943 -38.44392 -38.44294 -38.44094 -38.43739
 Alpha  occ. eigenvalues --  -38.43453 -38.43149  -2.20711  -2.20200  -2.20128
 Alpha  occ. eigenvalues --   -2.19987  -2.19683  -2.19305  -2.19015  -1.14396
 Alpha  occ. eigenvalues --   -1.14367  -1.14357  -1.13889  -1.13872  -1.13841
 Alpha  occ. eigenvalues --   -1.13806  -1.13789  -1.13763  -1.13702  -1.13649
 Alpha  occ. eigenvalues --   -1.13613  -1.13376  -1.13368  -1.13277  -1.12964
 Alpha  occ. eigenvalues --   -1.12949  -1.12919  -1.12678  -1.12649  -1.12641
 Alpha  occ. eigenvalues --   -0.17632  -0.13968  -0.12966  -0.09720
 Alpha virt. eigenvalues --   -0.06859  -0.06021  -0.04076  -0.03680  -0.02926
 Alpha virt. eigenvalues --   -0.02143  -0.01751  -0.01464  -0.01004  -0.00704
 Alpha virt. eigenvalues --   -0.00093   0.00317   0.00377   0.00587   0.00737

  Beta  occ. eigenvalues --  -38.44953 -38.44383 -38.44285 -38.44074 -38.43703
  Beta  occ. eigenvalues --  -38.43382 -38.43090  -2.20732  -2.20187  -2.20115
  Beta  occ. eigenvalues --   -2.19955  -2.19619  -2.19172  -2.18904  -1.14412
  Beta  occ. eigenvalues --   -1.14374  -1.14362  -1.13886  -1.13869  -1.13802
  Beta  occ. eigenvalues --   -1.13797  -1.13779  -1.13724  -1.13662  -1.13627
  Beta  occ. eigenvalues --   -1.13583  -1.13332  -1.13314  -1.13226  -1.12874
  Beta  occ. eigenvalues --   -1.12860  -1.12828  -1.12600  -1.12574  -1.12570
  Beta  occ. eigenvalues --   -0.17150  -0.13461  -0.12506
  Beta virt. eigenvalues --   -0.06745  -0.06354  -0.05880  -0.03927  -0.03048
  Beta virt. eigenvalues --   -0.02515  -0.01879  -0.01611  -0.01073  -0.00725
  Beta virt. eigenvalues --   -0.00630   0.00199   0.00416   0.00493   0.00716

 Mulliken charges and spin densities:
               1          2
     1  Na  -0.679784   0.108203
     2  Na  -0.157837   0.030129
     3  Na  -0.040023   0.469629
     4  Na   0.526323   0.039989
     5  Na  -0.058145  -0.076329
     6  Na   0.630509   0.080563
     7  Na  -0.221043   0.347817
 Sum of Mulliken charges =  -0.00000   1.00000

 Dipole moment (field-independent basis, Debye):
    X=             -0.3590    Y=              0.2243    Z=             -0.1749  Tot=              0.4580
 Quadrupole moment (field-independent basis, Debye-Ang):
   XX=            -70.3828   YY=            -60.3594   ZZ=            -70.1429
   XY=              9.1888   XZ=              0.7195   YZ=             -1.3209

 Normal termination of Gaussian 16 at Tue Nov 28 23:49:21 2023.
