 Gaussian 16, Revision B.01,
 Gaussian 16:  ES64L-G16RevB.01 20-Dec-2017

 -------------------------
 #P B3LYP/6-311+g(d) force
 -------------------------

 -----
 DPGEN
 -----
 Symbolic Z-matrix:
 Charge =  0 Multiplicity = 2

                         Standard orientation:
 ---------------------------------------------------------------------
 Center     Atomic      Atomic             Coordinates (Angstroms)
 Number     Number       Type             X           Y           Z
 ---------------------------------------------------------------------
      1         11           0       -3.223937   -0.249212    0.356537
      2         11           0        2.070262    2.212682   -0.077298
      3         11           0       -1.821397    2.398864   -0.487611
      4         11           0        3.627284   -0.949535    0.191659
      5         11           0       -0.914646   -2.813659   -0.034540
      6         11           0        0.049376    0.101475    1.932843
      7         11           0        0.213057   -0.700615   -1.881589
 ---------------------------------------------------------------------

 SCF Done:  E(UB3LYP) =  -1136.12788419     A.U. after   22 cycles

 The electronic state is 2-A.
 Alpha  occ. eigenvalues --  -38.45317 -38.44472 -38.44011 -38.43988 -38.43575
 Alpha  occ. eigenvalues --  -38.43194 -38.43063  -2.21064  -2.20321  -2.19867
 Alpha  occ. eigenvalues --   -2.19790  -2.19460  -2.19028  -2.18929  -1.14740
 Alpha  occ. eigenvalues --   -1.14720  -1.14701  -1.14012  -1.13983  -1.13953
 Alpha  occ. eigenvalues --   -1.13551  -1.13514  -1.13487  -1.13466  -1.13457
 Alpha  occ. eigenvalues --   -1.13415  -1.13172  -1.13103  -1.13068  -1.12712
 Alpha  occ. eigenvalues --   -1.12680  -1.12666  -1.12615  -1.12575  -1.12557
 Alpha  occ. eigenvalues --   -0.18072  -0.13330  -0.11909  -0.10608
 Alpha virt. eigenvalues --   -0.06667  -0.05275  -0.04249  -0.03401  -0.02896
 Alpha virt. eigenvalues --   -0.02451  -0.02241  -0.01172  -0.00590  -0.00295
 Alpha virt. eigenvalues --   -0.00095   0.00297   0.00562   0.00684   0.00776

  Beta  occ. eigenvalues --  -38.45318 -38.44466 -38.43984 -38.43936 -38.43499
  Beta  occ. eigenvalues --  -38.43184 -38.43058  -2.21067  -2.20312  -2.19786
  Beta  occ. eigenvalues --   -2.19729  -2.19319  -2.19011  -2.18925  -1.14734
  Beta  occ. eigenvalues --   -1.14720  -1.14704  -1.14007  -1.13955  -1.13951
  Beta  occ. eigenvalues --   -1.13481  -1.13449  -1.13446  -1.13412  -1.13404
  Beta  occ. eigenvalues --   -1.13377  -1.13079  -1.13002  -1.12968  -1.12704
  Beta  occ. eigenvalues --   -1.12657  -1.12650  -1.12603  -1.12562  -1.12544
  Beta  occ. eigenvalues --   -0.17354  -0.13162  -0.11667
  Beta virt. eigenvalues --   -0.06819  -0.06565  -0.05231  -0.04128  -0.02721
  Beta virt. eigenvalues --   -0.02234  -0.02031  -0.01493  -0.01096  -0.00617
  Beta virt. eigenvalues --   -0.00313   0.00069   0.00327   0.00717   0.00745

 Mulliken charges and spin densities:
               1          2
     1  Na   0.225891   0.092751
     2  Na  -0.038041   0.010596
     3  Na  -0.189752   0.024196
     4  Na   0.045636  -0.110693
     5  Na   0.127113  -0.123582
     6  Na  -0.040384   0.526410
     7  Na  -0.130463   0.580322
 Sum of Mulliken charges =  -0.00000   1.00000

 Dipole moment (field-independent basis, Debye):
    X=              0.8343    Y=             -0.2500    Z=              0.2127  Tot=              0.8965
 Quadrupole moment (field-independent basis, Debye-Ang):
   XX=            -51.4733   YY=            -67.4767   ZZ=            -74.7604
   XY=             -0.5979   XZ=             -0.1256   YZ=             -2.1678

 Normal termination of Gaussian 16 at Tue Dec  5 14:09:16 2023.
