 Gaussian 16, Revision B.01,
 Gaussian 16:  ES64L-G16RevB.01 20-Dec-2017

 -------------------------
 #P B3LYP/6-311+g(d) force
 -------------------------

 -----
 DPGEN
 -----
 Symbolic Z-matrix:
 Charge =  0 Multiplicity = 2

                         Standard orientation:
 ---------------------------------------------------------------------
 Center     Atomic      Atomic             Coordinates (Angstroms)
 Number     Number       Type             X           Y           Z
 ---------------------------------------------------------------------
      1         11           0        3.676674   -0.427595   -0.666335
      2         11           0       -1.353899    0.361672    1.935843
      3         11           0        0.305907   -0.728992   -1.534117
      4         11           0       -2.484696    1.288547   -0.980649
      5         11           0       -2.694994   -1.757543   -0.305451
      6         11           0        1.040302    2.464945    0.132516
      7         11           0        1.510707   -1.201035    1.418193
 ---------------------------------------------------------------------

 SCF Done:  E(UB3LYP) =  -1136.12625239     A.U. after   23 cycles

 The electronic state is 2-A.
 Alpha  occ. eigenvalues --  -38.44770 -38.44199 -38.44070 -38.43932 -38.43676
 Alpha  occ. eigenvalues --  -38.43352 -38.42535  -2.20606  -2.20103  -2.19996
 Alpha  occ. eigenvalues --   -2.19853  -2.19610  -2.19237  -2.18350  -1.14305
 Alpha  occ. eigenvalues --   -1.14253  -1.14233  -1.13797  -1.13783  -1.13719
 Alpha  occ. eigenvalues --   -1.13706  -1.13645  -1.13606  -1.13545  -1.13499
 Alpha  occ. eigenvalues --   -1.13460  -1.13294  -1.13260  -1.13204  -1.12905
 Alpha  occ. eigenvalues --   -1.12892  -1.12880  -1.12037  -1.12019  -1.11975
 Alpha  occ. eigenvalues --   -0.18861  -0.14120  -0.11652  -0.10937
 Alpha virt. eigenvalues --   -0.06480  -0.05005  -0.04533  -0.03191  -0.02812
 Alpha virt. eigenvalues --   -0.02428  -0.02240  -0.00804  -0.00684  -0.00063
 Alpha virt. eigenvalues --    0.00246   0.00329   0.00415   0.00718   0.00833

  Beta  occ. eigenvalues --  -38.44763 -38.44170 -38.44017 -38.43896 -38.43607
  Beta  occ. eigenvalues --  -38.43350 -38.42530  -2.20593  -2.20050  -2.19902
  Beta  occ. eigenvalues --   -2.19790  -2.19486  -2.19236  -2.18343  -1.14294
  Beta  occ. eigenvalues --   -1.14240  -1.14224  -1.13766  -1.13733  -1.13668
  Beta  occ. eigenvalues --   -1.13661  -1.13554  -1.13546  -1.13494  -1.13447
  Beta  occ. eigenvalues --   -1.13413  -1.13201  -1.13174  -1.13113  -1.12907
  Beta  occ. eigenvalues --   -1.12884  -1.12863  -1.12030  -1.12003  -1.11972
  Beta  occ. eigenvalues --   -0.18089  -0.13947  -0.10772
  Beta virt. eigenvalues --   -0.07569  -0.06303  -0.04808  -0.04038  -0.02969
  Beta virt. eigenvalues --   -0.02155  -0.01977  -0.01754  -0.00682  -0.00332
  Beta virt. eigenvalues --   -0.00008   0.00291   0.00404   0.00505   0.00802

 Mulliken charges and spin densities:
               1          2
     1  Na   0.552785   0.085169
     2  Na   0.283749   0.397984
     3  Na  -0.299391   0.437426
     4  Na   0.172707   0.120524
     5  Na   0.207495  -0.027728
     6  Na  -0.655717  -0.021510
     7  Na  -0.261628   0.008136
 Sum of Mulliken charges =  -0.00000   1.00000

 Dipole moment (field-independent basis, Debye):
    X=              0.5745    Y=              0.0175    Z=             -0.2398  Tot=              0.6228
 Quadrupole moment (field-independent basis, Debye-Ang):
   XX=            -50.0015   YY=            -75.8155   ZZ=            -68.4861
   XY=              0.0973   XZ=             -1.1931   YZ=             -3.5987

 Normal termination of Gaussian 16 at Thu Dec  7 13:53:58 2023.
