 Gaussian 16, Revision B.01,
 Gaussian 16:  ES64L-G16RevB.01 20-Dec-2017

 -------------------------
 #P B3LYP/6-311+g(d) force
 -------------------------

 -----
 DPGEN
 -----
 Symbolic Z-matrix:
 Charge =  0 Multiplicity = 2

                         Standard orientation:
 ---------------------------------------------------------------------
 Center     Atomic      Atomic             Coordinates (Angstroms)
 Number     Number       Type             X           Y           Z
 ---------------------------------------------------------------------
      1         11           0       -1.808115   -1.334715    1.134249
      2         11           0       -5.406368   -1.114968   -0.543294
      3         11           0       -5.085959    1.895064    0.306592
      4         11           0       -0.771786    1.199321   -0.852834
      5         11           0        1.126869   -1.353725   -0.493230
      6         11           0        4.885476    0.624337    1.193873
      7         11           0        7.059884    0.084687   -0.745355
 ---------------------------------------------------------------------

 SCF Done:  E(UB3LYP) =  -1136.10798834     A.U. after   18 cycles

 The electronic state is 2-A.
 Alpha  occ. eigenvalues --  -38.44569 -38.44534 -38.44509 -38.44234 -38.44109
 Alpha  occ. eigenvalues --  -38.44059 -38.44002  -2.20393  -2.20339  -2.20310
 Alpha  occ. eigenvalues --   -2.20071  -2.19906  -2.19852  -2.19850  -1.14147
 Alpha  occ. eigenvalues --   -1.14076  -1.14055  -1.14037  -1.13993  -1.13990
 Alpha  occ. eigenvalues --   -1.13953  -1.13945  -1.13859  -1.13755  -1.13744
 Alpha  occ. eigenvalues --   -1.13665  -1.13629  -1.13571  -1.13549  -1.13518
 Alpha  occ. eigenvalues --   -1.13511  -1.13501  -1.13491  -1.13452  -1.13449
 Alpha  occ. eigenvalues --   -0.16234  -0.13817  -0.12574  -0.09907
 Alpha virt. eigenvalues --   -0.06400  -0.05696  -0.05342  -0.03402  -0.02800
 Alpha virt. eigenvalues --   -0.02618  -0.02270  -0.01995  -0.01035  -0.00934
 Alpha virt. eigenvalues --   -0.00494  -0.00182   0.00216   0.00289   0.00461

  Beta  occ. eigenvalues --  -38.44567 -38.44534 -38.44509 -38.44177 -38.44096
  Beta  occ. eigenvalues --  -38.44036 -38.43939  -2.20393  -2.20338  -2.20310
  Beta  occ. eigenvalues --   -2.19967  -2.19880  -2.19809  -2.19733  -1.14147
  Beta  occ. eigenvalues --   -1.14065  -1.14055  -1.14026  -1.13993  -1.13990
  Beta  occ. eigenvalues --   -1.13952  -1.13945  -1.13859  -1.13677  -1.13667
  Beta  occ. eigenvalues --   -1.13608  -1.13593  -1.13554  -1.13523  -1.13482
  Beta  occ. eigenvalues --   -1.13457  -1.13438  -1.13422  -1.13418  -1.13368
  Beta  occ. eigenvalues --   -0.15640  -0.13736  -0.12471
  Beta virt. eigenvalues --   -0.06331  -0.06218  -0.05406  -0.04846  -0.03138
  Beta virt. eigenvalues --   -0.02682  -0.02487  -0.01884  -0.01583  -0.00975
  Beta virt. eigenvalues --   -0.00481  -0.00293   0.00036   0.00327   0.00449

 Mulliken charges and spin densities:
               1          2
     1  Na  -0.043480   0.481998
     2  Na   0.126130   0.035692
     3  Na   0.037167   0.089509
     4  Na  -0.052979   0.347501
     5  Na  -0.110726   0.052367
     6  Na  -0.140765  -0.014250
     7  Na   0.184654   0.007183
 Sum of Mulliken charges =  -0.00000   1.00000

 Dipole moment (field-independent basis, Debye):
    X=              1.2948    Y=             -0.3271    Z=             -0.3239  Tot=              1.3742
 Quadrupole moment (field-independent basis, Debye-Ang):
   XX=            -59.1643   YY=            -72.3910   ZZ=            -66.8096
   XY=             -2.7398   XZ=             -4.6823   YZ=              6.1206

 Normal termination of Gaussian 16 at Wed Nov 29 01:11:03 2023.
