 Gaussian 16, Revision B.01,
 Gaussian 16:  ES64L-G16RevB.01 20-Dec-2017

 -------------------------
 #P B3LYP/6-311+g(d) force
 -------------------------

 -----
 DPGEN
 -----
 Symbolic Z-matrix:
 Charge =  0 Multiplicity = 2

                         Standard orientation:
 ---------------------------------------------------------------------
 Center     Atomic      Atomic             Coordinates (Angstroms)
 Number     Number       Type             X           Y           Z
 ---------------------------------------------------------------------
      1         11           0        1.598608    0.335973    1.765680
      2         11           0       -0.903958    2.342137   -0.415113
      3         11           0        2.947014    1.552363   -1.001860
      4         11           0       -0.421148   -1.246309   -1.344137
      5         11           0       -3.874165   -0.354825   -0.836275
      6         11           0        2.316191   -2.328794   -0.252854
      7         11           0       -1.662542   -0.300546    2.084560
 ---------------------------------------------------------------------

 SCF Done:  E(UB3LYP) =  -1136.12551285     A.U. after   24 cycles

 The electronic state is 2-A.
 Alpha  occ. eigenvalues --  -38.44934 -38.44492 -38.44474 -38.43822 -38.43798
 Alpha  occ. eigenvalues --  -38.43490 -38.42824  -2.20715  -2.20348  -2.20268
 Alpha  occ. eigenvalues --   -2.19695  -2.19610  -2.19351  -2.18669  -1.14387
 Alpha  occ. eigenvalues --   -1.14370  -1.14338  -1.14034  -1.13980  -1.13956
 Alpha  occ. eigenvalues --   -1.13953  -1.13915  -1.13887  -1.13389  -1.13346
 Alpha  occ. eigenvalues --   -1.13318  -1.13313  -1.13284  -1.13209  -1.13044
 Alpha  occ. eigenvalues --   -1.13026  -1.12983  -1.12344  -1.12331  -1.12300
 Alpha  occ. eigenvalues --   -0.18045  -0.13603  -0.11576  -0.11069
 Alpha virt. eigenvalues --   -0.06578  -0.05118  -0.04757  -0.03304  -0.02720
 Alpha virt. eigenvalues --   -0.02531  -0.02296  -0.01091  -0.00802  -0.00135
 Alpha virt. eigenvalues --    0.00104   0.00184   0.00311   0.00530   0.00731

  Beta  occ. eigenvalues --  -38.44919 -38.44447 -38.44412 -38.43809 -38.43753
  Beta  occ. eigenvalues --  -38.43473 -38.42825  -2.20688  -2.20216  -2.20203
  Beta  occ. eigenvalues --   -2.19618  -2.19588  -2.19322  -2.18672  -1.14362
  Beta  occ. eigenvalues --   -1.14352  -1.14323  -1.13930  -1.13920  -1.13883
  Beta  occ. eigenvalues --   -1.13879  -1.13849  -1.13842  -1.13329  -1.13299
  Beta  occ. eigenvalues --   -1.13273  -1.13262  -1.13253  -1.13195  -1.13018
  Beta  occ. eigenvalues --   -1.13000  -1.12964  -1.12346  -1.12327  -1.12301
  Beta  occ. eigenvalues --   -0.17327  -0.13418  -0.10905
  Beta virt. eigenvalues --   -0.07599  -0.06426  -0.04805  -0.04338  -0.03012
  Beta virt. eigenvalues --   -0.02211  -0.02063  -0.01863  -0.00759  -0.00657
  Beta virt. eigenvalues --   -0.00032   0.00203   0.00231   0.00394   0.00653

 Mulliken charges and spin densities:
               1          2
     1  Na   0.382470   0.147181
     2  Na  -0.470423   0.225848
     3  Na  -0.014448   0.168916
     4  Na  -0.591795   0.191367
     5  Na   0.612885   0.043189
     6  Na   0.111957   0.011884
     7  Na  -0.030647   0.211614
 Sum of Mulliken charges =  -0.00000   1.00000

 Dipole moment (field-independent basis, Debye):
    X=             -0.9357    Y=              0.3494    Z=             -0.1246  Tot=              1.0066
 Quadrupole moment (field-independent basis, Debye-Ang):
   XX=            -48.9557   YY=            -77.0853   ZZ=            -67.9756
   XY=              0.4532   XZ=             -0.1708   YZ=             -3.8544

 Normal termination of Gaussian 16 at Fri Dec  8 06:17:08 2023.
