 Gaussian 16, Revision B.01,
 Gaussian 16:  ES64L-G16RevB.01 20-Dec-2017

 -------------------------
 #P B3LYP/6-311+g(d) force
 -------------------------

 -----
 DPGEN
 -----
 Symbolic Z-matrix:
 Charge =  0 Multiplicity = 2

                         Standard orientation:
 ---------------------------------------------------------------------
 Center     Atomic      Atomic             Coordinates (Angstroms)
 Number     Number       Type             X           Y           Z
 ---------------------------------------------------------------------
      1         11           0       -0.029796    0.176500    2.136842
      2         11           0        1.565626   -2.507507    0.169491
      3         11           0        0.468451    0.326929   -1.693693
      4         11           0       -0.588750    3.029364   -0.143028
      5         11           0       -2.821834    0.394515    0.033073
      6         11           0        3.049645    0.925105   -0.047995
      7         11           0       -1.643342   -2.344906   -0.454689
 ---------------------------------------------------------------------

 SCF Done:  E(UB3LYP) =  -1136.13598119     A.U. after   19 cycles

 The electronic state is 2-A.
 Alpha  occ. eigenvalues --  -38.44100 -38.43832 -38.43810 -38.43734 -38.43535
 Alpha  occ. eigenvalues --  -38.43295 -38.43268  -2.19922  -2.19685  -2.19664
 Alpha  occ. eigenvalues --   -2.19574  -2.19427  -2.19258  -2.19160  -1.13637
 Alpha  occ. eigenvalues --   -1.13576  -1.13546  -1.13362  -1.13350  -1.13329
 Alpha  occ. eigenvalues --   -1.13313  -1.13300  -1.13297  -1.13259  -1.13240
 Alpha  occ. eigenvalues --   -1.13210  -1.13168  -1.13082  -1.13061  -1.12929
 Alpha  occ. eigenvalues --   -1.12899  -1.12882  -1.12809  -1.12801  -1.12795
 Alpha  occ. eigenvalues --   -0.18687  -0.12862  -0.12667  -0.10953
 Alpha virt. eigenvalues --   -0.05741  -0.05006  -0.04640  -0.03226  -0.03079
 Alpha virt. eigenvalues --   -0.02767  -0.01333  -0.01252  -0.00277  -0.00197
 Alpha virt. eigenvalues --   -0.00013   0.00369   0.00830   0.00907   0.00920

  Beta  occ. eigenvalues --  -38.44098 -38.43828 -38.43729 -38.43710 -38.43529
  Beta  occ. eigenvalues --  -38.43259 -38.43234  -2.19921  -2.19660  -2.19570
  Beta  occ. eigenvalues --   -2.19500  -2.19421  -2.19148  -2.19145  -1.13627
  Beta  occ. eigenvalues --   -1.13563  -1.13547  -1.13351  -1.13307  -1.13300
  Beta  occ. eigenvalues --   -1.13262  -1.13227  -1.13216  -1.13210  -1.13186
  Beta  occ. eigenvalues --   -1.13168  -1.13161  -1.13061  -1.13047  -1.12854
  Beta  occ. eigenvalues --   -1.12823  -1.12805  -1.12798  -1.12786  -1.12766
  Beta  occ. eigenvalues --   -0.17949  -0.12635  -0.12438
  Beta virt. eigenvalues --   -0.07021  -0.05750  -0.04886  -0.04636  -0.02423
  Beta virt. eigenvalues --   -0.02310  -0.01697  -0.01261  -0.01181  -0.00326
  Beta virt. eigenvalues --   -0.00217   0.00121   0.00398   0.00827   0.00926

 Mulliken charges and spin densities:
               1          2
     1  Na  -0.488212   0.684116
     2  Na   0.103761   0.036742
     3  Na  -0.159952   0.428460
     4  Na   0.188777  -0.101838
     5  Na   0.203422   0.068369
     6  Na   0.137766  -0.117297
     7  Na   0.014439   0.001448
 Sum of Mulliken charges =  -0.00000   1.00000

 Dipole moment (field-independent basis, Debye):
    X=              0.4511    Y=              0.3374    Z=              0.1960  Tot=              0.5964
 Quadrupole moment (field-independent basis, Debye-Ang):
   XX=            -60.2608   YY=            -61.1153   ZZ=            -73.2757
   XY=             -0.3555   XZ=              1.1463   YZ=              0.3141

 Normal termination of Gaussian 16 at Thu Dec  7 18:13:41 2023.
