 Gaussian 16, Revision B.01,
 Gaussian 16:  ES64L-G16RevB.01 20-Dec-2017

 -------------------------
 #P B3LYP/6-311+g(d) force
 -------------------------

 -----
 DPGEN
 -----
 Symbolic Z-matrix:
 Charge =  0 Multiplicity = 2

                         Standard orientation:
 ---------------------------------------------------------------------
 Center     Atomic      Atomic             Coordinates (Angstroms)
 Number     Number       Type             X           Y           Z
 ---------------------------------------------------------------------
      1         11           0        2.019963   -2.084581    0.731036
      2         11           0        1.611567    1.147736   -1.027857
      3         11           0       -1.738947    0.563070   -1.578665
      4         11           0       -1.409937   -1.376587    1.049026
      5         11           0       -4.494916   -0.921849   -0.375961
      6         11           0       -0.605222    2.887996    1.594659
      7         11           0        4.617491   -0.215785   -0.392237
 ---------------------------------------------------------------------

 SCF Done:  E(UB3LYP) =  -1136.11836867     A.U. after   26 cycles

 The electronic state is 2-A.
 Alpha  occ. eigenvalues --  -38.44641 -38.44542 -38.43946 -38.43767 -38.43754
 Alpha  occ. eigenvalues --  -38.43739 -38.43738  -2.20500  -2.20289  -2.19770
 Alpha  occ. eigenvalues --   -2.19624  -2.19609  -2.19571  -2.19561  -1.14219
 Alpha  occ. eigenvalues --   -1.14178  -1.14085  -1.13962  -1.13958  -1.13892
 Alpha  occ. eigenvalues --   -1.13441  -1.13425  -1.13408  -1.13334  -1.13330
 Alpha  occ. eigenvalues --   -1.13292  -1.13280  -1.13267  -1.13249  -1.13234
 Alpha  occ. eigenvalues --   -1.13220  -1.13217  -1.13186  -1.13179  -1.13162
 Alpha  occ. eigenvalues --   -0.17296  -0.13982  -0.11630  -0.10858
 Alpha virt. eigenvalues --   -0.07267  -0.05097  -0.04271  -0.03336  -0.02912
 Alpha virt. eigenvalues --   -0.02742  -0.01964  -0.01390  -0.01146  -0.00562
 Alpha virt. eigenvalues --   -0.00244   0.00097   0.00451   0.00621   0.00697

  Beta  occ. eigenvalues --  -38.44627 -38.44515 -38.43915 -38.43758 -38.43717
  Beta  occ. eigenvalues --  -38.43703 -38.43697  -2.20474  -2.20237  -2.19714
  Beta  occ. eigenvalues --   -2.19594  -2.19535  -2.19523  -2.19499  -1.14196
  Beta  occ. eigenvalues --   -1.14163  -1.14066  -1.13927  -1.13919  -1.13860
  Beta  occ. eigenvalues --   -1.13398  -1.13385  -1.13377  -1.13322  -1.13277
  Beta  occ. eigenvalues --   -1.13271  -1.13219  -1.13211  -1.13204  -1.13193
  Beta  occ. eigenvalues --   -1.13190  -1.13178  -1.13171  -1.13123  -1.13087
  Beta  occ. eigenvalues --   -0.16760  -0.13672  -0.11255
  Beta virt. eigenvalues --   -0.07278  -0.06953  -0.04783  -0.03938  -0.03030
  Beta virt. eigenvalues --   -0.02665  -0.02479  -0.01531  -0.01099  -0.00839
  Beta virt. eigenvalues --   -0.00366  -0.00172   0.00245   0.00637   0.00728

 Mulliken charges and spin densities:
               1          2
     1  Na  -0.153107   0.034280
     2  Na  -0.534186   0.200248
     3  Na   0.164607   0.114412
     4  Na  -0.428274   0.268223
     5  Na   0.489134   0.087189
     6  Na   0.026986   0.127682
     7  Na   0.434840   0.167966
 Sum of Mulliken charges =  -0.00000   1.00000

 Dipole moment (field-independent basis, Debye):
    X=             -0.2511    Y=              0.6400    Z=              0.4331  Tot=              0.8125
 Quadrupole moment (field-independent basis, Debye-Ang):
   XX=            -57.8753   YY=            -73.4614   ZZ=            -65.9735
   XY=             -1.3729   XZ=             -1.4935   YZ=              2.3944

 Normal termination of Gaussian 16 at Tue Nov 28 22:59:53 2023.
