 Gaussian 16, Revision B.01,
 Gaussian 16:  ES64L-G16RevB.01 20-Dec-2017

 -------------------------
 #P B3LYP/6-311+g(d) force
 -------------------------

 -----
 DPGEN
 -----
 Symbolic Z-matrix:
 Charge =  0 Multiplicity = 2

                         Standard orientation:
 ---------------------------------------------------------------------
 Center     Atomic      Atomic             Coordinates (Angstroms)
 Number     Number       Type             X           Y           Z
 ---------------------------------------------------------------------
      1         11           0        1.324331   -2.034668   -1.585047
      2         11           0       -3.475128    1.577825    0.045176
      3         11           0        2.520000    2.082174   -0.932357
      4         11           0        2.607517   -0.303692    1.440280
      5         11           0        0.180148    0.912650    0.085935
      6         11           0       -0.802797   -1.096882    1.973607
      7         11           0       -2.354071   -1.137407   -1.027594
 ---------------------------------------------------------------------

 SCF Done:  E(UB3LYP) =  -1136.11567754     A.U. after   22 cycles

 The electronic state is 2-A.
 Alpha  occ. eigenvalues --  -38.44495 -38.44073 -38.44071 -38.43941 -38.43911
 Alpha  occ. eigenvalues --  -38.43264 -38.43189  -2.20398  -2.19967  -2.19886
 Alpha  occ. eigenvalues --   -2.19855  -2.19727  -2.19321  -2.19150  -1.14131
 Alpha  occ. eigenvalues --   -1.14048  -1.13996  -1.13688  -1.13658  -1.13646
 Alpha  occ. eigenvalues --   -1.13626  -1.13538  -1.13534  -1.13480  -1.13464
 Alpha  occ. eigenvalues --   -1.13427  -1.13400  -1.13367  -1.13338  -1.13197
 Alpha  occ. eigenvalues --   -1.12993  -1.12920  -1.12773  -1.12757  -1.12717
 Alpha  occ. eigenvalues --   -0.18703  -0.13952  -0.11527  -0.11138
 Alpha virt. eigenvalues --   -0.06113  -0.05189  -0.04521  -0.03391  -0.02684
 Alpha virt. eigenvalues --   -0.02228  -0.02017  -0.01002  -0.00751   0.00055
 Alpha virt. eigenvalues --    0.00141   0.00308   0.00393   0.00616   0.00786

  Beta  occ. eigenvalues --  -38.44468 -38.44078 -38.44051 -38.43879 -38.43846
  Beta  occ. eigenvalues --  -38.43254 -38.43165  -2.20351  -2.19932  -2.19895
  Beta  occ. eigenvalues --   -2.19744  -2.19607  -2.19286  -2.19133  -1.14096
  Beta  occ. eigenvalues --   -1.14003  -1.13956  -1.13668  -1.13627  -1.13611
  Beta  occ. eigenvalues --   -1.13570  -1.13542  -1.13536  -1.13471  -1.13377
  Beta  occ. eigenvalues --   -1.13352  -1.13310  -1.13283  -1.13259  -1.13166
  Beta  occ. eigenvalues --   -1.12923  -1.12905  -1.12757  -1.12740  -1.12704
  Beta  occ. eigenvalues --   -0.17966  -0.13812  -0.10873
  Beta virt. eigenvalues --   -0.07497  -0.06011  -0.05061  -0.03972  -0.02866
  Beta virt. eigenvalues --   -0.02207  -0.01982  -0.01570  -0.00803  -0.00399
  Beta virt. eigenvalues --    0.00114   0.00198   0.00339   0.00495   0.00683

 Mulliken charges and spin densities:
               1          2
     1  Na  -0.300308   0.323603
     2  Na   0.507898  -0.075033
     3  Na  -0.162221   0.015314
     4  Na   0.339637   0.127987
     5  Na  -1.268130   0.499563
     6  Na   0.478468   0.056164
     7  Na   0.404656   0.052402
 Sum of Mulliken charges =  -0.00000   1.00000

 Dipole moment (field-independent basis, Debye):
    X=             -0.1038    Y=             -0.6864    Z=              0.2370  Tot=              0.7335
 Quadrupole moment (field-independent basis, Debye-Ang):
   XX=            -53.5012   YY=            -73.0069   ZZ=            -66.9730
   XY=             -2.3107   XZ=              0.1108   YZ=              0.5587

 Normal termination of Gaussian 16 at Thu Dec  7 15:15:26 2023.
