 Gaussian 16, Revision B.01,
 Gaussian 16:  ES64L-G16RevB.01 20-Dec-2017

 -------------------------
 #P B3LYP/6-311+g(d) force
 -------------------------

 -----
 DPGEN
 -----
 Symbolic Z-matrix:
 Charge =  0 Multiplicity = 2

                         Standard orientation:
 ---------------------------------------------------------------------
 Center     Atomic      Atomic             Coordinates (Angstroms)
 Number     Number       Type             X           Y           Z
 ---------------------------------------------------------------------
      1         11           0       -3.782121   -1.455415   -0.086080
      2         11           0        0.930104    1.798448    0.404350
      3         11           0       -0.145902   -1.446506   -1.444799
      4         11           0        2.830684   -1.215054    1.533390
      5         11           0       -2.339313    1.835756   -0.725364
      6         11           0       -1.078117    0.297050    1.735354
      7         11           0        3.584664    0.185721   -1.416850
 ---------------------------------------------------------------------

 SCF Done:  E(UB3LYP) =  -1136.11632630     A.U. after   27 cycles

 The electronic state is 2-A.
 Alpha  occ. eigenvalues --  -38.45135 -38.44704 -38.44576 -38.44338 -38.43838
 Alpha  occ. eigenvalues --  -38.43591 -38.42546  -2.20889  -2.20514  -2.20389
 Alpha  occ. eigenvalues --   -2.20204  -2.19623  -2.19557  -2.18495  -1.14597
 Alpha  occ. eigenvalues --   -1.14585  -1.14475  -1.14185  -1.14161  -1.14153
 Alpha  occ. eigenvalues --   -1.14048  -1.14040  -1.14008  -1.13895  -1.13877
 Alpha  occ. eigenvalues --   -1.13801  -1.13333  -1.13302  -1.13292  -1.13252
 Alpha  occ. eigenvalues --   -1.13174  -1.13171  -1.12225  -1.12155  -1.12074
 Alpha  occ. eigenvalues --   -0.18162  -0.14195  -0.10975  -0.10727
 Alpha virt. eigenvalues --   -0.07036  -0.05804  -0.04664  -0.03023  -0.02731
 Alpha virt. eigenvalues --   -0.02391  -0.02259  -0.01393  -0.01019  -0.00314
 Alpha virt. eigenvalues --    0.00056   0.00170   0.00298   0.00446   0.00511

  Beta  occ. eigenvalues --  -38.45120 -38.44657 -38.44544 -38.44315 -38.43839
  Beta  occ. eigenvalues --  -38.43558 -38.42532  -2.20865  -2.20428  -2.20329
  Beta  occ. eigenvalues --   -2.20161  -2.19626  -2.19497  -2.18475  -1.14579
  Beta  occ. eigenvalues --   -1.14552  -1.14458  -1.14126  -1.14107  -1.14083
  Beta  occ. eigenvalues --   -1.14005  -1.13989  -1.13968  -1.13866  -1.13843
  Beta  occ. eigenvalues --   -1.13772  -1.13302  -1.13295  -1.13290  -1.13253
  Beta  occ. eigenvalues --   -1.13132  -1.13111  -1.12206  -1.12111  -1.12061
  Beta  occ. eigenvalues --   -0.17537  -0.13967  -0.10797
  Beta virt. eigenvalues --   -0.07124  -0.06871  -0.05152  -0.04388  -0.02917
  Beta virt. eigenvalues --   -0.02623  -0.01805  -0.01606  -0.01070  -0.00708
  Beta virt. eigenvalues --   -0.00152   0.00100   0.00273   0.00354   0.00539

 Mulliken charges and spin densities:
               1          2
     1  Na   0.208046  -0.086213
     2  Na  -0.250447   0.499484
     3  Na  -0.619446   0.144854
     4  Na   0.057531   0.127076
     5  Na   0.339176  -0.071999
     6  Na  -0.174633   0.320208
     7  Na   0.439772   0.066591
 Sum of Mulliken charges =  -0.00000   1.00000

 Dipole moment (field-independent basis, Debye):
    X=              0.2546    Y=              0.0750    Z=             -0.2544  Tot=              0.3677
 Quadrupole moment (field-independent basis, Debye-Ang):
   XX=            -50.9033   YY=            -75.0011   ZZ=            -70.0969
   XY=             -2.8764   XZ=             -0.2001   YZ=             -5.3677

 Normal termination of Gaussian 16 at Tue Dec  5 11:44:39 2023.
