 Gaussian 16, Revision B.01,
 Gaussian 16:  ES64L-G16RevB.01 20-Dec-2017

 -------------------------
 #P B3LYP/6-311+g(d) force
 -------------------------

 -----
 DPGEN
 -----
 Symbolic Z-matrix:
 Charge =  0 Multiplicity = 2

                         Standard orientation:
 ---------------------------------------------------------------------
 Center     Atomic      Atomic             Coordinates (Angstroms)
 Number     Number       Type             X           Y           Z
 ---------------------------------------------------------------------
      1         11           0        0.216918   -0.069085    1.796901
      2         11           0       -1.136734   -2.059026    0.031634
      3         11           0        1.543526   -1.666663   -0.123107
      4         11           0       -2.298438    0.503870    0.150106
      5         11           0        2.173529    0.919655   -0.115404
      6         11           0       -0.250469    2.324927    0.041781
      7         11           0       -0.248332    0.046322   -1.781911
 ---------------------------------------------------------------------

 SCF Done:  E(UB3LYP) =  -1136.07260057     A.U. after   17 cycles

 The electronic state is 2-A.
 Alpha  occ. eigenvalues --  -38.44206 -38.44193 -38.43933 -38.43794 -38.43737
 Alpha  occ. eigenvalues --  -38.43673 -38.43647  -2.20465  -2.20458  -2.20150
 Alpha  occ. eigenvalues --   -2.19953  -2.19908  -2.19827  -2.19788  -1.14408
 Alpha  occ. eigenvalues --   -1.14270  -1.14216  -1.14179  -1.14142  -1.14129
 Alpha  occ. eigenvalues --   -1.14088  -1.13885  -1.13809  -1.13697  -1.13686
 Alpha  occ. eigenvalues --   -1.13673  -1.13530  -1.13483  -1.13457  -1.13417
 Alpha  occ. eigenvalues --   -1.13387  -1.13375  -1.13332  -1.13317  -1.13195
 Alpha  occ. eigenvalues --   -0.22010  -0.13570  -0.13481  -0.12529
 Alpha virt. eigenvalues --   -0.04955  -0.04282  -0.04237  -0.03603  -0.03523
 Alpha virt. eigenvalues --   -0.02959  -0.00662  -0.00608  -0.00112   0.00351
 Alpha virt. eigenvalues --    0.00920   0.00949   0.01165   0.01197   0.01250

  Beta  occ. eigenvalues --  -38.44109 -38.44098 -38.43916 -38.43780 -38.43723
  Beta  occ. eigenvalues --  -38.43659 -38.43633  -2.20293  -2.20286  -2.20126
  Beta  occ. eigenvalues --   -2.19934  -2.19889  -2.19809  -2.19770  -1.14342
  Beta  occ. eigenvalues --   -1.14194  -1.14148  -1.14069  -1.14044  -1.14009
  Beta  occ. eigenvalues --   -1.13998  -1.13869  -1.13766  -1.13669  -1.13645
  Beta  occ. eigenvalues --   -1.13601  -1.13463  -1.13444  -1.13410  -1.13374
  Beta  occ. eigenvalues --   -1.13342  -1.13326  -1.13316  -1.13307  -1.13191
  Beta  occ. eigenvalues --   -0.21151  -0.13183  -0.13090
  Beta virt. eigenvalues --   -0.08284  -0.04992  -0.04265  -0.04221  -0.02638
  Beta virt. eigenvalues --   -0.02551  -0.01854  -0.00609  -0.00556   0.00037
  Beta virt. eigenvalues --    0.00369   0.00879   0.00909   0.01209   0.01220

 Mulliken charges and spin densities:
               1          2
     1  Na  -0.384850   0.407792
     2  Na   0.143587   0.021028
     3  Na   0.199280   0.069469
     4  Na   0.152163   0.044147
     5  Na   0.116325   0.028547
     6  Na   0.149535   0.035445
     7  Na  -0.376040   0.393573
 Sum of Mulliken charges =  -0.00000   1.00000

 Dipole moment (field-independent basis, Debye):
    X=             -0.0759    Y=              0.0747    Z=              0.0255  Tot=              0.1095
 Quadrupole moment (field-independent basis, Debye-Ang):
   XX=            -65.5088   YY=            -66.0921   ZZ=            -67.7040
   XY=              0.3361   XZ=             -0.8315   YZ=              0.1867

 Normal termination of Gaussian 16 at Sat Dec  9 06:53:41 2023.
