 Gaussian 16, Revision B.01,
 Gaussian 16:  ES64L-G16RevB.01 20-Dec-2017

 -------------------------
 #P B3LYP/6-311+g(d) force
 -------------------------

 -----
 DPGEN
 -----
 Symbolic Z-matrix:
 Charge =  0 Multiplicity = 2

                         Standard orientation:
 ---------------------------------------------------------------------
 Center     Atomic      Atomic             Coordinates (Angstroms)
 Number     Number       Type             X           Y           Z
 ---------------------------------------------------------------------
      1         11           0        1.202891    3.148572   -1.607833
      2         11           0        2.986052    0.368918    0.653051
      3         11           0       -2.551861   -0.668727    1.213648
      4         11           0        2.817647   -3.190643   -0.588170
      5         11           0       -5.260134   -0.421883   -0.855826
      6         11           0        0.329196    1.280589    2.229792
      7         11           0        0.476209   -0.516826   -1.044662
 ---------------------------------------------------------------------

 SCF Done:  E(UB3LYP) =  -1136.11095400     A.U. after   24 cycles

 The electronic state is 2-A.
 Alpha  occ. eigenvalues --  -38.45174 -38.44942 -38.44852 -38.44532 -38.43888
 Alpha  occ. eigenvalues --  -38.43874 -38.42992  -2.21031  -2.20705  -2.20700
 Alpha  occ. eigenvalues --   -2.20322  -2.19745  -2.19667  -2.18763  -1.14764
 Alpha  occ. eigenvalues --   -1.14732  -1.14605  -1.14402  -1.14382  -1.14357
 Alpha  occ. eigenvalues --   -1.14356  -1.14323  -1.14300  -1.13977  -1.13968
 Alpha  occ. eigenvalues --   -1.13917  -1.13423  -1.13395  -1.13357  -1.13349
 Alpha  occ. eigenvalues --   -1.13338  -1.13293  -1.12439  -1.12437  -1.12395
 Alpha  occ. eigenvalues --   -0.17396  -0.13236  -0.11669  -0.11235
 Alpha virt. eigenvalues --   -0.07387  -0.05453  -0.04267  -0.03178  -0.02782
 Alpha virt. eigenvalues --   -0.02676  -0.02382  -0.01441  -0.01298  -0.00823
 Alpha virt. eigenvalues --   -0.00381  -0.00201   0.00003   0.00530   0.00603

  Beta  occ. eigenvalues --  -38.45174 -38.44905 -38.44842 -38.44438 -38.43871
  Beta  occ. eigenvalues --  -38.43823 -38.43004  -2.21034  -2.20688  -2.20631
  Beta  occ. eigenvalues --   -2.20147  -2.19666  -2.19624  -2.18786  -1.14769
  Beta  occ. eigenvalues --   -1.14704  -1.14619  -1.14385  -1.14359  -1.14310
  Beta  occ. eigenvalues --   -1.14309  -1.14291  -1.14279  -1.13856  -1.13843
  Beta  occ. eigenvalues --   -1.13806  -1.13364  -1.13349  -1.13338  -1.13310
  Beta  occ. eigenvalues --   -1.13270  -1.13253  -1.12455  -1.12453  -1.12409
  Beta  occ. eigenvalues --   -0.16839  -0.12871  -0.11361
  Beta virt. eigenvalues --   -0.07628  -0.07024  -0.05079  -0.04061  -0.02917
  Beta virt. eigenvalues --   -0.02442  -0.02351  -0.02039  -0.01194  -0.00789
  Beta virt. eigenvalues --   -0.00647  -0.00235   0.00005   0.00067   0.00596

 Mulliken charges and spin densities:
               1          2
     1  Na  -0.081889   0.345305
     2  Na   0.761591   0.151603
     3  Na   0.067147  -0.054179
     4  Na   0.100899  -0.146470
     5  Na   0.005954   0.220622
     6  Na  -0.095526   0.138340
     7  Na  -0.758176   0.344779
 Sum of Mulliken charges =  -0.00000   1.00000

 Dipole moment (field-independent basis, Debye):
    X=             -0.1234    Y=              0.8684    Z=              0.0235  Tot=              0.8775
 Quadrupole moment (field-independent basis, Debye-Ang):
   XX=            -57.3439   YY=            -69.4333   ZZ=            -69.1872
   XY=              1.4008   XZ=              7.5513   YZ=             -1.2065

 Normal termination of Gaussian 16 at Tue Nov 28 20:22:12 2023.
