 Gaussian 16, Revision B.01,
 Gaussian 16:  ES64L-G16RevB.01 20-Dec-2017

 -------------------------
 #P B3LYP/6-311+g(d) force
 -------------------------

 -----
 DPGEN
 -----
 Symbolic Z-matrix:
 Charge =  0 Multiplicity = 2

                         Standard orientation:
 ---------------------------------------------------------------------
 Center     Atomic      Atomic             Coordinates (Angstroms)
 Number     Number       Type             X           Y           Z
 ---------------------------------------------------------------------
      1         11           0       -1.640536   -1.841079   -0.640357
      2         11           0        0.786497   -0.079440    1.489193
      3         11           0        1.267572    3.377924   -0.440999
      4         11           0       -1.534964    1.888823   -0.220090
      5         11           0       -4.393645   -0.332711    0.241246
      6         11           0        3.801814   -0.306068   -0.098479
      7         11           0        1.713262   -2.707448   -0.330514
 ---------------------------------------------------------------------

 SCF Done:  E(UB3LYP) =  -1136.12554850     A.U. after   21 cycles

 The electronic state is 2-A.
 Alpha  occ. eigenvalues --  -38.45221 -38.44064 -38.43861 -38.43730 -38.43529
 Alpha  occ. eigenvalues --  -38.43456 -38.43287  -2.21083  -2.19857  -2.19741
 Alpha  occ. eigenvalues --   -2.19593  -2.19397  -2.19323  -2.19131  -1.14774
 Alpha  occ. eigenvalues --   -1.14758  -1.14701  -1.13552  -1.13521  -1.13492
 Alpha  occ. eigenvalues --   -1.13420  -1.13407  -1.13396  -1.13296  -1.13285
 Alpha  occ. eigenvalues --   -1.13179  -1.13092  -1.13068  -1.13034  -1.12974
 Alpha  occ. eigenvalues --   -1.12953  -1.12941  -1.12779  -1.12772  -1.12739
 Alpha  occ. eigenvalues --   -0.17634  -0.13941  -0.12796  -0.10017
 Alpha virt. eigenvalues --   -0.06682  -0.05415  -0.04793  -0.03167  -0.02789
 Alpha virt. eigenvalues --   -0.02481  -0.01802  -0.01128  -0.00911  -0.00786
 Alpha virt. eigenvalues --   -0.00213  -0.00048   0.00498   0.00521   0.00740

  Beta  occ. eigenvalues --  -38.45209 -38.44070 -38.43844 -38.43724 -38.43507
  Beta  occ. eigenvalues --  -38.43375 -38.43216  -2.21063  -2.19870  -2.19717
  Beta  occ. eigenvalues --   -2.19586  -2.19364  -2.19172  -2.18997  -1.14760
  Beta  occ. eigenvalues --   -1.14731  -1.14683  -1.13556  -1.13528  -1.13502
  Beta  occ. eigenvalues --   -1.13407  -1.13401  -1.13325  -1.13292  -1.13275
  Beta  occ. eigenvalues --   -1.13166  -1.13072  -1.13049  -1.12968  -1.12870
  Beta  occ. eigenvalues --   -1.12858  -1.12837  -1.12688  -1.12679  -1.12656
  Beta  occ. eigenvalues --   -0.17149  -0.13278  -0.12462
  Beta virt. eigenvalues --   -0.06535  -0.06519  -0.05305  -0.04486  -0.02628
  Beta virt. eigenvalues --   -0.02478  -0.02324  -0.01335  -0.00926  -0.00843
  Beta virt. eigenvalues --   -0.00603   0.00157   0.00213   0.00617   0.00708

 Mulliken charges and spin densities:
               1          2
     1  Na  -0.401246   0.051697
     2  Na   0.382571   0.036839
     3  Na   0.223592  -0.039018
     4  Na  -0.804848  -0.001915
     5  Na   0.713172   0.400685
     6  Na  -0.095263   0.528075
     7  Na  -0.017978   0.023638
 Sum of Mulliken charges =  -0.00000   1.00000

 Dipole moment (field-independent basis, Debye):
    X=              0.5000    Y=              0.0962    Z=              0.0283  Tot=              0.5099
 Quadrupole moment (field-independent basis, Debye-Ang):
   XX=            -75.0571   YY=            -63.8022   ZZ=            -65.7738
   XY=              1.9161   XZ=             -2.2776   YZ=              0.2638

 Normal termination of Gaussian 16 at Wed Nov 29 00:41:20 2023.
