 Gaussian 16, Revision B.01,
 Gaussian 16:  ES64L-G16RevB.01 20-Dec-2017

 -------------------------
 #P B3LYP/6-311+g(d) force
 -------------------------

 -----
 DPGEN
 -----
 Symbolic Z-matrix:
 Charge =  0 Multiplicity = 2

                         Standard orientation:
 ---------------------------------------------------------------------
 Center     Atomic      Atomic             Coordinates (Angstroms)
 Number     Number       Type             X           Y           Z
 ---------------------------------------------------------------------
      1         11           0        0.035235   -2.822475   -0.227336
      2         11           0       -1.697828    2.185313    0.082193
      3         11           0        1.593588    2.546851    0.018204
      4         11           0       -2.979862   -0.854117   -0.042995
      5         11           0       -0.113545    0.176031   -1.716052
      6         11           0        3.116012   -0.885100   -0.095103
      7         11           0        0.046399   -0.346502    1.981089
 ---------------------------------------------------------------------

 SCF Done:  E(UB3LYP) =  -1136.13953396     A.U. after   19 cycles

 The electronic state is 2-A.
 Alpha  occ. eigenvalues --  -38.44111 -38.43731 -38.43473 -38.43466 -38.43436
 Alpha  occ. eigenvalues --  -38.43278 -38.43195  -2.19906  -2.19587  -2.19375
 Alpha  occ. eigenvalues --   -2.19319  -2.19305  -2.19198  -2.19180  -1.13582
 Alpha  occ. eigenvalues --   -1.13560  -1.13551  -1.13269  -1.13252  -1.13233
 Alpha  occ. eigenvalues --   -1.13071  -1.13040  -1.13019  -1.12998  -1.12990
 Alpha  occ. eigenvalues --   -1.12984  -1.12960  -1.12950  -1.12948  -1.12915
 Alpha  occ. eigenvalues --   -1.12851  -1.12832  -1.12812  -1.12786  -1.12772
 Alpha  occ. eigenvalues --   -0.18841  -0.12871  -0.12671  -0.10752
 Alpha virt. eigenvalues --   -0.05636  -0.05032  -0.04725  -0.03103  -0.02979
 Alpha virt. eigenvalues --   -0.02524  -0.01523  -0.01086  -0.00327  -0.00220
 Alpha virt. eigenvalues --   -0.00012   0.00364   0.00810   0.00905   0.00916

  Beta  occ. eigenvalues --  -38.44110 -38.43727 -38.43471 -38.43428 -38.43376
  Beta  occ. eigenvalues --  -38.43270 -38.43124  -2.19907  -2.19583  -2.19318
  Beta  occ. eigenvalues --   -2.19293  -2.19210  -2.19187  -2.19051  -1.13564
  Beta  occ. eigenvalues --   -1.13563  -1.13555  -1.13269  -1.13236  -1.13219
  Beta  occ. eigenvalues --   -1.13023  -1.13015  -1.12971  -1.12960  -1.12957
  Beta  occ. eigenvalues --   -1.12932  -1.12914  -1.12912  -1.12872  -1.12866
  Beta  occ. eigenvalues --   -1.12812  -1.12810  -1.12756  -1.12699  -1.12690
  Beta  occ. eigenvalues --   -0.18091  -0.12647  -0.12423
  Beta virt. eigenvalues --   -0.06817  -0.05625  -0.05032  -0.04678  -0.02302
  Beta virt. eigenvalues --   -0.02189  -0.01482  -0.01423  -0.01020  -0.00382
  Beta virt. eigenvalues --   -0.00276   0.00127   0.00382   0.00839   0.00908

 Mulliken charges and spin densities:
               1          2
     1  Na   0.183889  -0.112745
     2  Na   0.272560   0.004575
     3  Na   0.056510  -0.096177
     4  Na   0.276390  -0.034845
     5  Na  -0.301478   0.590919
     6  Na   0.019621  -0.120941
     7  Na  -0.507492   0.769213
 Sum of Mulliken charges =  -0.00000   1.00000

 Dipole moment (field-independent basis, Debye):
    X=              0.2198    Y=             -0.1813    Z=              0.0983  Tot=              0.3014
 Quadrupole moment (field-independent basis, Debye-Ang):
   XX=            -56.2994   YY=            -62.7261   ZZ=            -74.2310
   XY=              0.5602   XZ=             -0.3193   YZ=              1.1225

 Normal termination of Gaussian 16 at Thu Dec  7 18:09:10 2023.
