 Gaussian 16, Revision B.01,
 Gaussian 16:  ES64L-G16RevB.01 20-Dec-2017

 -------------------------
 #P B3LYP/6-311+g(d) force
 -------------------------

 -----
 DPGEN
 -----
 Symbolic Z-matrix:
 Charge =  0 Multiplicity = 2

                         Standard orientation:
 ---------------------------------------------------------------------
 Center     Atomic      Atomic             Coordinates (Angstroms)
 Number     Number       Type             X           Y           Z
 ---------------------------------------------------------------------
      1         11           0        1.824749    1.400316   -0.471890
      2         11           0       -1.242318    2.835685    0.133547
      3         11           0       -3.873073    0.764006   -0.397396
      4         11           0        4.689870   -0.534506   -1.082800
      5         11           0       -2.715482   -2.747755   -0.826834
      6         11           0       -1.394338   -0.883827    1.181442
      7         11           0        2.710591   -0.833920    1.463930
 ---------------------------------------------------------------------

 SCF Done:  E(UB3LYP) =  -1136.11894027     A.U. after   22 cycles

 The electronic state is 2-A.
 Alpha  occ. eigenvalues --  -38.44823 -38.44514 -38.44483 -38.43975 -38.43832
 Alpha  occ. eigenvalues --  -38.43714 -38.42526  -2.20680  -2.20353  -2.20342
 Alpha  occ. eigenvalues --   -2.19826  -2.19649  -2.19603  -2.18349  -1.14408
 Alpha  occ. eigenvalues --   -1.14343  -1.14308  -1.14040  -1.14036  -1.14024
 Alpha  occ. eigenvalues --   -1.14011  -1.13950  -1.13937  -1.13479  -1.13465
 Alpha  occ. eigenvalues --   -1.13438  -1.13429  -1.13309  -1.13285  -1.13273
 Alpha  occ. eigenvalues --   -1.13250  -1.13171  -1.12022  -1.12013  -1.12005
 Alpha  occ. eigenvalues --   -0.17113  -0.14834  -0.11557  -0.10568
 Alpha virt. eigenvalues --   -0.06743  -0.05203  -0.04387  -0.04029  -0.02789
 Alpha virt. eigenvalues --   -0.02131  -0.02009  -0.01631  -0.00713  -0.00557
 Alpha virt. eigenvalues --   -0.00235   0.00172   0.00346   0.00500   0.00537

  Beta  occ. eigenvalues --  -38.44805 -38.44478 -38.44462 -38.43905 -38.43832
  Beta  occ. eigenvalues --  -38.43678 -38.42527  -2.20653  -2.20336  -2.20255
  Beta  occ. eigenvalues --   -2.19695  -2.19651  -2.19541  -2.18354  -1.14395
  Beta  occ. eigenvalues --   -1.14329  -1.14243  -1.14035  -1.14010  -1.13971
  Beta  occ. eigenvalues --   -1.13948  -1.13925  -1.13877  -1.13416  -1.13389
  Beta  occ. eigenvalues --   -1.13375  -1.13357  -1.13309  -1.13273  -1.13235
  Beta  occ. eigenvalues --   -1.13198  -1.13126  -1.12029  -1.12017  -1.11993
  Beta  occ. eigenvalues --   -0.16493  -0.14397  -0.11431
  Beta virt. eigenvalues --   -0.07032  -0.06433  -0.04579  -0.04227  -0.03846
  Beta virt. eigenvalues --   -0.02450  -0.01905  -0.01443  -0.01330  -0.00552
  Beta virt. eigenvalues --   -0.00344  -0.00064   0.00328   0.00475   0.00583

 Mulliken charges and spin densities:
               1          2
     1  Na  -1.141989  -0.043416
     2  Na   0.319575   0.209483
     3  Na   0.187633   0.395044
     4  Na   0.764391   0.287286
     5  Na   0.472890   0.124509
     6  Na  -0.675781  -0.124719
     7  Na   0.073282   0.151813
 Sum of Mulliken charges =  -0.00000   1.00000

 Dipole moment (field-independent basis, Debye):
    X=              0.4275    Y=             -0.6984    Z=             -0.2818  Tot=              0.8660
 Quadrupole moment (field-independent basis, Debye-Ang):
   XX=            -61.5931   YY=            -71.2006   ZZ=            -65.7740
   XY=             -1.4449   XZ=              2.3252   YZ=              1.1416

 Normal termination of Gaussian 16 at Wed Nov 29 02:04:16 2023.
