 Gaussian 16, Revision B.01,
 Gaussian 16:  ES64L-G16RevB.01 20-Dec-2017

 -------------------------
 #P B3LYP/6-311+g(d) force
 -------------------------

 -----
 DPGEN
 -----
 Symbolic Z-matrix:
 Charge =  0 Multiplicity = 2

                         Standard orientation:
 ---------------------------------------------------------------------
 Center     Atomic      Atomic             Coordinates (Angstroms)
 Number     Number       Type             X           Y           Z
 ---------------------------------------------------------------------
      1         11           0       -0.092617    0.098684    2.497258
      2         11           0        0.310126   -2.214070   -0.414557
      3         11           0        6.039026   -0.494280   -0.226599
      4         11           0        2.917368    0.746771   -0.357156
      5         11           0       -0.196727    2.278450   -0.520668
      6         11           0       -2.826027   -0.182177   -1.007396
      7         11           0       -6.151148   -0.233377    0.029118
 ---------------------------------------------------------------------

 SCF Done:  E(UB3LYP) =  -1136.10181068     A.U. after   35 cycles

 The electronic state is 2-A.
 Alpha  occ. eigenvalues --  -38.46565 -38.45946 -38.45192 -38.44203 -38.43799
 Alpha  occ. eigenvalues --  -38.43432 -38.43264  -2.22308  -2.21740  -2.21028
 Alpha  occ. eigenvalues --   -2.19937  -2.19596  -2.19189  -2.19087  -1.15987
 Alpha  occ. eigenvalues --   -1.15973  -1.15932  -1.15398  -1.15367  -1.15345
 Alpha  occ. eigenvalues --   -1.14686  -1.14673  -1.14629  -1.13615  -1.13611
 Alpha  occ. eigenvalues --   -1.13580  -1.13286  -1.13276  -1.13205  -1.12859
 Alpha  occ. eigenvalues --   -1.12856  -1.12846  -1.12782  -1.12767  -1.12686
 Alpha  occ. eigenvalues --   -0.17550  -0.12826  -0.11918  -0.11079
 Alpha virt. eigenvalues --   -0.08164  -0.06295  -0.04071  -0.03482  -0.03059
 Alpha virt. eigenvalues --   -0.02687  -0.02522  -0.02224  -0.01314  -0.01115
 Alpha virt. eigenvalues --   -0.00602  -0.00137   0.00090   0.00279   0.00333

  Beta  occ. eigenvalues --  -38.46553 -38.45846 -38.45102 -38.44225 -38.43785
  Beta  occ. eigenvalues --  -38.43441 -38.43251  -2.22289  -2.21555  -2.20861
  Beta  occ. eigenvalues --   -2.19979  -2.19570  -2.19205  -2.19065  -1.15975
  Beta  occ. eigenvalues --   -1.15932  -1.15924  -1.15268  -1.15236  -1.15222
  Beta  occ. eigenvalues --   -1.14571  -1.14548  -1.14522  -1.13644  -1.13639
  Beta  occ. eigenvalues --   -1.13607  -1.13261  -1.13248  -1.13196  -1.12869
  Beta  occ. eigenvalues --   -1.12865  -1.12853  -1.12770  -1.12741  -1.12669
  Beta  occ. eigenvalues --   -0.16641  -0.12785  -0.11189
  Beta virt. eigenvalues --   -0.07834  -0.07776  -0.06100  -0.03343  -0.02926
  Beta virt. eigenvalues --   -0.02770  -0.02418  -0.02072  -0.01797  -0.01287
  Beta virt. eigenvalues --   -0.01101  -0.00519   0.00190   0.00306   0.00318

 Mulliken charges and spin densities:
               1          2
     1  Na   0.133357   0.065151
     2  Na   0.555745   0.646912
     3  Na  -0.169327   0.093357
     4  Na  -1.809541  -0.125921
     5  Na   1.984099   0.489715
     6  Na  -1.064588  -0.016532
     7  Na   0.370255  -0.152682
 Sum of Mulliken charges =  -0.00000   1.00000

 Dipole moment (field-independent basis, Debye):
    X=             -0.8629    Y=             -0.2877    Z=              1.8692  Tot=              2.0788
 Quadrupole moment (field-independent basis, Debye-Ang):
   XX=            -77.3543   YY=            -70.0582   ZZ=            -63.5272
   XY=             -3.8879   XZ=             -2.8426   YZ=              0.8755

 Normal termination of Gaussian 16 at Fri Dec  8 18:08:50 2023.
