 Gaussian 16, Revision B.01,
 Gaussian 16:  ES64L-G16RevB.01 20-Dec-2017

 -------------------------
 #P B3LYP/6-311+g(d) force
 -------------------------

 -----
 DPGEN
 -----
 Symbolic Z-matrix:
 Charge =  0 Multiplicity = 2

                         Standard orientation:
 ---------------------------------------------------------------------
 Center     Atomic      Atomic             Coordinates (Angstroms)
 Number     Number       Type             X           Y           Z
 ---------------------------------------------------------------------
      1         11           0       -2.407447   -0.890275    1.757485
      2         11           0        4.505580   -1.371379   -0.517194
      3         11           0        1.660768    0.629310   -1.749513
      4         11           0        1.872021   -0.786696    1.408136
      5         11           0        0.229538    2.513645    1.495014
      6         11           0       -1.844586    1.614820   -1.439737
      7         11           0       -4.015873   -1.709426   -0.954190
 ---------------------------------------------------------------------

 SCF Done:  E(UB3LYP) =  -1136.12171733     A.U. after   21 cycles

 The electronic state is 2-A.
 Alpha  occ. eigenvalues --  -38.44745 -38.44409 -38.44375 -38.44316 -38.43804
 Alpha  occ. eigenvalues --  -38.43757 -38.43451  -2.20560  -2.20247  -2.20171
 Alpha  occ. eigenvalues --   -2.20107  -2.19605  -2.19546  -2.19239  -1.14264
 Alpha  occ. eigenvalues --   -1.14232  -1.14143  -1.13938  -1.13917  -1.13860
 Alpha  occ. eigenvalues --   -1.13855  -1.13825  -1.13791  -1.13771  -1.13762
 Alpha  occ. eigenvalues --   -1.13733  -1.13273  -1.13268  -1.13234  -1.13226
 Alpha  occ. eigenvalues --   -1.13206  -1.13173  -1.12904  -1.12899  -1.12883
 Alpha  occ. eigenvalues --   -0.17012  -0.13655  -0.11513  -0.11301
 Alpha virt. eigenvalues --   -0.06032  -0.05432  -0.05307  -0.03205  -0.02934
 Alpha virt. eigenvalues --   -0.02710  -0.02182  -0.01252  -0.01008  -0.00412
 Alpha virt. eigenvalues --   -0.00171   0.00118   0.00193   0.00378   0.00472

  Beta  occ. eigenvalues --  -38.44700 -38.44373 -38.44328 -38.44290 -38.43800
  Beta  occ. eigenvalues --  -38.43740 -38.43449  -2.20476  -2.20184  -2.20085
  Beta  occ. eigenvalues --   -2.20058  -2.19598  -2.19516  -2.19237  -1.14210
  Beta  occ. eigenvalues --   -1.14173  -1.14074  -1.13897  -1.13877  -1.13794
  Beta  occ. eigenvalues --   -1.13789  -1.13768  -1.13759  -1.13732  -1.13709
  Beta  occ. eigenvalues --   -1.13687  -1.13265  -1.13263  -1.13229  -1.13209
  Beta  occ. eigenvalues --   -1.13175  -1.13147  -1.12902  -1.12893  -1.12881
  Beta  occ. eigenvalues --   -0.16287  -0.13502  -0.11248
  Beta virt. eigenvalues --   -0.07720  -0.05699  -0.05034  -0.04819  -0.02756
  Beta virt. eigenvalues --   -0.02709  -0.02222  -0.02073  -0.01093  -0.00616
  Beta virt. eigenvalues --   -0.00273   0.00004   0.00248   0.00289   0.00513

 Mulliken charges and spin densities:
               1          2
     1  Na  -0.167919   0.048302
     2  Na   0.715703   0.000670
     3  Na  -0.229087   0.210102
     4  Na  -0.560885   0.240601
     5  Na   0.242644   0.177744
     6  Na  -0.169886   0.326950
     7  Na   0.169430  -0.004369
 Sum of Mulliken charges =  -0.00000   1.00000

 Dipole moment (field-independent basis, Debye):
    X=              0.7251    Y=              0.3393    Z=             -0.1896  Tot=              0.8227
 Quadrupole moment (field-independent basis, Debye-Ang):
   XX=            -63.3227   YY=            -70.6124   ZZ=            -64.6490
   XY=             -2.4514   XZ=              1.3266   YZ=              1.6642

 Normal termination of Gaussian 16 at Mon Dec  4 00:03:50 2023.
