 Gaussian 16, Revision B.01,
 Gaussian 16:  ES64L-G16RevB.01 20-Dec-2017

 -------------------------
 #P B3LYP/6-311+g(d) force
 -------------------------

 -----
 DPGEN
 -----
 Symbolic Z-matrix:
 Charge =  0 Multiplicity = 2

                         Standard orientation:
 ---------------------------------------------------------------------
 Center     Atomic      Atomic             Coordinates (Angstroms)
 Number     Number       Type             X           Y           Z
 ---------------------------------------------------------------------
      1         11           0        2.822842   -0.390994    0.635601
      2         11           0        3.033832    2.945047   -0.269828
      3         11           0       -3.704911    0.495406    0.543149
      4         11           0        5.007078   -2.668203   -0.375228
      5         11           0       -6.668171   -0.957726   -0.457128
      6         11           0        0.117818    1.829491   -0.246823
      7         11           0       -0.608489   -1.253021    0.170257
 ---------------------------------------------------------------------

 SCF Done:  E(UB3LYP) =  -1136.11321625     A.U. after   23 cycles

 The electronic state is 2-A.
 Alpha  occ. eigenvalues --  -38.45558 -38.45257 -38.44474 -38.44440 -38.43836
 Alpha  occ. eigenvalues --  -38.43383 -38.43080  -2.21404  -2.21043  -2.20327
 Alpha  occ. eigenvalues --   -2.20220  -2.19729  -2.19137  -2.18950  -1.15077
 Alpha  occ. eigenvalues --   -1.15058  -1.14996  -1.14681  -1.14680  -1.14657
 Alpha  occ. eigenvalues --   -1.13984  -1.13964  -1.13959  -1.13914  -1.13904
 Alpha  occ. eigenvalues --   -1.13854  -1.13427  -1.13401  -1.13354  -1.12812
 Alpha  occ. eigenvalues --   -1.12807  -1.12796  -1.12659  -1.12635  -1.12536
 Alpha  occ. eigenvalues --   -0.17194  -0.14224  -0.12018  -0.11449
 Alpha virt. eigenvalues --   -0.06629  -0.05235  -0.04743  -0.03764  -0.03010
 Alpha virt. eigenvalues --   -0.02645  -0.02122  -0.01569  -0.01017  -0.00961
 Alpha virt. eigenvalues --   -0.00523  -0.00206  -0.00098   0.00451   0.00558

  Beta  occ. eigenvalues --  -38.45485 -38.45160 -38.44450 -38.44406 -38.43827
  Beta  occ. eigenvalues --  -38.43404 -38.43069  -2.21270  -2.20862  -2.20245
  Beta  occ. eigenvalues --   -2.20201  -2.19721  -2.19176  -2.18931  -1.14988
  Beta  occ. eigenvalues --   -1.14968  -1.14899  -1.14558  -1.14557  -1.14538
  Beta  occ. eigenvalues --   -1.13938  -1.13928  -1.13903  -1.13877  -1.13871
  Beta  occ. eigenvalues --   -1.13823  -1.13416  -1.13402  -1.13310  -1.12837
  Beta  occ. eigenvalues --   -1.12834  -1.12821  -1.12626  -1.12620  -1.12538
  Beta  occ. eigenvalues --   -0.16500  -0.13396  -0.11297
  Beta virt. eigenvalues --   -0.08610  -0.06274  -0.04807  -0.04433  -0.03458
  Beta virt. eigenvalues --   -0.02599  -0.02390  -0.01653  -0.01432  -0.00926
  Beta virt. eigenvalues --   -0.00470  -0.00304  -0.00142   0.00033   0.00548

 Mulliken charges and spin densities:
               1          2
     1  Na  -0.316097   0.069898
     2  Na   1.231516   0.136495
     3  Na   0.074085   0.129809
     4  Na   0.150019  -0.121585
     5  Na   0.206312   0.358724
     6  Na  -1.237755   0.193505
     7  Na  -0.108081   0.233154
 Sum of Mulliken charges =  -0.00000   1.00000

 Dipole moment (field-independent basis, Debye):
    X=             -1.6292    Y=              0.5127    Z=             -0.4523  Tot=              1.7668
 Quadrupole moment (field-independent basis, Debye-Ang):
   XX=            -58.6561   YY=            -66.2706   ZZ=            -72.3471
   XY=              7.6127   XZ=             -0.5246   YZ=              2.0786

 Normal termination of Gaussian 16 at Tue Nov 28 23:45:43 2023.
