 Gaussian 16, Revision B.01,
 Gaussian 16:  ES64L-G16RevB.01 20-Dec-2017

 -------------------------
 #P B3LYP/6-311+g(d) force
 -------------------------

 -----
 DPGEN
 -----
 Symbolic Z-matrix:
 Charge =  0 Multiplicity = 2

                         Standard orientation:
 ---------------------------------------------------------------------
 Center     Atomic      Atomic             Coordinates (Angstroms)
 Number     Number       Type             X           Y           Z
 ---------------------------------------------------------------------
      1         11           0       -0.061584    0.136814   -1.767895
      2         11           0       -0.496911   -2.743512   -0.098023
      3         11           0        3.198163   -1.339556   -0.133277
      4         11           0        0.334448   -0.250540    1.926546
      5         11           0        2.243350    2.298868   -0.086456
      6         11           0       -1.604655    2.346799    0.195751
      7         11           0       -3.612811   -0.448873   -0.036646
 ---------------------------------------------------------------------

 SCF Done:  E(UB3LYP) =  -1136.13290351     A.U. after   19 cycles

 The electronic state is 2-A.
 Alpha  occ. eigenvalues --  -38.44888 -38.44825 -38.43758 -38.43431 -38.43387
 Alpha  occ. eigenvalues --  -38.43374 -38.43238  -2.20655  -2.20593  -2.19555
 Alpha  occ. eigenvalues --   -2.19342  -2.19277  -2.19215  -2.19077  -1.14328
 Alpha  occ. eigenvalues --   -1.14318  -1.14291  -1.14272  -1.14246  -1.14233
 Alpha  occ. eigenvalues --   -1.13233  -1.13219  -1.13195  -1.13045  -1.13006
 Alpha  occ. eigenvalues --   -1.12961  -1.12953  -1.12919  -1.12897  -1.12885
 Alpha  occ. eigenvalues --   -1.12876  -1.12833  -1.12762  -1.12751  -1.12682
 Alpha  occ. eigenvalues --   -0.18158  -0.13038  -0.12031  -0.10377
 Alpha virt. eigenvalues --   -0.06518  -0.05435  -0.04279  -0.03131  -0.02692
 Alpha virt. eigenvalues --   -0.02364  -0.02208  -0.01396  -0.00584  -0.00321
 Alpha virt. eigenvalues --   -0.00084   0.00275   0.00671   0.00757   0.00805

  Beta  occ. eigenvalues --  -38.44891 -38.44824 -38.43755 -38.43367 -38.43360
  Beta  occ. eigenvalues --  -38.43301 -38.43229  -2.20662  -2.20594  -2.19553
  Beta  occ. eigenvalues --   -2.19211  -2.19205  -2.19118  -2.19066  -1.14327
  Beta  occ. eigenvalues --   -1.14319  -1.14296  -1.14255  -1.14246  -1.14235
  Beta  occ. eigenvalues --   -1.13221  -1.13208  -1.13196  -1.12965  -1.12929
  Beta  occ. eigenvalues --   -1.12874  -1.12862  -1.12857  -1.12839  -1.12831
  Beta  occ. eigenvalues --   -1.12803  -1.12777  -1.12743  -1.12707  -1.12677
  Beta  occ. eigenvalues --   -0.17429  -0.12876  -0.11787
  Beta virt. eigenvalues --   -0.06503  -0.06448  -0.05461  -0.04231  -0.02432
  Beta virt. eigenvalues --   -0.02126  -0.01901  -0.01370  -0.01311  -0.00627
  Beta virt. eigenvalues --   -0.00351   0.00075   0.00297   0.00729   0.00790

 Mulliken charges and spin densities:
               1          2
     1  Na  -0.143209   0.761479
     2  Na   0.053440  -0.190112
     3  Na   0.128299  -0.115594
     4  Na  -0.226676   0.805793
     5  Na   0.057713  -0.103750
     6  Na   0.077440  -0.090294
     7  Na   0.052992  -0.067522
 Sum of Mulliken charges =  -0.00000   1.00000

 Dipole moment (field-independent basis, Debye):
    X=              0.0831    Y=             -0.2011    Z=             -0.0155  Tot=              0.2181
 Quadrupole moment (field-independent basis, Debye-Ang):
   XX=            -48.7044   YY=            -66.1111   ZZ=            -76.3815
   XY=              0.1834   XZ=             -0.7682   YZ=              0.9177

 Normal termination of Gaussian 16 at Thu Dec  7 05:54:22 2023.
