 Gaussian 16, Revision B.01,
 Gaussian 16:  ES64L-G16RevB.01 20-Dec-2017

 -------------------------
 #P B3LYP/6-311+g(d) force
 -------------------------

 -----
 DPGEN
 -----
 Symbolic Z-matrix:
 Charge =  0 Multiplicity = 2

                         Standard orientation:
 ---------------------------------------------------------------------
 Center     Atomic      Atomic             Coordinates (Angstroms)
 Number     Number       Type             X           Y           Z
 ---------------------------------------------------------------------
      1         11           0        0.885854   -0.059668    2.199721
      2         11           0       -0.034646    3.257880    0.072432
      3         11           0       -4.208059   -0.083123   -0.209447
      4         11           0       -1.533370   -1.210057    0.611409
      5         11           0        0.102238    0.352533   -1.841113
      6         11           0        1.172897   -2.491915   -0.536255
      7         11           0        3.615087    0.234350   -0.296747
 ---------------------------------------------------------------------

 SCF Done:  E(UB3LYP) =  -1136.11288493     A.U. after   24 cycles

 The electronic state is 2-A.
 Alpha  occ. eigenvalues --  -38.46027 -38.45463 -38.44076 -38.44071 -38.43144
 Alpha  occ. eigenvalues --  -38.43133 -38.42862  -2.21778  -2.21233  -2.19963
 Alpha  occ. eigenvalues --   -2.19955  -2.19024  -2.18900  -2.18845  -1.15460
 Alpha  occ. eigenvalues --   -1.15418  -1.15415  -1.14936  -1.14883  -1.14863
 Alpha  occ. eigenvalues --   -1.13673  -1.13664  -1.13593  -1.13581  -1.13569
 Alpha  occ. eigenvalues --   -1.13541  -1.12741  -1.12681  -1.12647  -1.12577
 Alpha  occ. eigenvalues --   -1.12565  -1.12545  -1.12534  -1.12507  -1.12459
 Alpha  occ. eigenvalues --   -0.18248  -0.12975  -0.11350  -0.11235
 Alpha virt. eigenvalues --   -0.07612  -0.04552  -0.03838  -0.03292  -0.03000
 Alpha virt. eigenvalues --   -0.02821  -0.02639  -0.00939  -0.00689  -0.00445
 Alpha virt. eigenvalues --   -0.00019   0.00132   0.00240   0.00699   0.00867

  Beta  occ. eigenvalues --  -38.46016 -38.45473 -38.44018 -38.43964 -38.43154
  Beta  occ. eigenvalues --  -38.43112 -38.42838  -2.21760  -2.21251  -2.19856
  Beta  occ. eigenvalues --   -2.19760  -2.18991  -2.18920  -2.18807  -1.15431
  Beta  occ. eigenvalues --   -1.15407  -1.15405  -1.14950  -1.14892  -1.14874
  Beta  occ. eigenvalues --   -1.13602  -1.13527  -1.13507  -1.13506  -1.13437
  Beta  occ. eigenvalues --   -1.13401  -1.12721  -1.12636  -1.12620  -1.12586
  Beta  occ. eigenvalues --   -1.12575  -1.12559  -1.12509  -1.12439  -1.12436
  Beta  occ. eigenvalues --   -0.17390  -0.12885  -0.11191
  Beta virt. eigenvalues --   -0.07506  -0.07159  -0.04494  -0.03650  -0.02842
  Beta virt. eigenvalues --   -0.02638  -0.02047  -0.01873  -0.00870  -0.00608
  Beta virt. eigenvalues --   -0.00286  -0.00025   0.00146   0.00399   0.00737

 Mulliken charges and spin densities:
               1          2
     1  Na  -0.117880   0.563354
     2  Na  -0.233693  -0.197067
     3  Na   0.173983  -0.116762
     4  Na   0.043948   0.152403
     5  Na  -0.129829   0.573433
     6  Na   0.235665   0.091462
     7  Na   0.027806  -0.066823
 Sum of Mulliken charges =  -0.00000   1.00000

 Dipole moment (field-independent basis, Debye):
    X=              0.4955    Y=              0.0493    Z=             -0.2174  Tot=              0.5433
 Quadrupole moment (field-independent basis, Debye-Ang):
   XX=            -45.2402   YY=            -73.5360   ZZ=            -71.9966
   XY=             -2.0573   XZ=              0.9366   YZ=              1.7737

 Normal termination of Gaussian 16 at Fri Dec  8 19:19:14 2023.
