 Gaussian 16, Revision B.01,
 Gaussian 16:  ES64L-G16RevB.01 20-Dec-2017

 -------------------------
 #P B3LYP/6-311+g(d) force
 -------------------------

 -----
 DPGEN
 -----
 Symbolic Z-matrix:
 Charge =  0 Multiplicity = 2

                         Standard orientation:
 ---------------------------------------------------------------------
 Center     Atomic      Atomic             Coordinates (Angstroms)
 Number     Number       Type             X           Y           Z
 ---------------------------------------------------------------------
      1         11           0       -0.260518   -0.176569   -1.745296
      2         11           0        2.678160   -1.247549    0.286216
      3         11           0       -0.191438   -2.642246   -0.159353
      4         11           0       -3.182702   -0.700292    0.180115
      5         11           0       -1.244660    2.615583   -0.110615
      6         11           0        0.039809    0.392743    1.962690
      7         11           0        2.161349    1.758330   -0.413758
 ---------------------------------------------------------------------

 SCF Done:  E(UB3LYP) =  -1136.13612542     A.U. after   18 cycles

 The electronic state is 2-A.
 Alpha  occ. eigenvalues --  -38.44226 -38.43555 -38.43497 -38.43489 -38.43411
 Alpha  occ. eigenvalues --  -38.43329 -38.43202  -2.20029  -2.19481  -2.19400
 Alpha  occ. eigenvalues --   -2.19391  -2.19336  -2.19273  -2.19123  -1.13705
 Alpha  occ. eigenvalues --   -1.13684  -1.13671  -1.13186  -1.13154  -1.13140
 Alpha  occ. eigenvalues --   -1.13125  -1.13105  -1.13086  -1.13055  -1.13038
 Alpha  occ. eigenvalues --   -1.13028  -1.12996  -1.12978  -1.12942  -1.12937
 Alpha  occ. eigenvalues --   -1.12915  -1.12888  -1.12767  -1.12764  -1.12718
 Alpha  occ. eigenvalues --   -0.19087  -0.13040  -0.12589  -0.10994
 Alpha virt. eigenvalues --   -0.05686  -0.04939  -0.04412  -0.03258  -0.03055
 Alpha virt. eigenvalues --   -0.02626  -0.01559  -0.00978  -0.00127  -0.00077
 Alpha virt. eigenvalues --    0.00043   0.00365   0.00835   0.00907   0.00961

  Beta  occ. eigenvalues --  -38.44225 -38.43490 -38.43478 -38.43470 -38.43405
  Beta  occ. eigenvalues --  -38.43254 -38.43193  -2.20029  -2.19391  -2.19375
  Beta  occ. eigenvalues --   -2.19325  -2.19267  -2.19201  -2.19111  -1.13691
  Beta  occ. eigenvalues --   -1.13685  -1.13670  -1.13164  -1.13098  -1.13076
  Beta  occ. eigenvalues --   -1.13050  -1.13037  -1.13021  -1.13016  -1.12992
  Beta  occ. eigenvalues --   -1.12975  -1.12970  -1.12949  -1.12908  -1.12885
  Beta  occ. eigenvalues --   -1.12873  -1.12831  -1.12747  -1.12720  -1.12708
  Beta  occ. eigenvalues --   -0.18331  -0.12810  -0.12319
  Beta virt. eigenvalues --   -0.07047  -0.05660  -0.04919  -0.04387  -0.02478
  Beta virt. eigenvalues --   -0.02233  -0.01571  -0.01461  -0.00911  -0.00156
  Beta virt. eigenvalues --   -0.00091   0.00128   0.00379   0.00873   0.00905

 Mulliken charges and spin densities:
               1          2
     1  Na  -0.287752   0.462576
     2  Na   0.122209   0.033260
     3  Na   0.311220  -0.016969
     4  Na  -0.000882  -0.099549
     5  Na   0.119281  -0.121443
     6  Na  -0.546975   0.720196
     7  Na   0.282898   0.021929
 Sum of Mulliken charges =  -0.00000   1.00000

 Dipole moment (field-independent basis, Debye):
    X=             -0.4213    Y=              0.1325    Z=              0.1907  Tot=              0.4811
 Quadrupole moment (field-independent basis, Debye-Ang):
   XX=            -56.2506   YY=            -64.6985   ZZ=            -72.9249
   XY=             -0.1241   XZ=             -0.6953   YZ=             -1.4586

 Normal termination of Gaussian 16 at Thu Dec  7 13:43:17 2023.
