 Gaussian 16, Revision B.01,
 Gaussian 16:  ES64L-G16RevB.01 20-Dec-2017

 -------------------------
 #P B3LYP/6-311+g(d) force
 -------------------------

 -----
 DPGEN
 -----
 Symbolic Z-matrix:
 Charge =  0 Multiplicity = 2

                         Standard orientation:
 ---------------------------------------------------------------------
 Center     Atomic      Atomic             Coordinates (Angstroms)
 Number     Number       Type             X           Y           Z
 ---------------------------------------------------------------------
      1         11           0       -0.318067   -0.314906   -1.801071
      2         11           0        0.244234    2.810854    0.047196
      3         11           0        2.953624    0.950733   -0.170350
      4         11           0       -2.718394    1.201364    0.068881
      5         11           0       -0.180932   -0.408196    1.947452
      6         11           0        2.000429   -2.210707    0.069300
      7         11           0       -1.980895   -2.029141   -0.161408
 ---------------------------------------------------------------------

 SCF Done:  E(UB3LYP) =  -1136.13536469     A.U. after   19 cycles

 The electronic state is 2-A.
 Alpha  occ. eigenvalues --  -38.43888 -38.43792 -38.43686 -38.43629 -38.43571
 Alpha  occ. eigenvalues --  -38.43562 -38.43050  -2.19726  -2.19678  -2.19631
 Alpha  occ. eigenvalues --   -2.19544  -2.19506  -2.19482  -2.18906  -1.13501
 Alpha  occ. eigenvalues --   -1.13395  -1.13392  -1.13388  -1.13369  -1.13348
 Alpha  occ. eigenvalues --   -1.13335  -1.13310  -1.13216  -1.13191  -1.13180
 Alpha  occ. eigenvalues --   -1.13161  -1.13151  -1.13123  -1.13122  -1.13113
 Alpha  occ. eigenvalues --   -1.13111  -1.13093  -1.12577  -1.12569  -1.12555
 Alpha  occ. eigenvalues --   -0.19026  -0.13301  -0.12470  -0.10989
 Alpha virt. eigenvalues --   -0.05462  -0.05396  -0.04464  -0.03349  -0.02891
 Alpha virt. eigenvalues --   -0.02699  -0.01393  -0.01037  -0.00259  -0.00138
 Alpha virt. eigenvalues --   -0.00020   0.00363   0.00832   0.00894   0.00935

  Beta  occ. eigenvalues --  -38.43888 -38.43786 -38.43672 -38.43625 -38.43483
  Beta  occ. eigenvalues --  -38.43482 -38.43049  -2.19727  -2.19670  -2.19611
  Beta  occ. eigenvalues --   -2.19478  -2.19401  -2.19343  -2.18906  -1.13458
  Beta  occ. eigenvalues --   -1.13400  -1.13393  -1.13374  -1.13355  -1.13334
  Beta  occ. eigenvalues --   -1.13306  -1.13262  -1.13206  -1.13162  -1.13129
  Beta  occ. eigenvalues --   -1.13114  -1.13086  -1.13053  -1.13036  -1.13026
  Beta  occ. eigenvalues --   -1.13010  -1.12993  -1.12578  -1.12560  -1.12546
  Beta  occ. eigenvalues --   -0.18275  -0.13061  -0.12223
  Beta virt. eigenvalues --   -0.07029  -0.05426  -0.05380  -0.04426  -0.02528
  Beta virt. eigenvalues --   -0.02115  -0.01619  -0.01308  -0.00987  -0.00319
  Beta virt. eigenvalues --   -0.00179   0.00125   0.00398   0.00883   0.00913

 Mulliken charges and spin densities:
               1          2
     1  Na  -0.419044   0.626663
     2  Na  -0.087673  -0.086709
     3  Na  -0.145973  -0.059609
     4  Na   0.174636  -0.012934
     5  Na  -0.444548   0.720946
     6  Na   0.232712  -0.108647
     7  Na   0.689891  -0.079709
 Sum of Mulliken charges =  -0.00000   1.00000

 Dipole moment (field-independent basis, Debye):
    X=              0.0063    Y=             -0.1802    Z=              0.0853  Tot=              0.1995
 Quadrupole moment (field-independent basis, Debye-Ang):
   XX=            -57.1600   YY=            -64.6306   ZZ=            -73.2317
   XY=             -0.5465   XZ=             -0.4969   YZ=              0.1088

 Normal termination of Gaussian 16 at Tue Dec  5 18:46:17 2023.
