 Gaussian 16, Revision B.01,
 Gaussian 16:  ES64L-G16RevB.01 20-Dec-2017

 -------------------------
 #P B3LYP/6-311+g(d) force
 -------------------------

 -----
 DPGEN
 -----
 Symbolic Z-matrix:
 Charge =  0 Multiplicity = 2

                         Standard orientation:
 ---------------------------------------------------------------------
 Center     Atomic      Atomic             Coordinates (Angstroms)
 Number     Number       Type             X           Y           Z
 ---------------------------------------------------------------------
      1         11           0       -3.321319   -0.517997    0.079544
      2         11           0        0.375901    0.231049   -1.700869
      3         11           0        3.044314   -1.406891    0.281589
      4         11           0        2.218001    2.048378   -0.116248
      5         11           0       -0.038212   -0.288021    2.013786
      6         11           0       -0.729281   -2.660137   -0.589142
      7         11           0       -1.549404    2.593619    0.031340
 ---------------------------------------------------------------------

 SCF Done:  E(UB3LYP) =  -1136.13519548     A.U. after   19 cycles

 The electronic state is 2-A.
 Alpha  occ. eigenvalues --  -38.44375 -38.44300 -38.43820 -38.43816 -38.43382
 Alpha  occ. eigenvalues --  -38.43300 -38.43209  -2.20175  -2.20094  -2.19683
 Alpha  occ. eigenvalues --   -2.19672  -2.19263  -2.19196  -2.19063  -1.13847
 Alpha  occ. eigenvalues --   -1.13830  -1.13825  -1.13766  -1.13750  -1.13740
 Alpha  occ. eigenvalues --   -1.13425  -1.13358  -1.13329  -1.13314  -1.13292
 Alpha  occ. eigenvalues --   -1.13280  -1.12941  -1.12924  -1.12894  -1.12867
 Alpha  occ. eigenvalues --   -1.12848  -1.12825  -1.12742  -1.12719  -1.12681
 Alpha  occ. eigenvalues --   -0.18363  -0.13132  -0.12134  -0.10705
 Alpha virt. eigenvalues --   -0.06002  -0.05401  -0.04372  -0.03274  -0.02829
 Alpha virt. eigenvalues --   -0.02537  -0.01827  -0.01198  -0.00454  -0.00329
 Alpha virt. eigenvalues --   -0.00035   0.00335   0.00722   0.00834   0.00868

  Beta  occ. eigenvalues --  -38.44376 -38.44295 -38.43809 -38.43736 -38.43381
  Beta  occ. eigenvalues --  -38.43230 -38.43190  -2.20179  -2.20087  -2.19665
  Beta  occ. eigenvalues --   -2.19526  -2.19196  -2.19136  -2.19032  -1.13841
  Beta  occ. eigenvalues --   -1.13831  -1.13825  -1.13748  -1.13740  -1.13736
  Beta  occ. eigenvalues --   -1.13406  -1.13306  -1.13277  -1.13252  -1.13210
  Beta  occ. eigenvalues --   -1.13177  -1.12884  -1.12857  -1.12852  -1.12833
  Beta  occ. eigenvalues --   -1.12823  -1.12775  -1.12710  -1.12678  -1.12663
  Beta  occ. eigenvalues --   -0.17646  -0.12930  -0.11882
  Beta virt. eigenvalues --   -0.06838  -0.05898  -0.05403  -0.04311  -0.02542
  Beta virt. eigenvalues --   -0.02097  -0.01705  -0.01502  -0.01152  -0.00489
  Beta virt. eigenvalues --   -0.00343   0.00104   0.00361   0.00790   0.00837

 Mulliken charges and spin densities:
               1          2
     1  Na   0.028445  -0.051748
     2  Na   0.049091   0.491717
     3  Na   0.086582  -0.010339
     4  Na   0.195160  -0.074985
     5  Na  -0.410767   0.782335
     6  Na   0.102936  -0.029472
     7  Na  -0.051446  -0.107508
 Sum of Mulliken charges =  -0.00000   1.00000

 Dipole moment (field-independent basis, Debye):
    X=              0.1085    Y=             -0.0785    Z=              0.2350  Tot=              0.2705
 Quadrupole moment (field-independent basis, Debye-Ang):
   XX=            -53.0408   YY=            -65.3779   ZZ=            -74.6426
   XY=             -0.5768   XZ=              0.6033   YZ=              0.8654

 Normal termination of Gaussian 16 at Thu Dec  7 22:32:47 2023.
