 Gaussian 16, Revision B.01,
 Gaussian 16:  ES64L-G16RevB.01 20-Dec-2017

 -------------------------
 #P B3LYP/6-311+g(d) force
 -------------------------

 -----
 DPGEN
 -----
 Symbolic Z-matrix:
 Charge =  0 Multiplicity = 2

                         Standard orientation:
 ---------------------------------------------------------------------
 Center     Atomic      Atomic             Coordinates (Angstroms)
 Number     Number       Type             X           Y           Z
 ---------------------------------------------------------------------
      1         11           0       -0.871307    1.322207    1.904755
      2         11           0       -1.536058   -1.041858   -0.987634
      3         11           0       -5.272336   -0.885968   -0.817724
      4         11           0        6.512070    1.322720   -0.842113
      5         11           0        4.407165   -0.925502   -0.395940
      6         11           0       -4.123991    1.964391   -0.409912
      7         11           0        0.884458   -1.755990    1.548568
 ---------------------------------------------------------------------

 SCF Done:  E(UB3LYP) =  -1136.11312107     A.U. after   19 cycles

 The electronic state is 2-A.
 Alpha  occ. eigenvalues --  -38.45248 -38.44596 -38.44457 -38.44452 -38.44142
 Alpha  occ. eigenvalues --  -38.43687 -38.43629  -2.21038  -2.20413  -2.20277
 Alpha  occ. eigenvalues --   -2.20252  -2.19932  -2.19474  -2.19413  -1.14740
 Alpha  occ. eigenvalues --   -1.14709  -1.14629  -1.14129  -1.14078  -1.14055
 Alpha  occ. eigenvalues --   -1.13929  -1.13924  -1.13919  -1.13905  -1.13885
 Alpha  occ. eigenvalues --   -1.13856  -1.13601  -1.13596  -1.13565  -1.13198
 Alpha  occ. eigenvalues --   -1.13130  -1.13129  -1.13081  -1.13071  -1.12998
 Alpha  occ. eigenvalues --   -0.16532  -0.13631  -0.12092  -0.10861
 Alpha virt. eigenvalues --   -0.06740  -0.05949  -0.04506  -0.03617  -0.02891
 Alpha virt. eigenvalues --   -0.02816  -0.01990  -0.01505  -0.01433  -0.01110
 Alpha virt. eigenvalues --   -0.00272  -0.00175   0.00018   0.00298   0.00334

  Beta  occ. eigenvalues --  -38.45210 -38.44572 -38.44436 -38.44378 -38.44132
  Beta  occ. eigenvalues --  -38.43682 -38.43630  -2.20969  -2.20370  -2.20237
  Beta  occ. eigenvalues --   -2.20116  -2.19916  -2.19464  -2.19416  -1.14689
  Beta  occ. eigenvalues --   -1.14653  -1.14578  -1.14100  -1.14049  -1.14013
  Beta  occ. eigenvalues --   -1.13902  -1.13881  -1.13858  -1.13832  -1.13813
  Beta  occ. eigenvalues --   -1.13754  -1.13586  -1.13578  -1.13558  -1.13193
  Beta  occ. eigenvalues --   -1.13124  -1.13123  -1.13083  -1.13073  -1.12994
  Beta  occ. eigenvalues --   -0.15858  -0.13514  -0.11982
  Beta virt. eigenvalues --   -0.07180  -0.06471  -0.05536  -0.04086  -0.03365
  Beta virt. eigenvalues --   -0.02748  -0.02212  -0.01836  -0.01434  -0.01114
  Beta virt. eigenvalues --   -0.00821  -0.00158   0.00073   0.00270   0.00380

 Mulliken charges and spin densities:
               1          2
     1  Na  -0.080047   0.385164
     2  Na  -0.438472   0.431186
     3  Na   0.381623   0.024387
     4  Na   0.373248   0.027391
     5  Na  -0.508058  -0.027422
     6  Na   0.171957   0.082085
     7  Na   0.099749   0.077209
 Sum of Mulliken charges =  -0.00000   1.00000

 Dipole moment (field-independent basis, Debye):
    X=             -1.8723    Y=             -0.0047    Z=              0.1468  Tot=              1.8780
 Quadrupole moment (field-independent basis, Debye-Ang):
   XX=            -66.1021   YY=            -65.1754   ZZ=            -69.9033
   XY=              4.8456   XZ=              1.9863   YZ=             -3.0520

 Normal termination of Gaussian 16 at Mon Dec  4 03:54:48 2023.
