 Gaussian 16, Revision B.01,
 Gaussian 16:  ES64L-G16RevB.01 20-Dec-2017

 -------------------------
 #P B3LYP/6-311+g(d) force
 -------------------------

 -----
 DPGEN
 -----
 Symbolic Z-matrix:
 Charge =  0 Multiplicity = 2

                         Standard orientation:
 ---------------------------------------------------------------------
 Center     Atomic      Atomic             Coordinates (Angstroms)
 Number     Number       Type             X           Y           Z
 ---------------------------------------------------------------------
      1         11           0        3.185030    0.385784   -0.047522
      2         11           0        1.383971   -2.452418    0.201943
      3         11           0       -2.250533   -2.159139    0.013209
      4         11           0        0.159902   -0.305308   -1.859670
      5         11           0        0.103295    0.366269    1.958781
      6         11           0       -2.870385    1.229889   -0.023314
      7         11           0        0.288720    2.934923   -0.243426
 ---------------------------------------------------------------------

 SCF Done:  E(UB3LYP) =  -1136.14010702     A.U. after   19 cycles

 The electronic state is 2-A.
 Alpha  occ. eigenvalues --  -38.44132 -38.43956 -38.43557 -38.43523 -38.43444
 Alpha  occ. eigenvalues --  -38.43380 -38.43374  -2.19957  -2.19773  -2.19419
 Alpha  occ. eigenvalues --   -2.19378  -2.19366  -2.19260  -2.19207  -1.13627
 Alpha  occ. eigenvalues --   -1.13623  -1.13600  -1.13448  -1.13438  -1.13415
 Alpha  occ. eigenvalues --   -1.13103  -1.13079  -1.13062  -1.13050  -1.13042
 Alpha  occ. eigenvalues --   -1.13032  -1.13025  -1.13017  -1.12974  -1.12922
 Alpha  occ. eigenvalues --   -1.12912  -1.12878  -1.12877  -1.12873  -1.12835
 Alpha  occ. eigenvalues --   -0.18521  -0.12976  -0.12403  -0.10741
 Alpha virt. eigenvalues --   -0.05709  -0.05161  -0.04717  -0.03199  -0.02972
 Alpha virt. eigenvalues --   -0.02579  -0.01561  -0.01074  -0.00429  -0.00346
 Alpha virt. eigenvalues --   -0.00030   0.00376   0.00791   0.00876   0.00901

  Beta  occ. eigenvalues --  -38.44129 -38.43954 -38.43556 -38.43440 -38.43371
  Beta  occ. eigenvalues --  -38.43368 -38.43368  -2.19955  -2.19772  -2.19378
  Beta  occ. eigenvalues --   -2.19266  -2.19248  -2.19226  -2.19199  -1.13624
  Beta  occ. eigenvalues --   -1.13602  -1.13599  -1.13441  -1.13427  -1.13418
  Beta  occ. eigenvalues --   -1.13052  -1.13033  -1.13027  -1.13010  -1.12989
  Beta  occ. eigenvalues --   -1.12958  -1.12929  -1.12927  -1.12893  -1.12883
  Beta  occ. eigenvalues --   -1.12871  -1.12863  -1.12854  -1.12842  -1.12832
  Beta  occ. eigenvalues --   -0.17773  -0.12768  -0.12179
  Beta virt. eigenvalues --   -0.06837  -0.05676  -0.05181  -0.04624  -0.02412
  Beta virt. eigenvalues --   -0.02200  -0.01538  -0.01475  -0.01007  -0.00487
  Beta virt. eigenvalues --   -0.00399   0.00113   0.00392   0.00846   0.00864

 Mulliken charges and spin densities:
               1          2
     1  Na   0.224372  -0.084697
     2  Na   0.194325  -0.048375
     3  Na   0.046381  -0.095580
     4  Na  -0.253384   0.719638
     5  Na  -0.322404   0.733823
     6  Na   0.055547  -0.095699
     7  Na   0.055164  -0.129110
 Sum of Mulliken charges =  -0.00000   1.00000

 Dipole moment (field-independent basis, Debye):
    X=              0.1080    Y=              0.1154    Z=              0.0221  Tot=              0.1595
 Quadrupole moment (field-independent basis, Debye-Ang):
   XX=            -56.2197   YY=            -63.3992   ZZ=            -74.0398
   XY=              0.4306   XZ=              0.0159   YZ=             -1.4571

 Normal termination of Gaussian 16 at Tue Dec  5 14:41:24 2023.
