 Gaussian 16, Revision B.01,
 Gaussian 16:  ES64L-G16RevB.01 20-Dec-2017

 -------------------------
 #P B3LYP/6-311+g(d) force
 -------------------------

 -----
 DPGEN
 -----
 Symbolic Z-matrix:
 Charge =  0 Multiplicity = 2

                         Standard orientation:
 ---------------------------------------------------------------------
 Center     Atomic      Atomic             Coordinates (Angstroms)
 Number     Number       Type             X           Y           Z
 ---------------------------------------------------------------------
      1         11           0       -3.657488   -1.958011    0.669345
      2         11           0        0.470449   -0.917475   -1.482021
      3         11           0        0.348763    2.575968   -0.530654
      4         11           0       -2.859142    0.925461   -1.073111
      5         11           0        2.471907    0.781791    1.424150
      6         11           0       -0.826616    0.248088    1.491987
      7         11           0        4.052127   -1.655821   -0.499696
 ---------------------------------------------------------------------

 SCF Done:  E(UB3LYP) =  -1136.12425596     A.U. after   24 cycles

 The electronic state is 2-A.
 Alpha  occ. eigenvalues --  -38.44915 -38.44626 -38.43931 -38.43902 -38.43788
 Alpha  occ. eigenvalues --  -38.43685 -38.42992  -2.20737  -2.20480  -2.19878
 Alpha  occ. eigenvalues --   -2.19779  -2.19583  -2.19456  -2.18874  -1.14448
 Alpha  occ. eigenvalues --   -1.14393  -1.14322  -1.14173  -1.14148  -1.14084
 Alpha  occ. eigenvalues --   -1.13594  -1.13553  -1.13500  -1.13454  -1.13422
 Alpha  occ. eigenvalues --   -1.13376  -1.13249  -1.13243  -1.13211  -1.13129
 Alpha  occ. eigenvalues --   -1.13124  -1.13091  -1.12547  -1.12537  -1.12520
 Alpha  occ. eigenvalues --   -0.18288  -0.13782  -0.11436  -0.11027
 Alpha virt. eigenvalues --   -0.06691  -0.05441  -0.04718  -0.03008  -0.02783
 Alpha virt. eigenvalues --   -0.02448  -0.02214  -0.01534  -0.00811  -0.00315
 Alpha virt. eigenvalues --    0.00042   0.00182   0.00348   0.00427   0.00599

  Beta  occ. eigenvalues --  -38.44857 -38.44603 -38.43884 -38.43862 -38.43771
  Beta  occ. eigenvalues --  -38.43690 -38.42987  -2.20632  -2.20440  -2.19793
  Beta  occ. eigenvalues --   -2.19707  -2.19552  -2.19466  -2.18868  -1.14371
  Beta  occ. eigenvalues --   -1.14322  -1.14239  -1.14147  -1.14118  -1.14043
  Beta  occ. eigenvalues --   -1.13538  -1.13481  -1.13438  -1.13404  -1.13368
  Beta  occ. eigenvalues --   -1.13319  -1.13228  -1.13217  -1.13192  -1.13136
  Beta  occ. eigenvalues --   -1.13127  -1.13095  -1.12547  -1.12538  -1.12477
  Beta  occ. eigenvalues --   -0.17577  -0.13580  -0.11155
  Beta virt. eigenvalues --   -0.07295  -0.06496  -0.05255  -0.04225  -0.02701
  Beta virt. eigenvalues --   -0.02432  -0.02100  -0.01681  -0.01206  -0.00515
  Beta virt. eigenvalues --   -0.00277   0.00085   0.00248   0.00453   0.00538

 Mulliken charges and spin densities:
               1          2
     1  Na   0.336075   0.009663
     2  Na  -0.618478   0.407875
     3  Na  -0.085550   0.079112
     4  Na   0.629979   0.102261
     5  Na   0.450964   0.086074
     6  Na  -0.745921   0.376363
     7  Na   0.032930  -0.061350
 Sum of Mulliken charges =  -0.00000   1.00000

 Dipole moment (field-independent basis, Debye):
    X=             -0.4971    Y=              0.4905    Z=             -0.4022  Tot=              0.8059
 Quadrupole moment (field-independent basis, Debye-Ang):
   XX=            -57.5793   YY=            -68.1011   ZZ=            -71.0703
   XY=              1.1367   XZ=              3.1649   YZ=             -1.5969

 Normal termination of Gaussian 16 at Wed Nov 29 15:55:45 2023.
