 Gaussian 16, Revision B.01,
 Gaussian 16:  ES64L-G16RevB.01 20-Dec-2017

 -------------------------
 #P B3LYP/6-311+g(d) force
 -------------------------

 -----
 DPGEN
 -----
 Symbolic Z-matrix:
 Charge =  0 Multiplicity = 2

                         Standard orientation:
 ---------------------------------------------------------------------
 Center     Atomic      Atomic             Coordinates (Angstroms)
 Number     Number       Type             X           Y           Z
 ---------------------------------------------------------------------
      1         11           0       -1.418814   -1.579161   -1.474286
      2         11           0       -0.779288    0.029423    1.799200
      3         11           0       -2.766359    1.689242   -0.850484
      4         11           0        1.627046    2.487200    0.308160
      5         11           0        5.057009   -1.172690    0.598428
      6         11           0        2.018229   -0.190389   -1.388836
      7         11           0       -3.737823   -1.263625    1.007818
 ---------------------------------------------------------------------

 SCF Done:  E(UB3LYP) =  -1136.10450441     A.U. after   28 cycles

 The electronic state is 2-A.
 Alpha  occ. eigenvalues --  -38.46149 -38.44977 -38.44550 -38.44170 -38.44108
 Alpha  occ. eigenvalues --  -38.43896 -38.43567  -2.21914  -2.20820  -2.20277
 Alpha  occ. eigenvalues --   -2.20030  -2.19967  -2.19715  -2.19364  -1.15600
 Alpha  occ. eigenvalues --   -1.15569  -1.15543  -1.14508  -1.14477  -1.14427
 Alpha  occ. eigenvalues --   -1.13948  -1.13945  -1.13903  -1.13702  -1.13682
 Alpha  occ. eigenvalues --   -1.13674  -1.13643  -1.13616  -1.13566  -1.13421
 Alpha  occ. eigenvalues --   -1.13401  -1.13327  -1.13050  -1.13026  -1.12976
 Alpha  occ. eigenvalues --   -0.17846  -0.13775  -0.11129  -0.10528
 Alpha virt. eigenvalues --   -0.07899  -0.05795  -0.04772  -0.03166  -0.02981
 Alpha virt. eigenvalues --   -0.02360  -0.02231  -0.01949  -0.01107  -0.00639
 Alpha virt. eigenvalues --   -0.00287  -0.00052   0.00102   0.00315   0.00365

  Beta  occ. eigenvalues --  -38.46140 -38.44925 -38.44536 -38.44140 -38.44042
  Beta  occ. eigenvalues --  -38.43883 -38.43567  -2.21899  -2.20726  -2.20250
  Beta  occ. eigenvalues --   -2.19977  -2.19846  -2.19692  -2.19364  -1.15568
  Beta  occ. eigenvalues --   -1.15561  -1.15538  -1.14440  -1.14416  -1.14346
  Beta  occ. eigenvalues --   -1.13930  -1.13926  -1.13887  -1.13663  -1.13643
  Beta  occ. eigenvalues --   -1.13624  -1.13563  -1.13525  -1.13480  -1.13403
  Beta  occ. eigenvalues --   -1.13389  -1.13293  -1.13048  -1.13023  -1.12977
  Beta  occ. eigenvalues --   -0.17149  -0.13602  -0.10426
  Beta virt. eigenvalues --   -0.07587  -0.07272  -0.05652  -0.04333  -0.02857
  Beta virt. eigenvalues --   -0.02787  -0.01937  -0.01693  -0.01561  -0.00832
  Beta virt. eigenvalues --   -0.00575  -0.00202   0.00079   0.00210   0.00410

 Mulliken charges and spin densities:
               1          2
     1  Na  -0.044329   0.351345
     2  Na  -0.379849   0.308754
     3  Na   0.067279   0.085940
     4  Na   0.244236   0.000988
     5  Na   0.225636   0.099236
     6  Na  -0.615536  -0.039373
     7  Na   0.502562   0.193110
 Sum of Mulliken charges =  -0.00000   1.00000

 Dipole moment (field-independent basis, Debye):
    X=             -1.8837    Y=              0.8320    Z=              0.2537  Tot=              2.0749
 Quadrupole moment (field-independent basis, Debye-Ang):
   XX=            -56.2042   YY=            -72.7363   ZZ=            -71.0077
   XY=             -0.2242   XZ=              4.4338   YZ=             -4.1116

 Normal termination of Gaussian 16 at Fri Dec  8 19:30:36 2023.
