 Gaussian 16, Revision B.01,
 Gaussian 16:  ES64L-G16RevB.01 20-Dec-2017

 -------------------------
 #P B3LYP/6-311+g(d) force
 -------------------------

 -----
 DPGEN
 -----
 Symbolic Z-matrix:
 Charge =  0 Multiplicity = 2

                         Standard orientation:
 ---------------------------------------------------------------------
 Center     Atomic      Atomic             Coordinates (Angstroms)
 Number     Number       Type             X           Y           Z
 ---------------------------------------------------------------------
      1         11           0       -2.192147   -1.869419   -0.094231
      2         11           0        3.265806    0.311796   -0.784708
      3         11           0       -2.270752    1.672748   -0.925722
      4         11           0        0.459708    2.673491    1.449946
      5         11           0       -0.369846   -0.413650    2.077472
      6         11           0        0.040579    0.162425   -2.137690
      7         11           0        1.066652   -2.537391    0.414933
 ---------------------------------------------------------------------

 SCF Done:  E(UB3LYP) =  -1136.12684284     A.U. after   21 cycles

 The electronic state is 2-A.
 Alpha  occ. eigenvalues --  -38.44463 -38.44398 -38.44343 -38.43595 -38.43437
 Alpha  occ. eigenvalues --  -38.43370 -38.43366  -2.20301  -2.20290  -2.20274
 Alpha  occ. eigenvalues --   -2.19372  -2.19294  -2.19252  -2.19242  -1.14019
 Alpha  occ. eigenvalues --   -1.13994  -1.13969  -1.13945  -1.13936  -1.13917
 Alpha  occ. eigenvalues --   -1.13893  -1.13891  -1.13878  -1.13052  -1.13020
 Alpha  occ. eigenvalues --   -1.13014  -1.13011  -1.12964  -1.12948  -1.12946
 Alpha  occ. eigenvalues --   -1.12930  -1.12913  -1.12893  -1.12862  -1.12814
 Alpha  occ. eigenvalues --   -0.18435  -0.12543  -0.12408  -0.12161
 Alpha virt. eigenvalues --   -0.05052  -0.04813  -0.04646  -0.03678  -0.03552
 Alpha virt. eigenvalues --   -0.03405  -0.01117  -0.00921  -0.00429   0.00108
 Alpha virt. eigenvalues --    0.00316   0.00370   0.00789   0.00823   0.00882

  Beta  occ. eigenvalues --  -38.44403 -38.44323 -38.44267 -38.43585 -38.43427
  Beta  occ. eigenvalues --  -38.43368 -38.43364  -2.20168  -2.20163  -2.20153
  Beta  occ. eigenvalues --   -2.19356  -2.19281  -2.19250  -2.19241  -1.13916
  Beta  occ. eigenvalues --   -1.13902  -1.13878  -1.13853  -1.13847  -1.13823
  Beta  occ. eigenvalues --   -1.13816  -1.13813  -1.13781  -1.13031  -1.13009
  Beta  occ. eigenvalues --   -1.13007  -1.12987  -1.12960  -1.12942  -1.12939
  Beta  occ. eigenvalues --   -1.12920  -1.12896  -1.12887  -1.12854  -1.12813
  Beta  occ. eigenvalues --   -0.17667  -0.12188  -0.11945
  Beta virt. eigenvalues --   -0.08407  -0.04989  -0.04555  -0.04378  -0.03121
  Beta virt. eigenvalues --   -0.02830  -0.02655  -0.01019  -0.00827  -0.00220
  Beta virt. eigenvalues --    0.00175   0.00308   0.00416   0.00881   0.00916

 Mulliken charges and spin densities:
               1          2
     1  Na   0.120877   0.008042
     2  Na  -0.060040   0.021977
     3  Na   0.072124   0.050857
     4  Na   0.040493   0.252237
     5  Na   0.030073   0.258870
     6  Na  -0.209625   0.368133
     7  Na   0.006098   0.039884
 Sum of Mulliken charges =  -0.00000   1.00000

 Dipole moment (field-independent basis, Debye):
    X=             -0.0962    Y=              0.1676    Z=              0.0697  Tot=              0.2054
 Quadrupole moment (field-independent basis, Debye-Ang):
   XX=            -64.6140   YY=            -65.4860   ZZ=            -67.3182
   XY=              0.6999   XZ=              0.8522   YZ=              2.7898

 Normal termination of Gaussian 16 at Sun Dec  3 20:18:30 2023.
