 Gaussian 16, Revision B.01,
 Gaussian 16:  ES64L-G16RevB.01 20-Dec-2017

 -------------------------
 #P B3LYP/6-311+g(d) force
 -------------------------

 -----
 DPGEN
 -----
 Symbolic Z-matrix:
 Charge =  0 Multiplicity = 2

                         Standard orientation:
 ---------------------------------------------------------------------
 Center     Atomic      Atomic             Coordinates (Angstroms)
 Number     Number       Type             X           Y           Z
 ---------------------------------------------------------------------
      1         11           0       -2.330242   -2.104819   -0.013780
      2         11           0        0.405247    3.006644   -0.406156
      3         11           0        0.116002   -0.446421   -1.598568
      4         11           0        0.140534    0.250880    2.228244
      5         11           0       -2.850073    1.414778   -0.099914
      6         11           0        1.376936   -2.600555   -0.036857
      7         11           0        3.141598    0.479493   -0.072968
 ---------------------------------------------------------------------

 SCF Done:  E(UB3LYP) =  -1136.13639269     A.U. after   19 cycles

 The electronic state is 2-A.
 Alpha  occ. eigenvalues --  -38.44029 -38.43928 -38.43825 -38.43765 -38.43670
 Alpha  occ. eigenvalues --  -38.43574 -38.43308  -2.19846  -2.19724  -2.19664
 Alpha  occ. eigenvalues --   -2.19584  -2.19547  -2.19379  -2.19283  -1.13521
 Alpha  occ. eigenvalues --   -1.13510  -1.13487  -1.13400  -1.13387  -1.13370
 Alpha  occ. eigenvalues --   -1.13350  -1.13319  -1.13290  -1.13284  -1.13269
 Alpha  occ. eigenvalues --   -1.13245  -1.13218  -1.13192  -1.13148  -1.13059
 Alpha  occ. eigenvalues --   -1.13040  -1.13014  -1.12949  -1.12902  -1.12888
 Alpha  occ. eigenvalues --   -0.18306  -0.12810  -0.12488  -0.10708
 Alpha virt. eigenvalues --   -0.05584  -0.05361  -0.04858  -0.03083  -0.03021
 Alpha virt. eigenvalues --   -0.02615  -0.01484  -0.01172  -0.00556  -0.00509
 Alpha virt. eigenvalues --   -0.00034   0.00352   0.00781   0.00852   0.00867

  Beta  occ. eigenvalues --  -38.44026 -38.43927 -38.43763 -38.43720 -38.43664
  Beta  occ. eigenvalues --  -38.43566 -38.43254  -2.19843  -2.19724  -2.19584
  Beta  occ. eigenvalues --   -2.19540  -2.19470  -2.19367  -2.19185  -1.13514
  Beta  occ. eigenvalues --   -1.13492  -1.13489  -1.13390  -1.13383  -1.13374
  Beta  occ. eigenvalues --   -1.13331  -1.13263  -1.13234  -1.13220  -1.13191
  Beta  occ. eigenvalues --   -1.13168  -1.13151  -1.13148  -1.13144  -1.13042
  Beta  occ. eigenvalues --   -1.13023  -1.13009  -1.12884  -1.12835  -1.12818
  Beta  occ. eigenvalues --   -0.17595  -0.12625  -0.12271
  Beta virt. eigenvalues --   -0.06763  -0.05559  -0.05379  -0.04744  -0.02325
  Beta virt. eigenvalues --   -0.02241  -0.01566  -0.01401  -0.01103  -0.00600
  Beta virt. eigenvalues --   -0.00565   0.00131   0.00387   0.00833   0.00852

 Mulliken charges and spin densities:
               1          2
     1  Na   0.118429  -0.042552
     2  Na   0.010426  -0.036012
     3  Na  -0.114456   0.346994
     4  Na  -0.590529   0.795840
     5  Na   0.016857  -0.053486
     6  Na   0.362230   0.003604
     7  Na   0.197042  -0.014387
 Sum of Mulliken charges =  -0.00000   1.00000

 Dipole moment (field-independent basis, Debye):
    X=              0.0555    Y=             -0.0239    Z=              0.1450  Tot=              0.1571
 Quadrupole moment (field-independent basis, Debye-Ang):
   XX=            -57.0870   YY=            -61.9758   ZZ=            -74.7437
   XY=              0.3524   XZ=             -0.1485   YZ=             -1.4545

 Normal termination of Gaussian 16 at Tue Dec  5 15:39:50 2023.
