 Gaussian 16, Revision B.01,
 Gaussian 16:  ES64L-G16RevB.01 20-Dec-2017

 -------------------------
 #P B3LYP/6-311+g(d) force
 -------------------------

 -----
 DPGEN
 -----
 Symbolic Z-matrix:
 Charge =  0 Multiplicity = 2

                         Standard orientation:
 ---------------------------------------------------------------------
 Center     Atomic      Atomic             Coordinates (Angstroms)
 Number     Number       Type             X           Y           Z
 ---------------------------------------------------------------------
      1         11           0       -4.270774   -0.695240   -0.091743
      2         11           0        3.386810    1.426164   -1.076308
      3         11           0        3.615073   -1.022140    1.281641
      4         11           0        0.987859   -3.472737    0.244467
      5         11           0       -2.547645    2.364814    1.229302
      6         11           0        0.402974    3.820260   -0.499900
      7         11           0       -1.574298   -2.421121   -1.087459
 ---------------------------------------------------------------------

 SCF Done:  E(UB3LYP) =  -1136.10506648     A.U. after   23 cycles

 The electronic state is 2-A.
 Alpha  occ. eigenvalues --  -38.45554 -38.45068 -38.44805 -38.44419 -38.44008
 Alpha  occ. eigenvalues --  -38.43930 -38.43829  -2.21277  -2.20822  -2.20582
 Alpha  occ. eigenvalues --   -2.20244  -2.19773  -2.19755  -2.19637  -1.14970
 Alpha  occ. eigenvalues --   -1.14948  -1.14905  -1.14501  -1.14489  -1.14461
 Alpha  occ. eigenvalues --   -1.14248  -1.14228  -1.14216  -1.13953  -1.13909
 Alpha  occ. eigenvalues --   -1.13890  -1.13440  -1.13423  -1.13418  -1.13402
 Alpha  occ. eigenvalues --   -1.13400  -1.13374  -1.13289  -1.13285  -1.13262
 Alpha  occ. eigenvalues --   -0.15564  -0.13709  -0.13279  -0.10531
 Alpha virt. eigenvalues --   -0.07745  -0.04995  -0.04425  -0.03611  -0.03551
 Alpha virt. eigenvalues --   -0.02167  -0.01850  -0.01519  -0.01369  -0.01161
 Alpha virt. eigenvalues --   -0.01010  -0.00138   0.00175   0.00299   0.00649

  Beta  occ. eigenvalues --  -38.45549 -38.45054 -38.44774 -38.44398 -38.43958
  Beta  occ. eigenvalues --  -38.43883 -38.43768  -2.21274  -2.20802  -2.20526
  Beta  occ. eigenvalues --   -2.20213  -2.19680  -2.19672  -2.19522  -1.14973
  Beta  occ. eigenvalues --   -1.14950  -1.14871  -1.14488  -1.14477  -1.14429
  Beta  occ. eigenvalues --   -1.14211  -1.14193  -1.14167  -1.13909  -1.13892
  Beta  occ. eigenvalues --   -1.13851  -1.13377  -1.13362  -1.13356  -1.13347
  Beta  occ. eigenvalues --   -1.13335  -1.13315  -1.13213  -1.13208  -1.13184
  Beta  occ. eigenvalues --   -0.15044  -0.13008  -0.12496
  Beta virt. eigenvalues --   -0.07955  -0.07431  -0.04551  -0.03966  -0.03456
  Beta virt. eigenvalues --   -0.03277  -0.01939  -0.01494  -0.01242  -0.01158
  Beta virt. eigenvalues --   -0.01016  -0.00735   0.00005   0.00229   0.00341

 Mulliken charges and spin densities:
               1          2
     1  Na   0.468091   0.308813
     2  Na  -0.076562   0.050407
     3  Na   0.053361   0.171656
     4  Na   0.164546   0.100895
     5  Na  -0.111669   0.030431
     6  Na   0.005587   0.229709
     7  Na  -0.503354   0.108089
 Sum of Mulliken charges =  -0.00000   1.00000

 Dipole moment (field-independent basis, Debye):
    X=              0.4907    Y=              0.1001    Z=              0.3360  Tot=              0.6031
 Quadrupole moment (field-independent basis, Debye-Ang):
   XX=            -66.3514   YY=            -71.6264   ZZ=            -64.6599
   XY=             -1.6231   XZ=             -1.1004   YZ=             -1.6008

 Normal termination of Gaussian 16 at Sun Dec  3 23:08:55 2023.
