 Gaussian 16, Revision B.01,
 Gaussian 16:  ES64L-G16RevB.01 20-Dec-2017

 -------------------------
 #P B3LYP/6-311+g(d) force
 -------------------------

 -----
 DPGEN
 -----
 Symbolic Z-matrix:
 Charge =  0 Multiplicity = 2

                         Standard orientation:
 ---------------------------------------------------------------------
 Center     Atomic      Atomic             Coordinates (Angstroms)
 Number     Number       Type             X           Y           Z
 ---------------------------------------------------------------------
      1         11           0       -0.281786   -1.552576    0.002415
      2         11           0       -6.676295   -0.364385    0.175555
      3         11           0       -3.235025   -0.045894    0.049676
      4         11           0       -0.789888    2.099362    0.103207
      5         11           0        2.336057    1.311848   -0.909506
      6         11           0        3.516979   -1.863016   -0.354098
      7         11           0        5.129958    0.414661    0.932752
 ---------------------------------------------------------------------

 SCF Done:  E(UB3LYP) =  -1136.11523527     A.U. after   24 cycles

 The electronic state is 2-A.
 Alpha  occ. eigenvalues --  -38.44845 -38.44793 -38.44760 -38.44626 -38.44297
 Alpha  occ. eigenvalues --  -38.43506 -38.43119  -2.20705  -2.20661  -2.20605
 Alpha  occ. eigenvalues --   -2.20465  -2.20147  -2.19240  -2.18982  -1.14408
 Alpha  occ. eigenvalues --   -1.14404  -1.14379  -1.14342  -1.14312  -1.14295
 Alpha  occ. eigenvalues --   -1.14246  -1.14239  -1.14175  -1.14138  -1.14120
 Alpha  occ. eigenvalues --   -1.14070  -1.13823  -1.13806  -1.13765  -1.12919
 Alpha  occ. eigenvalues --   -1.12918  -1.12894  -1.12692  -1.12656  -1.12570
 Alpha  occ. eigenvalues --   -0.17551  -0.14579  -0.11703  -0.11066
 Alpha virt. eigenvalues --   -0.07043  -0.05815  -0.04792  -0.03565  -0.03107
 Alpha virt. eigenvalues --   -0.02354  -0.02239  -0.01274  -0.01062  -0.00696
 Alpha virt. eigenvalues --   -0.00251  -0.00199  -0.00011   0.00145   0.00535

  Beta  occ. eigenvalues --  -38.44799 -38.44758 -38.44730 -38.44557 -38.44265
  Beta  occ. eigenvalues --  -38.43544 -38.43108  -2.20624  -2.20599  -2.20549
  Beta  occ. eigenvalues --   -2.20337  -2.20090  -2.19310  -2.18960  -1.14363
  Beta  occ. eigenvalues --   -1.14340  -1.14325  -1.14288  -1.14257  -1.14239
  Beta  occ. eigenvalues --   -1.14208  -1.14188  -1.14126  -1.14054  -1.14021
  Beta  occ. eigenvalues --   -1.13982  -1.13775  -1.13755  -1.13735  -1.12967
  Beta  occ. eigenvalues --   -1.12966  -1.12939  -1.12664  -1.12639  -1.12579
  Beta  occ. eigenvalues --   -0.16771  -0.14429  -0.11225
  Beta virt. eigenvalues --   -0.07675  -0.06753  -0.05109  -0.04534  -0.03217
  Beta virt. eigenvalues --   -0.02599  -0.02240  -0.01721  -0.01194  -0.00726
  Beta virt. eigenvalues --   -0.00609  -0.00100  -0.00029   0.00206   0.00319

 Mulliken charges and spin densities:
               1          2
     1  Na   1.040909   0.732062
     2  Na  -0.889107  -0.087556
     3  Na  -0.850205  -0.407318
     4  Na   0.871441   0.390376
     5  Na  -0.810535   0.339779
     6  Na   0.178093  -0.071416
     7  Na   0.459404   0.104074
 Sum of Mulliken charges =  -0.00000   1.00000

 Dipole moment (field-independent basis, Debye):
    X=              3.1554    Y=              0.2576    Z=              0.2533  Tot=              3.1760
 Quadrupole moment (field-independent basis, Debye-Ang):
   XX=            -65.3764   YY=            -67.5299   ZZ=            -69.8703
   XY=             -1.1975   XZ=              1.9389   YZ=              1.3580

 Normal termination of Gaussian 16 at Tue Nov 28 23:50:59 2023.
