 Gaussian 16, Revision B.01,
 Gaussian 16:  ES64L-G16RevB.01 20-Dec-2017

 -------------------------
 #P B3LYP/6-311+g(d) force
 -------------------------

 -----
 DPGEN
 -----
 Symbolic Z-matrix:
 Charge =  0 Multiplicity = 2

                         Standard orientation:
 ---------------------------------------------------------------------
 Center     Atomic      Atomic             Coordinates (Angstroms)
 Number     Number       Type             X           Y           Z
 ---------------------------------------------------------------------
      1         11           0       -2.336546   -1.999940   -0.547775
      2         11           0        3.951952   -0.577342    0.746032
      3         11           0       -1.227868    1.862616   -0.582019
      4         11           0        2.196735    1.752051   -0.822187
      5         11           0        0.315119   -0.270870    2.062800
      6         11           0        0.997684   -1.400454   -1.455831
      7         11           0       -3.897076    0.633938    0.598979
 ---------------------------------------------------------------------

 SCF Done:  E(UB3LYP) =  -1136.11646121     A.U. after   28 cycles

 The electronic state is 2-A.
 Alpha  occ. eigenvalues --  -38.46279 -38.45492 -38.45107 -38.43468 -38.43340
 Alpha  occ. eigenvalues --  -38.43224 -38.42728  -2.22042  -2.21295  -2.20939
 Alpha  occ. eigenvalues --   -2.19341  -2.19203  -2.19052  -2.18592  -1.15730
 Alpha  occ. eigenvalues --   -1.15690  -1.15655  -1.14962  -1.14948  -1.14917
 Alpha  occ. eigenvalues --   -1.14614  -1.14591  -1.14576  -1.13029  -1.12995
 Alpha  occ. eigenvalues --   -1.12985  -1.12887  -1.12848  -1.12824  -1.12722
 Alpha  occ. eigenvalues --   -1.12711  -1.12704  -1.12283  -1.12254  -1.12239
 Alpha  occ. eigenvalues --   -0.18133  -0.14404  -0.11041  -0.10834
 Alpha virt. eigenvalues --   -0.07793  -0.05249  -0.04663  -0.03289  -0.03120
 Alpha virt. eigenvalues --   -0.02396  -0.02242  -0.01339  -0.01129  -0.00284
 Alpha virt. eigenvalues --   -0.00132   0.00171   0.00229   0.00590   0.00669

  Beta  occ. eigenvalues --  -38.46233 -38.45459 -38.45095 -38.43444 -38.43282
  Beta  occ. eigenvalues --  -38.43218 -38.42719  -2.21957  -2.21234  -2.20916
  Beta  occ. eigenvalues --   -2.19301  -2.19099  -2.19044  -2.18579  -1.15666
  Beta  occ. eigenvalues --   -1.15634  -1.15588  -1.14923  -1.14897  -1.14877
  Beta  occ. eigenvalues --   -1.14601  -1.14578  -1.14557  -1.12989  -1.12969
  Beta  occ. eigenvalues --   -1.12945  -1.12820  -1.12764  -1.12755  -1.12716
  Beta  occ. eigenvalues --   -1.12703  -1.12681  -1.12278  -1.12237  -1.12212
  Beta  occ. eigenvalues --   -0.17477  -0.14189  -0.10537
  Beta virt. eigenvalues --   -0.07584  -0.07259  -0.05264  -0.04043  -0.02985
  Beta virt. eigenvalues --   -0.02849  -0.01822  -0.01632  -0.01216  -0.00813
  Beta virt. eigenvalues --   -0.00227  -0.00054   0.00215   0.00377   0.00679

 Mulliken charges and spin densities:
               1          2
     1  Na  -0.205579  -0.019973
     2  Na   0.614820   0.234174
     3  Na  -0.669105  -0.034446
     4  Na  -0.070352   0.097092
     5  Na  -0.408197   0.311476
     6  Na  -0.187398   0.266476
     7  Na   0.925811   0.145201
 Sum of Mulliken charges =  -0.00000   1.00000

 Dipole moment (field-independent basis, Debye):
    X=              0.5245    Y=             -0.2299    Z=              0.9188  Tot=              1.0827
 Quadrupole moment (field-independent basis, Debye-Ang):
   XX=            -43.3933   YY=            -81.5201   ZZ=            -69.8854
   XY=             -0.3915   XZ=             -2.2177   YZ=             -0.2484

 Normal termination of Gaussian 16 at Fri Dec  8 07:53:12 2023.
