 Gaussian 16, Revision B.01,
 Gaussian 16:  ES64L-G16RevB.01 20-Dec-2017

 -------------------------
 #P B3LYP/6-311+g(d) force
 -------------------------

 -----
 DPGEN
 -----
 Symbolic Z-matrix:
 Charge =  0 Multiplicity = 2

                         Standard orientation:
 ---------------------------------------------------------------------
 Center     Atomic      Atomic             Coordinates (Angstroms)
 Number     Number       Type             X           Y           Z
 ---------------------------------------------------------------------
      1         11           0        2.676047    2.080637   -0.313705
      2         11           0       -0.303953   -2.332559    1.161672
      3         11           0       -0.073292   -0.195317   -1.729817
      4         11           0       -3.867910   -0.696124   -0.569652
      5         11           0        3.030858   -1.584840   -0.512404
      6         11           0        0.800217    0.650123    1.586369
      7         11           0       -2.261968    2.078079    0.377536
 ---------------------------------------------------------------------

 SCF Done:  E(UB3LYP) =  -1136.12300084     A.U. after   23 cycles

 The electronic state is 2-A.
 Alpha  occ. eigenvalues --  -38.44941 -38.44736 -38.44545 -38.44125 -38.43664
 Alpha  occ. eigenvalues --  -38.43002 -38.42906  -2.20716  -2.20576  -2.20348
 Alpha  occ. eigenvalues --   -2.19926  -2.19502  -2.18983  -2.18756  -1.14387
 Alpha  occ. eigenvalues --   -1.14372  -1.14347  -1.14285  -1.14220  -1.14190
 Alpha  occ. eigenvalues --   -1.14027  -1.13995  -1.13974  -1.13604  -1.13595
 Alpha  occ. eigenvalues --   -1.13558  -1.13237  -1.13151  -1.13128  -1.12676
 Alpha  occ. eigenvalues --   -1.12631  -1.12596  -1.12434  -1.12398  -1.12362
 Alpha  occ. eigenvalues --   -0.18123  -0.13626  -0.11353  -0.10775
 Alpha virt. eigenvalues --   -0.06698  -0.05780  -0.03848  -0.03295  -0.02757
 Alpha virt. eigenvalues --   -0.02444  -0.02319  -0.01458  -0.00616  -0.00350
 Alpha virt. eigenvalues --    0.00022   0.00203   0.00517   0.00590   0.00640

  Beta  occ. eigenvalues --  -38.44926 -38.44698 -38.44527 -38.44120 -38.43663
  Beta  occ. eigenvalues --  -38.42930 -38.42864  -2.20688  -2.20506  -2.20315
  Beta  occ. eigenvalues --   -2.19920  -2.19502  -2.18853  -2.18683  -1.14367
  Beta  occ. eigenvalues --   -1.14349  -1.14329  -1.14230  -1.14176  -1.14133
  Beta  occ. eigenvalues --   -1.13996  -1.13974  -1.13946  -1.13594  -1.13591
  Beta  occ. eigenvalues --   -1.13544  -1.13232  -1.13150  -1.13115  -1.12588
  Beta  occ. eigenvalues --   -1.12533  -1.12504  -1.12374  -1.12333  -1.12317
  Beta  occ. eigenvalues --   -0.17441  -0.13349  -0.11129
  Beta virt. eigenvalues --   -0.07058  -0.06412  -0.05697  -0.03640  -0.02861
  Beta virt. eigenvalues --   -0.02255  -0.02160  -0.01456  -0.01364  -0.00512
  Beta virt. eigenvalues --   -0.00180   0.00058   0.00265   0.00626   0.00682

 Mulliken charges and spin densities:
               1          2
     1  Na  -0.046462   0.064279
     2  Na  -0.285200   0.039263
     3  Na  -0.276309   0.393388
     4  Na   0.076368   0.144335
     5  Na   0.100547   0.157627
     6  Na   0.436247   0.258332
     7  Na  -0.005191  -0.057223
 Sum of Mulliken charges =  -0.00000   1.00000

 Dipole moment (field-independent basis, Debye):
    X=             -0.3447    Y=             -0.2943    Z=             -0.5119  Tot=              0.6837
 Quadrupole moment (field-independent basis, Debye-Ang):
   XX=            -50.0409   YY=            -70.5194   ZZ=            -72.6766
   XY=              0.3446   XZ=             -1.1875   YZ=             -0.5016

 Normal termination of Gaussian 16 at Fri Dec  8 07:22:55 2023.
