 Gaussian 16, Revision B.01,
 Gaussian 16:  ES64L-G16RevB.01 20-Dec-2017

 -------------------------
 #P B3LYP/6-311+g(d) force
 -------------------------

 -----
 DPGEN
 -----
 Symbolic Z-matrix:
 Charge =  0 Multiplicity = 2

                         Standard orientation:
 ---------------------------------------------------------------------
 Center     Atomic      Atomic             Coordinates (Angstroms)
 Number     Number       Type             X           Y           Z
 ---------------------------------------------------------------------
      1         11           0        1.028821    3.034625    0.144802
      2         11           0       -2.241306   -1.845320   -1.471787
      3         11           0        4.019559    0.602699   -0.369503
      4         11           0        1.787485   -1.992892   -1.065419
      5         11           0       -0.078401   -2.486947    2.058104
      6         11           0       -1.774627    1.091600    2.102398
      7         11           0       -2.741530    1.596236   -1.398595
 ---------------------------------------------------------------------

 SCF Done:  E(UB3LYP) =  -1136.11640900     A.U. after   21 cycles

 The electronic state is 2-A.
 Alpha  occ. eigenvalues --  -38.44780 -38.44643 -38.44554 -38.44545 -38.44503
 Alpha  occ. eigenvalues --  -38.44095 -38.43941  -2.20552  -2.20413  -2.20326
 Alpha  occ. eigenvalues --   -2.20285  -2.20264  -2.19861  -2.19697  -1.14222
 Alpha  occ. eigenvalues --   -1.14202  -1.14173  -1.14076  -1.14059  -1.14033
 Alpha  occ. eigenvalues --   -1.14011  -1.13991  -1.13960  -1.13958  -1.13951
 Alpha  occ. eigenvalues --   -1.13940  -1.13926  -1.13903  -1.13881  -1.13549
 Alpha  occ. eigenvalues --   -1.13540  -1.13486  -1.13372  -1.13350  -1.13337
 Alpha  occ. eigenvalues --   -0.16362  -0.12832  -0.12100  -0.11518
 Alpha virt. eigenvalues --   -0.06131  -0.05728  -0.05325  -0.03523  -0.03073
 Alpha virt. eigenvalues --   -0.02850  -0.01525  -0.01255  -0.00867  -0.00738
 Alpha virt. eigenvalues --   -0.00348  -0.00026   0.00073   0.00384   0.00494

  Beta  occ. eigenvalues --  -38.44726 -38.44582 -38.44546 -38.44509 -38.44473
  Beta  occ. eigenvalues --  -38.44093 -38.43938  -2.20451  -2.20300  -2.20267
  Beta  occ. eigenvalues --   -2.20245  -2.20230  -2.19856  -2.19693  -1.14151
  Beta  occ. eigenvalues --   -1.14137  -1.14093  -1.13999  -1.13980  -1.13958
  Beta  occ. eigenvalues --   -1.13953  -1.13952  -1.13941  -1.13939  -1.13922
  Beta  occ. eigenvalues --   -1.13902  -1.13884  -1.13879  -1.13847  -1.13542
  Beta  occ. eigenvalues --   -1.13537  -1.13485  -1.13369  -1.13347  -1.13336
  Beta  occ. eigenvalues --   -0.15716  -0.12537  -0.11954
  Beta virt. eigenvalues --   -0.07799  -0.06004  -0.05533  -0.04608  -0.03322
  Beta virt. eigenvalues --   -0.02587  -0.02228  -0.01423  -0.01162  -0.00752
  Beta virt. eigenvalues --   -0.00581  -0.00114   0.00158   0.00224   0.00553

 Mulliken charges and spin densities:
               1          2
     1  Na  -0.215423  -0.042546
     2  Na  -0.165441   0.204990
     3  Na   0.155806  -0.037250
     4  Na  -0.115582   0.089300
     5  Na   0.107255   0.282062
     6  Na   0.118317   0.315461
     7  Na   0.115068   0.187984
 Sum of Mulliken charges =  -0.00000   1.00000

 Dipole moment (field-independent basis, Debye):
    X=             -0.4702    Y=              0.0146    Z=              0.1235  Tot=              0.4864
 Quadrupole moment (field-independent basis, Debye-Ang):
   XX=            -65.0756   YY=            -66.7834   ZZ=            -67.5492
   XY=             -0.7448   XZ=              1.0117   YZ=             -1.1977

 Normal termination of Gaussian 16 at Mon Dec  4 02:59:33 2023.
