 Gaussian 16, Revision B.01,
 Gaussian 16:  ES64L-G16RevB.01 20-Dec-2017

 -------------------------
 #P B3LYP/6-311+g(d) force
 -------------------------

 -----
 DPGEN
 -----
 Symbolic Z-matrix:
 Charge =  0 Multiplicity = 2

                         Standard orientation:
 ---------------------------------------------------------------------
 Center     Atomic      Atomic             Coordinates (Angstroms)
 Number     Number       Type             X           Y           Z
 ---------------------------------------------------------------------
      1         11           0       -0.152075   -0.255640    1.959599
      2         11           0        3.182417    0.198157   -0.253473
      3         11           0        0.819118    2.688261    0.104220
      4         11           0       -0.013299    0.052386   -1.774928
      5         11           0        1.617160   -2.292220    0.216552
      6         11           0       -2.803390    1.302570    0.144743
      7         11           0       -2.649931   -1.693514   -0.396713
 ---------------------------------------------------------------------

 SCF Done:  E(UB3LYP) =  -1136.13194244     A.U. after   21 cycles

 The electronic state is 2-A.
 Alpha  occ. eigenvalues --  -38.44516 -38.44297 -38.43980 -38.43646 -38.43635
 Alpha  occ. eigenvalues --  -38.43151 -38.42657  -2.20395  -2.20161  -2.19842
 Alpha  occ. eigenvalues --   -2.19578  -2.19564  -2.19060  -2.18510  -1.14102
 Alpha  occ. eigenvalues --   -1.14049  -1.14027  -1.13881  -1.13825  -1.13797
 Alpha  occ. eigenvalues --   -1.13505  -1.13491  -1.13471  -1.13272  -1.13238
 Alpha  occ. eigenvalues --   -1.13215  -1.13198  -1.13197  -1.13179  -1.12739
 Alpha  occ. eigenvalues --   -1.12714  -1.12691  -1.12193  -1.12179  -1.12144
 Alpha  occ. eigenvalues --   -0.18883  -0.13831  -0.11825  -0.10969
 Alpha virt. eigenvalues --   -0.06176  -0.05220  -0.04031  -0.03608  -0.02722
 Alpha virt. eigenvalues --   -0.02585  -0.01916  -0.01023  -0.00267  -0.00112
 Alpha virt. eigenvalues --   -0.00032   0.00353   0.00714   0.00839   0.00889

  Beta  occ. eigenvalues --  -38.44512 -38.44292 -38.43971 -38.43567 -38.43554
  Beta  occ. eigenvalues --  -38.43143 -38.42655  -2.20390  -2.20156  -2.19827
  Beta  occ. eigenvalues --   -2.19453  -2.19395  -2.19050  -2.18508  -1.14103
  Beta  occ. eigenvalues --   -1.14027  -1.14023  -1.13881  -1.13799  -1.13791
  Beta  occ. eigenvalues --   -1.13490  -1.13478  -1.13451  -1.13185  -1.13129
  Beta  occ. eigenvalues --   -1.13127  -1.13103  -1.13074  -1.13061  -1.12736
  Beta  occ. eigenvalues --   -1.12697  -1.12664  -1.12194  -1.12164  -1.12136
  Beta  occ. eigenvalues --   -0.18140  -0.13591  -0.11574
  Beta virt. eigenvalues --   -0.07058  -0.06089  -0.05219  -0.03955  -0.02850
  Beta virt. eigenvalues --   -0.01916  -0.01802  -0.01583  -0.00957  -0.00289
  Beta virt. eigenvalues --   -0.00149   0.00102   0.00380   0.00795   0.00881

 Mulliken charges and spin densities:
               1          2
     1  Na  -0.386609   0.644443
     2  Na   0.090445  -0.009594
     3  Na  -0.043731  -0.062148
     4  Na  -0.275097   0.498679
     5  Na   0.316666  -0.035256
     6  Na   0.102528  -0.024890
     7  Na   0.195797  -0.011234
 Sum of Mulliken charges =  -0.00000   1.00000

 Dipole moment (field-independent basis, Debye):
    X=             -0.2473    Y=             -0.0148    Z=             -0.0209  Tot=              0.2486
 Quadrupole moment (field-independent basis, Debye-Ang):
   XX=            -53.0029   YY=            -68.3109   ZZ=            -73.3058
   XY=              0.2329   XZ=             -0.2994   YZ=              1.1360

 Normal termination of Gaussian 16 at Tue Dec  5 10:13:17 2023.
