 Gaussian 16, Revision B.01,
 Gaussian 16:  ES64L-G16RevB.01 20-Dec-2017

 -------------------------
 #P B3LYP/6-311+g(d) force
 -------------------------

 -----
 DPGEN
 -----
 Symbolic Z-matrix:
 Charge =  0 Multiplicity = 2

                         Standard orientation:
 ---------------------------------------------------------------------
 Center     Atomic      Atomic             Coordinates (Angstroms)
 Number     Number       Type             X           Y           Z
 ---------------------------------------------------------------------
      1         11           0        3.302671   -0.962238   -0.067016
      2         11           0        1.721086    2.604348   -0.196510
      3         11           0       -2.924506   -0.837728    0.430778
      4         11           0       -0.201618   -0.167924   -1.739413
      5         11           0        0.809394   -0.500412    1.831035
      6         11           0       -2.030715    2.565796    0.139136
      7         11           0       -0.676311   -2.701841   -0.398009
 ---------------------------------------------------------------------

 SCF Done:  E(UB3LYP) =  -1136.12900918     A.U. after   20 cycles

 The electronic state is 2-A.
 Alpha  occ. eigenvalues --  -38.44512 -38.44200 -38.43936 -38.43652 -38.43623
 Alpha  occ. eigenvalues --  -38.43526 -38.43410  -2.20313  -2.19979  -2.19809
 Alpha  occ. eigenvalues --   -2.19516  -2.19474  -2.19437  -2.19363  -1.14011
 Alpha  occ. eigenvalues --   -1.13961  -1.13951  -1.13664  -1.13648  -1.13602
 Alpha  occ. eigenvalues --   -1.13532  -1.13459  -1.13457  -1.13314  -1.13191
 Alpha  occ. eigenvalues --   -1.13156  -1.13143  -1.13112  -1.13102  -1.13094
 Alpha  occ. eigenvalues --   -1.13078  -1.13070  -1.13006  -1.12963  -1.12939
 Alpha  occ. eigenvalues --   -0.18382  -0.13216  -0.12367  -0.10500
 Alpha virt. eigenvalues --   -0.05958  -0.05496  -0.04675  -0.03382  -0.02769
 Alpha virt. eigenvalues --   -0.02333  -0.01724  -0.01204  -0.00619  -0.00430
 Alpha virt. eigenvalues --   -0.00010   0.00322   0.00753   0.00779   0.00853

  Beta  occ. eigenvalues --  -38.44511 -38.44195 -38.43924 -38.43651 -38.43557
  Beta  occ. eigenvalues --  -38.43508 -38.43329  -2.20316  -2.19972  -2.19789
  Beta  occ. eigenvalues --   -2.19446  -2.19436  -2.19394  -2.19219  -1.14001
  Beta  occ. eigenvalues --   -1.13956  -1.13952  -1.13646  -1.13642  -1.13601
  Beta  occ. eigenvalues --   -1.13520  -1.13447  -1.13424  -1.13259  -1.13112
  Beta  occ. eigenvalues --   -1.13106  -1.13097  -1.13075  -1.13072  -1.13069
  Beta  occ. eigenvalues --   -1.13056  -1.13029  -1.12914  -1.12863  -1.12843
  Beta  occ. eigenvalues --   -0.17688  -0.12975  -0.12146
  Beta virt. eigenvalues --   -0.06700  -0.05857  -0.05420  -0.04612  -0.02609
  Beta virt. eigenvalues --   -0.02112  -0.01674  -0.01320  -0.01143  -0.00630
  Beta virt. eigenvalues --   -0.00422   0.00142   0.00376   0.00784   0.00834

 Mulliken charges and spin densities:
               1          2
     1  Na   0.186965  -0.155497
     2  Na  -0.185695  -0.102122
     3  Na  -0.139024   0.101813
     4  Na  -0.068023   0.489959
     5  Na  -0.240980   0.626380
     6  Na  -0.154571  -0.018807
     7  Na   0.601328   0.058274
 Sum of Mulliken charges =  -0.00000   1.00000

 Dipole moment (field-independent basis, Debye):
    X=              0.5985    Y=              0.0380    Z=              0.0624  Tot=              0.6029
 Quadrupole moment (field-independent basis, Debye-Ang):
   XX=            -55.4400   YY=            -63.2760   ZZ=            -75.3308
   XY=              0.3272   XZ=             -2.6417   YZ=              0.6265

 Normal termination of Gaussian 16 at Thu Dec  7 07:12:50 2023.
