 Gaussian 16, Revision B.01,
 Gaussian 16:  ES64L-G16RevB.01 20-Dec-2017

 -------------------------
 #P B3LYP/6-311+g(d) force
 -------------------------

 -----
 DPGEN
 -----
 Symbolic Z-matrix:
 Charge =  0 Multiplicity = 2

                         Standard orientation:
 ---------------------------------------------------------------------
 Center     Atomic      Atomic             Coordinates (Angstroms)
 Number     Number       Type             X           Y           Z
 ---------------------------------------------------------------------
      1         11           0        0.882126    1.635930    1.722700
      2         11           0        0.138818   -0.322055   -0.873798
      3         11           0       -1.889114   -0.529916    1.627096
      4         11           0        3.438397    0.199053   -0.779815
      5         11           0       -0.992739    2.562862   -0.917785
      6         11           0        1.274118   -2.581624    0.297144
      7         11           0       -2.851606   -0.964251   -1.075543
 ---------------------------------------------------------------------

 SCF Done:  E(UB3LYP) =  -1136.11978600     A.U. after   21 cycles

 The electronic state is 2-A.
 Alpha  occ. eigenvalues --  -38.44625 -38.44059 -38.43932 -38.43756 -38.43405
 Alpha  occ. eigenvalues --  -38.43238 -38.42625  -2.20420  -2.19966  -2.19789
 Alpha  occ. eigenvalues --   -2.19700  -2.19263  -2.19120  -2.18825  -1.14103
 Alpha  occ. eigenvalues --   -1.14067  -1.14044  -1.13761  -1.13653  -1.13621
 Alpha  occ. eigenvalues --   -1.13548  -1.13426  -1.13376  -1.13358  -1.13318
 Alpha  occ. eigenvalues --   -1.13282  -1.12995  -1.12911  -1.12877  -1.12810
 Alpha  occ. eigenvalues --   -1.12749  -1.12736  -1.12522  -1.12460  -1.12427
 Alpha  occ. eigenvalues --   -0.18799  -0.13200  -0.11836  -0.11140
 Alpha virt. eigenvalues --   -0.06074  -0.04555  -0.04177  -0.03374  -0.02816
 Alpha virt. eigenvalues --   -0.02424  -0.01878  -0.00873  -0.00590   0.00193
 Alpha virt. eigenvalues --    0.00283   0.00374   0.00545   0.00832   0.00861

  Beta  occ. eigenvalues --  -38.44613 -38.44038 -38.43929 -38.43705 -38.43382
  Beta  occ. eigenvalues --  -38.43191 -38.42591  -2.20398  -2.19929  -2.19785
  Beta  occ. eigenvalues --   -2.19609  -2.19223  -2.19036  -2.18770  -1.14080
  Beta  occ. eigenvalues --   -1.14054  -1.14031  -1.13732  -1.13620  -1.13612
  Beta  occ. eigenvalues --   -1.13517  -1.13411  -1.13355  -1.13312  -1.13247
  Beta  occ. eigenvalues --   -1.13218  -1.12965  -1.12870  -1.12849  -1.12753
  Beta  occ. eigenvalues --   -1.12685  -1.12670  -1.12444  -1.12420  -1.12391
  Beta  occ. eigenvalues --   -0.18033  -0.12991  -0.11664
  Beta virt. eigenvalues --   -0.07142  -0.05957  -0.04432  -0.03806  -0.03039
  Beta virt. eigenvalues --   -0.02236  -0.01779  -0.01469  -0.00804  -0.00234
  Beta virt. eigenvalues --    0.00219   0.00307   0.00418   0.00617   0.00847

 Mulliken charges and spin densities:
               1          2
     1  Na   0.135251   0.294071
     2  Na  -1.264474   0.054560
     3  Na   0.066578   0.209820
     4  Na   0.587098  -0.008280
     5  Na  -0.324054   0.072588
     6  Na   0.090422   0.183469
     7  Na   0.709179   0.193772
 Sum of Mulliken charges =  -0.00000   1.00000

 Dipole moment (field-independent basis, Debye):
    X=              0.4525    Y=              0.0990    Z=              0.0533  Tot=              0.4662
 Quadrupole moment (field-independent basis, Debye-Ang):
   XX=            -54.1580   YY=            -68.2899   ZZ=            -68.3971
   XY=              1.3208   XZ=              0.8542   YZ=             -1.9496

 Normal termination of Gaussian 16 at Thu Dec  7 13:07:22 2023.
