 Gaussian 16, Revision B.01,
 Gaussian 16:  ES64L-G16RevB.01 20-Dec-2017

 -------------------------
 #P B3LYP/6-311+g(d) force
 -------------------------

 -----
 DPGEN
 -----
 Symbolic Z-matrix:
 Charge =  0 Multiplicity = 2

                         Standard orientation:
 ---------------------------------------------------------------------
 Center     Atomic      Atomic             Coordinates (Angstroms)
 Number     Number       Type             X           Y           Z
 ---------------------------------------------------------------------
      1         11           0        2.551455    1.961765    0.027082
      2         11           0       -0.107967   -0.836878   -1.534980
      3         11           0        0.889456   -0.383490    1.795068
      4         11           0        3.268474   -1.664788   -0.768916
      5         11           0       -2.084821   -1.528648    1.233659
      6         11           0       -0.618246    2.151959    0.098307
      7         11           0       -3.898351    0.300079   -0.850220
 ---------------------------------------------------------------------

 SCF Done:  E(UB3LYP) =  -1136.12525152     A.U. after   23 cycles

 The electronic state is 2-A.
 Alpha  occ. eigenvalues --  -38.45029 -38.44657 -38.43931 -38.43730 -38.43692
 Alpha  occ. eigenvalues --  -38.43594 -38.42615  -2.20829  -2.20512  -2.19819
 Alpha  occ. eigenvalues --   -2.19644  -2.19588  -2.19395  -2.18505  -1.14501
 Alpha  occ. eigenvalues --   -1.14478  -1.14451  -1.14228  -1.14186  -1.14102
 Alpha  occ. eigenvalues --   -1.13531  -1.13465  -1.13440  -1.13337  -1.13310
 Alpha  occ. eigenvalues --   -1.13264  -1.13250  -1.13222  -1.13208  -1.13063
 Alpha  occ. eigenvalues --   -1.13051  -1.13027  -1.12217  -1.12181  -1.12108
 Alpha  occ. eigenvalues --   -0.18531  -0.13914  -0.11382  -0.11106
 Alpha virt. eigenvalues --   -0.06937  -0.05137  -0.04440  -0.03160  -0.02713
 Alpha virt. eigenvalues --   -0.02528  -0.02251  -0.01223  -0.00886  -0.00079
 Alpha virt. eigenvalues --    0.00055   0.00229   0.00389   0.00670   0.00705

  Beta  occ. eigenvalues --  -38.45000 -38.44632 -38.43883 -38.43728 -38.43614
  Beta  occ. eigenvalues --  -38.43578 -38.42611  -2.20773  -2.20467  -2.19736
  Beta  occ. eigenvalues --   -2.19585  -2.19507  -2.19365  -2.18501  -1.14461
  Beta  occ. eigenvalues --   -1.14440  -1.14412  -1.14192  -1.14149  -1.14068
  Beta  occ. eigenvalues --   -1.13454  -1.13407  -1.13372  -1.13277  -1.13264
  Beta  occ. eigenvalues --   -1.13242  -1.13208  -1.13153  -1.13134  -1.13037
  Beta  occ. eigenvalues --   -1.13029  -1.13010  -1.12218  -1.12157  -1.12104
  Beta  occ. eigenvalues --   -0.17848  -0.13653  -0.10997
  Beta virt. eigenvalues --   -0.07395  -0.06697  -0.04991  -0.03973  -0.02943
  Beta virt. eigenvalues --   -0.02486  -0.01873  -0.01577  -0.01119  -0.00518
  Beta virt. eigenvalues --   -0.00012   0.00111   0.00274   0.00509   0.00736

 Mulliken charges and spin densities:
               1          2
     1  Na   0.178783   0.039785
     2  Na  -0.545321   0.377534
     3  Na   0.436518   0.259102
     4  Na   0.043829   0.087681
     5  Na  -0.276363   0.060134
     6  Na  -0.650420   0.001694
     7  Na   0.812974   0.174069
 Sum of Mulliken charges =  -0.00000   1.00000

 Dipole moment (field-independent basis, Debye):
    X=             -0.6594    Y=              0.0029    Z=             -0.1622  Tot=              0.6791
 Quadrupole moment (field-independent basis, Debye-Ang):
   XX=            -47.8763   YY=            -76.4635   ZZ=            -69.9493
   XY=              1.3689   XZ=              1.5828   YZ=             -2.0279

 Normal termination of Gaussian 16 at Tue Dec  5 19:28:53 2023.
