 Gaussian 16, Revision B.01,
 Gaussian 16:  ES64L-G16RevB.01 20-Dec-2017

 -------------------------
 #P B3LYP/6-311+g(d) force
 -------------------------

 -----
 DPGEN
 -----
 Symbolic Z-matrix:
 Charge =  0 Multiplicity = 2

                         Standard orientation:
 ---------------------------------------------------------------------
 Center     Atomic      Atomic             Coordinates (Angstroms)
 Number     Number       Type             X           Y           Z
 ---------------------------------------------------------------------
      1         11           0        0.356157    0.075098   -1.633178
      2         11           0        2.983063   -1.301791    0.142112
      3         11           0       -0.907363   -2.580117   -0.379200
      4         11           0       -1.512378    2.476719   -0.039334
      5         11           0       -3.423051   -0.234605   -0.050476
      6         11           0        2.553426    1.742475   -0.123262
      7         11           0       -0.049854   -0.177779    2.083338
 ---------------------------------------------------------------------

 SCF Done:  E(UB3LYP) =  -1136.13069428     A.U. after   21 cycles

 The electronic state is 2-A.
 Alpha  occ. eigenvalues --  -38.44931 -38.44517 -38.43981 -38.43809 -38.43392
 Alpha  occ. eigenvalues --  -38.43062 -38.42807  -2.20738  -2.20365  -2.19858
 Alpha  occ. eigenvalues --   -2.19676  -2.19373  -2.18899  -2.18670  -1.14408
 Alpha  occ. eigenvalues --   -1.14398  -1.14382  -1.14071  -1.14024  -1.13999
 Alpha  occ. eigenvalues --   -1.13562  -1.13507  -1.13484  -1.13347  -1.13303
 Alpha  occ. eigenvalues --   -1.13290  -1.13055  -1.13027  -1.12990  -1.12580
 Alpha  occ. eigenvalues --   -1.12563  -1.12538  -1.12368  -1.12327  -1.12291
 Alpha  occ. eigenvalues --   -0.18611  -0.13707  -0.11745  -0.10740
 Alpha virt. eigenvalues --   -0.06497  -0.05310  -0.03949  -0.03531  -0.02638
 Alpha virt. eigenvalues --   -0.02491  -0.02141  -0.01155  -0.00400  -0.00200
 Alpha virt. eigenvalues --   -0.00061   0.00315   0.00690   0.00753   0.00855

  Beta  occ. eigenvalues --  -38.44932 -38.44512 -38.43975 -38.43713 -38.43327
  Beta  occ. eigenvalues --  -38.43060 -38.42797  -2.20743  -2.20360  -2.19850
  Beta  occ. eigenvalues --   -2.19498  -2.19255  -2.18898  -2.18655  -1.14407
  Beta  occ. eigenvalues --   -1.14393  -1.14387  -1.14072  -1.14002  -1.13989
  Beta  occ. eigenvalues --   -1.13550  -1.13492  -1.13471  -1.13229  -1.13178
  Beta  occ. eigenvalues --   -1.13161  -1.12974  -1.12938  -1.12907  -1.12579
  Beta  occ. eigenvalues --   -1.12545  -1.12538  -1.12354  -1.12298  -1.12282
  Beta  occ. eigenvalues --   -0.17881  -0.13517  -0.11498
  Beta virt. eigenvalues --   -0.06817  -0.06404  -0.05322  -0.03931  -0.02755
  Beta virt. eigenvalues --   -0.02034  -0.01811  -0.01490  -0.01104  -0.00436
  Beta virt. eigenvalues --   -0.00235   0.00102   0.00345   0.00762   0.00851

 Mulliken charges and spin densities:
               1          2
     1  Na  -0.195171   0.420097
     2  Na   0.245455   0.032325
     3  Na   0.127656  -0.047783
     4  Na   0.060674  -0.077800
     5  Na   0.050020  -0.041498
     6  Na   0.248386  -0.021516
     7  Na  -0.537020   0.736176
 Sum of Mulliken charges =  -0.00000   1.00000

 Dipole moment (field-independent basis, Debye):
    X=              0.0655    Y=             -0.1200    Z=              0.2323  Tot=              0.2695
 Quadrupole moment (field-independent basis, Debye-Ang):
   XX=            -49.7558   YY=            -68.7480   ZZ=            -74.7368
   XY=             -0.0925   XZ=              0.6492   YZ=              0.2326

 Normal termination of Gaussian 16 at Thu Dec  7 17:08:48 2023.
