 Gaussian 16, Revision B.01,
 Gaussian 16:  ES64L-G16RevB.01 20-Dec-2017

 -------------------------
 #P B3LYP/6-311+g(d) force
 -------------------------

 -----
 DPGEN
 -----
 Symbolic Z-matrix:
 Charge =  0 Multiplicity = 2

                         Standard orientation:
 ---------------------------------------------------------------------
 Center     Atomic      Atomic             Coordinates (Angstroms)
 Number     Number       Type             X           Y           Z
 ---------------------------------------------------------------------
      1         11           0       -1.902259   -2.392598   -0.321450
      2         11           0       -0.173808    0.005927   -1.359635
      3         11           0        2.981664    1.309780    0.325208
      4         11           0        2.321682   -2.283339   -0.223328
      5         11           0       -3.317084    0.873004    0.459151
      6         11           0       -0.051109    3.172055   -0.345025
      7         11           0        0.140913   -0.684829    1.465080
 ---------------------------------------------------------------------

 SCF Done:  E(UB3LYP) =  -1136.12748350     A.U. after   22 cycles

 The electronic state is 2-A.
 Alpha  occ. eigenvalues --  -38.44367 -38.44210 -38.44146 -38.43978 -38.43516
 Alpha  occ. eigenvalues --  -38.43389 -38.42691  -2.20151  -2.20013  -2.19977
 Alpha  occ. eigenvalues --   -2.19856  -2.19384  -2.19322  -2.18729  -1.13823
 Alpha  occ. eigenvalues --   -1.13797  -1.13790  -1.13695  -1.13679  -1.13668
 Alpha  occ. eigenvalues --   -1.13650  -1.13638  -1.13599  -1.13571  -1.13534
 Alpha  occ. eigenvalues --   -1.13456  -1.13174  -1.13010  -1.13004  -1.12979
 Alpha  occ. eigenvalues --   -1.12965  -1.12955  -1.12449  -1.12342  -1.12317
 Alpha  occ. eigenvalues --   -0.18494  -0.13184  -0.12507  -0.09671
 Alpha virt. eigenvalues --   -0.05984  -0.05689  -0.04970  -0.02898  -0.02498
 Alpha virt. eigenvalues --   -0.01975  -0.01542  -0.01490  -0.00738  -0.00683
 Alpha virt. eigenvalues --    0.00036   0.00294   0.00707   0.00742   0.00787

  Beta  occ. eigenvalues --  -38.44346 -38.44202 -38.44143 -38.43964 -38.43508
  Beta  occ. eigenvalues --  -38.43342 -38.42625  -2.20113  -2.20001  -2.19975
  Beta  occ. eigenvalues --   -2.19835  -2.19309  -2.19300  -2.18612  -1.13788
  Beta  occ. eigenvalues --   -1.13769  -1.13765  -1.13679  -1.13676  -1.13662
  Beta  occ. eigenvalues --   -1.13638  -1.13626  -1.13584  -1.13559  -1.13500
  Beta  occ. eigenvalues --   -1.13430  -1.13105  -1.12992  -1.12964  -1.12948
  Beta  occ. eigenvalues --   -1.12947  -1.12901  -1.12361  -1.12257  -1.12230
  Beta  occ. eigenvalues --   -0.17865  -0.12882  -0.12253
  Beta virt. eigenvalues --   -0.06106  -0.05777  -0.05600  -0.04910  -0.02227
  Beta virt. eigenvalues --   -0.01869  -0.01803  -0.01478  -0.00798  -0.00755
  Beta virt. eigenvalues --   -0.00566   0.00190   0.00373   0.00750   0.00783

 Mulliken charges and spin densities:
               1          2
     1  Na   0.410649   0.121183
     2  Na  -0.124067   0.218655
     3  Na  -0.058649   0.008940
     4  Na   0.236242   0.035370
     5  Na  -0.130138   0.163210
     6  Na  -0.045080   0.003539
     7  Na  -0.288957   0.449103
 Sum of Mulliken charges =  -0.00000   1.00000

 Dipole moment (field-independent basis, Debye):
    X=              0.1090    Y=             -0.2416    Z=             -0.0516  Tot=              0.2701
 Quadrupole moment (field-independent basis, Debye-Ang):
   XX=            -52.5854   YY=            -58.5222   ZZ=            -78.6268
   XY=             -0.6168   XZ=             -0.5831   YZ=              1.8332

 Normal termination of Gaussian 16 at Thu Dec  7 03:32:33 2023.
