 Gaussian 16, Revision B.01,
 Gaussian 16:  ES64L-G16RevB.01 20-Dec-2017

 -------------------------
 #P B3LYP/6-311+g(d) force
 -------------------------

 -----
 DPGEN
 -----
 Symbolic Z-matrix:
 Charge =  0 Multiplicity = 2

                         Standard orientation:
 ---------------------------------------------------------------------
 Center     Atomic      Atomic             Coordinates (Angstroms)
 Number     Number       Type             X           Y           Z
 ---------------------------------------------------------------------
      1         11           0       -4.087311   -1.527838   -0.261222
      2         11           0        0.284280   -1.472993   -0.408858
      3         11           0       -2.724235    1.870581   -0.521294
      4         11           0        2.676119   -0.165017    1.717475
      5         11           0        3.679852   -0.677044   -1.439229
      6         11           0       -0.963183    0.016505    1.290742
      7         11           0        1.134478    1.955806   -0.377614
 ---------------------------------------------------------------------

 SCF Done:  E(UB3LYP) =  -1136.10663161     A.U. after   32 cycles

 The electronic state is 2-A.
 Alpha  occ. eigenvalues --  -38.45343 -38.45166 -38.44240 -38.44022 -38.43872
 Alpha  occ. eigenvalues --  -38.43833 -38.43035  -2.21296  -2.21046  -2.20076
 Alpha  occ. eigenvalues --   -2.19904  -2.19769  -2.19718  -2.18927  -1.15261
 Alpha  occ. eigenvalues --   -1.14916  -1.14830  -1.14720  -1.14694  -1.14679
 Alpha  occ. eigenvalues --   -1.13799  -1.13741  -1.13662  -1.13651  -1.13480
 Alpha  occ. eigenvalues --   -1.13459  -1.13446  -1.13425  -1.13401  -1.13378
 Alpha  occ. eigenvalues --   -1.13356  -1.13342  -1.12631  -1.12608  -1.12518
 Alpha  occ. eigenvalues --   -0.18795  -0.14362  -0.11085  -0.10802
 Alpha virt. eigenvalues --   -0.07149  -0.05595  -0.04505  -0.03063  -0.02929
 Alpha virt. eigenvalues --   -0.02165  -0.02004  -0.01446  -0.01095  -0.00212
 Alpha virt. eigenvalues --   -0.00052   0.00247   0.00369   0.00502   0.00545

  Beta  occ. eigenvalues --  -38.45290 -38.45139 -38.44210 -38.44053 -38.43811
  Beta  occ. eigenvalues --  -38.43781 -38.43022  -2.21206  -2.21002  -2.20018
  Beta  occ. eigenvalues --   -2.19829  -2.19817  -2.19604  -2.18904  -1.15169
  Beta  occ. eigenvalues --   -1.14838  -1.14776  -1.14683  -1.14659  -1.14622
  Beta  occ. eigenvalues --   -1.13757  -1.13701  -1.13631  -1.13586  -1.13501
  Beta  occ. eigenvalues --   -1.13480  -1.13448  -1.13398  -1.13347  -1.13301
  Beta  occ. eigenvalues --   -1.13272  -1.13268  -1.12622  -1.12572  -1.12504
  Beta  occ. eigenvalues --   -0.18019  -0.14127  -0.10610
  Beta virt. eigenvalues --   -0.07313  -0.06860  -0.05371  -0.03991  -0.02911
  Beta virt. eigenvalues --   -0.02723  -0.01661  -0.01477  -0.01083  -0.00712
  Beta virt. eigenvalues --   -0.00147  -0.00029   0.00296   0.00465   0.00527

 Mulliken charges and spin densities:
               1          2
     1  Na   0.368489  -0.179005
     2  Na  -1.011800   0.291482
     3  Na   0.056424   0.165777
     4  Na   0.655926  -0.012645
     5  Na   0.570988   0.299142
     6  Na  -0.006771   0.150356
     7  Na  -0.633256   0.284894
 Sum of Mulliken charges =  -0.00000   1.00000

 Dipole moment (field-independent basis, Debye):
    X=              0.4575    Y=              0.4404    Z=              0.4736  Tot=              0.7922
 Quadrupole moment (field-independent basis, Debye-Ang):
   XX=            -54.5240   YY=            -75.7078   ZZ=            -66.5808
   XY=             -0.4569   XZ=              4.9281   YZ=             -0.4798

 Normal termination of Gaussian 16 at Thu Dec  7 12:44:29 2023.
