 Gaussian 16, Revision B.01,
 Gaussian 16:  ES64L-G16RevB.01 20-Dec-2017

 -------------------------
 #P B3LYP/6-311+g(d) force
 -------------------------

 -----
 DPGEN
 -----
 Symbolic Z-matrix:
 Charge =  0 Multiplicity = 2

                         Standard orientation:
 ---------------------------------------------------------------------
 Center     Atomic      Atomic             Coordinates (Angstroms)
 Number     Number       Type             X           Y           Z
 ---------------------------------------------------------------------
      1         11           0        1.265133   -1.496155    1.975960
      2         11           0        2.386144    2.093342   -0.463923
      3         11           0       -0.370327   -0.125775   -0.882792
      4         11           0       -1.234249    2.732490   -0.432249
      5         11           0       -2.955849   -1.943787   -1.422189
      6         11           0        2.857800   -1.659696   -0.846694
      7         11           0       -1.948652    0.399582    2.071886
 ---------------------------------------------------------------------

 SCF Done:  E(UB3LYP) =  -1136.12362860     A.U. after   24 cycles

 The electronic state is 2-A.
 Alpha  occ. eigenvalues --  -38.44442 -38.44193 -38.44022 -38.43989 -38.43889
 Alpha  occ. eigenvalues --  -38.43438 -38.42874  -2.20245  -2.20027  -2.19843
 Alpha  occ. eigenvalues --   -2.19822  -2.19668  -2.19294  -2.18900  -1.13915
 Alpha  occ. eigenvalues --   -1.13873  -1.13852  -1.13703  -1.13663  -1.13652
 Alpha  occ. eigenvalues --   -1.13550  -1.13518  -1.13491  -1.13474  -1.13466
 Alpha  occ. eigenvalues --   -1.13409  -1.13357  -1.13338  -1.13289  -1.13047
 Alpha  occ. eigenvalues --   -1.12949  -1.12891  -1.12605  -1.12557  -1.12516
 Alpha  occ. eigenvalues --   -0.17801  -0.13055  -0.11796  -0.11445
 Alpha virt. eigenvalues --   -0.05736  -0.05264  -0.04817  -0.03229  -0.02828
 Alpha virt. eigenvalues --   -0.02574  -0.01641  -0.01246  -0.00669  -0.00130
 Alpha virt. eigenvalues --    0.00002   0.00252   0.00465   0.00593   0.00757

  Beta  occ. eigenvalues --  -38.44362 -38.44137 -38.44021 -38.43946 -38.43898
  Beta  occ. eigenvalues --  -38.43433 -38.42849  -2.20099  -2.19923  -2.19841
  Beta  occ. eigenvalues --   -2.19743  -2.19684  -2.19286  -2.18858  -1.13808
  Beta  occ. eigenvalues --   -1.13774  -1.13758  -1.13632  -1.13586  -1.13576
  Beta  occ. eigenvalues --   -1.13535  -1.13511  -1.13475  -1.13433  -1.13421
  Beta  occ. eigenvalues --   -1.13364  -1.13358  -1.13348  -1.13303  -1.13041
  Beta  occ. eigenvalues --   -1.12930  -1.12891  -1.12541  -1.12535  -1.12487
  Beta  occ. eigenvalues --   -0.17223  -0.12825  -0.11434
  Beta virt. eigenvalues --   -0.07631  -0.05529  -0.04985  -0.04437  -0.02986
  Beta virt. eigenvalues --   -0.02373  -0.01940  -0.01389  -0.01079  -0.00384
  Beta virt. eigenvalues --    0.00007   0.00133   0.00314   0.00605   0.00673

 Mulliken charges and spin densities:
               1          2
     1  Na  -0.374240   0.267747
     2  Na   1.127884  -0.052301
     3  Na  -1.945130  -0.111633
     4  Na   0.014563   0.188620
     5  Na   0.213873   0.382575
     6  Na   0.747865   0.039290
     7  Na   0.215185   0.285703
 Sum of Mulliken charges =  -0.00000   1.00000

 Dipole moment (field-independent basis, Debye):
    X=              0.1820    Y=             -0.1357    Z=              0.3387  Tot=              0.4077
 Quadrupole moment (field-independent basis, Debye-Ang):
   XX=            -57.5445   YY=            -67.5914   ZZ=            -67.9479
   XY=             -1.3086   XZ=             -1.3920   YZ=              3.0421

 Normal termination of Gaussian 16 at Tue Nov 28 21:17:08 2023.
