 Gaussian 16, Revision B.01,
 Gaussian 16:  ES64L-G16RevB.01 20-Dec-2017

 -------------------------
 #P B3LYP/6-311+g(d) force
 -------------------------

 -----
 DPGEN
 -----
 Symbolic Z-matrix:
 Charge =  0 Multiplicity = 2

                         Standard orientation:
 ---------------------------------------------------------------------
 Center     Atomic      Atomic             Coordinates (Angstroms)
 Number     Number       Type             X           Y           Z
 ---------------------------------------------------------------------
      1         11           0       -1.069488    0.321428    1.234952
      2         11           0        2.394864    0.829934    0.828176
      3         11           0        0.599274   -2.642169   -0.079263
      4         11           0       -3.639014    1.037248   -0.592798
      5         11           0       -3.143580   -2.049281   -0.205083
      6         11           0        4.905453   -0.526765   -0.701265
      7         11           0       -0.047508    3.029603   -0.484718
 ---------------------------------------------------------------------

 SCF Done:  E(UB3LYP) =  -1136.12434474     A.U. after   19 cycles

 The electronic state is 2-A.
 Alpha  occ. eigenvalues --  -38.44221 -38.44114 -38.44081 -38.43951 -38.43871
 Alpha  occ. eigenvalues --  -38.43781 -38.43541  -2.20036  -2.19951  -2.19888
 Alpha  occ. eigenvalues --   -2.19808  -2.19793  -2.19581  -2.19391  -1.13688
 Alpha  occ. eigenvalues --   -1.13670  -1.13668  -1.13649  -1.13617  -1.13582
 Alpha  occ. eigenvalues --   -1.13568  -1.13557  -1.13503  -1.13497  -1.13477
 Alpha  occ. eigenvalues --   -1.13464  -1.13450  -1.13413  -1.13401  -1.13256
 Alpha  occ. eigenvalues --   -1.13232  -1.13221  -1.13091  -1.13064  -1.13018
 Alpha  occ. eigenvalues --   -0.17338  -0.14080  -0.12093  -0.10934
 Alpha virt. eigenvalues --   -0.05955  -0.05552  -0.04635  -0.03730  -0.02452
 Alpha virt. eigenvalues --   -0.02314  -0.01767  -0.01536  -0.00981  -0.00593
 Alpha virt. eigenvalues --   -0.00302   0.00118   0.00487   0.00547   0.00588

  Beta  occ. eigenvalues --  -38.44121 -38.44080 -38.44029 -38.43943 -38.43847
  Beta  occ. eigenvalues --  -38.43782 -38.43534  -2.19855  -2.19851  -2.19827
  Beta  occ. eigenvalues --   -2.19783  -2.19768  -2.19585  -2.19386  -1.13619
  Beta  occ. eigenvalues --   -1.13562  -1.13554  -1.13542  -1.13527  -1.13527
  Beta  occ. eigenvalues --   -1.13519  -1.13509  -1.13474  -1.13468  -1.13459
  Beta  occ. eigenvalues --   -1.13437  -1.13412  -1.13385  -1.13362  -1.13259
  Beta  occ. eigenvalues --   -1.13229  -1.13225  -1.13085  -1.13052  -1.12984
  Beta  occ. eigenvalues --   -0.16837  -0.13222  -0.11785
  Beta virt. eigenvalues --   -0.07472  -0.05815  -0.05482  -0.03978  -0.03543
  Beta virt. eigenvalues --   -0.02132  -0.01999  -0.01438  -0.01007  -0.00854
  Beta virt. eigenvalues --   -0.00531  -0.00105   0.00354   0.00559   0.00607

 Mulliken charges and spin densities:
               1          2
     1  Na   0.338544  -0.038203
     2  Na  -0.423164   0.041020
     3  Na  -0.223045   0.099134
     4  Na   0.021302   0.368925
     5  Na   0.121280   0.078806
     6  Na   0.249281   0.483251
     7  Na  -0.084198  -0.032932
 Sum of Mulliken charges =  -0.00000   1.00000

 Dipole moment (field-independent basis, Debye):
    X=             -0.6876    Y=             -0.0740    Z=             -0.6821  Tot=              0.9714
 Quadrupole moment (field-independent basis, Debye-Ang):
   XX=            -66.2906   YY=            -65.1715   ZZ=            -67.6677
   XY=             -0.1724   XZ=             -0.6542   YZ=             -0.2829

 Normal termination of Gaussian 16 at Wed Nov 29 00:19:16 2023.
