 Gaussian 16, Revision B.01,
 Gaussian 16:  ES64L-G16RevB.01 20-Dec-2017

 -------------------------
 #P B3LYP/6-311+g(d) force
 -------------------------

 -----
 DPGEN
 -----
 Symbolic Z-matrix:
 Charge =  0 Multiplicity = 2

                         Standard orientation:
 ---------------------------------------------------------------------
 Center     Atomic      Atomic             Coordinates (Angstroms)
 Number     Number       Type             X           Y           Z
 ---------------------------------------------------------------------
      1         11           0        0.009931    0.093939   -1.628310
      2         11           0        3.100339    0.662849   -0.584125
      3         11           0        1.635546   -2.568990    0.547968
      4         11           0       -0.097588    3.049407    0.013705
      5         11           0        0.090827    0.204637    2.065339
      6         11           0       -2.684957    0.851184    0.169455
      7         11           0       -2.054098   -2.293027   -0.584031
 ---------------------------------------------------------------------

 SCF Done:  E(UB3LYP) =  -1136.13786991     A.U. after   19 cycles

 The electronic state is 2-A.
 Alpha  occ. eigenvalues --  -38.43953 -38.43826 -38.43806 -38.43522 -38.43436
 Alpha  occ. eigenvalues --  -38.43374 -38.43237  -2.19761  -2.19718  -2.19610
 Alpha  occ. eigenvalues --   -2.19371  -2.19341  -2.19219  -2.19217  -1.13456
 Alpha  occ. eigenvalues --   -1.13411  -1.13390  -1.13389  -1.13353  -1.13348
 Alpha  occ. eigenvalues --   -1.13280  -1.13262  -1.13241  -1.13079  -1.13044
 Alpha  occ. eigenvalues --   -1.13036  -1.13018  -1.13012  -1.12959  -1.12924
 Alpha  occ. eigenvalues --   -1.12890  -1.12860  -1.12846  -1.12840  -1.12816
 Alpha  occ. eigenvalues --   -0.18579  -0.12816  -0.12476  -0.11031
 Alpha virt. eigenvalues --   -0.05400  -0.05018  -0.04833  -0.03249  -0.03004
 Alpha virt. eigenvalues --   -0.02700  -0.01344  -0.01248  -0.00407  -0.00154
 Alpha virt. eigenvalues --    0.00006   0.00353   0.00833   0.00876   0.00891

  Beta  occ. eigenvalues --  -38.43940 -38.43793 -38.43734 -38.43520 -38.43429
  Beta  occ. eigenvalues --  -38.43365 -38.43176  -2.19738  -2.19589  -2.19548
  Beta  occ. eigenvalues --   -2.19370  -2.19333  -2.19203  -2.19107  -1.13429
  Beta  occ. eigenvalues --   -1.13394  -1.13373  -1.13287  -1.13267  -1.13245
  Beta  occ. eigenvalues --   -1.13238  -1.13230  -1.13199  -1.13074  -1.13035
  Beta  occ. eigenvalues --   -1.13026  -1.13008  -1.12983  -1.12950  -1.12893
  Beta  occ. eigenvalues --   -1.12850  -1.12831  -1.12816  -1.12770  -1.12743
  Beta  occ. eigenvalues --   -0.17863  -0.12544  -0.12210
  Beta virt. eigenvalues --   -0.07157  -0.05330  -0.04917  -0.04809  -0.02489
  Beta virt. eigenvalues --   -0.02310  -0.01679  -0.01233  -0.01160  -0.00384
  Beta virt. eigenvalues --   -0.00191   0.00115   0.00384   0.00852   0.00893

 Mulliken charges and spin densities:
               1          2
     1  Na  -0.148695   0.406787
     2  Na   0.007573  -0.040041
     3  Na  -0.017015   0.057552
     4  Na   0.061202  -0.070266
     5  Na  -0.289465   0.576008
     6  Na   0.287673   0.063009
     7  Na   0.098727   0.006951
 Sum of Mulliken charges =  -0.00000   1.00000

 Dipole moment (field-independent basis, Debye):
    X=              0.2851    Y=              0.0924    Z=              0.1749  Tot=              0.3470
 Quadrupole moment (field-independent basis, Debye-Ang):
   XX=            -60.2847   YY=            -60.4568   ZZ=            -73.0178
   XY=              0.1890   XZ=             -0.3617   YZ=             -0.2311

 Normal termination of Gaussian 16 at Thu Dec  7 18:54:47 2023.
