 Gaussian 16, Revision B.01,
 Gaussian 16:  ES64L-G16RevB.01 20-Dec-2017

 -------------------------
 #P B3LYP/6-311+g(d) force
 -------------------------

 -----
 DPGEN
 -----
 Symbolic Z-matrix:
 Charge =  0 Multiplicity = 2

                         Standard orientation:
 ---------------------------------------------------------------------
 Center     Atomic      Atomic             Coordinates (Angstroms)
 Number     Number       Type             X           Y           Z
 ---------------------------------------------------------------------
      1         11           0       -1.571296   -2.296931   -0.594558
      2         11           0        0.026415    0.052902    2.113841
      3         11           0        1.688510   -2.260087    0.468639
      4         11           0        3.303664    0.742769   -0.445484
      5         11           0       -0.270967    3.157036    0.054314
      6         11           0        0.067604    0.171390   -1.653213
      7         11           0       -3.243930    0.432922    0.056460
 ---------------------------------------------------------------------

 SCF Done:  E(UB3LYP) =  -1136.13386869     A.U. after   20 cycles

 The electronic state is 2-A.
 Alpha  occ. eigenvalues --  -38.44474 -38.44389 -38.43866 -38.43625 -38.43413
 Alpha  occ. eigenvalues --  -38.43267 -38.43113  -2.20259  -2.20194  -2.19740
 Alpha  occ. eigenvalues --   -2.19408  -2.19363  -2.19143  -2.19012  -1.13937
 Alpha  occ. eigenvalues --   -1.13908  -1.13897  -1.13869  -1.13864  -1.13827
 Alpha  occ. eigenvalues --   -1.13412  -1.13365  -1.13360  -1.13102  -1.13078
 Alpha  occ. eigenvalues --   -1.13068  -1.13040  -1.13010  -1.12978  -1.12831
 Alpha  occ. eigenvalues --   -1.12802  -1.12776  -1.12695  -1.12656  -1.12633
 Alpha  occ. eigenvalues --   -0.18402  -0.12924  -0.12190  -0.10957
 Alpha virt. eigenvalues --   -0.06137  -0.04851  -0.04550  -0.03258  -0.02950
 Alpha virt. eigenvalues --   -0.02726  -0.01831  -0.01055  -0.00470  -0.00257
 Alpha virt. eigenvalues --   -0.00003   0.00336   0.00789   0.00802   0.00836

  Beta  occ. eigenvalues --  -38.44463 -38.44388 -38.43767 -38.43625 -38.43355
  Beta  occ. eigenvalues --  -38.43253 -38.43099  -2.20241  -2.20196  -2.19559
  Beta  occ. eigenvalues --   -2.19412  -2.19256  -2.19123  -2.18990  -1.13912
  Beta  occ. eigenvalues --   -1.13896  -1.13887  -1.13873  -1.13850  -1.13827
  Beta  occ. eigenvalues --   -1.13291  -1.13239  -1.13229  -1.13094  -1.13072
  Beta  occ. eigenvalues --   -1.13042  -1.12997  -1.12935  -1.12904  -1.12811
  Beta  occ. eigenvalues --   -1.12777  -1.12754  -1.12670  -1.12639  -1.12608
  Beta  occ. eigenvalues --   -0.17672  -0.12684  -0.11957
  Beta virt. eigenvalues --   -0.07046  -0.06096  -0.04755  -0.04531  -0.02524
  Beta virt. eigenvalues --   -0.02206  -0.01732  -0.01698  -0.00963  -0.00509
  Beta virt. eigenvalues --   -0.00233   0.00103   0.00369   0.00799   0.00863

 Mulliken charges and spin densities:
               1          2
     1  Na   0.221131   0.057806
     2  Na  -0.294196   0.617708
     3  Na   0.222434   0.132728
     4  Na  -0.004204  -0.049288
     5  Na  -0.134664  -0.090393
     6  Na  -0.030874   0.370368
     7  Na   0.020374  -0.038929
 Sum of Mulliken charges =  -0.00000   1.00000

 Dipole moment (field-independent basis, Debye):
    X=              0.0621    Y=              0.3674    Z=              0.1502  Tot=              0.4017
 Quadrupole moment (field-independent basis, Debye-Ang):
   XX=            -55.1700   YY=            -64.6808   ZZ=            -73.5588
   XY=             -0.0736   XZ=             -0.5715   YZ=              0.2428

 Normal termination of Gaussian 16 at Fri Dec  8 03:15:51 2023.
