 Gaussian 16, Revision B.01,
 Gaussian 16:  ES64L-G16RevB.01 20-Dec-2017

 -------------------------
 #P B3LYP/6-311+g(d) force
 -------------------------

 -----
 DPGEN
 -----
 Symbolic Z-matrix:
 Charge =  0 Multiplicity = 2

                         Standard orientation:
 ---------------------------------------------------------------------
 Center     Atomic      Atomic             Coordinates (Angstroms)
 Number     Number       Type             X           Y           Z
 ---------------------------------------------------------------------
      1         11           0       -2.438366   -2.336885    0.437175
      2         11           0        4.001371   -0.269340    0.234869
      3         11           0        0.755846   -1.590022   -0.866066
      4         11           0       -1.936569    2.462906    1.126921
      5         11           0        0.646086   -0.387237    1.620506
      6         11           0       -2.257297    0.288250   -1.449744
      7         11           0        1.228929    1.832328   -1.103661
 ---------------------------------------------------------------------

 SCF Done:  E(UB3LYP) =  -1136.12565029     A.U. after   21 cycles

 The electronic state is 2-A.
 Alpha  occ. eigenvalues --  -38.45195 -38.43987 -38.43717 -38.43691 -38.43666
 Alpha  occ. eigenvalues --  -38.43541 -38.43228  -2.20974  -2.19931  -2.19677
 Alpha  occ. eigenvalues --   -2.19570  -2.19506  -2.19366  -2.19032  -1.14650
 Alpha  occ. eigenvalues --   -1.14639  -1.14595  -1.13882  -1.13548  -1.13496
 Alpha  occ. eigenvalues --   -1.13349  -1.13308  -1.13260  -1.13248  -1.13223
 Alpha  occ. eigenvalues --   -1.13197  -1.13195  -1.13176  -1.13095  -1.13030
 Alpha  occ. eigenvalues --   -1.13019  -1.12995  -1.12701  -1.12687  -1.12658
 Alpha  occ. eigenvalues --   -0.18399  -0.13513  -0.11632  -0.10599
 Alpha virt. eigenvalues --   -0.06605  -0.05073  -0.04309  -0.03193  -0.02716
 Alpha virt. eigenvalues --   -0.02487  -0.02186  -0.01151  -0.00611  -0.00032
 Alpha virt. eigenvalues --    0.00152   0.00207   0.00513   0.00686   0.00779

  Beta  occ. eigenvalues --  -38.45196 -38.43924 -38.43692 -38.43662 -38.43635
  Beta  occ. eigenvalues --  -38.43541 -38.43201  -2.20978  -2.19817  -2.19636
  Beta  occ. eigenvalues --   -2.19518  -2.19451  -2.19368  -2.18982  -1.14650
  Beta  occ. eigenvalues --   -1.14633  -1.14599  -1.13813  -1.13466  -1.13413
  Beta  occ. eigenvalues --   -1.13312  -1.13237  -1.13224  -1.13205  -1.13189
  Beta  occ. eigenvalues --   -1.13164  -1.13162  -1.13115  -1.13061  -1.13030
  Beta  occ. eigenvalues --   -1.13005  -1.12997  -1.12668  -1.12642  -1.12626
  Beta  occ. eigenvalues --   -0.17673  -0.13347  -0.11411
  Beta virt. eigenvalues --   -0.06774  -0.06490  -0.04979  -0.03917  -0.02837
  Beta virt. eigenvalues --   -0.02394  -0.02149  -0.01345  -0.01006  -0.00257
  Beta virt. eigenvalues --   -0.00026   0.00171   0.00253   0.00653   0.00726

 Mulliken charges and spin densities:
               1          2
     1  Na   0.186982  -0.108565
     2  Na   0.584307  -0.003534
     3  Na   0.002914   0.367612
     4  Na  -0.153652   0.020278
     5  Na  -0.483693   0.480832
     6  Na   0.186693   0.170145
     7  Na  -0.323551   0.073232
 Sum of Mulliken charges =  -0.00000   1.00000

 Dipole moment (field-independent basis, Debye):
    X=              1.2399    Y=             -0.1717    Z=              0.0274  Tot=              1.2520
 Quadrupole moment (field-independent basis, Debye-Ang):
   XX=            -46.9699   YY=            -71.7494   ZZ=            -71.8965
   XY=              1.4210   XZ=             -0.5380   YZ=             -0.1629

 Normal termination of Gaussian 16 at Fri Dec  8 04:10:24 2023.
