 Gaussian 16, Revision B.01,
 Gaussian 16:  ES64L-G16RevB.01 20-Dec-2017

 -------------------------
 #P B3LYP/6-311+g(d) force
 -------------------------

 -----
 DPGEN
 -----
 Symbolic Z-matrix:
 Charge =  0 Multiplicity = 2

                         Standard orientation:
 ---------------------------------------------------------------------
 Center     Atomic      Atomic             Coordinates (Angstroms)
 Number     Number       Type             X           Y           Z
 ---------------------------------------------------------------------
      1         11           0       -1.262973   -1.140937    1.756621
      2         11           0        3.981634    0.643773   -1.097770
      3         11           0        0.406831    2.126283    0.133888
      4         11           0       -3.189273    1.771149    0.228196
      5         11           0       -3.102317   -1.236282   -1.225321
      6         11           0        0.690587   -1.289148   -1.655810
      7         11           0        2.475511   -0.874839    1.860197
 ---------------------------------------------------------------------

 SCF Done:  E(UB3LYP) =  -1136.11830210     A.U. after   29 cycles

 The electronic state is 2-A.
 Alpha  occ. eigenvalues --  -38.45162 -38.44926 -38.44387 -38.44345 -38.44307
 Alpha  occ. eigenvalues --  -38.43745 -38.43338  -2.20941  -2.20723  -2.20206
 Alpha  occ. eigenvalues --   -2.20139  -2.20124  -2.19504  -2.19158  -1.14609
 Alpha  occ. eigenvalues --   -1.14589  -1.14559  -1.14392  -1.14375  -1.14346
 Alpha  occ. eigenvalues --   -1.13893  -1.13856  -1.13843  -1.13838  -1.13796
 Alpha  occ. eigenvalues --   -1.13794  -1.13780  -1.13759  -1.13728  -1.13226
 Alpha  occ. eigenvalues --   -1.13205  -1.13106  -1.12837  -1.12810  -1.12789
 Alpha  occ. eigenvalues --   -0.17589  -0.14110  -0.11491  -0.10608
 Alpha virt. eigenvalues --   -0.07094  -0.05598  -0.05068  -0.03262  -0.02810
 Alpha virt. eigenvalues --   -0.02496  -0.02237  -0.01450  -0.01204  -0.00398
 Alpha virt. eigenvalues --    0.00059   0.00132   0.00226   0.00273   0.00590

  Beta  occ. eigenvalues --  -38.45121 -38.44877 -38.44346 -38.44294 -38.44293
  Beta  occ. eigenvalues --  -38.43771 -38.43326  -2.20864  -2.20635  -2.20132
  Beta  occ. eigenvalues --   -2.20099  -2.20044  -2.19553  -2.19135  -1.14553
  Beta  occ. eigenvalues --   -1.14535  -1.14511  -1.14327  -1.14314  -1.14270
  Beta  occ. eigenvalues --   -1.13846  -1.13806  -1.13787  -1.13780  -1.13773
  Beta  occ. eigenvalues --   -1.13745  -1.13731  -1.13724  -1.13658  -1.13258
  Beta  occ. eigenvalues --   -1.13224  -1.13145  -1.12814  -1.12798  -1.12781
  Beta  occ. eigenvalues --   -0.16972  -0.13812  -0.10510
  Beta virt. eigenvalues --   -0.07677  -0.06867  -0.05134  -0.04753  -0.02925
  Beta virt. eigenvalues --   -0.02568  -0.02031  -0.01730  -0.01105  -0.00943
  Beta virt. eigenvalues --   -0.00226   0.00095   0.00259   0.00292   0.00394

 Mulliken charges and spin densities:
               1          2
     1  Na  -0.228195   0.258865
     2  Na   0.491456   0.280720
     3  Na  -0.500735  -0.086178
     4  Na   0.134270   0.001704
     5  Na   0.396794   0.064822
     6  Na  -0.417680   0.327693
     7  Na   0.124090   0.152376
 Sum of Mulliken charges =  -0.00000   1.00000

 Dipole moment (field-independent basis, Debye):
    X=              1.1086    Y=             -0.5509    Z=             -0.0057  Tot=              1.2380
 Quadrupole moment (field-independent basis, Debye-Ang):
   XX=            -46.9784   YY=            -81.4855   ZZ=            -67.2604
   XY=              1.8488   XZ=              0.8146   YZ=             -2.4109

 Normal termination of Gaussian 16 at Sun Dec  3 17:44:01 2023.
