 Gaussian 16, Revision B.01,
 Gaussian 16:  ES64L-G16RevB.01 20-Dec-2017

 -------------------------
 #P B3LYP/6-311+g(d) force
 -------------------------

 -----
 DPGEN
 -----
 Symbolic Z-matrix:
 Charge =  0 Multiplicity = 2

                         Standard orientation:
 ---------------------------------------------------------------------
 Center     Atomic      Atomic             Coordinates (Angstroms)
 Number     Number       Type             X           Y           Z
 ---------------------------------------------------------------------
      1         11           0       -0.316941    0.109438    1.815018
      2         11           0        4.274957   -0.548946    0.239384
      3         11           0        1.480768   -1.583320   -0.601428
      4         11           0       -1.738516   -1.582720   -0.724450
      5         11           0       -1.213180    1.857032   -0.921493
      6         11           0       -4.193253   -0.210869    0.383795
      7         11           0        1.706166    1.959386   -0.190827
 ---------------------------------------------------------------------

 SCF Done:  E(UB3LYP) =  -1136.11575490     A.U. after   33 cycles

 The electronic state is 2-A.
 Alpha  occ. eigenvalues --  -38.46368 -38.43939 -38.43677 -38.43600 -38.43385
 Alpha  occ. eigenvalues --  -38.43156 -38.42925  -2.22248  -2.19806  -2.19577
 Alpha  occ. eigenvalues --   -2.19457  -2.19357  -2.19071  -2.18873  -1.15924
 Alpha  occ. eigenvalues --   -1.15891  -1.15867  -1.13508  -1.13438  -1.13420
 Alpha  occ. eigenvalues --   -1.13294  -1.13257  -1.13221  -1.13134  -1.13091
 Alpha  occ. eigenvalues --   -1.13082  -1.13039  -1.13011  -1.12984  -1.12765
 Alpha  occ. eigenvalues --   -1.12750  -1.12668  -1.12545  -1.12538  -1.12500
 Alpha  occ. eigenvalues --   -0.18889  -0.14457  -0.11680  -0.10669
 Alpha virt. eigenvalues --   -0.07597  -0.04959  -0.04099  -0.03349  -0.03258
 Alpha virt. eigenvalues --   -0.02146  -0.01666  -0.01524  -0.01187  -0.00449
 Alpha virt. eigenvalues --   -0.00103   0.00184   0.00397   0.00702   0.00771

  Beta  occ. eigenvalues --  -38.46336 -38.43864 -38.43700 -38.43533 -38.43349
  Beta  occ. eigenvalues --  -38.43159 -38.42889  -2.22193  -2.19666  -2.19620
  Beta  occ. eigenvalues --   -2.19331  -2.19299  -2.19079  -2.18817  -1.15874
  Beta  occ. eigenvalues --   -1.15865  -1.15821  -1.13417  -1.13343  -1.13325
  Beta  occ. eigenvalues --   -1.13308  -1.13275  -1.13262  -1.13055  -1.13005
  Beta  occ. eigenvalues --   -1.12995  -1.12994  -1.12972  -1.12899  -1.12775
  Beta  occ. eigenvalues --   -1.12746  -1.12669  -1.12517  -1.12488  -1.12419
  Beta  occ. eigenvalues --   -0.18308  -0.13731  -0.11432
  Beta virt. eigenvalues --   -0.07514  -0.07033  -0.04686  -0.03439  -0.03254
  Beta virt. eigenvalues --   -0.02993  -0.02011  -0.01582  -0.00975  -0.00623
  Beta virt. eigenvalues --   -0.00137   0.00040   0.00306   0.00534   0.00793

 Mulliken charges and spin densities:
               1          2
     1  Na  -0.099463  -0.089680
     2  Na   0.812684   0.544655
     3  Na  -0.880869   0.017520
     4  Na  -0.479760  -0.119700
     5  Na  -0.077956  -0.089325
     6  Na   0.791035   0.574767
     7  Na  -0.065671   0.161762
 Sum of Mulliken charges =  -0.00000   1.00000

 Dipole moment (field-independent basis, Debye):
    X=             -0.4459    Y=              0.2915    Z=              1.1145  Tot=              1.2353
 Quadrupole moment (field-independent basis, Debye-Ang):
   XX=            -68.9445   YY=            -77.9605   ZZ=            -59.4959
   XY=              0.3027   XZ=              0.3200   YZ=             -0.4070

 Normal termination of Gaussian 16 at Tue Dec  5 16:08:00 2023.
