 Gaussian 16, Revision B.01,
 Gaussian 16:  ES64L-G16RevB.01 20-Dec-2017

 -------------------------
 #P B3LYP/6-311+g(d) force
 -------------------------

 -----
 DPGEN
 -----
 Symbolic Z-matrix:
 Charge =  0 Multiplicity = 2

                         Standard orientation:
 ---------------------------------------------------------------------
 Center     Atomic      Atomic             Coordinates (Angstroms)
 Number     Number       Type             X           Y           Z
 ---------------------------------------------------------------------
      1         11           0        2.496513   -1.943536    0.536496
      2         11           0       -0.260910   -0.967136    2.145730
      3         11           0       -1.117665    2.227159    1.310368
      4         11           0       -2.602604   -1.955492   -0.418615
      5         11           0        1.090265   -0.530146   -2.149108
      6         11           0       -1.885909    1.115897   -1.245201
      7         11           0        2.280310    2.053254   -0.179670
 ---------------------------------------------------------------------

 SCF Done:  E(UB3LYP) =  -1136.12318579     A.U. after   22 cycles

 The electronic state is 2-A.
 Alpha  occ. eigenvalues --  -38.44515 -38.44263 -38.44128 -38.43947 -38.43900
 Alpha  occ. eigenvalues --  -38.43782 -38.43664  -2.20367  -2.20120  -2.19905
 Alpha  occ. eigenvalues --   -2.19818  -2.19745  -2.19597  -2.19552  -1.14036
 Alpha  occ. eigenvalues --   -1.14014  -1.13990  -1.13781  -1.13772  -1.13745
 Alpha  occ. eigenvalues --   -1.13625  -1.13592  -1.13568  -1.13531  -1.13496
 Alpha  occ. eigenvalues --   -1.13462  -1.13401  -1.13387  -1.13363  -1.13279
 Alpha  occ. eigenvalues --   -1.13260  -1.13221  -1.13207  -1.13178  -1.13136
 Alpha  occ. eigenvalues --   -0.18149  -0.12829  -0.12181  -0.11799
 Alpha virt. eigenvalues --   -0.05693  -0.05163  -0.04415  -0.03601  -0.03522
 Alpha virt. eigenvalues --   -0.03277  -0.01343  -0.00886  -0.00417   0.00130
 Alpha virt. eigenvalues --    0.00268   0.00394   0.00474   0.00591   0.00711

  Beta  occ. eigenvalues --  -38.44453 -38.44188 -38.44128 -38.43942 -38.43874
  Beta  occ. eigenvalues --  -38.43775 -38.43632  -2.20253  -2.19983  -2.19906
  Beta  occ. eigenvalues --   -2.19773  -2.19737  -2.19587  -2.19494  -1.13958
  Beta  occ. eigenvalues --   -1.13936  -1.13907  -1.13689  -1.13668  -1.13652
  Beta  occ. eigenvalues --   -1.13581  -1.13578  -1.13570  -1.13534  -1.13471
  Beta  occ. eigenvalues --   -1.13430  -1.13386  -1.13383  -1.13346  -1.13257
  Beta  occ. eigenvalues --   -1.13254  -1.13214  -1.13154  -1.13140  -1.13098
  Beta  occ. eigenvalues --   -0.17340  -0.12652  -0.11611
  Beta virt. eigenvalues --   -0.08220  -0.05715  -0.04672  -0.03734  -0.03370
  Beta virt. eigenvalues --   -0.02989  -0.02494  -0.01264  -0.00830  -0.00146
  Beta virt. eigenvalues --    0.00198   0.00264   0.00468   0.00542   0.00766

 Mulliken charges and spin densities:
               1          2
     1  Na   0.107820  -0.141211
     2  Na   0.021074   0.508520
     3  Na  -0.017881   0.251863
     4  Na  -0.343640   0.013340
     5  Na   0.160762   0.435784
     6  Na   0.445345  -0.052359
     7  Na  -0.373479  -0.015937
 Sum of Mulliken charges =  -0.00000   1.00000

 Dipole moment (field-independent basis, Debye):
    X=              0.3458    Y=             -0.2080    Z=             -0.1367  Tot=              0.4261
 Quadrupole moment (field-independent basis, Debye-Ang):
   XX=            -63.7256   YY=            -69.1239   ZZ=            -65.0410
   XY=              1.3132   XZ=              1.1994   YZ=              1.5278

 Normal termination of Gaussian 16 at Mon Dec  4 04:56:33 2023.
