 Gaussian 16, Revision B.01,
 Gaussian 16:  ES64L-G16RevB.01 20-Dec-2017

 -------------------------
 #P B3LYP/6-311+g(d) force
 -------------------------

 -----
 DPGEN
 -----
 Symbolic Z-matrix:
 Charge =  0 Multiplicity = 2

                         Standard orientation:
 ---------------------------------------------------------------------
 Center     Atomic      Atomic             Coordinates (Angstroms)
 Number     Number       Type             X           Y           Z
 ---------------------------------------------------------------------
      1         11           0       -0.749912    1.072085   -1.603469
      2         11           0        2.613987    2.317838    0.162273
      3         11           0        4.074035   -1.721325   -0.533525
      4         11           0       -1.991921   -2.121520    0.442507
      5         11           0       -1.130085    1.136113    1.659117
      6         11           0        1.028095   -0.782055    0.577860
      7         11           0       -3.844198    0.098865   -0.704763
 ---------------------------------------------------------------------

 SCF Done:  E(UB3LYP) =  -1136.11354887     A.U. after   27 cycles

 The electronic state is 2-A.
 Alpha  occ. eigenvalues --  -38.45062 -38.44615 -38.44551 -38.44232 -38.43785
 Alpha  occ. eigenvalues --  -38.43675 -38.42751  -2.20813  -2.20492  -2.20426
 Alpha  occ. eigenvalues --   -2.20157  -2.19667  -2.19452  -2.18739  -1.14503
 Alpha  occ. eigenvalues --   -1.14470  -1.14433  -1.14166  -1.14153  -1.14138
 Alpha  occ. eigenvalues --   -1.14129  -1.14085  -1.14005  -1.13881  -1.13798
 Alpha  occ. eigenvalues --   -1.13734  -1.13351  -1.13319  -1.13307  -1.13112
 Alpha  occ. eigenvalues --   -1.13103  -1.13088  -1.12454  -1.12404  -1.12356
 Alpha  occ. eigenvalues --   -0.18635  -0.13915  -0.11219  -0.10837
 Alpha virt. eigenvalues --   -0.06900  -0.06226  -0.03963  -0.03108  -0.02755
 Alpha virt. eigenvalues --   -0.02427  -0.01997  -0.01495  -0.01052  -0.00413
 Alpha virt. eigenvalues --   -0.00107   0.00103   0.00400   0.00473   0.00597

  Beta  occ. eigenvalues --  -38.45064 -38.44566 -38.44517 -38.44175 -38.43768
  Beta  occ. eigenvalues --  -38.43643 -38.42725  -2.20817  -2.20403  -2.20364
  Beta  occ. eigenvalues --   -2.20058  -2.19641  -2.19391  -2.18698  -1.14503
  Beta  occ. eigenvalues --   -1.14474  -1.14431  -1.14113  -1.14090  -1.14083
  Beta  occ. eigenvalues --   -1.14069  -1.14041  -1.13949  -1.13799  -1.13727
  Beta  occ. eigenvalues --   -1.13660  -1.13334  -1.13300  -1.13265  -1.13071
  Beta  occ. eigenvalues --   -1.13064  -1.13045  -1.12436  -1.12349  -1.12306
  Beta  occ. eigenvalues --   -0.17931  -0.13511  -0.10811
  Beta virt. eigenvalues --   -0.07283  -0.06636  -0.06087  -0.03467  -0.02883
  Beta virt. eigenvalues --   -0.02549  -0.01929  -0.01482  -0.01371  -0.00618
  Beta virt. eigenvalues --   -0.00261  -0.00020   0.00147   0.00505   0.00573

 Mulliken charges and spin densities:
               1          2
     1  Na  -0.471648   0.176040
     2  Na   0.450630   0.070459
     3  Na   0.073754   0.228853
     4  Na  -0.112371  -0.125643
     5  Na   0.672896  -0.087658
     6  Na  -1.115399   0.392537
     7  Na   0.502139   0.345412
 Sum of Mulliken charges =  -0.00000   1.00000

 Dipole moment (field-independent basis, Debye):
    X=             -0.7036    Y=              1.4310    Z=              0.2575  Tot=              1.6153
 Quadrupole moment (field-independent basis, Debye-Ang):
   XX=            -54.7938   YY=            -71.5416   ZZ=            -69.4858
   XY=              5.5367   XZ=             -2.8074   YZ=              3.1662

 Normal termination of Gaussian 16 at Tue Dec  5 16:33:30 2023.
