 Gaussian 16, Revision B.01,
 Gaussian 16:  ES64L-G16RevB.01 20-Dec-2017

 -------------------------
 #P B3LYP/6-311+g(d) force
 -------------------------

 -----
 DPGEN
 -----
 Symbolic Z-matrix:
 Charge =  0 Multiplicity = 2

                         Standard orientation:
 ---------------------------------------------------------------------
 Center     Atomic      Atomic             Coordinates (Angstroms)
 Number     Number       Type             X           Y           Z
 ---------------------------------------------------------------------
      1         11           0       -0.135713   -2.867351   -0.244744
      2         11           0        2.759259   -1.433375   -0.077115
      3         11           0       -1.092263    2.802582    0.134107
      4         11           0       -3.731271   -0.542128    0.124982
      5         11           0        0.534377   -0.055200    2.069448
      6         11           0       -0.504604   -0.032196   -1.510922
      7         11           0        2.170214    2.127669   -0.495755
 ---------------------------------------------------------------------

 SCF Done:  E(UB3LYP) =  -1136.13220575     A.U. after   20 cycles

 The electronic state is 2-A.
 Alpha  occ. eigenvalues --  -38.44703 -38.43935 -38.43802 -38.43743 -38.43588
 Alpha  occ. eigenvalues --  -38.43514 -38.43165  -2.20437  -2.19759  -2.19665
 Alpha  occ. eigenvalues --   -2.19609  -2.19429  -2.19393  -2.19115  -1.14115
 Alpha  occ. eigenvalues --   -1.14094  -1.14074  -1.13453  -1.13426  -1.13386
 Alpha  occ. eigenvalues --   -1.13377  -1.13337  -1.13325  -1.13311  -1.13260
 Alpha  occ. eigenvalues --   -1.13201  -1.13100  -1.13086  -1.13070  -1.13053
 Alpha  occ. eigenvalues --   -1.13019  -1.13004  -1.12806  -1.12773  -1.12715
 Alpha  occ. eigenvalues --   -0.18328  -0.12820  -0.12478  -0.10433
 Alpha virt. eigenvalues --   -0.06203  -0.05164  -0.04805  -0.03043  -0.02872
 Alpha virt. eigenvalues --   -0.02336  -0.01882  -0.01243  -0.00574  -0.00464
 Alpha virt. eigenvalues --   -0.00043   0.00297   0.00718   0.00794   0.00852

  Beta  occ. eigenvalues --  -38.44708 -38.43932 -38.43796 -38.43733 -38.43575
  Beta  occ. eigenvalues --  -38.43417 -38.43114  -2.20447  -2.19755  -2.19658
  Beta  occ. eigenvalues --   -2.19595  -2.19407  -2.19214  -2.19023  -1.14116
  Beta  occ. eigenvalues --   -1.14101  -1.14081  -1.13449  -1.13407  -1.13385
  Beta  occ. eigenvalues --   -1.13373  -1.13326  -1.13306  -1.13287  -1.13229
  Beta  occ. eigenvalues --   -1.13196  -1.13080  -1.13059  -1.13052  -1.12935
  Beta  occ. eigenvalues --   -1.12895  -1.12878  -1.12742  -1.12704  -1.12643
  Beta  occ. eigenvalues --   -0.17601  -0.12603  -0.12297
  Beta virt. eigenvalues --   -0.06550  -0.06140  -0.05096  -0.04762  -0.02329
  Beta virt. eigenvalues --   -0.02187  -0.01793  -0.01289  -0.01162  -0.00620
  Beta virt. eigenvalues --   -0.00472   0.00125   0.00343   0.00770   0.00834

 Mulliken charges and spin densities:
               1          2
     1  Na   0.092671  -0.112832
     2  Na   0.301995   0.073296
     3  Na  -0.030070  -0.058412
     4  Na  -0.068247  -0.080110
     5  Na  -0.484041   0.766718
     6  Na   0.089106   0.381131
     7  Na   0.098586   0.030208
 Sum of Mulliken charges =  -0.00000   1.00000

 Dipole moment (field-independent basis, Debye):
    X=             -0.3462    Y=              0.0145    Z=              0.1498  Tot=              0.3774
 Quadrupole moment (field-independent basis, Debye-Ang):
   XX=            -54.4829   YY=            -61.8774   ZZ=            -76.1000
   XY=             -0.2250   XZ=             -2.5909   YZ=              0.0779

 Normal termination of Gaussian 16 at Thu Dec  7 16:38:30 2023.
