 Gaussian 16, Revision B.01,
 Gaussian 16:  ES64L-G16RevB.01 20-Dec-2017

 -------------------------
 #P B3LYP/6-311+g(d) force
 -------------------------

 -----
 DPGEN
 -----
 Symbolic Z-matrix:
 Charge =  0 Multiplicity = 2

                         Standard orientation:
 ---------------------------------------------------------------------
 Center     Atomic      Atomic             Coordinates (Angstroms)
 Number     Number       Type             X           Y           Z
 ---------------------------------------------------------------------
      1         11           0        0.260500   -0.030292    2.138042
      2         11           0       -0.309063    0.137510   -1.588600
      3         11           0        0.872962   -2.630633   -0.577994
      4         11           0        2.955624   -0.521138    0.320524
      5         11           0       -2.639569    2.136631    0.163689
      6         11           0        1.766109    2.603614   -0.509999
      7         11           0       -2.906565   -1.695692    0.054338
 ---------------------------------------------------------------------

 SCF Done:  E(UB3LYP) =  -1136.13067575     A.U. after   20 cycles

 The electronic state is 2-A.
 Alpha  occ. eigenvalues --  -38.44478 -38.44477 -38.44028 -38.43819 -38.43614
 Alpha  occ. eigenvalues --  -38.43234 -38.43149  -2.20247  -2.20238  -2.19886
 Alpha  occ. eigenvalues --   -2.19719  -2.19425  -2.19184  -2.19038  -1.13929
 Alpha  occ. eigenvalues --   -1.13920  -1.13906  -1.13895  -1.13887  -1.13868
 Alpha  occ. eigenvalues --   -1.13566  -1.13522  -1.13505  -1.13408  -1.13375
 Alpha  occ. eigenvalues --   -1.13354  -1.13109  -1.13073  -1.13064  -1.12900
 Alpha  occ. eigenvalues --   -1.12847  -1.12800  -1.12702  -1.12680  -1.12660
 Alpha  occ. eigenvalues --   -0.18300  -0.13090  -0.12025  -0.10811
 Alpha virt. eigenvalues --   -0.05961  -0.05624  -0.04320  -0.03339  -0.02778
 Alpha virt. eigenvalues --   -0.02617  -0.01677  -0.01386  -0.00574  -0.00297
 Alpha virt. eigenvalues --   -0.00022   0.00342   0.00716   0.00756   0.00815

  Beta  occ. eigenvalues --  -38.44478 -38.44478 -38.43932 -38.43810 -38.43603
  Beta  occ. eigenvalues --  -38.43174 -38.43135  -2.20250  -2.20241  -2.19710
  Beta  occ. eigenvalues --   -2.19706  -2.19405  -2.19077  -2.19014  -1.13921
  Beta  occ. eigenvalues --   -1.13913  -1.13907  -1.13897  -1.13889  -1.13870
  Beta  occ. eigenvalues --   -1.13463  -1.13404  -1.13397  -1.13380  -1.13345
  Beta  occ. eigenvalues --   -1.13317  -1.13086  -1.13055  -1.13053  -1.12836
  Beta  occ. eigenvalues --   -1.12769  -1.12722  -1.12680  -1.12645  -1.12635
  Beta  occ. eigenvalues --   -0.17568  -0.12905  -0.11774
  Beta virt. eigenvalues --   -0.06903  -0.05986  -0.05468  -0.04260  -0.02608
  Beta virt. eigenvalues --   -0.02093  -0.01628  -0.01539  -0.01298  -0.00603
  Beta virt. eigenvalues --   -0.00308   0.00121   0.00378   0.00748   0.00811

 Mulliken charges and spin densities:
               1          2
     1  Na  -0.387890   0.634167
     2  Na   0.125754   0.309340
     3  Na   0.054036  -0.015591
     4  Na   0.423908   0.221220
     5  Na  -0.118794  -0.056789
     6  Na  -0.056552  -0.056690
     7  Na  -0.040463  -0.035657
 Sum of Mulliken charges =  -0.00000   1.00000

 Dipole moment (field-independent basis, Debye):
    X=             -0.6584    Y=              0.1616    Z=              0.2912  Tot=              0.7379
 Quadrupole moment (field-independent basis, Debye-Ang):
   XX=            -55.3730   YY=            -63.6415   ZZ=            -74.3863
   XY=              0.2679   XZ=             -1.2312   YZ=              0.2713

 Normal termination of Gaussian 16 at Fri Dec  8 03:06:55 2023.
