 Gaussian 16, Revision B.01,
 Gaussian 16:  ES64L-G16RevB.01 20-Dec-2017

 -------------------------
 #P B3LYP/6-311+g(d) force
 -------------------------

 -----
 DPGEN
 -----
 Symbolic Z-matrix:
 Charge =  0 Multiplicity = 2

                         Standard orientation:
 ---------------------------------------------------------------------
 Center     Atomic      Atomic             Coordinates (Angstroms)
 Number     Number       Type             X           Y           Z
 ---------------------------------------------------------------------
      1         11           0        2.752073   -2.706037    0.855244
      2         11           0        1.923006    3.325442   -0.373182
      3         11           0       -4.072295    0.975667    0.503759
      4         11           0       -0.236318   -3.340091   -0.865178
      5         11           0       -3.211810   -2.084590   -0.093404
      6         11           0        3.935919    0.341672   -0.023628
      7         11           0       -1.090574    3.487937   -0.003611
 ---------------------------------------------------------------------

 SCF Done:  E(UB3LYP) =  -1136.10945788     A.U. after   23 cycles

 The electronic state is 2-A.
 Alpha  occ. eigenvalues --  -38.45039 -38.44973 -38.44761 -38.44686 -38.44164
 Alpha  occ. eigenvalues --  -38.44021 -38.43916  -2.20836  -2.20746  -2.20548
 Alpha  occ. eigenvalues --   -2.20489  -2.19986  -2.19838  -2.19728  -1.14530
 Alpha  occ. eigenvalues --   -1.14496  -1.14471  -1.14423  -1.14418  -1.14401
 Alpha  occ. eigenvalues --   -1.14211  -1.14198  -1.14174  -1.14167  -1.14159
 Alpha  occ. eigenvalues --   -1.14156  -1.13659  -1.13637  -1.13622  -1.13487
 Alpha  occ. eigenvalues --   -1.13486  -1.13465  -1.13375  -1.13372  -1.13357
 Alpha  occ. eigenvalues --   -0.15725  -0.13979  -0.13787  -0.10829
 Alpha virt. eigenvalues --   -0.07793  -0.04666  -0.04288  -0.03693  -0.03515
 Alpha virt. eigenvalues --   -0.02357  -0.02289  -0.01718  -0.01559  -0.00800
 Alpha virt. eigenvalues --   -0.00336  -0.00012   0.00008   0.00400   0.00666

  Beta  occ. eigenvalues --  -38.45011 -38.44974 -38.44715 -38.44676 -38.44143
  Beta  occ. eigenvalues --  -38.43956 -38.43849  -2.20790  -2.20752  -2.20479
  Beta  occ. eigenvalues --   -2.20466  -2.19952  -2.19718  -2.19605  -1.14487
  Beta  occ. eigenvalues --   -1.14469  -1.14431  -1.14426  -1.14425  -1.14374
  Beta  occ. eigenvalues --   -1.14163  -1.14160  -1.14155  -1.14144  -1.14114
  Beta  occ. eigenvalues --   -1.14096  -1.13626  -1.13616  -1.13591  -1.13407
  Beta  occ. eigenvalues --   -1.13405  -1.13385  -1.13294  -1.13289  -1.13275
  Beta  occ. eigenvalues --   -0.15193  -0.13221  -0.13047
  Beta virt. eigenvalues --   -0.07974  -0.07650  -0.04280  -0.03696  -0.03478
  Beta virt. eigenvalues --   -0.03177  -0.02145  -0.02078  -0.01590  -0.01437
  Beta virt. eigenvalues --   -0.00467  -0.00111   0.00195   0.00246   0.00382

 Mulliken charges and spin densities:
               1          2
     1  Na  -0.054465  -0.039732
     2  Na   0.212602  -0.048474
     3  Na   0.355191   0.329237
     4  Na  -0.451077   0.257969
     5  Na  -0.023801   0.063603
     6  Na  -0.171985   0.245880
     7  Na   0.133533   0.191517
 Sum of Mulliken charges =  -0.00000   1.00000

 Dipole moment (field-independent basis, Debye):
    X=              0.5882    Y=              0.0552    Z=              0.1277  Tot=              0.6044
 Quadrupole moment (field-independent basis, Debye-Ang):
   XX=            -64.2975   YY=            -65.1517   ZZ=            -71.8469
   XY=             -1.1554   XZ=             -0.4678   YZ=             -1.3287

 Normal termination of Gaussian 16 at Sun Dec  3 14:57:37 2023.
