 Gaussian 16, Revision B.01,
 Gaussian 16:  ES64L-G16RevB.01 20-Dec-2017

 -------------------------
 #P B3LYP/6-311+g(d) force
 -------------------------

 -----
 DPGEN
 -----
 Symbolic Z-matrix:
 Charge =  0 Multiplicity = 2

                         Standard orientation:
 ---------------------------------------------------------------------
 Center     Atomic      Atomic             Coordinates (Angstroms)
 Number     Number       Type             X           Y           Z
 ---------------------------------------------------------------------
      1         11           0       -0.426889   -2.805751   -0.675604
      2         11           0       -2.458078   -0.145477    2.024239
      3         11           0       -2.442679   -0.073477   -1.233053
      4         11           0       -0.782854    2.632729   -0.803125
      5         11           0        3.012488   -1.543742    0.054817
      6         11           0        0.585550   -0.058804    0.367526
      7         11           0        2.512462    1.994522    0.265200
 ---------------------------------------------------------------------

 SCF Done:  E(UB3LYP) =  -1136.12153761     A.U. after   19 cycles

 The electronic state is 2-A.
 Alpha  occ. eigenvalues --  -38.44362 -38.44056 -38.43881 -38.43689 -38.43677
 Alpha  occ. eigenvalues --  -38.43470 -38.42822  -2.20220  -2.19938  -2.19741
 Alpha  occ. eigenvalues --   -2.19613  -2.19528  -2.19345  -2.19020  -1.13993
 Alpha  occ. eigenvalues --   -1.13870  -1.13818  -1.13740  -1.13579  -1.13526
 Alpha  occ. eigenvalues --   -1.13404  -1.13390  -1.13352  -1.13310  -1.13279
 Alpha  occ. eigenvalues --   -1.13243  -1.13229  -1.13179  -1.13131  -1.13037
 Alpha  occ. eigenvalues --   -1.12989  -1.12964  -1.12678  -1.12670  -1.12651
 Alpha  occ. eigenvalues --   -0.18573  -0.13743  -0.12514  -0.10504
 Alpha virt. eigenvalues --   -0.05832  -0.05454  -0.04688  -0.03340  -0.02423
 Alpha virt. eigenvalues --   -0.02134  -0.01511  -0.01065  -0.00520  -0.00433
 Alpha virt. eigenvalues --   -0.00209   0.00316   0.00732   0.00817   0.00846

  Beta  occ. eigenvalues --  -38.44367 -38.44058 -38.43777 -38.43661 -38.43656
  Beta  occ. eigenvalues --  -38.43446 -38.42807  -2.20229  -2.19941  -2.19566
  Beta  occ. eigenvalues --   -2.19548  -2.19491  -2.19301  -2.18997  -1.13999
  Beta  occ. eigenvalues --   -1.13874  -1.13821  -1.13741  -1.13576  -1.13528
  Beta  occ. eigenvalues --   -1.13303  -1.13271  -1.13253  -1.13248  -1.13218
  Beta  occ. eigenvalues --   -1.13207  -1.13162  -1.13139  -1.13110  -1.13010
  Beta  occ. eigenvalues --   -1.12944  -1.12937  -1.12662  -1.12648  -1.12611
  Beta  occ. eigenvalues --   -0.18028  -0.13426  -0.12321
  Beta virt. eigenvalues --   -0.06632  -0.05682  -0.05288  -0.04425  -0.02823
  Beta virt. eigenvalues --   -0.01922  -0.01669  -0.01036  -0.00940  -0.00473
  Beta virt. eigenvalues --   -0.00349   0.00114   0.00415   0.00827   0.00848

 Mulliken charges and spin densities:
               1          2
     1  Na   0.895156   0.187630
     2  Na   0.162355   0.286479
     3  Na   0.515249   0.231059
     4  Na   0.625903   0.148054
     5  Na   0.056552  -0.226926
     6  Na  -2.375693   0.648588
     7  Na   0.120479  -0.274885
 Sum of Mulliken charges =  -0.00000   1.00000

 Dipole moment (field-independent basis, Debye):
    X=              0.6315    Y=             -0.1085    Z=             -0.3310  Tot=              0.7212
 Quadrupole moment (field-independent basis, Debye-Ang):
   XX=            -55.8517   YY=            -62.5051   ZZ=            -74.0049
   XY=             -0.0302   XZ=              1.7361   YZ=              0.6269

 Normal termination of Gaussian 16 at Thu Dec  7 21:45:49 2023.
