 Gaussian 16, Revision B.01,
 Gaussian 16:  ES64L-G16RevB.01 20-Dec-2017

 -------------------------
 #P B3LYP/6-311+g(d) force
 -------------------------

 -----
 DPGEN
 -----
 Symbolic Z-matrix:
 Charge =  0 Multiplicity = 2

                         Standard orientation:
 ---------------------------------------------------------------------
 Center     Atomic      Atomic             Coordinates (Angstroms)
 Number     Number       Type             X           Y           Z
 ---------------------------------------------------------------------
      1         11           0        1.045338   -1.981687   -0.039429
      2         11           0        4.284229   -2.545670   -0.562808
      3         11           0        3.478457    0.646036    0.771896
      4         11           0        1.623192    3.705910   -0.580482
      5         11           0       -0.284913    1.298662    0.297279
      6         11           0       -3.547874   -0.762654    0.505993
      7         11           0       -6.598429   -0.360595   -0.392449
 ---------------------------------------------------------------------

 SCF Done:  E(UB3LYP) =  -1136.12156143     A.U. after   20 cycles

 The electronic state is 2-A.
 Alpha  occ. eigenvalues --  -38.45267 -38.44548 -38.44370 -38.44063 -38.43900
 Alpha  occ. eigenvalues --  -38.43752 -38.43313  -2.21065  -2.20380  -2.20177
 Alpha  occ. eigenvalues --   -2.19870  -2.19705  -2.19608  -2.19094  -1.14772
 Alpha  occ. eigenvalues --   -1.14745  -1.14645  -1.14066  -1.14062  -1.13988
 Alpha  occ. eigenvalues --   -1.13839  -1.13837  -1.13797  -1.13557  -1.13527
 Alpha  occ. eigenvalues --   -1.13498  -1.13347  -1.13342  -1.13342  -1.13295
 Alpha  occ. eigenvalues --   -1.13292  -1.13200  -1.12781  -1.12778  -1.12735
 Alpha  occ. eigenvalues --   -0.16849  -0.13468  -0.12706  -0.11047
 Alpha virt. eigenvalues --   -0.06357  -0.05518  -0.04505  -0.03934  -0.02549
 Alpha virt. eigenvalues --   -0.02375  -0.01971  -0.01918  -0.01183  -0.00912
 Alpha virt. eigenvalues --   -0.00310  -0.00196   0.00086   0.00353   0.00615

  Beta  occ. eigenvalues --  -38.45236 -38.44504 -38.44359 -38.44048 -38.43827
  Beta  occ. eigenvalues --  -38.43721 -38.43323  -2.21009  -2.20300  -2.20157
  Beta  occ. eigenvalues --   -2.19841  -2.19569  -2.19554  -2.19120  -1.14728
  Beta  occ. eigenvalues --   -1.14707  -1.14601  -1.14014  -1.14011  -1.13922
  Beta  occ. eigenvalues --   -1.13825  -1.13813  -1.13781  -1.13539  -1.13508
  Beta  occ. eigenvalues --   -1.13475  -1.13262  -1.13260  -1.13253  -1.13250
  Beta  occ. eigenvalues --   -1.13249  -1.13145  -1.12805  -1.12802  -1.12701
  Beta  occ. eigenvalues --   -0.16237  -0.13028  -0.12286
  Beta virt. eigenvalues --   -0.07672  -0.06199  -0.04946  -0.04091  -0.03743
  Beta virt. eigenvalues --   -0.02446  -0.02093  -0.01761  -0.01459  -0.01068
  Beta virt. eigenvalues --   -0.00617  -0.00087   0.00015   0.00294   0.00471

 Mulliken charges and spin densities:
               1          2
     1  Na  -1.008951   0.121488
     2  Na   1.190421   0.271091
     3  Na  -0.104033   0.275825
     4  Na   1.009429   0.199218
     5  Na  -1.114549   0.113370
     6  Na  -0.235995  -0.332364
     7  Na   0.263678   0.351373
 Sum of Mulliken charges =  -0.00000   1.00000

 Dipole moment (field-independent basis, Debye):
    X=              2.3675    Y=              0.0418    Z=             -0.4590  Tot=              2.4119
 Quadrupole moment (field-independent basis, Debye-Ang):
   XX=            -60.4340   YY=            -62.8944   ZZ=            -70.7017
   XY=             -4.2298   XZ=              1.4140   YZ=             -0.1531

 Normal termination of Gaussian 16 at Tue Nov 28 22:24:10 2023.
