 Gaussian 16, Revision B.01,
 Gaussian 16:  ES64L-G16RevB.01 20-Dec-2017

 -------------------------
 #P B3LYP/6-311+g(d) force
 -------------------------

 -----
 DPGEN
 -----
 Symbolic Z-matrix:
 Charge =  0 Multiplicity = 2

                         Standard orientation:
 ---------------------------------------------------------------------
 Center     Atomic      Atomic             Coordinates (Angstroms)
 Number     Number       Type             X           Y           Z
 ---------------------------------------------------------------------
      1         11           0       -2.232949    1.112028    1.748984
      2         11           0       -0.097811    2.864741   -0.794786
      3         11           0       -4.411189   -1.851924   -0.509041
      4         11           0       -0.643848   -1.043724   -1.121986
      5         11           0        2.037374    0.670566   -1.664828
      6         11           0        4.089216   -1.850996    0.460433
      7         11           0        1.259209    0.099309    1.881224
 ---------------------------------------------------------------------

 SCF Done:  E(UB3LYP) =  -1136.11668464     A.U. after   26 cycles

 The electronic state is 2-A.
 Alpha  occ. eigenvalues --  -38.45000 -38.44822 -38.44775 -38.44166 -38.44072
 Alpha  occ. eigenvalues --  -38.43962 -38.43440  -2.20816  -2.20649  -2.20564
 Alpha  occ. eigenvalues --   -2.19904  -2.19865  -2.19827  -2.19263  -1.14512
 Alpha  occ. eigenvalues --   -1.14468  -1.14442  -1.14347  -1.14310  -1.14258
 Alpha  occ. eigenvalues --   -1.14228  -1.14213  -1.14170  -1.13575  -1.13572
 Alpha  occ. eigenvalues --   -1.13567  -1.13531  -1.13523  -1.13502  -1.13498
 Alpha  occ. eigenvalues --   -1.13461  -1.13443  -1.12947  -1.12926  -1.12903
 Alpha  occ. eigenvalues --   -0.17817  -0.13019  -0.11748  -0.11456
 Alpha virt. eigenvalues --   -0.06750  -0.05594  -0.04713  -0.03219  -0.02878
 Alpha virt. eigenvalues --   -0.02477  -0.02348  -0.01866  -0.00960  -0.00243
 Alpha virt. eigenvalues --   -0.00166   0.00047   0.00163   0.00458   0.00506

  Beta  occ. eigenvalues --  -38.44959 -38.44760 -38.44727 -38.44142 -38.44072
  Beta  occ. eigenvalues --  -38.43921 -38.43447  -2.20744  -2.20536  -2.20477
  Beta  occ. eigenvalues --   -2.19860  -2.19826  -2.19791  -2.19280  -1.14453
  Beta  occ. eigenvalues --   -1.14420  -1.14384  -1.14274  -1.14235  -1.14185
  Beta  occ. eigenvalues --   -1.14165  -1.14134  -1.14098  -1.13545  -1.13534
  Beta  occ. eigenvalues --   -1.13512  -1.13502  -1.13495  -1.13493  -1.13488
  Beta  occ. eigenvalues --   -1.13453  -1.13394  -1.12961  -1.12927  -1.12903
  Beta  occ. eigenvalues --   -0.17084  -0.12715  -0.11192
  Beta virt. eigenvalues --   -0.08007  -0.06534  -0.05211  -0.04374  -0.02743
  Beta virt. eigenvalues --   -0.02444  -0.02151  -0.02081  -0.01568  -0.00670
  Beta virt. eigenvalues --   -0.00230  -0.00066   0.00183   0.00301   0.00555

 Mulliken charges and spin densities:
               1          2
     1  Na   0.241545   0.151486
     2  Na  -0.203962  -0.061464
     3  Na   0.142560   0.083414
     4  Na  -1.042812   0.336522
     5  Na   1.085321   0.150351
     6  Na   0.216043  -0.040529
     7  Na  -0.438693   0.380220
 Sum of Mulliken charges =  -0.00000   1.00000

 Dipole moment (field-independent basis, Debye):
    X=              0.1894    Y=              0.5440    Z=              0.1387  Tot=              0.5925
 Quadrupole moment (field-independent basis, Debye-Ang):
   XX=            -58.5484   YY=            -69.3059   ZZ=            -69.3949
   XY=             -3.4777   XZ=             -3.2084   YZ=              2.3251

 Normal termination of Gaussian 16 at Tue Dec  5 11:03:45 2023.
