 Gaussian 16, Revision B.01,
 Gaussian 16:  ES64L-G16RevB.01 20-Dec-2017

 -------------------------
 #P B3LYP/6-311+g(d) force
 -------------------------

 -----
 DPGEN
 -----
 Symbolic Z-matrix:
 Charge =  0 Multiplicity = 2

                         Standard orientation:
 ---------------------------------------------------------------------
 Center     Atomic      Atomic             Coordinates (Angstroms)
 Number     Number       Type             X           Y           Z
 ---------------------------------------------------------------------
      1         11           0       -1.584718    1.712980    0.170583
      2         11           0        4.310723   -0.567879    0.509965
      3         11           0        1.421022   -1.112031   -1.675113
      4         11           0        1.993487    1.931462   -0.838556
      5         11           0        1.314715   -0.384768    1.962495
      6         11           0       -2.033593   -1.524954   -0.341646
      7         11           0       -5.421635   -0.054810    0.212272
 ---------------------------------------------------------------------

 SCF Done:  E(UB3LYP) =  -1136.10679596     A.U. after   29 cycles

 The electronic state is 2-A.
 Alpha  occ. eigenvalues --  -38.46445 -38.44415 -38.44396 -38.44379 -38.44274
 Alpha  occ. eigenvalues --  -38.43643 -38.43072  -2.22250  -2.20294  -2.20231
 Alpha  occ. eigenvalues --   -2.20137  -2.20096  -2.19466  -2.18908  -1.15942
 Alpha  occ. eigenvalues --   -1.15904  -1.15862  -1.14023  -1.13958  -1.13901
 Alpha  occ. eigenvalues --   -1.13889  -1.13864  -1.13833  -1.13812  -1.13810
 Alpha  occ. eigenvalues --   -1.13794  -1.13783  -1.13761  -1.13687  -1.13167
 Alpha  occ. eigenvalues --   -1.13149  -1.13045  -1.12577  -1.12572  -1.12556
 Alpha  occ. eigenvalues --   -0.18057  -0.13944  -0.11166  -0.10523
 Alpha virt. eigenvalues --   -0.08323  -0.04949  -0.04801  -0.03447  -0.03088
 Alpha virt. eigenvalues --   -0.02403  -0.02240  -0.01581  -0.01557  -0.00968
 Alpha virt. eigenvalues --   -0.00246   0.00128   0.00133   0.00583   0.00643

  Beta  occ. eigenvalues --  -38.46424 -38.44390 -38.44362 -38.44337 -38.44239
  Beta  occ. eigenvalues --  -38.43619 -38.43073  -2.22214  -2.20201  -2.20152
  Beta  occ. eigenvalues --   -2.20126  -2.20035  -2.19422  -2.18911  -1.15894
  Beta  occ. eigenvalues --   -1.15881  -1.15839  -1.13960  -1.13868  -1.13853
  Beta  occ. eigenvalues --   -1.13816  -1.13807  -1.13805  -1.13801  -1.13785
  Beta  occ. eigenvalues --   -1.13758  -1.13755  -1.13743  -1.13616  -1.13140
  Beta  occ. eigenvalues --   -1.13114  -1.13012  -1.12581  -1.12562  -1.12560
  Beta  occ. eigenvalues --   -0.17395  -0.13782  -0.10321
  Beta virt. eigenvalues --   -0.08127  -0.07274  -0.04805  -0.04369  -0.03193
  Beta virt. eigenvalues --   -0.02798  -0.01888  -0.01583  -0.01457  -0.01147
  Beta virt. eigenvalues --   -0.00892  -0.00133   0.00157   0.00284   0.00644

 Mulliken charges and spin densities:
               1          2
     1  Na  -0.228540   0.156944
     2  Na   0.237965  -0.049861
     3  Na  -0.089153   0.264172
     4  Na   0.105065   0.250246
     5  Na  -0.026362   0.167757
     6  Na  -0.180785   0.201963
     7  Na   0.181810   0.008778
 Sum of Mulliken charges =  -0.00000   1.00000

 Dipole moment (field-independent basis, Debye):
    X=              0.3047    Y=              0.5020    Z=              0.0603  Tot=              0.5904
 Quadrupole moment (field-independent basis, Debye-Ang):
   XX=            -64.6344   YY=            -72.9888   ZZ=            -67.6600
   XY=              1.5633   XZ=             -6.0825   YZ=             -0.6333

 Normal termination of Gaussian 16 at Fri Dec  8 01:26:40 2023.
