 Gaussian 16, Revision B.01,
 Gaussian 16:  ES64L-G16RevB.01 20-Dec-2017

 -------------------------
 #P B3LYP/6-311+g(d) force
 -------------------------

 -----
 DPGEN
 -----
 Symbolic Z-matrix:
 Charge =  0 Multiplicity = 2

                         Standard orientation:
 ---------------------------------------------------------------------
 Center     Atomic      Atomic             Coordinates (Angstroms)
 Number     Number       Type             X           Y           Z
 ---------------------------------------------------------------------
      1         11           0       -0.197826    0.576735    2.213925
      2         11           0       -1.642977   -2.118783    0.065386
      3         11           0        3.397216   -0.812258    0.831456
      4         11           0        1.469135   -1.522137   -1.651215
      5         11           0        2.084347    1.915234   -0.420886
      6         11           0       -1.186287    1.947754   -1.114748
      7         11           0       -3.923607    0.013456    0.076082
 ---------------------------------------------------------------------

 SCF Done:  E(UB3LYP) =  -1136.12178145     A.U. after   23 cycles

 The electronic state is 2-A.
 Alpha  occ. eigenvalues --  -38.45472 -38.44980 -38.44466 -38.43649 -38.43645
 Alpha  occ. eigenvalues --  -38.43455 -38.43076  -2.21275  -2.20805  -2.20278
 Alpha  occ. eigenvalues --   -2.19489  -2.19475  -2.19320  -2.18912  -1.14955
 Alpha  occ. eigenvalues --   -1.14937  -1.14909  -1.14483  -1.14464  -1.14446
 Alpha  occ. eigenvalues --   -1.13953  -1.13906  -1.13894  -1.13168  -1.13146
 Alpha  occ. eigenvalues --   -1.13142  -1.13137  -1.13131  -1.13108  -1.13007
 Alpha  occ. eigenvalues --   -1.12984  -1.12956  -1.12589  -1.12564  -1.12543
 Alpha  occ. eigenvalues --   -0.17917  -0.14028  -0.11333  -0.10923
 Alpha virt. eigenvalues --   -0.07194  -0.05333  -0.04354  -0.03291  -0.03176
 Alpha virt. eigenvalues --   -0.02459  -0.02420  -0.01115  -0.00599  -0.00316
 Alpha virt. eigenvalues --    0.00018   0.00126   0.00163   0.00649   0.00796

  Beta  occ. eigenvalues --  -38.45476 -38.44975 -38.44380 -38.43639 -38.43609
  Beta  occ. eigenvalues --  -38.43447 -38.43046  -2.21283  -2.20797  -2.20120
  Beta  occ. eigenvalues --   -2.19466  -2.19414  -2.19307  -2.18858  -1.14963
  Beta  occ. eigenvalues --   -1.14932  -1.14916  -1.14480  -1.14459  -1.14423
  Beta  occ. eigenvalues --   -1.13846  -1.13795  -1.13779  -1.13150  -1.13129
  Beta  occ. eigenvalues --   -1.13115  -1.13098  -1.13086  -1.13062  -1.12990
  Beta  occ. eigenvalues --   -1.12966  -1.12941  -1.12553  -1.12520  -1.12506
  Beta  occ. eigenvalues --   -0.17238  -0.13918  -0.11097
  Beta virt. eigenvalues --   -0.07179  -0.06932  -0.05292  -0.03729  -0.03100
  Beta virt. eigenvalues --   -0.02658  -0.02125  -0.01587  -0.01059  -0.00409
  Beta virt. eigenvalues --   -0.00206   0.00051   0.00188   0.00345   0.00764

 Mulliken charges and spin densities:
               1          2
     1  Na  -0.193896   0.510255
     2  Na  -0.458882   0.095108
     3  Na   0.427131   0.000677
     4  Na  -0.008684   0.152314
     5  Na  -0.087847   0.151022
     6  Na  -0.376130   0.192094
     7  Na   0.698310  -0.101470
 Sum of Mulliken charges =  -0.00000   1.00000

 Dipole moment (field-independent basis, Debye):
    X=             -0.4769    Y=              0.0629    Z=              0.4982  Tot=              0.6925
 Quadrupole moment (field-independent basis, Debye-Ang):
   XX=            -46.4857   YY=            -77.6261   ZZ=            -70.9769
   XY=             -1.0604   XZ=              1.6555   YZ=             -1.1002

 Normal termination of Gaussian 16 at Thu Dec  7 14:57:58 2023.
