 Gaussian 16, Revision B.01,
 Gaussian 16:  ES64L-G16RevB.01 20-Dec-2017

 -------------------------
 #P B3LYP/6-311+g(d) force
 -------------------------

 -----
 DPGEN
 -----
 Symbolic Z-matrix:
 Charge =  0 Multiplicity = 2

                         Standard orientation:
 ---------------------------------------------------------------------
 Center     Atomic      Atomic             Coordinates (Angstroms)
 Number     Number       Type             X           Y           Z
 ---------------------------------------------------------------------
      1         11           0       -0.035430   -0.606325    2.030900
      2         11           0       -2.200650   -2.062557   -0.185561
      3         11           0       -2.894630    1.459664   -0.089731
      4         11           0        1.471830   -2.450333   -0.363380
      5         11           0        3.064733    0.715937    0.084497
      6         11           0        0.223267    0.099384   -1.540662
      7         11           0        0.370879    2.844229    0.063937
 ---------------------------------------------------------------------

 SCF Done:  E(UB3LYP) =  -1136.13780926     A.U. after   19 cycles

 The electronic state is 2-A.
 Alpha  occ. eigenvalues --  -38.43944 -38.43924 -38.43792 -38.43511 -38.43437
 Alpha  occ. eigenvalues --  -38.43369 -38.43012  -2.19790  -2.19725  -2.19632
 Alpha  occ. eigenvalues --   -2.19406  -2.19332  -2.19228  -2.19035  -1.13470
 Alpha  occ. eigenvalues --   -1.13450  -1.13433  -1.13399  -1.13384  -1.13377
 Alpha  occ. eigenvalues --   -1.13311  -1.13305  -1.13259  -1.13145  -1.13081
 Alpha  occ. eigenvalues --   -1.13014  -1.12991  -1.12953  -1.12948  -1.12947
 Alpha  occ. eigenvalues --   -1.12886  -1.12848  -1.12708  -1.12667  -1.12642
 Alpha  occ. eigenvalues --   -0.18729  -0.12960  -0.12642  -0.10584
 Alpha virt. eigenvalues --   -0.05523  -0.05432  -0.04687  -0.03064  -0.02881
 Alpha virt. eigenvalues --   -0.02404  -0.01521  -0.01192  -0.00416  -0.00353
 Alpha virt. eigenvalues --    0.00001   0.00350   0.00802   0.00864   0.00888

  Beta  occ. eigenvalues --  -38.43940 -38.43925 -38.43787 -38.43497 -38.43365
  Beta  occ. eigenvalues --  -38.43344 -38.42951  -2.19787  -2.19728  -2.19626
  Beta  occ. eigenvalues --   -2.19385  -2.19224  -2.19160  -2.18925  -1.13466
  Beta  occ. eigenvalues --   -1.13436  -1.13426  -1.13389  -1.13385  -1.13380
  Beta  occ. eigenvalues --   -1.13304  -1.13276  -1.13259  -1.13123  -1.13029
  Beta  occ. eigenvalues --   -1.13003  -1.12943  -1.12880  -1.12866  -1.12849
  Beta  occ. eigenvalues --   -1.12832  -1.12824  -1.12633  -1.12585  -1.12562
  Beta  occ. eigenvalues --   -0.18009  -0.12746  -0.12405
  Beta virt. eigenvalues --   -0.06646  -0.05494  -0.05431  -0.04629  -0.02289
  Beta virt. eigenvalues --   -0.02134  -0.01452  -0.01326  -0.01124  -0.00468
  Beta virt. eigenvalues --   -0.00392   0.00156   0.00386   0.00847   0.00875

 Mulliken charges and spin densities:
               1          2
     1  Na  -0.587433   0.788464
     2  Na   0.237290  -0.059686
     3  Na  -0.032411  -0.066719
     4  Na   0.420945  -0.032124
     5  Na   0.212850   0.009622
     6  Na  -0.305577   0.403843
     7  Na   0.054337  -0.043400
 Sum of Mulliken charges =  -0.00000   1.00000

 Dipole moment (field-independent basis, Debye):
    X=             -0.0356    Y=             -0.0618    Z=              0.1710  Tot=              0.1853
 Quadrupole moment (field-independent basis, Debye-Ang):
   XX=            -55.5023   YY=            -62.1251   ZZ=            -75.2385
   XY=              0.1948   XZ=              0.6663   YZ=              1.5368

 Normal termination of Gaussian 16 at Wed Dec  6 01:20:45 2023.
