 Gaussian 16, Revision B.01,
 Gaussian 16:  ES64L-G16RevB.01 20-Dec-2017

 -------------------------
 #P B3LYP/6-311+g(d) force
 -------------------------

 -----
 DPGEN
 -----
 Symbolic Z-matrix:
 Charge =  0 Multiplicity = 2

                         Standard orientation:
 ---------------------------------------------------------------------
 Center     Atomic      Atomic             Coordinates (Angstroms)
 Number     Number       Type             X           Y           Z
 ---------------------------------------------------------------------
      1         11           0        0.689003   -0.338990   -1.938717
      2         11           0        2.306653    2.134666    0.133068
      3         11           0       -0.678069   -2.317824   -0.412203
      4         11           0       -1.403575    2.204936   -0.762279
      5         11           0       -3.327373   -0.361060    0.299073
      6         11           0       -0.254233    0.288439    2.216909
      7         11           0        2.667593   -1.610168    0.464149
 ---------------------------------------------------------------------

 SCF Done:  E(UB3LYP) =  -1136.13229469     A.U. after   19 cycles

 The electronic state is 2-A.
 Alpha  occ. eigenvalues --  -38.44438 -38.44041 -38.44032 -38.43857 -38.43572
 Alpha  occ. eigenvalues --  -38.43499 -38.42974  -2.20277  -2.19869  -2.19859
 Alpha  occ. eigenvalues --   -2.19822  -2.19370  -2.19338  -2.18900  -1.13943
 Alpha  occ. eigenvalues --   -1.13913  -1.13894  -1.13592  -1.13543  -1.13537
 Alpha  occ. eigenvalues --   -1.13528  -1.13525  -1.13521  -1.13491  -1.13436
 Alpha  occ. eigenvalues --   -1.13413  -1.13047  -1.13031  -1.13024  -1.13014
 Alpha  occ. eigenvalues --   -1.12995  -1.12957  -1.12622  -1.12544  -1.12485
 Alpha  occ. eigenvalues --   -0.18523  -0.13070  -0.11936  -0.11470
 Alpha virt. eigenvalues --   -0.05741  -0.05238  -0.04016  -0.03567  -0.03231
 Alpha virt. eigenvalues --   -0.03005  -0.01603  -0.00985  -0.00271  -0.00019
 Alpha virt. eigenvalues --    0.00117   0.00382   0.00657   0.00758   0.00890

  Beta  occ. eigenvalues --  -38.44353 -38.44041 -38.44024 -38.43784 -38.43573
  Beta  occ. eigenvalues --  -38.43479 -38.42962  -2.20121  -2.19871  -2.19846
  Beta  occ. eigenvalues --   -2.19689  -2.19374  -2.19304  -2.18883  -1.13840
  Beta  occ. eigenvalues --   -1.13802  -1.13779  -1.13537  -1.13535  -1.13528
  Beta  occ. eigenvalues --   -1.13512  -1.13512  -1.13491  -1.13476  -1.13344
  Beta  occ. eigenvalues --   -1.13321  -1.13038  -1.13033  -1.13013  -1.12993
  Beta  occ. eigenvalues --   -1.12961  -1.12938  -1.12595  -1.12511  -1.12479
  Beta  occ. eigenvalues --   -0.17744  -0.12902  -0.11704
  Beta virt. eigenvalues --   -0.07532  -0.05560  -0.05228  -0.03838  -0.02976
  Beta virt. eigenvalues --   -0.02390  -0.02072  -0.01494  -0.00917  -0.00172
  Beta virt. eigenvalues --    0.00041   0.00104   0.00403   0.00807   0.00894

 Mulliken charges and spin densities:
               1          2
     1  Na   0.183283   0.346517
     2  Na  -0.050204  -0.099711
     3  Na   0.166729   0.056781
     4  Na  -0.019408   0.001430
     5  Na   0.167037  -0.001452
     6  Na  -0.501655   0.696126
     7  Na   0.054218   0.000310
 Sum of Mulliken charges =  -0.00000   1.00000

 Dipole moment (field-independent basis, Debye):
    X=              0.1018    Y=              0.0846    Z=              0.4490  Tot=              0.4682
 Quadrupole moment (field-independent basis, Debye-Ang):
   XX=            -55.6172   YY=            -70.2021   ZZ=            -69.3800
   XY=             -0.4025   XZ=              1.2082   YZ=             -1.8620

 Normal termination of Gaussian 16 at Thu Dec  7 16:09:24 2023.
