 Gaussian 16, Revision B.01,
 Gaussian 16:  ES64L-G16RevB.01 20-Dec-2017

 -------------------------
 #P B3LYP/6-311+g(d) force
 -------------------------

 -----
 DPGEN
 -----
 Symbolic Z-matrix:
 Charge =  0 Multiplicity = 2

                         Standard orientation:
 ---------------------------------------------------------------------
 Center     Atomic      Atomic             Coordinates (Angstroms)
 Number     Number       Type             X           Y           Z
 ---------------------------------------------------------------------
      1         11           0       -1.260761   -1.756936    0.000527
      2         11           0        1.277033   -1.745617   -0.000873
      3         11           0       -2.162926    0.631241    0.000127
      4         11           0        2.157430    0.649412    0.000127
      5         11           0       -0.009629    2.244249   -0.000273
      6         11           0       -0.001123   -0.011124   -1.606363
      7         11           0       -0.000023   -0.011224    1.606727
 ---------------------------------------------------------------------

 SCF Done:  E(UB3LYP) =  -1136.00844980     A.U. after   18 cycles

 The electronic state is 2-A.
 Alpha  occ. eigenvalues --  -38.44891 -38.44889 -38.44865 -38.44863 -38.44518
 Alpha  occ. eigenvalues --  -38.44517 -38.44199  -2.21456  -2.21391  -2.21255
 Alpha  occ. eigenvalues --   -2.21164  -2.20802  -2.20797  -2.20451  -1.15838
 Alpha  occ. eigenvalues --   -1.15507  -1.15503  -1.15332  -1.15269  -1.15219
 Alpha  occ. eigenvalues --   -1.15073  -1.14958  -1.14724  -1.14615  -1.14610
 Alpha  occ. eigenvalues --   -1.14562  -1.14502  -1.14475  -1.14336  -1.14287
 Alpha  occ. eigenvalues --   -1.14253  -1.14175  -1.14013  -1.14012  -1.13858
 Alpha  occ. eigenvalues --   -0.23044  -0.13984  -0.13814  -0.12787
 Alpha virt. eigenvalues --   -0.05219  -0.04242  -0.04179  -0.03667  -0.03549
 Alpha virt. eigenvalues --   -0.02625  -0.00639  -0.00556  -0.00054   0.00310
 Alpha virt. eigenvalues --    0.01015   0.01064   0.01189   0.01251   0.01366

  Beta  occ. eigenvalues --  -38.44844 -38.44842 -38.44790 -38.44789 -38.44500
  Beta  occ. eigenvalues --  -38.44500 -38.44183  -2.21341  -2.21211  -2.21165
  Beta  occ. eigenvalues --   -2.21137  -2.20778  -2.20774  -2.20430  -1.15789
  Beta  occ. eigenvalues --   -1.15489  -1.15446  -1.15210  -1.15189  -1.15088
  Beta  occ. eigenvalues --   -1.14955  -1.14918  -1.14651  -1.14517  -1.14508
  Beta  occ. eigenvalues --   -1.14505  -1.14492  -1.14440  -1.14246  -1.14245
  Beta  occ. eigenvalues --   -1.14195  -1.14164  -1.14002  -1.13928  -1.13853
  Beta  occ. eigenvalues --   -0.22207  -0.13540  -0.13378
  Beta virt. eigenvalues --   -0.08429  -0.05284  -0.04203  -0.04144  -0.02629
  Beta virt. eigenvalues --   -0.02529  -0.01546  -0.00586  -0.00511   0.00077
  Beta virt. eigenvalues --    0.00326   0.00984   0.01040   0.01231   0.01301

 Mulliken charges and spin densities:
               1          2
     1  Na   0.265444   0.059777
     2  Na   0.265149   0.059897
     3  Na   0.210471   0.036433
     4  Na   0.210292   0.036583
     5  Na   0.264404   0.041775
     6  Na  -0.608329   0.382582
     7  Na  -0.607432   0.382953
 Sum of Mulliken charges =  -0.00000   1.00000

 Dipole moment (field-independent basis, Debye):
    X=             -0.0008    Y=              0.2861    Z=              0.0007  Tot=              0.2861
 Quadrupole moment (field-independent basis, Debye-Ang):
   XX=            -65.2122   YY=            -66.4386   ZZ=            -69.1102
   XY=              0.0007   XZ=             -0.0019   YZ=              0.0002

 Normal termination of Gaussian 16 at Fri Dec  8 18:58:31 2023.
