 Gaussian 16, Revision B.01,
 Gaussian 16:  ES64L-G16RevB.01 20-Dec-2017

 -------------------------
 #P B3LYP/6-311+g(d) force
 -------------------------

 -----
 DPGEN
 -----
 Symbolic Z-matrix:
 Charge =  0 Multiplicity = 2

                         Standard orientation:
 ---------------------------------------------------------------------
 Center     Atomic      Atomic             Coordinates (Angstroms)
 Number     Number       Type             X           Y           Z
 ---------------------------------------------------------------------
      1         11           0       -3.857698   -0.210537   -1.158808
      2         11           0        2.029647    1.925620   -0.341940
      3         11           0       -1.929230   -1.494271    0.993450
      4         11           0        3.717633   -1.134333   -1.027980
      5         11           0       -0.278646   -0.278804   -1.334519
      6         11           0       -1.079254    2.071338    0.977310
      7         11           0        1.397548   -0.879013    1.892487
 ---------------------------------------------------------------------

 SCF Done:  E(UB3LYP) =  -1136.12448587     A.U. after   26 cycles

 The electronic state is 2-A.
 Alpha  occ. eigenvalues --  -38.44698 -38.44568 -38.44433 -38.43956 -38.43544
 Alpha  occ. eigenvalues --  -38.43436 -38.42323  -2.20624  -2.20401  -2.20291
 Alpha  occ. eigenvalues --   -2.19886  -2.19334  -2.19322  -2.18190  -1.14381
 Alpha  occ. eigenvalues --   -1.14271  -1.14233  -1.14078  -1.14040  -1.14033
 Alpha  occ. eigenvalues --   -1.13980  -1.13928  -1.13897  -1.13592  -1.13518
 Alpha  occ. eigenvalues --   -1.13497  -1.13028  -1.13009  -1.13001  -1.12988
 Alpha  occ. eigenvalues --   -1.12966  -1.12906  -1.11870  -1.11855  -1.11823
 Alpha  occ. eigenvalues --   -0.18587  -0.14052  -0.11648  -0.10783
 Alpha virt. eigenvalues --   -0.06554  -0.05021  -0.04838  -0.03156  -0.02721
 Alpha virt. eigenvalues --   -0.02411  -0.02188  -0.01227  -0.00909  -0.00147
 Alpha virt. eigenvalues --    0.00086   0.00319   0.00454   0.00582   0.00738

  Beta  occ. eigenvalues --  -38.44678 -38.44539 -38.44358 -38.43918 -38.43534
  Beta  occ. eigenvalues --  -38.43415 -38.42320  -2.20589  -2.20347  -2.20155
  Beta  occ. eigenvalues --   -2.19821  -2.19317  -2.19285  -2.18186  -1.14336
  Beta  occ. eigenvalues --   -1.14248  -1.14205  -1.14043  -1.14003  -1.13993
  Beta  occ. eigenvalues --   -1.13882  -1.13832  -1.13792  -1.13553  -1.13480
  Beta  occ. eigenvalues --   -1.13408  -1.12998  -1.12995  -1.12981  -1.12968
  Beta  occ. eigenvalues --   -1.12954  -1.12879  -1.11871  -1.11832  -1.11825
  Beta  occ. eigenvalues --   -0.17833  -0.13788  -0.10663
  Beta virt. eigenvalues --   -0.07638  -0.06321  -0.04804  -0.04382  -0.02818
  Beta virt. eigenvalues --   -0.02411  -0.01933  -0.01669  -0.00957  -0.00592
  Beta virt. eigenvalues --   -0.00054   0.00134   0.00434   0.00499   0.00694

 Mulliken charges and spin densities:
               1          2
     1  Na   0.737052   0.173623
     2  Na   0.281740   0.108002
     3  Na   0.091638   0.151532
     4  Na   0.215066   0.017678
     5  Na  -0.815417   0.253134
     6  Na  -0.369337   0.064150
     7  Na  -0.140740   0.231881
 Sum of Mulliken charges =  -0.00000   1.00000

 Dipole moment (field-independent basis, Debye):
    X=             -0.7072    Y=              0.2775    Z=              0.0473  Tot=              0.7611
 Quadrupole moment (field-independent basis, Debye-Ang):
   XX=            -53.7425   YY=            -76.1319   ZZ=            -66.2594
   XY=             -0.4536   XZ=              1.0331   YZ=             -2.3599

 Normal termination of Gaussian 16 at Thu Dec  7 12:29:19 2023.
