 Gaussian 16, Revision B.01,
 Gaussian 16:  ES64L-G16RevB.01 20-Dec-2017

 -------------------------
 #P B3LYP/6-311+g(d) force
 -------------------------

 -----
 DPGEN
 -----
 Symbolic Z-matrix:
 Charge =  0 Multiplicity = 2

                         Standard orientation:
 ---------------------------------------------------------------------
 Center     Atomic      Atomic             Coordinates (Angstroms)
 Number     Number       Type             X           Y           Z
 ---------------------------------------------------------------------
      1         11           0       -3.294833    1.142886    0.208981
      2         11           0       -1.244207   -1.206237    1.578610
      3         11           0        1.862871   -0.706354    1.870744
      4         11           0       -1.904752   -1.243285   -1.634395
      5         11           0       -0.325286    2.303473   -0.049332
      6         11           0        3.681854    0.943009   -0.628211
      7         11           0        1.224352   -1.233492   -1.346397
 ---------------------------------------------------------------------

 SCF Done:  E(UB3LYP) =  -1136.12341499     A.U. after   24 cycles

 The electronic state is 2-A.
 Alpha  occ. eigenvalues --  -38.44532 -38.44352 -38.43801 -38.43787 -38.43746
 Alpha  occ. eigenvalues --  -38.43704 -38.43524  -2.20341  -2.20246  -2.19715
 Alpha  occ. eigenvalues --   -2.19666  -2.19630  -2.19538  -2.19445  -1.14020
 Alpha  occ. eigenvalues --   -1.13997  -1.13972  -1.13948  -1.13890  -1.13848
 Alpha  occ. eigenvalues --   -1.13433  -1.13409  -1.13360  -1.13350  -1.13332
 Alpha  occ. eigenvalues --   -1.13319  -1.13280  -1.13244  -1.13232  -1.13229
 Alpha  occ. eigenvalues --   -1.13221  -1.13136  -1.13128  -1.13101  -1.13046
 Alpha  occ. eigenvalues --   -0.18579  -0.14146  -0.11865  -0.11197
 Alpha virt. eigenvalues --   -0.06606  -0.05017  -0.04717  -0.03530  -0.02663
 Alpha virt. eigenvalues --   -0.02580  -0.02203  -0.00964  -0.00780  -0.00077
 Alpha virt. eigenvalues --    0.00187   0.00264   0.00335   0.00697   0.00779

  Beta  occ. eigenvalues --  -38.44515 -38.44289 -38.43782 -38.43755 -38.43754
  Beta  occ. eigenvalues --  -38.43654 -38.43481  -2.20309  -2.20133  -2.19657
  Beta  occ. eigenvalues --   -2.19629  -2.19557  -2.19542  -2.19370  -1.13988
  Beta  occ. eigenvalues --   -1.13977  -1.13951  -1.13864  -1.13816  -1.13758
  Beta  occ. eigenvalues --   -1.13374  -1.13363  -1.13343  -1.13325  -1.13303
  Beta  occ. eigenvalues --   -1.13253  -1.13243  -1.13234  -1.13226  -1.13177
  Beta  occ. eigenvalues --   -1.13171  -1.13148  -1.13078  -1.13036  -1.12988
  Beta  occ. eigenvalues --   -0.17899  -0.13961  -0.10958
  Beta virt. eigenvalues --   -0.07772  -0.06445  -0.04759  -0.04282  -0.03144
  Beta virt. eigenvalues --   -0.02197  -0.02005  -0.01888  -0.00846  -0.00339
  Beta virt. eigenvalues --    0.00049   0.00207   0.00308   0.00489   0.00761

 Mulliken charges and spin densities:
               1          2
     1  Na   0.805990  -0.003241
     2  Na  -0.510254   0.296070
     3  Na   0.254022   0.150791
     4  Na   0.244757   0.118470
     5  Na  -0.825727  -0.021675
     6  Na   0.790797   0.096926
     7  Na  -0.759584   0.362658
 Sum of Mulliken charges =  -0.00000   1.00000

 Dipole moment (field-independent basis, Debye):
    X=              0.4417    Y=             -0.0651    Z=              0.0573  Tot=              0.4501
 Quadrupole moment (field-independent basis, Debye-Ang):
   XX=            -50.6934   YY=            -78.5160   ZZ=            -67.5568
   XY=              2.8431   XZ=              0.1094   YZ=             -0.9817

 Normal termination of Gaussian 16 at Thu Dec  7 03:48:12 2023.
