 Gaussian 16, Revision B.01,
 Gaussian 16:  ES64L-G16RevB.01 20-Dec-2017

 -------------------------
 #P B3LYP/6-311+g(d) force
 -------------------------

 -----
 DPGEN
 -----
 Symbolic Z-matrix:
 Charge =  0 Multiplicity = 2

                         Standard orientation:
 ---------------------------------------------------------------------
 Center     Atomic      Atomic             Coordinates (Angstroms)
 Number     Number       Type             X           Y           Z
 ---------------------------------------------------------------------
      1         11           0        2.785521   -0.336913   -0.094158
      2         11           0        3.075629    3.219429    0.042573
      3         11           0       -3.952295    0.573266    0.202802
      4         11           0        5.408795   -2.615505   -0.156820
      5         11           0       -6.352300   -1.157228   -0.315060
      6         11           0       -0.396632    1.617527   -0.220266
      7         11           0       -0.568718   -1.300576    0.540928
 ---------------------------------------------------------------------

 SCF Done:  E(UB3LYP) =  -1136.10961551     A.U. after   23 cycles

 The electronic state is 2-A.
 Alpha  occ. eigenvalues --  -38.45885 -38.45796 -38.44336 -38.44068 -38.43796
 Alpha  occ. eigenvalues --  -38.43653 -38.43196  -2.21739  -2.21597  -2.20200
 Alpha  occ. eigenvalues --   -2.19886  -2.19636  -2.19396  -2.19037  -1.15415
 Alpha  occ. eigenvalues --   -1.15385  -1.15342  -1.15234  -1.15225  -1.15201
 Alpha  occ. eigenvalues --   -1.13903  -1.13875  -1.13817  -1.13613  -1.13522
 Alpha  occ. eigenvalues --   -1.13520  -1.13310  -1.13299  -1.13245  -1.13067
 Alpha  occ. eigenvalues --   -1.13065  -1.13039  -1.12748  -1.12737  -1.12629
 Alpha  occ. eigenvalues --   -0.17188  -0.14165  -0.12106  -0.11359
 Alpha virt. eigenvalues --   -0.06954  -0.05520  -0.04252  -0.04188  -0.03066
 Alpha virt. eigenvalues --   -0.02622  -0.01850  -0.01587  -0.01329  -0.00997
 Alpha virt. eigenvalues --   -0.00620  -0.00417  -0.00015   0.00384   0.00531

  Beta  occ. eigenvalues --  -38.45821 -38.45678 -38.44333 -38.44029 -38.43797
  Beta  occ. eigenvalues --  -38.43663 -38.43187  -2.21620  -2.21376  -2.20201
  Beta  occ. eigenvalues --   -2.19814  -2.19642  -2.19415  -2.19023  -1.15337
  Beta  occ. eigenvalues --   -1.15305  -1.15256  -1.15084  -1.15074  -1.15052
  Beta  occ. eigenvalues --   -1.13890  -1.13881  -1.13799  -1.13570  -1.13473
  Beta  occ. eigenvalues --   -1.13472  -1.13317  -1.13304  -1.13220  -1.13080
  Beta  occ. eigenvalues --   -1.13077  -1.13051  -1.12731  -1.12705  -1.12628
  Beta  occ. eigenvalues --   -0.16524  -0.13478  -0.11130
  Beta virt. eigenvalues --   -0.08623  -0.06684  -0.04887  -0.03964  -0.03898
  Beta virt. eigenvalues --   -0.02575  -0.02391  -0.01530  -0.01470  -0.01084
  Beta virt. eigenvalues --   -0.00691  -0.00300  -0.00260   0.00148   0.00467

 Mulliken charges and spin densities:
               1          2
     1  Na  -1.180735   0.088977
     2  Na   1.797592   0.330676
     3  Na  -1.078774   0.186367
     4  Na  -0.533870  -0.041254
     5  Na   0.797497   0.080270
     6  Na   0.130844   0.141589
     7  Na   0.067445   0.213375
 Sum of Mulliken charges =  -0.00000   1.00000

 Dipole moment (field-independent basis, Debye):
    X=             -0.4029    Y=              0.8161    Z=              0.2661  Tot=              0.9482
 Quadrupole moment (field-independent basis, Debye-Ang):
   XX=            -71.3093   YY=            -59.3624   ZZ=            -73.8513
   XY=              8.3925   XZ=              1.2225   YZ=             -0.7660

 Normal termination of Gaussian 16 at Wed Nov 29 00:00:13 2023.
