 Gaussian 16, Revision B.01,
 Gaussian 16:  ES64L-G16RevB.01 20-Dec-2017

 -------------------------
 #P B3LYP/6-311+g(d) force
 -------------------------

 -----
 DPGEN
 -----
 Symbolic Z-matrix:
 Charge =  0 Multiplicity = 2

                         Standard orientation:
 ---------------------------------------------------------------------
 Center     Atomic      Atomic             Coordinates (Angstroms)
 Number     Number       Type             X           Y           Z
 ---------------------------------------------------------------------
      1         11           0        2.625401   -1.872428    0.175403
      2         11           0        2.682858    2.054569   -0.109606
      3         11           0        0.364487   -0.377851   -1.693471
      4         11           0       -1.123527   -2.622472   -0.273913
      5         11           0       -3.377393   -0.051873    0.203734
      6         11           0       -1.318405    2.730969   -0.397459
      7         11           0        0.146579    0.139086    2.095313
 ---------------------------------------------------------------------

 SCF Done:  E(UB3LYP) =  -1136.13286696     A.U. after   20 cycles

 The electronic state is 2-A.
 Alpha  occ. eigenvalues --  -38.44296 -38.44274 -38.44180 -38.43818 -38.43733
 Alpha  occ. eigenvalues --  -38.43391 -38.43364  -2.20085  -2.20061  -2.19977
 Alpha  occ. eigenvalues --   -2.19660  -2.19520  -2.19306  -2.19256  -1.13772
 Alpha  occ. eigenvalues --   -1.13750  -1.13741  -1.13719  -1.13711  -1.13701
 Alpha  occ. eigenvalues --   -1.13646  -1.13636  -1.13628  -1.13327  -1.13289
 Alpha  occ. eigenvalues --   -1.13276  -1.13202  -1.13185  -1.13151  -1.13097
 Alpha  occ. eigenvalues --   -1.12962  -1.12930  -1.12903  -1.12877  -1.12851
 Alpha  occ. eigenvalues --   -0.18093  -0.12916  -0.12210  -0.10586
 Alpha virt. eigenvalues --   -0.05861  -0.05756  -0.04522  -0.03184  -0.02886
 Alpha virt. eigenvalues --   -0.02524  -0.01709  -0.01402  -0.00675  -0.00405
 Alpha virt. eigenvalues --   -0.00041   0.00335   0.00711   0.00787   0.00853

  Beta  occ. eigenvalues --  -38.44296 -38.44269 -38.44180 -38.43726 -38.43724
  Beta  occ. eigenvalues --  -38.43383 -38.43300  -2.20080  -2.20062  -2.19979
  Beta  occ. eigenvalues --   -2.19511  -2.19487  -2.19246  -2.19188  -1.13762
  Beta  occ. eigenvalues --   -1.13731  -1.13726  -1.13719  -1.13712  -1.13702
  Beta  occ. eigenvalues --   -1.13642  -1.13632  -1.13630  -1.13213  -1.13188
  Beta  occ. eigenvalues --   -1.13177  -1.13162  -1.13150  -1.13147  -1.13050
  Beta  occ. eigenvalues --   -1.12890  -1.12878  -1.12866  -1.12840  -1.12798
  Beta  occ. eigenvalues --   -0.17377  -0.12748  -0.11978
  Beta virt. eigenvalues --   -0.06711  -0.05866  -0.05663  -0.04446  -0.02468
  Beta virt. eigenvalues --   -0.02128  -0.01615  -0.01515  -0.01328  -0.00715
  Beta virt. eigenvalues --   -0.00434   0.00110   0.00366   0.00769   0.00798

 Mulliken charges and spin densities:
               1          2
     1  Na   0.154136  -0.080678
     2  Na  -0.037357  -0.113839
     3  Na   0.065241   0.504925
     4  Na   0.272096  -0.029155
     5  Na  -0.016046  -0.013707
     6  Na  -0.054402  -0.053823
     7  Na  -0.383668   0.786277
 Sum of Mulliken charges =  -0.00000   1.00000

 Dipole moment (field-independent basis, Debye):
    X=              0.3445    Y=              0.0245    Z=              0.1659  Tot=              0.3831
 Quadrupole moment (field-independent basis, Debye-Ang):
   XX=            -54.0786   YY=            -63.6947   ZZ=            -75.3983
   XY=             -0.0711   XZ=              0.1219   YZ=             -1.2593

 Normal termination of Gaussian 16 at Thu Dec  7 12:40:06 2023.
