 Gaussian 16, Revision B.01,
 Gaussian 16:  ES64L-G16RevB.01 20-Dec-2017

 -------------------------
 #P B3LYP/6-311+g(d) force
 -------------------------

 -----
 DPGEN
 -----
 Symbolic Z-matrix:
 Charge =  0 Multiplicity = 2

                         Standard orientation:
 ---------------------------------------------------------------------
 Center     Atomic      Atomic             Coordinates (Angstroms)
 Number     Number       Type             X           Y           Z
 ---------------------------------------------------------------------
      1         11           0        0.646750   -0.552651    1.737531
      2         11           0       -0.049289    1.806068   -1.411583
      3         11           0       -2.230018   -1.252729    1.591116
      4         11           0       -3.141585    1.711198   -0.392687
      5         11           0        2.364811   -1.568285   -0.772237
      6         11           0        2.851440    2.026362    0.793947
      7         11           0       -0.442109   -2.169964   -1.546087
 ---------------------------------------------------------------------

 SCF Done:  E(UB3LYP) =  -1136.12354201     A.U. after   20 cycles

 The electronic state is 2-A.
 Alpha  occ. eigenvalues --  -38.44180 -38.44119 -38.44042 -38.43988 -38.43934
 Alpha  occ. eigenvalues --  -38.43795 -38.43723  -2.20070  -2.19997  -2.19978
 Alpha  occ. eigenvalues --   -2.19860  -2.19724  -2.19590  -2.19547  -1.13853
 Alpha  occ. eigenvalues --   -1.13843  -1.13765  -1.13682  -1.13632  -1.13617
 Alpha  occ. eigenvalues --   -1.13592  -1.13579  -1.13531  -1.13512  -1.13474
 Alpha  occ. eigenvalues --   -1.13467  -1.13417  -1.13386  -1.13359  -1.13265
 Alpha  occ. eigenvalues --   -1.13245  -1.13227  -1.13219  -1.13211  -1.13155
 Alpha  occ. eigenvalues --   -0.18130  -0.13042  -0.12136  -0.11818
 Alpha virt. eigenvalues --   -0.05687  -0.05353  -0.04287  -0.03723  -0.03268
 Alpha virt. eigenvalues --   -0.02832  -0.01540  -0.01174  -0.00489   0.00005
 Alpha virt. eigenvalues --    0.00211   0.00247   0.00380   0.00676   0.00764

  Beta  occ. eigenvalues --  -38.44159 -38.44066 -38.43977 -38.43942 -38.43931
  Beta  occ. eigenvalues --  -38.43782 -38.43694  -2.20035  -2.19894  -2.19870
  Beta  occ. eigenvalues --   -2.19777  -2.19720  -2.19569  -2.19494  -1.13807
  Beta  occ. eigenvalues --   -1.13760  -1.13715  -1.13660  -1.13556  -1.13550
  Beta  occ. eigenvalues --   -1.13521  -1.13518  -1.13451  -1.13447  -1.13420
  Beta  occ. eigenvalues --   -1.13405  -1.13405  -1.13382  -1.13357  -1.13244
  Beta  occ. eigenvalues --   -1.13230  -1.13212  -1.13187  -1.13171  -1.13117
  Beta  occ. eigenvalues --   -0.17433  -0.12767  -0.11786
  Beta virt. eigenvalues --   -0.07965  -0.05630  -0.05142  -0.03739  -0.03370
  Beta virt. eigenvalues --   -0.02699  -0.02065  -0.01470  -0.00996  -0.00199
  Beta virt. eigenvalues --    0.00030   0.00300   0.00323   0.00451   0.00705

 Mulliken charges and spin densities:
               1          2
     1  Na  -0.442633   0.230051
     2  Na  -0.432657   0.302675
     3  Na   0.391086   0.342065
     4  Na  -0.073438  -0.094529
     5  Na   0.357489   0.195107
     6  Na   0.361295  -0.055573
     7  Na  -0.161141   0.080205
 Sum of Mulliken charges =  -0.00000   1.00000

 Dipole moment (field-independent basis, Debye):
    X=              0.0845    Y=             -0.1907    Z=             -0.0925  Tot=              0.2281
 Quadrupole moment (field-independent basis, Debye-Ang):
   XX=            -57.0645   YY=            -70.8534   ZZ=            -68.6626
   XY=              1.7714   XZ=             -0.2486   YZ=              1.7256

 Normal termination of Gaussian 16 at Mon Dec  4 04:42:19 2023.
