 Gaussian 16, Revision B.01,
 Gaussian 16:  ES64L-G16RevB.01 20-Dec-2017

 -------------------------
 #P B3LYP/6-311+g(d) force
 -------------------------

 -----
 DPGEN
 -----
 Symbolic Z-matrix:
 Charge =  0 Multiplicity = 2

                         Standard orientation:
 ---------------------------------------------------------------------
 Center     Atomic      Atomic             Coordinates (Angstroms)
 Number     Number       Type             X           Y           Z
 ---------------------------------------------------------------------
      1         11           0       -1.326959    2.158325   -0.717729
      2         11           0       -2.125249   -2.377745   -0.449919
      3         11           0        0.659589   -0.910679   -1.165100
      4         11           0        3.525616   -1.507024    0.173532
      5         11           0        2.459540    2.108577   -0.351327
      6         11           0        0.395726    0.109187    2.038330
      7         11           0       -3.588263    0.419358    0.472213
 ---------------------------------------------------------------------

 SCF Done:  E(UB3LYP) =  -1136.11905163     A.U. after   25 cycles

 The electronic state is 2-A.
 Alpha  occ. eigenvalues --  -38.45337 -38.45155 -38.44316 -38.44103 -38.43666
 Alpha  occ. eigenvalues --  -38.43229 -38.43215  -2.21123  -2.20986  -2.20114
 Alpha  occ. eigenvalues --   -2.19943  -2.19493  -2.19162  -2.19075  -1.14807
 Alpha  occ. eigenvalues --   -1.14778  -1.14757  -1.14683  -1.14632  -1.14625
 Alpha  occ. eigenvalues --   -1.13791  -1.13773  -1.13747  -1.13638  -1.13569
 Alpha  occ. eigenvalues --   -1.13542  -1.13192  -1.13143  -1.13137  -1.12863
 Alpha  occ. eigenvalues --   -1.12814  -1.12780  -1.12750  -1.12740  -1.12713
 Alpha  occ. eigenvalues --   -0.18149  -0.13988  -0.11517  -0.10204
 Alpha virt. eigenvalues --   -0.07204  -0.06043  -0.03985  -0.03389  -0.02709
 Alpha virt. eigenvalues --   -0.02297  -0.02090  -0.01695  -0.00868  -0.00327
 Alpha virt. eigenvalues --   -0.00020   0.00101   0.00436   0.00586   0.00634

  Beta  occ. eigenvalues --  -38.45338 -38.45153 -38.44303 -38.44012 -38.43657
  Beta  occ. eigenvalues --  -38.43217 -38.43173  -2.21126  -2.20982  -2.20094
  Beta  occ. eigenvalues --   -2.19775  -2.19480  -2.19088  -2.19056  -1.14806
  Beta  occ. eigenvalues --   -1.14776  -1.14754  -1.14683  -1.14628  -1.14615
  Beta  occ. eigenvalues --   -1.13762  -1.13759  -1.13733  -1.13522  -1.13454
  Beta  occ. eigenvalues --   -1.13420  -1.13176  -1.13132  -1.13122  -1.12807
  Beta  occ. eigenvalues --   -1.12755  -1.12739  -1.12723  -1.12708  -1.12698
  Beta  occ. eigenvalues --   -0.17488  -0.13855  -0.11254
  Beta virt. eigenvalues --   -0.07084  -0.06381  -0.06029  -0.03683  -0.02953
  Beta virt. eigenvalues --   -0.02527  -0.01762  -0.01537  -0.01127  -0.00865
  Beta virt. eigenvalues --   -0.00125   0.00009   0.00160   0.00554   0.00642

 Mulliken charges and spin densities:
               1          2
     1  Na  -0.163289  -0.074278
     2  Na   0.073429  -0.014477
     3  Na  -0.387438   0.279487
     4  Na   0.371564   0.001367
     5  Na   0.274787   0.049985
     6  Na  -0.383470   0.615151
     7  Na   0.214417   0.142766
 Sum of Mulliken charges =  -0.00000   1.00000

 Dipole moment (field-independent basis, Debye):
    X=              0.6767    Y=             -0.0333    Z=              0.3354  Tot=              0.7560
 Quadrupole moment (field-independent basis, Debye-Ang):
   XX=            -43.2619   YY=            -71.2490   ZZ=            -76.9939
   XY=             -0.7785   XZ=             -0.9135   YZ=             -1.1586

 Normal termination of Gaussian 16 at Thu Dec  7 11:54:47 2023.
