 Gaussian 16, Revision B.01,
 Gaussian 16:  ES64L-G16RevB.01 20-Dec-2017

 -------------------------
 #P B3LYP/6-311+g(d) force
 -------------------------

 -----
 DPGEN
 -----
 Symbolic Z-matrix:
 Charge =  0 Multiplicity = 2

                         Standard orientation:
 ---------------------------------------------------------------------
 Center     Atomic      Atomic             Coordinates (Angstroms)
 Number     Number       Type             X           Y           Z
 ---------------------------------------------------------------------
      1         11           0        0.405155    0.182474   -1.371540
      2         11           0        3.558498    0.172518    0.257709
      3         11           0       -2.191885   -2.385967    0.358700
      4         11           0       -0.410344    3.312989   -0.309503
      5         11           0        1.245366   -2.402527   -0.528659
      6         11           0       -2.757788    0.596574   -0.246028
      7         11           0        0.150999    0.523940    1.839322
 ---------------------------------------------------------------------

 SCF Done:  E(UB3LYP) =  -1136.12929634     A.U. after   21 cycles

 The electronic state is 2-A.
 Alpha  occ. eigenvalues --  -38.44624 -38.43956 -38.43787 -38.43657 -38.43455
 Alpha  occ. eigenvalues --  -38.43428 -38.43082  -2.20414  -2.19845  -2.19688
 Alpha  occ. eigenvalues --   -2.19481  -2.19355  -2.19271  -2.19122  -1.14086
 Alpha  occ. eigenvalues --   -1.14067  -1.14052  -1.13547  -1.13519  -1.13514
 Alpha  occ. eigenvalues --   -1.13481  -1.13326  -1.13268  -1.13154  -1.13140
 Alpha  occ. eigenvalues --   -1.13121  -1.13072  -1.12970  -1.12961  -1.12953
 Alpha  occ. eigenvalues --   -1.12917  -1.12905  -1.12799  -1.12745  -1.12715
 Alpha  occ. eigenvalues --   -0.18609  -0.13184  -0.12506  -0.10269
 Alpha virt. eigenvalues --   -0.06115  -0.05235  -0.04613  -0.03089  -0.02746
 Alpha virt. eigenvalues --   -0.02061  -0.01925  -0.01426  -0.00408  -0.00273
 Alpha virt. eigenvalues --    0.00024   0.00301   0.00753   0.00780   0.00861

  Beta  occ. eigenvalues --  -38.44619 -38.43949 -38.43766 -38.43649 -38.43424
  Beta  occ. eigenvalues --  -38.43376 -38.43025  -2.20406  -2.19835  -2.19654
  Beta  occ. eigenvalues --   -2.19469  -2.19268  -2.19210  -2.19020  -1.14078
  Beta  occ. eigenvalues --   -1.14050  -1.14048  -1.13543  -1.13484  -1.13481
  Beta  occ. eigenvalues --   -1.13473  -1.13283  -1.13249  -1.13142  -1.13121
  Beta  occ. eigenvalues --   -1.13110  -1.12977  -1.12953  -1.12908  -1.12893
  Beta  occ. eigenvalues --   -1.12870  -1.12854  -1.12722  -1.12665  -1.12644
  Beta  occ. eigenvalues --   -0.17930  -0.12929  -0.12266
  Beta virt. eigenvalues --   -0.06494  -0.05997  -0.05168  -0.04556  -0.02400
  Beta virt. eigenvalues --   -0.02066  -0.01810  -0.01343  -0.01090  -0.00433
  Beta virt. eigenvalues --   -0.00243   0.00164   0.00349   0.00768   0.00827

 Mulliken charges and spin densities:
               1          2
     1  Na  -0.100145   0.007238
     2  Na   0.001545   0.021595
     3  Na  -0.127512   0.023444
     4  Na   0.143023   0.014240
     5  Na   0.334495   0.160625
     6  Na   0.182492   0.089285
     7  Na  -0.433898   0.683573
 Sum of Mulliken charges =  -0.00000   1.00000

 Dipole moment (field-independent basis, Debye):
    X=              0.5915    Y=              0.3643    Z=              0.2012  Tot=              0.7232
 Quadrupole moment (field-independent basis, Debye-Ang):
   XX=            -54.9132   YY=            -59.7925   ZZ=            -76.6383
   XY=              0.7124   XZ=              0.6376   YZ=             -1.0399

 Normal termination of Gaussian 16 at Thu Dec  7 02:49:26 2023.
