 Gaussian 16, Revision B.01,
 Gaussian 16:  ES64L-G16RevB.01 20-Dec-2017

 -------------------------
 #P B3LYP/6-311+g(d) force
 -------------------------

 -----
 DPGEN
 -----
 Symbolic Z-matrix:
 Charge =  0 Multiplicity = 2

                         Standard orientation:
 ---------------------------------------------------------------------
 Center     Atomic      Atomic             Coordinates (Angstroms)
 Number     Number       Type             X           Y           Z
 ---------------------------------------------------------------------
      1         11           0        0.620389    0.045034    2.147755
      2         11           0        3.117694   -1.498851   -0.122438
      3         11           0       -1.417142    2.416357    0.255798
      4         11           0       -0.943480   -2.664239    0.046841
      5         11           0       -3.514819   -0.125292   -0.174178
      6         11           0       -0.174498   -0.358587   -1.537590
      7         11           0        2.311855    2.185577   -0.616187
 ---------------------------------------------------------------------

 SCF Done:  E(UB3LYP) =  -1136.13033622     A.U. after   20 cycles

 The electronic state is 2-A.
 Alpha  occ. eigenvalues --  -38.44807 -38.44573 -38.43902 -38.43593 -38.43522
 Alpha  occ. eigenvalues --  -38.43481 -38.43161  -2.20573  -2.20382  -2.19694
 Alpha  occ. eigenvalues --   -2.19482  -2.19449  -2.19343  -2.19001  -1.14252
 Alpha  occ. eigenvalues --   -1.14223  -1.14214  -1.14054  -1.14048  -1.14019
 Alpha  occ. eigenvalues --   -1.13373  -1.13346  -1.13330  -1.13327  -1.13152
 Alpha  occ. eigenvalues --   -1.13109  -1.13078  -1.13073  -1.13065  -1.12989
 Alpha  occ. eigenvalues --   -1.12965  -1.12931  -1.12682  -1.12669  -1.12634
 Alpha  occ. eigenvalues --   -0.18174  -0.13198  -0.11991  -0.10563
 Alpha virt. eigenvalues --   -0.06375  -0.05440  -0.04242  -0.03252  -0.02740
 Alpha virt. eigenvalues --   -0.02486  -0.02104  -0.01293  -0.00600  -0.00243
 Alpha virt. eigenvalues --   -0.00080   0.00276   0.00675   0.00735   0.00802

  Beta  occ. eigenvalues --  -38.44805 -38.44574 -38.43885 -38.43492 -38.43476
  Beta  occ. eigenvalues --  -38.43475 -38.43156  -2.20572  -2.20385  -2.19664
  Beta  occ. eigenvalues --   -2.19399  -2.19335  -2.19262  -2.18993  -1.14237
  Beta  occ. eigenvalues --   -1.14223  -1.14212  -1.14054  -1.14042  -1.14021
  Beta  occ. eigenvalues --   -1.13340  -1.13326  -1.13309  -1.13285  -1.13090
  Beta  occ. eigenvalues --   -1.13020  -1.12988  -1.12969  -1.12944  -1.12939
  Beta  occ. eigenvalues --   -1.12929  -1.12918  -1.12679  -1.12639  -1.12633
  Beta  occ. eigenvalues --   -0.17493  -0.12986  -0.11773
  Beta virt. eigenvalues --   -0.06682  -0.06320  -0.05377  -0.04179  -0.02580
  Beta virt. eigenvalues --   -0.02061  -0.01983  -0.01449  -0.01210  -0.00602
  Beta virt. eigenvalues --   -0.00264   0.00092   0.00323   0.00752   0.00806

 Mulliken charges and spin densities:
               1          2
     1  Na  -0.402406   0.715573
     2  Na   0.146549  -0.037218
     3  Na   0.110165   0.014171
     4  Na   0.242597  -0.055715
     5  Na   0.097608  -0.022957
     6  Na  -0.189844   0.316962
     7  Na  -0.004669   0.069184
 Sum of Mulliken charges =  -0.00000   1.00000

 Dipole moment (field-independent basis, Debye):
    X=              0.1795    Y=             -0.2973    Z=              0.0435  Tot=              0.3500
 Quadrupole moment (field-independent basis, Debye-Ang):
   XX=            -50.4936   YY=            -66.6041   ZZ=            -75.2819
   XY=             -0.5759   XZ=             -1.1470   YZ=             -1.0715

 Normal termination of Gaussian 16 at Thu Dec  7 07:29:24 2023.
