 Gaussian 16, Revision B.01,
 Gaussian 16:  ES64L-G16RevB.01 20-Dec-2017

 -------------------------
 #P B3LYP/6-311+g(d) force
 -------------------------

 -----
 DPGEN
 -----
 Symbolic Z-matrix:
 Charge =  0 Multiplicity = 2

                         Standard orientation:
 ---------------------------------------------------------------------
 Center     Atomic      Atomic             Coordinates (Angstroms)
 Number     Number       Type             X           Y           Z
 ---------------------------------------------------------------------
      1         11           0       -0.632270   -0.115739    1.990569
      2         11           0       -1.330744    2.956132    0.254129
      3         11           0        4.836618   -0.129424    0.259135
      4         11           0       -3.295135   -1.386605    0.394117
      5         11           0       -1.602247    0.207730   -1.793576
      6         11           0        1.510012    1.041478   -0.666779
      7         11           0        0.513765   -2.573572   -0.437596
 ---------------------------------------------------------------------

 SCF Done:  E(UB3LYP) =  -1136.11875675     A.U. after   26 cycles

 The electronic state is 2-A.
 Alpha  occ. eigenvalues --  -38.45476 -38.44806 -38.44693 -38.43992 -38.43472
 Alpha  occ. eigenvalues --  -38.43179 -38.42917  -2.21187  -2.20629  -2.20465
 Alpha  occ. eigenvalues --   -2.19878  -2.19402  -2.19043  -2.18746  -1.14865
 Alpha  occ. eigenvalues --   -1.14862  -1.14817  -1.14327  -1.14295  -1.14241
 Alpha  occ. eigenvalues --   -1.14161  -1.14149  -1.14060  -1.13549  -1.13521
 Alpha  occ. eigenvalues --   -1.13482  -1.13101  -1.13052  -1.12990  -1.12758
 Alpha  occ. eigenvalues --   -1.12740  -1.12624  -1.12413  -1.12405  -1.12388
 Alpha  occ. eigenvalues --   -0.18194  -0.12714  -0.11773  -0.10889
 Alpha virt. eigenvalues --   -0.07658  -0.04769  -0.04017  -0.03107  -0.02840
 Alpha virt. eigenvalues --   -0.02729  -0.02620  -0.01315  -0.00858  -0.00539
 Alpha virt. eigenvalues --   -0.00109   0.00029   0.00253   0.00635   0.00804

  Beta  occ. eigenvalues --  -38.45493 -38.44791 -38.44678 -38.43905 -38.43400
  Beta  occ. eigenvalues --  -38.43163 -38.42914  -2.21219  -2.20606  -2.20440
  Beta  occ. eigenvalues --   -2.19720  -2.19269  -2.19016  -2.18744  -1.14886
  Beta  occ. eigenvalues --   -1.14884  -1.14838  -1.14307  -1.14254  -1.14228
  Beta  occ. eigenvalues --   -1.14146  -1.14109  -1.14046  -1.13436  -1.13413
  Beta  occ. eigenvalues --   -1.13368  -1.12999  -1.12967  -1.12894  -1.12743
  Beta  occ. eigenvalues --   -1.12694  -1.12611  -1.12411  -1.12395  -1.12379
  Beta  occ. eigenvalues --   -0.17360  -0.12665  -0.11550
  Beta virt. eigenvalues --   -0.07529  -0.06874  -0.04699  -0.03936  -0.02857
  Beta virt. eigenvalues --   -0.02416  -0.02019  -0.01630  -0.01283  -0.00661
  Beta virt. eigenvalues --   -0.00404  -0.00060   0.00024   0.00410   0.00669

 Mulliken charges and spin densities:
               1          2
     1  Na  -0.012889   0.826530
     2  Na  -0.028594  -0.173709
     3  Na   0.172634  -0.087476
     4  Na   0.127444  -0.189384
     5  Na   0.344789   0.583438
     6  Na  -0.524033   0.057432
     7  Na  -0.079352  -0.016830
 Sum of Mulliken charges =  -0.00000   1.00000

 Dipole moment (field-independent basis, Debye):
    X=              0.2832    Y=             -0.6288    Z=              0.2755  Tot=              0.7426
 Quadrupole moment (field-independent basis, Debye-Ang):
   XX=            -48.1925   YY=            -68.8501   ZZ=            -73.7322
   XY=             -1.6193   XZ=              1.6085   YZ=              0.8843

 Normal termination of Gaussian 16 at Wed Nov 29 15:54:59 2023.
