 Gaussian 16, Revision B.01,
 Gaussian 16:  ES64L-G16RevB.01 20-Dec-2017

 -------------------------
 #P B3LYP/6-311+g(d) force
 -------------------------

 -----
 DPGEN
 -----
 Symbolic Z-matrix:
 Charge =  0 Multiplicity = 2

                         Standard orientation:
 ---------------------------------------------------------------------
 Center     Atomic      Atomic             Coordinates (Angstroms)
 Number     Number       Type             X           Y           Z
 ---------------------------------------------------------------------
      1         11           0        2.143088   -2.229966   -0.613446
      2         11           0       -0.245816   -1.153069    2.080928
      3         11           0        3.257261    0.990215    1.105877
      4         11           0        0.662453    3.547041   -1.019968
      5         11           0       -1.552433    0.887994   -1.349937
      6         11           0       -0.859741   -2.614613   -1.527919
      7         11           0       -3.404812    0.572397    1.324466
 ---------------------------------------------------------------------

 SCF Done:  E(UB3LYP) =  -1136.11847092     A.U. after   21 cycles

 The electronic state is 2-A.
 Alpha  occ. eigenvalues --  -38.45200 -38.44530 -38.44257 -38.44133 -38.44069
 Alpha  occ. eigenvalues --  -38.43999 -38.43670  -2.20986  -2.20326  -2.19990
 Alpha  occ. eigenvalues --   -2.19885  -2.19881  -2.19843  -2.19513  -1.14660
 Alpha  occ. eigenvalues --   -1.14635  -1.14598  -1.13988  -1.13981  -1.13963
 Alpha  occ. eigenvalues --   -1.13675  -1.13647  -1.13626  -1.13615  -1.13559
 Alpha  occ. eigenvalues --   -1.13551  -1.13545  -1.13527  -1.13512  -1.13503
 Alpha  occ. eigenvalues --   -1.13467  -1.13435  -1.13184  -1.13182  -1.13142
 Alpha  occ. eigenvalues --   -0.17073  -0.12828  -0.12118  -0.11549
 Alpha virt. eigenvalues --   -0.06183  -0.05448  -0.05028  -0.03523  -0.03035
 Alpha virt. eigenvalues --   -0.02881  -0.01643  -0.01059  -0.00840  -0.00486
 Alpha virt. eigenvalues --   -0.00239   0.00098   0.00248   0.00402   0.00694

  Beta  occ. eigenvalues --  -38.45134 -38.44503 -38.44249 -38.44107 -38.44067
  Beta  occ. eigenvalues --  -38.43952 -38.43645  -2.20866  -2.20278  -2.19977
  Beta  occ. eigenvalues --   -2.19880  -2.19838  -2.19755  -2.19468  -1.14581
  Beta  occ. eigenvalues --   -1.14554  -1.14501  -1.13961  -1.13944  -1.13922
  Beta  occ. eigenvalues --   -1.13665  -1.13638  -1.13615  -1.13593  -1.13552
  Beta  occ. eigenvalues --   -1.13521  -1.13515  -1.13512  -1.13481  -1.13438
  Beta  occ. eigenvalues --   -1.13409  -1.13392  -1.13155  -1.13144  -1.13105
  Beta  occ. eigenvalues --   -0.16421  -0.12546  -0.11766
  Beta virt. eigenvalues --   -0.08015  -0.05819  -0.05145  -0.04684  -0.03152
  Beta virt. eigenvalues --   -0.02669  -0.02189  -0.01445  -0.00910  -0.00630
  Beta virt. eigenvalues --   -0.00392  -0.00115   0.00233   0.00408   0.00463

 Mulliken charges and spin densities:
               1          2
     1  Na  -0.159980   0.051591
     2  Na   0.050743   0.412664
     3  Na  -0.132754   0.011416
     4  Na  -0.100753   0.095071
     5  Na   0.374607   0.124555
     6  Na   0.056801   0.185990
     7  Na  -0.088663   0.118712
 Sum of Mulliken charges =  -0.00000   1.00000

 Dipole moment (field-independent basis, Debye):
    X=             -0.4399    Y=             -0.4958    Z=              0.5489  Tot=              0.8606
 Quadrupole moment (field-independent basis, Debye-Ang):
   XX=            -61.6919   YY=            -67.4032   ZZ=            -68.4077
   XY=             -0.4458   XZ=             -1.1347   YZ=              1.1128

 Normal termination of Gaussian 16 at Mon Dec  4 02:06:03 2023.
