 Gaussian 16, Revision B.01,
 Gaussian 16:  ES64L-G16RevB.01 20-Dec-2017

 -------------------------
 #P B3LYP/6-311+g(d) force
 -------------------------

 -----
 DPGEN
 -----
 Symbolic Z-matrix:
 Charge =  0 Multiplicity = 2

                         Standard orientation:
 ---------------------------------------------------------------------
 Center     Atomic      Atomic             Coordinates (Angstroms)
 Number     Number       Type             X           Y           Z
 ---------------------------------------------------------------------
      1         11           0       -1.725423   -0.961337    1.913761
      2         11           0        4.689001    0.203930   -0.267639
      3         11           0        1.643677    1.737407    0.021045
      4         11           0       -0.949725   -0.988919   -1.671054
      5         11           0        2.078850   -1.859252    0.355861
      6         11           0       -4.049491   -0.256763   -0.678005
      7         11           0       -1.686889    2.124936    0.326032
 ---------------------------------------------------------------------

 SCF Done:  E(UB3LYP) =  -1136.11429143     A.U. after   26 cycles

 The electronic state is 2-A.
 Alpha  occ. eigenvalues --  -38.45539 -38.45535 -38.44882 -38.44393 -38.43608
 Alpha  occ. eigenvalues --  -38.43035 -38.42408  -2.21352  -2.21347  -2.20699
 Alpha  occ. eigenvalues --   -2.20262  -2.19422  -2.18869  -2.18281  -1.15029
 Alpha  occ. eigenvalues --   -1.15019  -1.15011  -1.14996  -1.14994  -1.14974
 Alpha  occ. eigenvalues --   -1.14352  -1.14344  -1.14324  -1.13925  -1.13887
 Alpha  occ. eigenvalues --   -1.13884  -1.13113  -1.13103  -1.13045  -1.12579
 Alpha  occ. eigenvalues --   -1.12552  -1.12487  -1.11963  -1.11955  -1.11910
 Alpha  occ. eigenvalues --   -0.17962  -0.14632  -0.10839  -0.10768
 Alpha virt. eigenvalues --   -0.07939  -0.05297  -0.04497  -0.03438  -0.03039
 Alpha virt. eigenvalues --   -0.02207  -0.02073  -0.01554  -0.01400  -0.00672
 Alpha virt. eigenvalues --   -0.00282   0.00163   0.00192   0.00617   0.00712

  Beta  occ. eigenvalues --  -38.45533 -38.45490 -38.44832 -38.44322 -38.43598
  Beta  occ. eigenvalues --  -38.43036 -38.42398  -2.21341  -2.21270  -2.20605
  Beta  occ. eigenvalues --   -2.20129  -2.19408  -2.18872  -2.18266  -1.15020
  Beta  occ. eigenvalues --   -1.15013  -1.14962  -1.14946  -1.14937  -1.14921
  Beta  occ. eigenvalues --   -1.14287  -1.14280  -1.14265  -1.13827  -1.13805
  Beta  occ. eigenvalues --   -1.13793  -1.13108  -1.13093  -1.13011  -1.12584
  Beta  occ. eigenvalues --   -1.12546  -1.12479  -1.11957  -1.11938  -1.11886
  Beta  occ. eigenvalues --   -0.17380  -0.14119  -0.10542
  Beta virt. eigenvalues --   -0.07728  -0.07226  -0.05151  -0.03844  -0.03203
  Beta virt. eigenvalues --   -0.02923  -0.01821  -0.01729  -0.01199  -0.00801
  Beta virt. eigenvalues --   -0.00405  -0.00234   0.00197   0.00313   0.00698

 Mulliken charges and spin densities:
               1          2
     1  Na  -0.057762   0.250996
     2  Na   0.497042   0.245608
     3  Na  -0.530398   0.030195
     4  Na  -0.149604  -0.019349
     5  Na  -0.107500   0.061793
     6  Na   0.669737   0.404369
     7  Na  -0.321515   0.026387
 Sum of Mulliken charges =  -0.00000   1.00000

 Dipole moment (field-independent basis, Debye):
    X=              0.0035    Y=             -0.8169    Z=              0.4285  Tot=              0.9225
 Quadrupole moment (field-independent basis, Debye-Ang):
   XX=            -50.9977   YY=            -82.3750   ZZ=            -64.5764
   XY=             -0.1970   XZ=             -5.0404   YZ=             -3.2330

 Normal termination of Gaussian 16 at Fri Dec  8 06:59:40 2023.
