 Gaussian 16, Revision B.01,
 Gaussian 16:  ES64L-G16RevB.01 20-Dec-2017

 -------------------------
 #P B3LYP/6-311+g(d) force
 -------------------------

 -----
 DPGEN
 -----
 Symbolic Z-matrix:
 Charge =  0 Multiplicity = 2

                         Standard orientation:
 ---------------------------------------------------------------------
 Center     Atomic      Atomic             Coordinates (Angstroms)
 Number     Number       Type             X           Y           Z
 ---------------------------------------------------------------------
      1         11           0        4.057013   -0.525363   -0.687204
      2         11           0       -1.048843    1.724564    1.376516
      3         11           0       -2.779271   -1.702954    0.759453
      4         11           0        1.718482   -1.000299    1.284818
      5         11           0        0.309316   -0.960798   -1.173671
      6         11           0        1.801799    1.915773   -0.312839
      7         11           0       -4.058496    0.549076   -1.247073
 ---------------------------------------------------------------------

 SCF Done:  E(UB3LYP) =  -1136.11177876     A.U. after   26 cycles

 The electronic state is 2-A.
 Alpha  occ. eigenvalues --  -38.45528 -38.44617 -38.44395 -38.44301 -38.43936
 Alpha  occ. eigenvalues --  -38.42978 -38.42488  -2.21429  -2.20605  -2.20203
 Alpha  occ. eigenvalues --   -2.20104  -2.19818  -2.18915  -2.18322  -1.15249
 Alpha  occ. eigenvalues --   -1.15080  -1.14999  -1.14320  -1.14250  -1.14182
 Alpha  occ. eigenvalues --   -1.13872  -1.13849  -1.13834  -1.13780  -1.13757
 Alpha  occ. eigenvalues --   -1.13731  -1.13495  -1.13467  -1.13430  -1.12617
 Alpha  occ. eigenvalues --   -1.12583  -1.12515  -1.12005  -1.11985  -1.11954
 Alpha  occ. eigenvalues --   -0.18476  -0.14517  -0.10841  -0.10761
 Alpha virt. eigenvalues --   -0.06978  -0.05687  -0.04627  -0.03136  -0.02857
 Alpha virt. eigenvalues --   -0.02276  -0.01899  -0.01212  -0.01019  -0.00494
 Alpha virt. eigenvalues --   -0.00139   0.00173   0.00303   0.00503   0.00651

  Beta  occ. eigenvalues --  -38.45507 -38.44575 -38.44324 -38.44304 -38.43900
  Beta  occ. eigenvalues --  -38.42955 -38.42487  -2.21396  -2.20533  -2.20113
  Beta  occ. eigenvalues --   -2.20068  -2.19753  -2.18872  -2.18322  -1.15205
  Beta  occ. eigenvalues --   -1.15044  -1.14981  -1.14272  -1.14170  -1.14134
  Beta  occ. eigenvalues --   -1.13815  -1.13794  -1.13763  -1.13749  -1.13735
  Beta  occ. eigenvalues --   -1.13685  -1.13454  -1.13411  -1.13388  -1.12590
  Beta  occ. eigenvalues --   -1.12558  -1.12470  -1.11997  -1.11977  -1.11959
  Beta  occ. eigenvalues --   -0.17865  -0.13986  -0.10644
  Beta virt. eigenvalues --   -0.07197  -0.06855  -0.05026  -0.04416  -0.02992
  Beta virt. eigenvalues --   -0.02666  -0.01711  -0.01521  -0.00864  -0.00769
  Beta virt. eigenvalues --   -0.00246  -0.00010   0.00291   0.00375   0.00611

 Mulliken charges and spin densities:
               1          2
     1  Na   0.802797   0.164504
     2  Na  -0.207372  -0.006188
     3  Na   0.297679   0.128392
     4  Na   0.083355   0.252250
     5  Na  -0.311407  -0.072330
     6  Na  -0.534834   0.164005
     7  Na  -0.130217   0.369368
 Sum of Mulliken charges =  -0.00000   1.00000

 Dipole moment (field-independent basis, Debye):
    X=              0.3109    Y=             -0.2773    Z=              0.0719  Tot=              0.4228
 Quadrupole moment (field-independent basis, Debye-Ang):
   XX=            -61.7833   YY=            -77.5324   ZZ=            -62.4242
   XY=             -0.7309   XZ=             -0.8026   YZ=             -5.4468

 Normal termination of Gaussian 16 at Tue Dec  5 19:22:38 2023.
