 Gaussian 16, Revision B.01,
 Gaussian 16:  ES64L-G16RevB.01 20-Dec-2017

 -------------------------
 #P B3LYP/6-311+g(d) force
 -------------------------

 -----
 DPGEN
 -----
 Symbolic Z-matrix:
 Charge =  0 Multiplicity = 2

                         Standard orientation:
 ---------------------------------------------------------------------
 Center     Atomic      Atomic             Coordinates (Angstroms)
 Number     Number       Type             X           Y           Z
 ---------------------------------------------------------------------
      1         11           0        3.229162   -1.231150    0.879718
      2         11           0       -1.079042    2.181438   -0.632283
      3         11           0       -1.687351   -2.324488   -0.913526
      4         11           0       -0.293173   -0.271682    1.934239
      5         11           0       -3.579382    0.304418    0.518351
      6         11           0        2.050989    2.303439   -0.309913
      7         11           0        1.358797   -0.961976   -1.476585
 ---------------------------------------------------------------------

 SCF Done:  E(UB3LYP) =  -1136.12764110     A.U. after   21 cycles

 The electronic state is 2-A.
 Alpha  occ. eigenvalues --  -38.44755 -38.44583 -38.44526 -38.43716 -38.43467
 Alpha  occ. eigenvalues --  -38.43456 -38.42964  -2.20575  -2.20417  -2.20359
 Alpha  occ. eigenvalues --   -2.19539  -2.19382  -2.19299  -2.18833  -1.14250
 Alpha  occ. eigenvalues --   -1.14232  -1.14209  -1.14100  -1.14069  -1.14066
 Alpha  occ. eigenvalues --   -1.14029  -1.13991  -1.13986  -1.13225  -1.13194
 Alpha  occ. eigenvalues --   -1.13165  -1.13056  -1.13046  -1.13011  -1.12985
 Alpha  occ. eigenvalues --   -1.12958  -1.12924  -1.12512  -1.12489  -1.12474
 Alpha  occ. eigenvalues --   -0.18164  -0.13748  -0.11855  -0.10853
 Alpha virt. eigenvalues --   -0.06584  -0.05347  -0.04463  -0.03507  -0.02689
 Alpha virt. eigenvalues --   -0.02396  -0.02227  -0.01127  -0.00638  -0.00223
 Alpha virt. eigenvalues --    0.00056   0.00245   0.00316   0.00712   0.00783

  Beta  occ. eigenvalues --  -38.44748 -38.44519 -38.44505 -38.43679 -38.43450
  Beta  occ. eigenvalues --  -38.43427 -38.42957  -2.20565  -2.20321  -2.20297
  Beta  occ. eigenvalues --   -2.19474  -2.19311  -2.19288  -2.18823  -1.14243
  Beta  occ. eigenvalues --   -1.14213  -1.14206  -1.14045  -1.14016  -1.13988
  Beta  occ. eigenvalues --   -1.13963  -1.13960  -1.13927  -1.13173  -1.13146
  Beta  occ. eigenvalues --   -1.13117  -1.13006  -1.12990  -1.12986  -1.12962
  Beta  occ. eigenvalues --   -1.12930  -1.12910  -1.12507  -1.12478  -1.12453
  Beta  occ. eigenvalues --   -0.17524  -0.13578  -0.11512
  Beta virt. eigenvalues --   -0.07137  -0.06377  -0.05331  -0.03936  -0.03178
  Beta virt. eigenvalues --   -0.02168  -0.01997  -0.01519  -0.01056  -0.00447
  Beta virt. eigenvalues --   -0.00099   0.00083   0.00283   0.00483   0.00757

 Mulliken charges and spin densities:
               1          2
     1  Na   0.330978   0.156239
     2  Na  -0.611723  -0.004632
     3  Na  -0.367747   0.147266
     4  Na  -0.438990   0.399224
     5  Na   0.997557   0.103730
     6  Na   0.019239   0.038063
     7  Na   0.070686   0.160110
 Sum of Mulliken charges =  -0.00000   1.00000

 Dipole moment (field-independent basis, Debye):
    X=             -0.2756    Y=             -0.1949    Z=              0.5162  Tot=              0.6168
 Quadrupole moment (field-independent basis, Debye-Ang):
   XX=            -49.2956   YY=            -73.4663   ZZ=            -72.0432
   XY=              0.0313   XZ=              1.0228   YZ=             -0.0892

 Normal termination of Gaussian 16 at Sun Dec  3 15:52:51 2023.
