 Gaussian 16, Revision B.01,
 Gaussian 16:  ES64L-G16RevB.01 20-Dec-2017

 -------------------------
 #P B3LYP/6-311+g(d) force
 -------------------------

 -----
 DPGEN
 -----
 Symbolic Z-matrix:
 Charge =  0 Multiplicity = 2

                         Standard orientation:
 ---------------------------------------------------------------------
 Center     Atomic      Atomic             Coordinates (Angstroms)
 Number     Number       Type             X           Y           Z
 ---------------------------------------------------------------------
      1         11           0       -1.990099   -2.107052   -0.144939
      2         11           0       -2.933331    0.826388    0.025179
      3         11           0        0.147741    2.660742    0.269528
      4         11           0       -0.074097    0.511152   -1.753474
      5         11           0        0.114804   -0.426909    1.922654
      6         11           0        1.880544   -2.160836   -0.313541
      7         11           0        2.854436    0.696516   -0.005407
 ---------------------------------------------------------------------

 SCF Done:  E(UB3LYP) =  -1136.13494457     A.U. after   19 cycles

 The electronic state is 2-A.
 Alpha  occ. eigenvalues --  -38.44054 -38.43911 -38.43518 -38.43430 -38.43422
 Alpha  occ. eigenvalues --  -38.43351 -38.42933  -2.19932  -2.19829  -2.19394
 Alpha  occ. eigenvalues --   -2.19374  -2.19348  -2.19313  -2.18859  -1.13636
 Alpha  occ. eigenvalues --   -1.13590  -1.13574  -1.13544  -1.13485  -1.13477
 Alpha  occ. eigenvalues --   -1.13096  -1.13083  -1.13058  -1.13052  -1.13031
 Alpha  occ. eigenvalues --   -1.13019  -1.12994  -1.12980  -1.12968  -1.12958
 Alpha  occ. eigenvalues --   -1.12946  -1.12932  -1.12540  -1.12507  -1.12471
 Alpha  occ. eigenvalues --   -0.19244  -0.13540  -0.12352  -0.10974
 Alpha virt. eigenvalues --   -0.05674  -0.05120  -0.04281  -0.03450  -0.02960
 Alpha virt. eigenvalues --   -0.02509  -0.01519  -0.00890  -0.00132  -0.00059
 Alpha virt. eigenvalues --   -0.00018   0.00385   0.00825   0.00942   0.00951

  Beta  occ. eigenvalues --  -38.44051 -38.43904 -38.43514 -38.43414 -38.43345
  Beta  occ. eigenvalues --  -38.43282 -38.42923  -2.19929  -2.19821  -2.19389
  Beta  occ. eigenvalues --   -2.19301  -2.19223  -2.19216  -2.18844  -1.13635
  Beta  occ. eigenvalues --   -1.13578  -1.13561  -1.13541  -1.13480  -1.13443
  Beta  occ. eigenvalues --   -1.13074  -1.13036  -1.13026  -1.13005  -1.12996
  Beta  occ. eigenvalues --   -1.12950  -1.12938  -1.12928  -1.12893  -1.12876
  Beta  occ. eigenvalues --   -1.12866  -1.12861  -1.12526  -1.12466  -1.12463
  Beta  occ. eigenvalues --   -0.18482  -0.13285  -0.12116
  Beta virt. eigenvalues --   -0.07020  -0.05624  -0.05124  -0.04245  -0.02616
  Beta virt. eigenvalues --   -0.02172  -0.01468  -0.01422  -0.00828  -0.00177
  Beta virt. eigenvalues --   -0.00102   0.00125   0.00405   0.00887   0.00938

 Mulliken charges and spin densities:
               1          2
     1  Na   0.119868  -0.084762
     2  Na   0.177182  -0.051936
     3  Na   0.310051  -0.021519
     4  Na  -0.479628   0.553270
     5  Na  -0.545010   0.649670
     6  Na   0.117833  -0.055230
     7  Na   0.299703   0.010506
 Sum of Mulliken charges =  -0.00000   1.00000

 Dipole moment (field-independent basis, Debye):
    X=             -0.1399    Y=             -0.0516    Z=              0.0709  Tot=              0.1651
 Quadrupole moment (field-independent basis, Debye-Ang):
   XX=            -56.3444   YY=            -65.5301   ZZ=            -72.8405
   XY=             -0.1839   XZ=             -0.3448   YZ=              2.0638

 Normal termination of Gaussian 16 at Wed Nov 29 16:03:00 2023.
