 Gaussian 16, Revision B.01,
 Gaussian 16:  ES64L-G16RevB.01 20-Dec-2017

 -------------------------
 #P B3LYP/6-311+g(d) force
 -------------------------

 -----
 DPGEN
 -----
 Symbolic Z-matrix:
 Charge =  0 Multiplicity = 2

                         Standard orientation:
 ---------------------------------------------------------------------
 Center     Atomic      Atomic             Coordinates (Angstroms)
 Number     Number       Type             X           Y           Z
 ---------------------------------------------------------------------
      1         11           0        0.615959    0.248528   -1.698455
      2         11           0       -2.088843    1.938403   -0.799947
      3         11           0       -2.333577   -0.289196    1.694547
      4         11           0        1.188704    1.788150    1.181606
      5         11           0        3.573033   -0.237231   -0.363382
      6         11           0       -1.889002   -1.829162   -1.146687
      7         11           0        0.933726   -1.619493    1.132318
 ---------------------------------------------------------------------

 SCF Done:  E(UB3LYP) =  -1136.13086060     A.U. after   23 cycles

 The electronic state is 2-A.
 Alpha  occ. eigenvalues --  -38.44730 -38.44265 -38.43718 -38.43546 -38.43429
 Alpha  occ. eigenvalues --  -38.43035 -38.42930  -2.20581  -2.20135  -2.19590
 Alpha  occ. eigenvalues --   -2.19539  -2.19308  -2.18945  -2.18785  -1.14263
 Alpha  occ. eigenvalues --   -1.14231  -1.14217  -1.13806  -1.13793  -1.13755
 Alpha  occ. eigenvalues --   -1.13315  -1.13261  -1.13229  -1.13189  -1.13177
 Alpha  occ. eigenvalues --   -1.13154  -1.12985  -1.12958  -1.12923  -1.12652
 Alpha  occ. eigenvalues --   -1.12616  -1.12545  -1.12470  -1.12450  -1.12410
 Alpha  occ. eigenvalues --   -0.18923  -0.13858  -0.11683  -0.11096
 Alpha virt. eigenvalues --   -0.06210  -0.04793  -0.04601  -0.03203  -0.02820
 Alpha virt. eigenvalues --   -0.02701  -0.01997  -0.00683  -0.00561   0.00095
 Alpha virt. eigenvalues --    0.00313   0.00351   0.00393   0.00760   0.00906

  Beta  occ. eigenvalues --  -38.44728 -38.44223 -38.43687 -38.43481 -38.43401
  Beta  occ. eigenvalues --  -38.43011 -38.42924  -2.20579  -2.20059  -2.19534
  Beta  occ. eigenvalues --   -2.19421  -2.19259  -2.18905  -2.18776  -1.14251
  Beta  occ. eigenvalues --   -1.14231  -1.14215  -1.13752  -1.13735  -1.13702
  Beta  occ. eigenvalues --   -1.13275  -1.13201  -1.13156  -1.13150  -1.13088
  Beta  occ. eigenvalues --   -1.13070  -1.12938  -1.12926  -1.12881  -1.12628
  Beta  occ. eigenvalues --   -1.12557  -1.12521  -1.12449  -1.12444  -1.12399
  Beta  occ. eigenvalues --   -0.18141  -0.13664  -0.10912
  Beta virt. eigenvalues --   -0.07680  -0.06017  -0.04659  -0.04041  -0.02951
  Beta virt. eigenvalues --   -0.02194  -0.01936  -0.01797  -0.00543  -0.00268
  Beta virt. eigenvalues --    0.00176   0.00347   0.00380   0.00527   0.00841

 Mulliken charges and spin densities:
               1          2
     1  Na  -0.272278   0.386393
     2  Na   0.051026  -0.073637
     3  Na   0.028355   0.311547
     4  Na  -0.342574   0.206735
     5  Na   0.724735  -0.033569
     6  Na   0.172639  -0.034395
     7  Na  -0.361903   0.236926
 Sum of Mulliken charges =  -0.00000   1.00000

 Dipole moment (field-independent basis, Debye):
    X=              0.7996    Y=             -0.0097    Z=              0.1828  Tot=              0.8203
 Quadrupole moment (field-independent basis, Debye-Ang):
   XX=            -50.6810   YY=            -76.5635   ZZ=            -66.2934
   XY=             -0.0136   XZ=             -0.9876   YZ=              2.6559

 Normal termination of Gaussian 16 at Tue Dec  5 23:33:40 2023.
