 Gaussian 16, Revision B.01,
 Gaussian 16:  ES64L-G16RevB.01 20-Dec-2017

 -------------------------
 #P B3LYP/6-311+g(d) force
 -------------------------

 -----
 DPGEN
 -----
 Symbolic Z-matrix:
 Charge =  0 Multiplicity = 2

                         Standard orientation:
 ---------------------------------------------------------------------
 Center     Atomic      Atomic             Coordinates (Angstroms)
 Number     Number       Type             X           Y           Z
 ---------------------------------------------------------------------
      1         11           0       -0.728793   -2.118016    0.470021
      2         11           0       -1.221144    2.082570    0.359140
      3         11           0       -2.581002   -0.311605   -0.576795
      4         11           0        0.104437    0.342556    1.753197
      5         11           0        0.370231   -0.599141   -1.702109
      6         11           0        2.348124   -1.015321    0.402861
      7         11           0        1.708148    1.618956   -0.706315
 ---------------------------------------------------------------------

 SCF Done:  E(UB3LYP) =  -1136.09193994     A.U. after   19 cycles

 The electronic state is 2-A.
 Alpha  occ. eigenvalues --  -38.44343 -38.44044 -38.43972 -38.43701 -38.43613
 Alpha  occ. eigenvalues --  -38.43515 -38.43343  -2.20569  -2.20236  -2.20004
 Alpha  occ. eigenvalues --   -2.19773  -2.19686  -2.19573  -2.19451  -1.14491
 Alpha  occ. eigenvalues --   -1.14266  -1.14163  -1.14070  -1.13984  -1.13882
 Alpha  occ. eigenvalues --   -1.13772  -1.13708  -1.13612  -1.13523  -1.13431
 Alpha  occ. eigenvalues --   -1.13381  -1.13342  -1.13301  -1.13222  -1.13208
 Alpha  occ. eigenvalues --   -1.13154  -1.13115  -1.13102  -1.13074  -1.13003
 Alpha  occ. eigenvalues --   -0.21187  -0.13780  -0.12768  -0.12313
 Alpha virt. eigenvalues --   -0.05131  -0.04344  -0.04065  -0.03839  -0.03251
 Alpha virt. eigenvalues --   -0.03075  -0.01021  -0.00523  -0.00118   0.00360
 Alpha virt. eigenvalues --    0.00743   0.00822   0.01025   0.01094   0.01110

  Beta  occ. eigenvalues --  -38.44251 -38.43966 -38.43959 -38.43685 -38.43589
  Beta  occ. eigenvalues --  -38.43504 -38.43324  -2.20406  -2.20096  -2.19983
  Beta  occ. eigenvalues --   -2.19750  -2.19646  -2.19559  -2.19423  -1.14374
  Beta  occ. eigenvalues --   -1.14166  -1.14053  -1.13973  -1.13903  -1.13806
  Beta  occ. eigenvalues --   -1.13744  -1.13686  -1.13564  -1.13501  -1.13388
  Beta  occ. eigenvalues --   -1.13344  -1.13313  -1.13238  -1.13201  -1.13168
  Beta  occ. eigenvalues --   -1.13133  -1.13093  -1.13089  -1.13010  -1.12986
  Beta  occ. eigenvalues --   -0.20389  -0.13457  -0.12449
  Beta virt. eigenvalues --   -0.08103  -0.05114  -0.04336  -0.03971  -0.02975
  Beta virt. eigenvalues --   -0.02450  -0.01880  -0.00946  -0.00462   0.00034
  Beta virt. eigenvalues --    0.00395   0.00744   0.00809   0.01045   0.01103

 Mulliken charges and spin densities:
               1          2
     1  Na   0.188979   0.096091
     2  Na   0.338191   0.223765
     3  Na  -0.187455  -0.063601
     4  Na  -0.270292   0.313950
     5  Na  -0.223748   0.463043
     6  Na   0.108139  -0.081876
     7  Na   0.046186   0.048627
 Sum of Mulliken charges =  -0.00000   1.00000

 Dipole moment (field-independent basis, Debye):
    X=              0.0470    Y=             -0.0249    Z=             -0.1557  Tot=              0.1645
 Quadrupole moment (field-independent basis, Debye-Ang):
   XX=            -60.8040   YY=            -69.2096   ZZ=            -67.9165
   XY=             -0.2820   XZ=              1.1766   YZ=             -1.8809

 Normal termination of Gaussian 16 at Fri Dec  8 17:47:07 2023.
