 Gaussian 16, Revision B.01,
 Gaussian 16:  ES64L-G16RevB.01 20-Dec-2017

 -------------------------
 #P B3LYP/6-311+g(d) force
 -------------------------

 -----
 DPGEN
 -----
 Symbolic Z-matrix:
 Charge =  0 Multiplicity = 2

                         Standard orientation:
 ---------------------------------------------------------------------
 Center     Atomic      Atomic             Coordinates (Angstroms)
 Number     Number       Type             X           Y           Z
 ---------------------------------------------------------------------
      1         11           0       -2.815667   -1.492553    0.524921
      2         11           0       -2.307592    2.119094   -0.580531
      3         11           0        0.220247    0.068247    2.028976
      4         11           0        0.486899   -2.909530   -0.326914
      5         11           0        3.162024   -0.527426   -0.181594
      6         11           0        1.321615    2.837716    0.234650
      7         11           0       -0.067525   -0.095549   -1.699509
 ---------------------------------------------------------------------

 SCF Done:  E(UB3LYP) =  -1136.13799633     A.U. after   19 cycles

 The electronic state is 2-A.
 Alpha  occ. eigenvalues --  -38.43947 -38.43840 -38.43777 -38.43757 -38.43744
 Alpha  occ. eigenvalues --  -38.43516 -38.43360  -2.19755  -2.19646  -2.19636
 Alpha  occ. eigenvalues --   -2.19565  -2.19546  -2.19368  -2.19301  -1.13436
 Alpha  occ. eigenvalues --   -1.13419  -1.13391  -1.13323  -1.13312  -1.13292
 Alpha  occ. eigenvalues --   -1.13286  -1.13281  -1.13263  -1.13261  -1.13220
 Alpha  occ. eigenvalues --   -1.13217  -1.13204  -1.13193  -1.13171  -1.13113
 Alpha  occ. eigenvalues --   -1.13027  -1.12982  -1.12970  -1.12918  -1.12913
 Alpha  occ. eigenvalues --   -0.18230  -0.12625  -0.12505  -0.10804
 Alpha virt. eigenvalues --   -0.05462  -0.05280  -0.04919  -0.03127  -0.03029
 Alpha virt. eigenvalues --   -0.02603  -0.01482  -0.01268  -0.00545  -0.00392
 Alpha virt. eigenvalues --   -0.00016   0.00352   0.00805   0.00840   0.00858

  Beta  occ. eigenvalues --  -38.43945 -38.43829 -38.43743 -38.43740 -38.43690
  Beta  occ. eigenvalues --  -38.43508 -38.43295  -2.19754  -2.19618  -2.19545
  Beta  occ. eigenvalues --   -2.19540  -2.19485  -2.19357  -2.19183  -1.13425
  Beta  occ. eigenvalues --   -1.13419  -1.13383  -1.13287  -1.13279  -1.13268
  Beta  occ. eigenvalues --   -1.13240  -1.13230  -1.13207  -1.13199  -1.13195
  Beta  occ. eigenvalues --   -1.13185  -1.13167  -1.13165  -1.13130  -1.13087
  Beta  occ. eigenvalues --   -1.13010  -1.12970  -1.12893  -1.12844  -1.12827
  Beta  occ. eigenvalues --   -0.17523  -0.12366  -0.12254
  Beta virt. eigenvalues --   -0.06976  -0.05457  -0.05173  -0.04836  -0.02412
  Beta virt. eigenvalues --   -0.02301  -0.01604  -0.01376  -0.01159  -0.00561
  Beta virt. eigenvalues --   -0.00434   0.00107   0.00380   0.00830   0.00854

 Mulliken charges and spin densities:
               1          2
     1  Na  -0.020086   0.056543
     2  Na   0.020383  -0.010619
     3  Na  -0.241711   0.714425
     4  Na   0.174116  -0.035098
     5  Na   0.005957  -0.103144
     6  Na   0.005674  -0.071571
     7  Na   0.055667   0.449465
 Sum of Mulliken charges =  -0.00000   1.00000

 Dipole moment (field-independent basis, Debye):
    X=              0.1279    Y=              0.0335    Z=              0.1323  Tot=              0.1870
 Quadrupole moment (field-independent basis, Debye-Ang):
   XX=            -57.8690   YY=            -61.2814   ZZ=            -74.1239
   XY=              0.2724   XZ=             -0.7730   YZ=             -0.5503

 Normal termination of Gaussian 16 at Thu Dec  7 06:36:05 2023.
