 Gaussian 16, Revision B.01,
 Gaussian 16:  ES64L-G16RevB.01 20-Dec-2017

 -------------------------
 #P B3LYP/6-311+g(d) force
 -------------------------

 -----
 DPGEN
 -----
 Symbolic Z-matrix:
 Charge =  0 Multiplicity = 2

                         Standard orientation:
 ---------------------------------------------------------------------
 Center     Atomic      Atomic             Coordinates (Angstroms)
 Number     Number       Type             X           Y           Z
 ---------------------------------------------------------------------
      1         11           0       -2.563151   -1.461706   -0.412602
      2         11           0        0.497189   -2.453410   -0.362879
      3         11           0        1.062211    2.718873    0.226613
      4         11           0       -0.005354    0.438403   -1.617183
      5         11           0       -2.311348    1.942881    0.281429
      6         11           0        0.153892   -0.939613    2.138902
      7         11           0        3.166560   -0.245428   -0.254280
 ---------------------------------------------------------------------

 SCF Done:  E(UB3LYP) =  -1136.13438728     A.U. after   19 cycles

 The electronic state is 2-A.
 Alpha  occ. eigenvalues --  -38.43937 -38.43909 -38.43649 -38.43600 -38.43564
 Alpha  occ. eigenvalues --  -38.43202 -38.43182  -2.19831  -2.19732  -2.19490
 Alpha  occ. eigenvalues --   -2.19451  -2.19441  -2.19196  -2.19180  -1.13565
 Alpha  occ. eigenvalues --   -1.13453  -1.13425  -1.13409  -1.13386  -1.13378
 Alpha  occ. eigenvalues --   -1.13200  -1.13172  -1.13155  -1.13144  -1.13137
 Alpha  occ. eigenvalues --   -1.13106  -1.13089  -1.13077  -1.13055  -1.12933
 Alpha  occ. eigenvalues --   -1.12862  -1.12848  -1.12803  -1.12785  -1.12766
 Alpha  occ. eigenvalues --   -0.18866  -0.12850  -0.12807  -0.10953
 Alpha virt. eigenvalues --   -0.05466  -0.05088  -0.04618  -0.03308  -0.03074
 Alpha virt. eigenvalues --   -0.02612  -0.01441  -0.00966  -0.00231  -0.00108
 Alpha virt. eigenvalues --   -0.00019   0.00357   0.00831   0.00913   0.00930

  Beta  occ. eigenvalues --  -38.43906 -38.43843 -38.43645 -38.43597 -38.43554
  Beta  occ. eigenvalues --  -38.43186 -38.43123  -2.19728  -2.19658  -2.19484
  Beta  occ. eigenvalues --   -2.19446  -2.19427  -2.19159  -2.19090  -1.13454
  Beta  occ. eigenvalues --   -1.13396  -1.13384  -1.13372  -1.13331  -1.13301
  Beta  occ. eigenvalues --   -1.13193  -1.13164  -1.13139  -1.13136  -1.13125
  Beta  occ. eigenvalues --   -1.13092  -1.13072  -1.13058  -1.13053  -1.12894
  Beta  occ. eigenvalues --   -1.12806  -1.12778  -1.12761  -1.12727  -1.12715
  Beta  occ. eigenvalues --   -0.18129  -0.12636  -0.12563
  Beta virt. eigenvalues --   -0.07007  -0.05451  -0.05070  -0.04482  -0.02533
  Beta virt. eigenvalues --   -0.02349  -0.01565  -0.01366  -0.00897  -0.00258
  Beta virt. eigenvalues --   -0.00128   0.00135   0.00392   0.00893   0.00918

 Mulliken charges and spin densities:
               1          2
     1  Na   0.207021   0.000942
     2  Na   0.658023   0.063452
     3  Na   0.039254   0.015547
     4  Na  -0.167473   0.260902
     5  Na  -0.007277   0.038847
     6  Na  -0.861369   0.673724
     7  Na   0.131820  -0.053415
 Sum of Mulliken charges =  -0.00000   1.00000

 Dipole moment (field-independent basis, Debye):
    X=              0.0983    Y=              0.2081    Z=              0.2683  Tot=              0.3535
 Quadrupole moment (field-independent basis, Debye-Ang):
   XX=            -57.2710   YY=            -64.9085   ZZ=            -72.3185
   XY=              0.4461   XZ=             -0.3106   YZ=              2.4936

 Normal termination of Gaussian 16 at Thu Dec  7 03:54:42 2023.
