 Gaussian 16, Revision B.01,
 Gaussian 16:  ES64L-G16RevB.01 20-Dec-2017

 -------------------------
 #P B3LYP/6-311+g(d) force
 -------------------------

 -----
 DPGEN
 -----
 Symbolic Z-matrix:
 Charge =  0 Multiplicity = 2

                         Standard orientation:
 ---------------------------------------------------------------------
 Center     Atomic      Atomic             Coordinates (Angstroms)
 Number     Number       Type             X           Y           Z
 ---------------------------------------------------------------------
      1         11           0        2.938258    1.534147   -0.120981
      2         11           0       -1.636746   -2.390032   -0.836742
      3         11           0       -3.416683   -0.186560    0.674973
      4         11           0       -1.230622    2.782072   -0.637546
      5         11           0        0.641469   -0.115210   -1.360676
      6         11           0        0.083918    0.513621    1.812233
      7         11           0        2.620406   -2.138038    0.468739
 ---------------------------------------------------------------------

 SCF Done:  E(UB3LYP) =  -1136.12626135     A.U. after   21 cycles

 The electronic state is 2-A.
 Alpha  occ. eigenvalues --  -38.44883 -38.44429 -38.44272 -38.43728 -38.43699
 Alpha  occ. eigenvalues --  -38.43328 -38.42857  -2.20713  -2.20234  -2.20066
 Alpha  occ. eigenvalues --   -2.19609  -2.19492  -2.19167  -2.18876  -1.14428
 Alpha  occ. eigenvalues --   -1.14371  -1.14318  -1.13909  -1.13902  -1.13865
 Alpha  occ. eigenvalues --   -1.13738  -1.13727  -1.13701  -1.13324  -1.13240
 Alpha  occ. eigenvalues --   -1.13217  -1.13173  -1.13144  -1.13125  -1.12865
 Alpha  occ. eigenvalues --   -1.12817  -1.12800  -1.12569  -1.12536  -1.12471
 Alpha  occ. eigenvalues --   -0.18208  -0.13413  -0.11831  -0.10326
 Alpha virt. eigenvalues --   -0.06283  -0.05771  -0.04348  -0.03231  -0.02641
 Alpha virt. eigenvalues --   -0.02062  -0.02023  -0.01496  -0.00759  -0.00181
 Alpha virt. eigenvalues --   -0.00028   0.00300   0.00596   0.00668   0.00728

  Beta  occ. eigenvalues --  -38.44877 -38.44419 -38.44263 -38.43689 -38.43663
  Beta  occ. eigenvalues --  -38.43310 -38.42799  -2.20704  -2.20218  -2.20052
  Beta  occ. eigenvalues --   -2.19490  -2.19477  -2.19136  -2.18772  -1.14415
  Beta  occ. eigenvalues --   -1.14357  -1.14307  -1.13900  -1.13877  -1.13855
  Beta  occ. eigenvalues --   -1.13722  -1.13717  -1.13686  -1.13241  -1.13167
  Beta  occ. eigenvalues --   -1.13153  -1.13138  -1.13114  -1.13107  -1.12834
  Beta  occ. eigenvalues --   -1.12790  -1.12778  -1.12492  -1.12458  -1.12392
  Beta  occ. eigenvalues --   -0.17542  -0.13204  -0.11561
  Beta virt. eigenvalues --   -0.06615  -0.06197  -0.05644  -0.04135  -0.02656
  Beta virt. eigenvalues --   -0.02036  -0.01907  -0.01407  -0.01147  -0.00708
  Beta virt. eigenvalues --   -0.00168   0.00108   0.00339   0.00687   0.00734

 Mulliken charges and spin densities:
               1          2
     1  Na   0.428024   0.025780
     2  Na  -0.126193   0.039625
     3  Na   0.053288   0.110360
     4  Na  -0.200092   0.023234
     5  Na   0.166136   0.091201
     6  Na  -0.230802   0.532228
     7  Na  -0.090360   0.177573
 Sum of Mulliken charges =  -0.00000   1.00000

 Dipole moment (field-independent basis, Debye):
    X=              0.5587    Y=              0.3667    Z=              0.3158  Tot=              0.7392
 Quadrupole moment (field-independent basis, Debye-Ang):
   XX=            -50.8382   YY=            -64.7467   ZZ=            -75.6454
   XY=             -0.4963   XZ=              0.3909   YZ=             -1.7052

 Normal termination of Gaussian 16 at Thu Dec  7 14:51:42 2023.
