 Gaussian 16, Revision B.01,
 Gaussian 16:  ES64L-G16RevB.01 20-Dec-2017

 -------------------------
 #P B3LYP/6-311+g(d) force
 -------------------------

 -----
 DPGEN
 -----
 Symbolic Z-matrix:
 Charge =  0 Multiplicity = 2

                         Standard orientation:
 ---------------------------------------------------------------------
 Center     Atomic      Atomic             Coordinates (Angstroms)
 Number     Number       Type             X           Y           Z
 ---------------------------------------------------------------------
      1         11           0       -5.455632   -1.574540   -0.854056
      2         11           0       -2.602299   -1.655435   -0.827245
      3         11           0       -4.042906    1.050242    1.777103
      4         11           0       -0.977668    1.482620    0.425739
      5         11           0        2.198525    3.042170   -0.998932
      6         11           0        5.809197   -2.707869    0.764024
      7         11           0        5.070783    0.362813   -0.286633
 ---------------------------------------------------------------------

 SCF Done:  E(UB3LYP) =  -1136.10169471     A.U. after   21 cycles

 The electronic state is 2-A.
 Alpha  occ. eigenvalues --  -38.45697 -38.45543 -38.44683 -38.44478 -38.43858
 Alpha  occ. eigenvalues --  -38.43845 -38.43705  -2.21554  -2.21357  -2.20526
 Alpha  occ. eigenvalues --   -2.20244  -2.19639  -2.19623  -2.19454  -1.15292
 Alpha  occ. eigenvalues --   -1.15202  -1.15159  -1.15013  -1.14993  -1.14959
 Alpha  occ. eigenvalues --   -1.14213  -1.14162  -1.14146  -1.13902  -1.13883
 Alpha  occ. eigenvalues --   -1.13861  -1.13329  -1.13317  -1.13290  -1.13289
 Alpha  occ. eigenvalues --   -1.13279  -1.13258  -1.13143  -1.13135  -1.13082
 Alpha  occ. eigenvalues --   -0.16538  -0.13646  -0.12217  -0.11260
 Alpha virt. eigenvalues --   -0.07430  -0.05441  -0.04207  -0.03716  -0.03394
 Alpha virt. eigenvalues --   -0.02797  -0.02218  -0.01751  -0.01349  -0.00992
 Alpha virt. eigenvalues --   -0.00897  -0.00777   0.00101   0.00217   0.00292

  Beta  occ. eigenvalues --  -38.45664 -38.45453 -38.44670 -38.44405 -38.43866
  Beta  occ. eigenvalues --  -38.43809 -38.43720  -2.21495  -2.21189  -2.20507
  Beta  occ. eigenvalues --   -2.20107  -2.19669  -2.19547  -2.19487  -1.15253
  Beta  occ. eigenvalues --   -1.15163  -1.15109  -1.14899  -1.14879  -1.14848
  Beta  occ. eigenvalues --   -1.14188  -1.14152  -1.14131  -1.13808  -1.13790
  Beta  occ. eigenvalues --   -1.13776  -1.13365  -1.13354  -1.13251  -1.13229
  Beta  occ. eigenvalues --   -1.13227  -1.13224  -1.13169  -1.13159  -1.13071
  Beta  occ. eigenvalues --   -0.16103  -0.13084  -0.11509
  Beta virt. eigenvalues --   -0.08030  -0.07163  -0.05280  -0.03932  -0.03468
  Beta virt. eigenvalues --   -0.02810  -0.02519  -0.02038  -0.01427  -0.01259
  Beta virt. eigenvalues --   -0.00667  -0.00584  -0.00416   0.00235   0.00329

 Mulliken charges and spin densities:
               1          2
     1  Na   0.442417  -0.070029
     2  Na  -0.256748   0.260672
     3  Na   0.842412   0.100695
     4  Na  -1.229247   0.125884
     5  Na   0.221342   0.401012
     6  Na   0.355960   0.230680
     7  Na  -0.376137  -0.048914
 Sum of Mulliken charges =  -0.00000   1.00000

 Dipole moment (field-independent basis, Debye):
    X=             -3.3756    Y=             -0.4709    Z=              0.2856  Tot=              3.4203
 Quadrupole moment (field-independent basis, Debye-Ang):
   XX=            -61.6528   YY=            -66.8708   ZZ=            -72.1679
   XY=             -1.2837   XZ=             -4.1050   YZ=             -3.1212

 Normal termination of Gaussian 16 at Mon Dec  4 04:33:19 2023.
