 Gaussian 16, Revision B.01,
 Gaussian 16:  ES64L-G16RevB.01 20-Dec-2017

 -------------------------
 #P B3LYP/6-311+g(d) force
 -------------------------

 -----
 DPGEN
 -----
 Symbolic Z-matrix:
 Charge =  0 Multiplicity = 2

                         Standard orientation:
 ---------------------------------------------------------------------
 Center     Atomic      Atomic             Coordinates (Angstroms)
 Number     Number       Type             X           Y           Z
 ---------------------------------------------------------------------
      1         11           0        3.011406    1.173128   -0.119846
      2         11           0       -0.430096    2.809644   -0.069746
      3         11           0       -3.226137    0.318108   -0.289997
      4         11           0       -0.072854    0.278832    2.057121
      5         11           0        2.252005   -1.974470   -0.226024
      6         11           0       -1.261597   -2.485893    0.317918
      7         11           0       -0.272727   -0.119350   -1.669427
 ---------------------------------------------------------------------

 SCF Done:  E(UB3LYP) =  -1136.13788112     A.U. after   20 cycles

 The electronic state is 2-A.
 Alpha  occ. eigenvalues --  -38.44343 -38.44122 -38.43582 -38.43458 -38.43336
 Alpha  occ. eigenvalues --  -38.43192 -38.43151  -2.20177  -2.19936  -2.19480
 Alpha  occ. eigenvalues --   -2.19313  -2.19311  -2.19045  -2.19033  -1.13864
 Alpha  occ. eigenvalues --   -1.13830  -1.13810  -1.13617  -1.13605  -1.13571
 Alpha  occ. eigenvalues --   -1.13151  -1.13116  -1.13095  -1.13020  -1.12993
 Alpha  occ. eigenvalues --   -1.12971  -1.12968  -1.12950  -1.12920  -1.12725
 Alpha  occ. eigenvalues --   -1.12721  -1.12709  -1.12695  -1.12658  -1.12655
 Alpha  occ. eigenvalues --   -0.18689  -0.13165  -0.12284  -0.10839
 Alpha virt. eigenvalues --   -0.05938  -0.05000  -0.04472  -0.03218  -0.02906
 Alpha virt. eigenvalues --   -0.02612  -0.01763  -0.00990  -0.00349  -0.00244
 Alpha virt. eigenvalues --   -0.00023   0.00345   0.00798   0.00878   0.00914

  Beta  occ. eigenvalues --  -38.44335 -38.44121 -38.43484 -38.43455 -38.43275
  Beta  occ. eigenvalues --  -38.43186 -38.43141  -2.20165  -2.19937  -2.19308
  Beta  occ. eigenvalues --   -2.19299  -2.19201  -2.19038  -2.19018  -1.13845
  Beta  occ. eigenvalues --   -1.13811  -1.13805  -1.13620  -1.13590  -1.13571
  Beta  occ. eigenvalues --   -1.13035  -1.12994  -1.12983  -1.12970  -1.12963
  Beta  occ. eigenvalues --   -1.12942  -1.12925  -1.12895  -1.12843  -1.12720
  Beta  occ. eigenvalues --   -1.12698  -1.12687  -1.12656  -1.12654  -1.12648
  Beta  occ. eigenvalues --   -0.17959  -0.12930  -0.12040
  Beta virt. eigenvalues --   -0.06911  -0.05884  -0.05013  -0.04422  -0.02470
  Beta virt. eigenvalues --   -0.02104  -0.01669  -0.01542  -0.00931  -0.00398
  Beta virt. eigenvalues --   -0.00271   0.00113   0.00376   0.00857   0.00869

 Mulliken charges and spin densities:
               1          2
     1  Na   0.029361  -0.076125
     2  Na   0.084811  -0.125721
     3  Na   0.294725  -0.041804
     4  Na  -0.429960   0.721935
     5  Na   0.107501  -0.036938
     6  Na   0.166639   0.033854
     7  Na  -0.253077   0.524797
 Sum of Mulliken charges =  -0.00000   1.00000

 Dipole moment (field-independent basis, Debye):
    X=             -0.1644    Y=              0.1777    Z=              0.0770  Tot=              0.2540
 Quadrupole moment (field-independent basis, Debye-Ang):
   XX=            -54.5294   YY=            -65.0913   ZZ=            -73.8732
   XY=              0.2975   XZ=             -0.1973   YZ=             -0.8789

 Normal termination of Gaussian 16 at Thu Dec  7 09:30:16 2023.
