 Gaussian 16, Revision B.01,
 Gaussian 16:  ES64L-G16RevB.01 20-Dec-2017

 -------------------------
 #P B3LYP/6-311+g(d) force
 -------------------------

 -----
 DPGEN
 -----
 Symbolic Z-matrix:
 Charge =  0 Multiplicity = 2

                         Standard orientation:
 ---------------------------------------------------------------------
 Center     Atomic      Atomic             Coordinates (Angstroms)
 Number     Number       Type             X           Y           Z
 ---------------------------------------------------------------------
      1         11           0       -0.005477    0.117897   -1.782179
      2         11           0       -0.011507   -2.151744   -0.012159
      3         11           0       -2.418925   -0.845013   -0.041399
      4         11           0       -1.544151    1.795884   -0.015498
      5         11           0       -0.045143    0.026603    1.851574
      6         11           0        1.486975    1.878839    0.047112
      7         11           0        2.538229   -0.822466   -0.047451
 ---------------------------------------------------------------------

 SCF Done:  E(UB3LYP) =  -1136.09253843     A.U. after   19 cycles

 The electronic state is 2-A.
 Alpha  occ. eigenvalues --  -38.44041 -38.44005 -38.43865 -38.43723 -38.43400
 Alpha  occ. eigenvalues --  -38.43312 -38.43273  -2.20224  -2.20221  -2.19977
 Alpha  occ. eigenvalues --   -2.19761  -2.19523  -2.19480  -2.19362  -1.14071
 Alpha  occ. eigenvalues --   -1.13953  -1.13934  -1.13909  -1.13901  -1.13848
 Alpha  occ. eigenvalues --   -1.13805  -1.13692  -1.13552  -1.13513  -1.13492
 Alpha  occ. eigenvalues --   -1.13373  -1.13211  -1.13142  -1.13112  -1.13097
 Alpha  occ. eigenvalues --   -1.13081  -1.13010  -1.13000  -1.12996  -1.12911
 Alpha  occ. eigenvalues --   -0.21474  -0.13861  -0.12897  -0.12227
 Alpha virt. eigenvalues --   -0.05162  -0.04399  -0.04028  -0.03708  -0.03203
 Alpha virt. eigenvalues --   -0.02911  -0.01067  -0.00514  -0.00093   0.00357
 Alpha virt. eigenvalues --    0.00723   0.00793   0.01014   0.01134   0.01176

  Beta  occ. eigenvalues --  -38.43944 -38.43912 -38.43854 -38.43716 -38.43386
  Beta  occ. eigenvalues --  -38.43295 -38.43261  -2.20056  -2.20045  -2.19962
  Beta  occ. eigenvalues --   -2.19753  -2.19505  -2.19458  -2.19347  -1.13996
  Beta  occ. eigenvalues --   -1.13857  -1.13823  -1.13814  -1.13791  -1.13772
  Beta  occ. eigenvalues --   -1.13725  -1.13640  -1.13510  -1.13486  -1.13480
  Beta  occ. eigenvalues --   -1.13327  -1.13198  -1.13107  -1.13086  -1.13068
  Beta  occ. eigenvalues --   -1.13004  -1.12999  -1.12994  -1.12934  -1.12908
  Beta  occ. eigenvalues --   -0.20635  -0.13490  -0.12530
  Beta virt. eigenvalues --   -0.08049  -0.05194  -0.04389  -0.04006  -0.02734
  Beta virt. eigenvalues --   -0.02268  -0.01825  -0.00992  -0.00475   0.00052
  Beta virt. eigenvalues --    0.00380   0.00692   0.00760   0.01056   0.01142

 Mulliken charges and spin densities:
               1          2
     1  Na  -0.284721   0.435331
     2  Na   0.227287   0.094960
     3  Na   0.092622  -0.013978
     4  Na   0.218199   0.037510
     5  Na  -0.331928   0.480077
     6  Na   0.143165   0.019412
     7  Na  -0.064624  -0.053313
 Sum of Mulliken charges =  -0.00000   1.00000

 Dipole moment (field-independent basis, Debye):
    X=              0.1747    Y=              0.0837    Z=              0.0855  Tot=              0.2118
 Quadrupole moment (field-independent basis, Debye-Ang):
   XX=            -60.0740   YY=            -69.2699   ZZ=            -68.4366
   XY=             -0.0954   XZ=              0.0495   YZ=              0.2055

 Normal termination of Gaussian 16 at Fri Dec  8 17:09:07 2023.
