 Gaussian 16, Revision B.01,
 Gaussian 16:  ES64L-G16RevB.01 20-Dec-2017

 -------------------------
 #P B3LYP/6-311+g(d) force
 -------------------------

 -----
 DPGEN
 -----
 Symbolic Z-matrix:
 Charge =  0 Multiplicity = 2

                         Standard orientation:
 ---------------------------------------------------------------------
 Center     Atomic      Atomic             Coordinates (Angstroms)
 Number     Number       Type             X           Y           Z
 ---------------------------------------------------------------------
      1         11           0       -2.883069    1.620097   -0.427932
      2         11           0        3.263774    2.007444   -0.332562
      3         11           0        4.269893   -0.991903    0.169985
      4         11           0       -1.702634   -1.852864    1.110027
      5         11           0        1.464903   -3.339209   -0.567157
      6         11           0       -4.619123   -0.738578   -0.380655
      7         11           0        0.206256    3.295013    0.428293
 ---------------------------------------------------------------------

 SCF Done:  E(UB3LYP) =  -1136.11118396     A.U. after   21 cycles

 The electronic state is 2-A.
 Alpha  occ. eigenvalues --  -38.45507 -38.45087 -38.44408 -38.44279 -38.44232
 Alpha  occ. eigenvalues --  -38.44211 -38.43187  -2.21272  -2.20935  -2.20290
 Alpha  occ. eigenvalues --   -2.20038  -2.20024  -2.20016  -2.18990  -1.14961
 Alpha  occ. eigenvalues --   -1.14948  -1.14873  -1.14650  -1.14602  -1.14585
 Alpha  occ. eigenvalues --   -1.13955  -1.13913  -1.13895  -1.13772  -1.13705
 Alpha  occ. eigenvalues --   -1.13703  -1.13688  -1.13684  -1.13675  -1.13668
 Alpha  occ. eigenvalues --   -1.13649  -1.13612  -1.12649  -1.12643  -1.12629
 Alpha  occ. eigenvalues --   -0.16298  -0.14303  -0.12653  -0.10802
 Alpha virt. eigenvalues --   -0.07161  -0.05482  -0.04289  -0.03218  -0.03101
 Alpha virt. eigenvalues --   -0.02920  -0.02217  -0.01722  -0.01081  -0.00709
 Alpha virt. eigenvalues --   -0.00352  -0.00111   0.00222   0.00515   0.00619

  Beta  occ. eigenvalues --  -38.45475 -38.45060 -38.44355 -38.44266 -38.44200
  Beta  occ. eigenvalues --  -38.44190 -38.43150  -2.21214  -2.20891  -2.20192
  Beta  occ. eigenvalues --   -2.20003  -2.20000  -2.19962  -2.18921  -1.14922
  Beta  occ. eigenvalues --   -1.14911  -1.14816  -1.14582  -1.14578  -1.14547
  Beta  occ. eigenvalues --   -1.13882  -1.13846  -1.13835  -1.13725  -1.13692
  Beta  occ. eigenvalues --   -1.13684  -1.13673  -1.13658  -1.13648  -1.13637
  Beta  occ. eigenvalues --   -1.13611  -1.13562  -1.12603  -1.12599  -1.12580
  Beta  occ. eigenvalues --   -0.15723  -0.13767  -0.12091
  Beta virt. eigenvalues --   -0.07465  -0.07157  -0.05043  -0.04002  -0.02801
  Beta virt. eigenvalues --   -0.02763  -0.02619  -0.02069  -0.01527  -0.00902
  Beta virt. eigenvalues --   -0.00433  -0.00061   0.00182   0.00311   0.00569

 Mulliken charges and spin densities:
               1          2
     1  Na  -0.284354   0.245584
     2  Na  -0.097997   0.072147
     3  Na  -0.013373   0.168591
     4  Na  -0.466966   0.221801
     5  Na   0.094738   0.014726
     6  Na   0.699151   0.226690
     7  Na   0.068801   0.050462
 Sum of Mulliken charges =  -0.00000   1.00000

 Dipole moment (field-independent basis, Debye):
    X=             -1.3505    Y=             -0.8336    Z=             -0.0230  Tot=              1.5872
 Quadrupole moment (field-independent basis, Debye-Ang):
   XX=            -60.3888   YY=            -69.7984   ZZ=            -69.7562
   XY=              0.3412   XZ=              0.2763   YZ=             -0.0998

 Normal termination of Gaussian 16 at Mon Dec  4 00:10:27 2023.
