 Gaussian 16, Revision B.01,
 Gaussian 16:  ES64L-G16RevB.01 20-Dec-2017

 -------------------------
 #P B3LYP/6-311+g(d) force
 -------------------------

 -----
 DPGEN
 -----
 Symbolic Z-matrix:
 Charge =  0 Multiplicity = 2

                         Standard orientation:
 ---------------------------------------------------------------------
 Center     Atomic      Atomic             Coordinates (Angstroms)
 Number     Number       Type             X           Y           Z
 ---------------------------------------------------------------------
      1         11           0       -3.922818    0.874606   -0.244827
      2         11           0        2.507801   -1.942402   -0.388515
      3         11           0       -1.545682   -2.106899    0.887118
      4         11           0        0.560020   -0.017684    2.272275
      5         11           0        3.202205    1.752458   -0.253564
      6         11           0       -0.407208   -0.887572   -2.209063
      7         11           0       -0.394318    2.327493   -0.063423
 ---------------------------------------------------------------------

 SCF Done:  E(UB3LYP) =  -1136.12279760     A.U. after   21 cycles

 The electronic state is 2-A.
 Alpha  occ. eigenvalues --  -38.44918 -38.44616 -38.44424 -38.44135 -38.44113
 Alpha  occ. eigenvalues --  -38.43767 -38.43253  -2.20650  -2.20425  -2.20288
 Alpha  occ. eigenvalues --   -2.19901  -2.19891  -2.19592  -2.19059  -1.14326
 Alpha  occ. eigenvalues --   -1.14313  -1.14281  -1.14093  -1.14072  -1.14034
 Alpha  occ. eigenvalues --   -1.13967  -1.13916  -1.13897  -1.13578  -1.13573
 Alpha  occ. eigenvalues --   -1.13565  -1.13547  -1.13538  -1.13522  -1.13291
 Alpha  occ. eigenvalues --   -1.13250  -1.13202  -1.12768  -1.12756  -1.12648
 Alpha  occ. eigenvalues --   -0.17603  -0.12755  -0.11544  -0.11470
 Alpha virt. eigenvalues --   -0.06650  -0.05482  -0.04006  -0.03293  -0.03220
 Alpha virt. eigenvalues --   -0.02945  -0.02268  -0.01415  -0.00486  -0.00274
 Alpha virt. eigenvalues --    0.00073   0.00206   0.00279   0.00580   0.00703

  Beta  occ. eigenvalues --  -38.44920 -38.44549 -38.44329 -38.44134 -38.44107
  Beta  occ. eigenvalues --  -38.43741 -38.43247  -2.20654  -2.20300  -2.20113
  Beta  occ. eigenvalues --   -2.19900  -2.19882  -2.19548  -2.19050  -1.14324
  Beta  occ. eigenvalues --   -1.14317  -1.14284  -1.14010  -1.13989  -1.13941
  Beta  occ. eigenvalues --   -1.13850  -1.13797  -1.13763  -1.13573  -1.13565
  Beta  occ. eigenvalues --   -1.13547  -1.13543  -1.13537  -1.13519  -1.13250
  Beta  occ. eigenvalues --   -1.13202  -1.13178  -1.12757  -1.12737  -1.12645
  Beta  occ. eigenvalues --   -0.16825  -0.12636  -0.11325
  Beta virt. eigenvalues --   -0.07543  -0.06466  -0.05440  -0.03569  -0.02961
  Beta virt. eigenvalues --   -0.02439  -0.02179  -0.02093  -0.01366  -0.00419
  Beta virt. eigenvalues --   -0.00124   0.00062   0.00250   0.00497   0.00674

 Mulliken charges and spin densities:
               1          2
     1  Na   0.140635  -0.060613
     2  Na   0.050229   0.034815
     3  Na   0.080406  -0.003869
     4  Na   0.138812   0.492416
     5  Na   0.042251  -0.056860
     6  Na  -0.135891   0.569506
     7  Na  -0.316443   0.024604
 Sum of Mulliken charges =  -0.00000   1.00000

 Dipole moment (field-independent basis, Debye):
    X=             -0.1745    Y=             -0.2611    Z=             -0.1832  Tot=              0.3636
 Quadrupole moment (field-independent basis, Debye-Ang):
   XX=            -51.9785   YY=            -73.7204   ZZ=            -69.3506
   XY=              0.0520   XZ=             -0.4135   YZ=             -1.4224

 Normal termination of Gaussian 16 at Sun Dec  3 14:51:35 2023.
