 Gaussian 16, Revision B.01,
 Gaussian 16:  ES64L-G16RevB.01 20-Dec-2017

 -------------------------
 #P B3LYP/6-311+g(d) force
 -------------------------

 -----
 DPGEN
 -----
 Symbolic Z-matrix:
 Charge =  0 Multiplicity = 2

                         Standard orientation:
 ---------------------------------------------------------------------
 Center     Atomic      Atomic             Coordinates (Angstroms)
 Number     Number       Type             X           Y           Z
 ---------------------------------------------------------------------
      1         11           0       -3.304197   -0.491000    0.261235
      2         11           0        2.979165    1.664318   -0.246993
      3         11           0       -0.404611    0.011880   -1.717203
      4         11           0       -1.521205    2.665643   -0.213379
      5         11           0        0.090005    0.376141    2.025525
      6         11           0        3.033628   -1.598383    0.077312
      7         11           0       -0.872785   -2.628599   -0.186497
 ---------------------------------------------------------------------

 SCF Done:  E(UB3LYP) =  -1136.12853487     A.U. after   21 cycles

 The electronic state is 2-A.
 Alpha  occ. eigenvalues --  -38.44916 -38.44641 -38.44437 -38.43812 -38.43461
 Alpha  occ. eigenvalues --  -38.43169 -38.42871  -2.20744  -2.20422  -2.20221
 Alpha  occ. eigenvalues --   -2.19657  -2.19404  -2.19003  -2.18747  -1.14413
 Alpha  occ. eigenvalues --   -1.14411  -1.14380  -1.14102  -1.14092  -1.14063
 Alpha  occ. eigenvalues --   -1.13892  -1.13869  -1.13862  -1.13332  -1.13289
 Alpha  occ. eigenvalues --   -1.13271  -1.13103  -1.13068  -1.13016  -1.12684
 Alpha  occ. eigenvalues --   -1.12658  -1.12639  -1.12448  -1.12397  -1.12371
 Alpha  occ. eigenvalues --   -0.18181  -0.13450  -0.11799  -0.10512
 Alpha virt. eigenvalues --   -0.06449  -0.05645  -0.04116  -0.03412  -0.02648
 Alpha virt. eigenvalues --   -0.02451  -0.02100  -0.01333  -0.00673  -0.00341
 Alpha virt. eigenvalues --   -0.00069   0.00309   0.00670   0.00698   0.00759

  Beta  occ. eigenvalues --  -38.44911 -38.44640 -38.44438 -38.43725 -38.43391
  Beta  occ. eigenvalues --  -38.43162 -38.42864  -2.20738  -2.20423  -2.20224
  Beta  occ. eigenvalues --   -2.19495  -2.19276  -2.18995  -2.18738  -1.14410
  Beta  occ. eigenvalues --   -1.14387  -1.14376  -1.14104  -1.14079  -1.14065
  Beta  occ. eigenvalues --   -1.13883  -1.13873  -1.13867  -1.13223  -1.13175
  Beta  occ. eigenvalues --   -1.13154  -1.13012  -1.12977  -1.12925  -1.12671
  Beta  occ. eigenvalues --   -1.12638  -1.12630  -1.12437  -1.12375  -1.12362
  Beta  occ. eigenvalues --   -0.17461  -0.13304  -0.11558
  Beta virt. eigenvalues --   -0.06638  -0.06315  -0.05660  -0.04096  -0.02696
  Beta virt. eigenvalues --   -0.02003  -0.01884  -0.01427  -0.01262  -0.00725
  Beta virt. eigenvalues --   -0.00358   0.00099   0.00342   0.00739   0.00763

 Mulliken charges and spin densities:
               1          2
     1  Na   0.246280   0.066170
     2  Na   0.071951  -0.105331
     3  Na   0.047588   0.584347
     4  Na  -0.011725  -0.144419
     5  Na  -0.333061   0.701774
     6  Na  -0.021860  -0.037911
     7  Na   0.000826  -0.064630
 Sum of Mulliken charges =  -0.00000   1.00000

 Dipole moment (field-independent basis, Debye):
    X=              0.1791    Y=              0.1370    Z=              0.1870  Tot=              0.2930
 Quadrupole moment (field-independent basis, Debye-Ang):
   XX=            -50.7578   YY=            -66.5818   ZZ=            -75.8136
   XY=              0.1055   XZ=             -1.3840   YZ=             -1.1825

 Normal termination of Gaussian 16 at Fri Dec  8 05:21:51 2023.
