 Gaussian 16, Revision B.01,
 Gaussian 16:  ES64L-G16RevB.01 20-Dec-2017

 -------------------------
 #P B3LYP/6-311+g(d) force
 -------------------------

 -----
 DPGEN
 -----
 Symbolic Z-matrix:
 Charge =  0 Multiplicity = 2

                         Standard orientation:
 ---------------------------------------------------------------------
 Center     Atomic      Atomic             Coordinates (Angstroms)
 Number     Number       Type             X           Y           Z
 ---------------------------------------------------------------------
      1         11           0        1.166494   -0.026522    2.285901
      2         11           0        0.704763    1.505346   -1.058826
      3         11           0        1.984442   -1.803562   -0.909178
      4         11           0        4.358575    0.650388   -0.175936
      5         11           0       -1.282340   -2.036601   -0.005371
      6         11           0       -2.417364    2.301597    0.012993
      7         11           0       -4.514570   -0.590645   -0.149582
 ---------------------------------------------------------------------

 SCF Done:  E(UB3LYP) =  -1136.11355241     A.U. after   25 cycles

 The electronic state is 2-A.
 Alpha  occ. eigenvalues --  -38.45812 -38.44827 -38.44649 -38.44450 -38.44014
 Alpha  occ. eigenvalues --  -38.43447 -38.42741  -2.21604  -2.20634  -2.20435
 Alpha  occ. eigenvalues --   -2.20260  -2.19872  -2.19229  -2.18553  -1.15261
 Alpha  occ. eigenvalues --   -1.15237  -1.15222  -1.14292  -1.14282  -1.14246
 Alpha  occ. eigenvalues --   -1.14096  -1.14076  -1.14065  -1.13961  -1.13943
 Alpha  occ. eigenvalues --   -1.13881  -1.13585  -1.13522  -1.13486  -1.12917
 Alpha  occ. eigenvalues --   -1.12899  -1.12867  -1.12258  -1.12227  -1.12180
 Alpha  occ. eigenvalues --   -0.17615  -0.13960  -0.11137  -0.10846
 Alpha virt. eigenvalues --   -0.07926  -0.05432  -0.04467  -0.03220  -0.03006
 Alpha virt. eigenvalues --   -0.02463  -0.02156  -0.01891  -0.01103  -0.00781
 Alpha virt. eigenvalues --   -0.00408   0.00079   0.00283   0.00462   0.00693

  Beta  occ. eigenvalues --  -38.45736 -38.44760 -38.44601 -38.44461 -38.43993
  Beta  occ. eigenvalues --  -38.43454 -38.42739  -2.21462  -2.20509  -2.20345
  Beta  occ. eigenvalues --   -2.20284  -2.19837  -2.19244  -2.18554  -1.15159
  Beta  occ. eigenvalues --   -1.15143  -1.15119  -1.14206  -1.14188  -1.14167
  Beta  occ. eigenvalues --   -1.14034  -1.14016  -1.14005  -1.13977  -1.13943
  Beta  occ. eigenvalues --   -1.13902  -1.13566  -1.13499  -1.13435  -1.12932
  Beta  occ. eigenvalues --   -1.12906  -1.12866  -1.12262  -1.12221  -1.12166
  Beta  occ. eigenvalues --   -0.17055  -0.13352  -0.10994
  Beta virt. eigenvalues --   -0.07643  -0.07262  -0.05284  -0.03945  -0.02961
  Beta virt. eigenvalues --   -0.02800  -0.02031  -0.01819  -0.01483  -0.00717
  Beta virt. eigenvalues --   -0.00466  -0.00297   0.00108   0.00397   0.00552

 Mulliken charges and spin densities:
               1          2
     1  Na  -0.103955   0.318795
     2  Na  -0.369442  -0.114377
     3  Na   0.318017   0.124048
     4  Na   0.424324   0.318723
     5  Na  -0.362663   0.033665
     6  Na  -0.053008   0.069913
     7  Na   0.146727   0.249234
 Sum of Mulliken charges =  -0.00000   1.00000

 Dipole moment (field-independent basis, Debye):
    X=              0.9209    Y=              0.1171    Z=              1.2248  Tot=              1.5368
 Quadrupole moment (field-independent basis, Debye-Ang):
   XX=            -55.4056   YY=            -79.3996   ZZ=            -64.5780
   XY=              0.2828   XZ=              2.9746   YZ=              1.3821

 Normal termination of Gaussian 16 at Fri Dec  8 03:39:22 2023.
