 Gaussian 16, Revision B.01,
 Gaussian 16:  ES64L-G16RevB.01 20-Dec-2017

 -------------------------
 #P B3LYP/6-311+g(d) force
 -------------------------

 -----
 DPGEN
 -----
 Symbolic Z-matrix:
 Charge =  0 Multiplicity = 2

                         Standard orientation:
 ---------------------------------------------------------------------
 Center     Atomic      Atomic             Coordinates (Angstroms)
 Number     Number       Type             X           Y           Z
 ---------------------------------------------------------------------
      1         11           0       -4.102755    4.044946   -0.059346
      2         11           0        5.958764    2.964847    0.295658
      3         11           0        2.180649   -2.125008   -0.619992
      4         11           0        5.038690   -0.631791    0.117575
      5         11           0       -1.370874   -3.256137   -0.465144
      6         11           0       -3.362301   -2.088417    1.318409
      7         11           0       -4.342173    1.091560   -0.587161
 ---------------------------------------------------------------------

 SCF Done:  E(UB3LYP) =  -1136.10364305     A.U. after   19 cycles

 The electronic state is 2-A.
 Alpha  occ. eigenvalues --  -38.45490 -38.44948 -38.44525 -38.44459 -38.44242
 Alpha  occ. eigenvalues --  -38.44041 -38.43816  -2.21262  -2.20784  -2.20345
 Alpha  occ. eigenvalues --   -2.20261  -2.20004  -2.19846  -2.19623  -1.14900
 Alpha  occ. eigenvalues --   -1.14899  -1.14864  -1.14528  -1.14420  -1.14408
 Alpha  occ. eigenvalues --   -1.14005  -1.13994  -1.13987  -1.13915  -1.13911
 Alpha  occ. eigenvalues --   -1.13887  -1.13690  -1.13683  -1.13650  -1.13573
 Alpha  occ. eigenvalues --   -1.13490  -1.13489  -1.13288  -1.13281  -1.13234
 Alpha  occ. eigenvalues --   -0.15396  -0.14132  -0.12814  -0.11582
 Alpha virt. eigenvalues --   -0.07111  -0.05287  -0.04274  -0.03391  -0.03060
 Alpha virt. eigenvalues --   -0.02608  -0.02214  -0.02156  -0.01602  -0.01414
 Alpha virt. eigenvalues --   -0.00651  -0.00550  -0.00256   0.00407   0.00435

  Beta  occ. eigenvalues --  -38.45373 -38.44911 -38.44534 -38.44384 -38.44265
  Beta  occ. eigenvalues --  -38.44022 -38.43819  -2.21045  -2.20716  -2.20366
  Beta  occ. eigenvalues --   -2.20121  -2.20052  -2.19812  -2.19631  -1.14752
  Beta  occ. eigenvalues --   -1.14751  -1.14720  -1.14490  -1.14372  -1.14362
  Beta  occ. eigenvalues --   -1.14017  -1.14010  -1.13972  -1.13825  -1.13816
  Beta  occ. eigenvalues --   -1.13806  -1.13728  -1.13716  -1.13635  -1.13553
  Beta  occ. eigenvalues --   -1.13466  -1.13466  -1.13295  -1.13288  -1.13224
  Beta  occ. eigenvalues --   -0.14981  -0.13420  -0.12333
  Beta virt. eigenvalues --   -0.08326  -0.06541  -0.05016  -0.04032  -0.03108
  Beta virt. eigenvalues --   -0.02840  -0.02376  -0.02051  -0.01843  -0.01462
  Beta virt. eigenvalues --   -0.00971  -0.00325  -0.00170  -0.00072   0.00450

 Mulliken charges and spin densities:
               1          2
     1  Na   0.407660   0.075352
     2  Na   0.104720   0.594369
     3  Na  -0.314115   0.303031
     4  Na   0.372934  -0.089424
     5  Na  -0.182385  -0.014577
     6  Na   0.165658   0.130466
     7  Na  -0.554472   0.000782
 Sum of Mulliken charges =  -0.00000   1.00000

 Dipole moment (field-independent basis, Debye):
    X=              0.1969    Y=              0.4375    Z=              0.4143  Tot=              0.6339
 Quadrupole moment (field-independent basis, Debye-Ang):
   XX=            -68.9411   YY=            -58.2161   ZZ=            -70.7677
   XY=              7.8427   XZ=             -1.9734   YZ=              2.2543

 Normal termination of Gaussian 16 at Mon Dec  4 03:57:04 2023.
