 Gaussian 16, Revision B.01,
 Gaussian 16:  ES64L-G16RevB.01 20-Dec-2017

 -------------------------
 #P B3LYP/6-311+g(d) force
 -------------------------

 -----
 DPGEN
 -----
 Symbolic Z-matrix:
 Charge =  0 Multiplicity = 2

                         Standard orientation:
 ---------------------------------------------------------------------
 Center     Atomic      Atomic             Coordinates (Angstroms)
 Number     Number       Type             X           Y           Z
 ---------------------------------------------------------------------
      1         11           0        1.148006   -1.938216   -0.269632
      2         11           0        4.493906   -0.683568   -0.572008
      3         11           0        2.427796    1.484383   -0.665433
      4         11           0       -0.624694    2.505482    0.189012
      5         11           0       -2.254379   -0.821824    0.059627
      6         11           0        0.089423   -0.275374    2.121757
      7         11           0       -5.280058   -0.270883   -0.863322
 ---------------------------------------------------------------------

 SCF Done:  E(UB3LYP) =  -1136.11582657     A.U. after   23 cycles

 The electronic state is 2-A.
 Alpha  occ. eigenvalues --  -38.45205 -38.44650 -38.44146 -38.43949 -38.43918
 Alpha  occ. eigenvalues --  -38.43211 -38.43133  -2.21120  -2.20525  -2.19953
 Alpha  occ. eigenvalues --   -2.19825  -2.19793  -2.19098  -2.18984  -1.14829
 Alpha  occ. eigenvalues --   -1.14792  -1.14702  -1.14224  -1.14195  -1.14105
 Alpha  occ. eigenvalues --   -1.13623  -1.13600  -1.13588  -1.13585  -1.13501
 Alpha  occ. eigenvalues --   -1.13473  -1.13433  -1.13410  -1.13346  -1.12799
 Alpha  occ. eigenvalues --   -1.12774  -1.12747  -1.12656  -1.12626  -1.12615
 Alpha  occ. eigenvalues --   -0.18146  -0.14016  -0.11954  -0.11590
 Alpha virt. eigenvalues --   -0.06358  -0.05234  -0.04766  -0.03530  -0.02739
 Alpha virt. eigenvalues --   -0.02208  -0.01920  -0.01624  -0.01234  -0.00427
 Alpha virt. eigenvalues --   -0.00220   0.00028   0.00489   0.00527   0.00680

  Beta  occ. eigenvalues --  -38.45159 -38.44608 -38.44071 -38.43932 -38.43882
  Beta  occ. eigenvalues --  -38.43209 -38.43111  -2.21038  -2.20450  -2.19815
  Beta  occ. eigenvalues --   -2.19771  -2.19751  -2.19105  -2.18942  -1.14757
  Beta  occ. eigenvalues --   -1.14743  -1.14636  -1.14165  -1.14149  -1.14041
  Beta  occ. eigenvalues --   -1.13580  -1.13507  -1.13494  -1.13492  -1.13460
  Beta  occ. eigenvalues --   -1.13435  -1.13412  -1.13387  -1.13306  -1.12811
  Beta  occ. eigenvalues --   -1.12765  -1.12707  -1.12624  -1.12599  -1.12591
  Beta  occ. eigenvalues --   -0.17521  -0.13458  -0.11062
  Beta virt. eigenvalues --   -0.08471  -0.06130  -0.04843  -0.04377  -0.03141
  Beta virt. eigenvalues --   -0.02610  -0.01754  -0.01714  -0.01251  -0.00898
  Beta virt. eigenvalues --   -0.00253  -0.00111   0.00138   0.00577   0.00649

 Mulliken charges and spin densities:
               1          2
     1  Na   0.226924   0.041618
     2  Na   0.210603   0.073017
     3  Na  -0.258218   0.210061
     4  Na   0.166831   0.107397
     5  Na  -0.842716   0.129169
     6  Na   0.435544   0.146876
     7  Na   0.061032   0.291862
 Sum of Mulliken charges =  -0.00000   1.00000

 Dipole moment (field-independent basis, Debye):
    X=              0.9177    Y=              0.1181    Z=              0.7307  Tot=              1.1789
 Quadrupole moment (field-independent basis, Debye-Ang):
   XX=            -61.2114   YY=            -73.2279   ZZ=            -65.7383
   XY=             -4.9466   XZ=              1.7057   YZ=             -1.6866

 Normal termination of Gaussian 16 at Wed Nov 29 01:31:20 2023.
