 Gaussian 16, Revision B.01,
 Gaussian 16:  ES64L-G16RevB.01 20-Dec-2017

 -------------------------
 #P B3LYP/6-311+g(d) force
 -------------------------

 -----
 DPGEN
 -----
 Symbolic Z-matrix:
 Charge =  0 Multiplicity = 2

                         Standard orientation:
 ---------------------------------------------------------------------
 Center     Atomic      Atomic             Coordinates (Angstroms)
 Number     Number       Type             X           Y           Z
 ---------------------------------------------------------------------
      1         11           0       -1.968241    2.255590    0.050681
      2         11           0        2.982264   -1.092062   -0.373122
      3         11           0        1.828809    2.484486   -0.065992
      4         11           0        0.223524   -0.224042   -1.564095
      5         11           0       -0.168164   -2.861183    0.668564
      6         11           0        0.042546    0.357535    1.867416
      7         11           0       -2.940738   -0.920323   -0.583451
 ---------------------------------------------------------------------

 SCF Done:  E(UB3LYP) =  -1136.13856107     A.U. after   19 cycles

 The electronic state is 2-A.
 Alpha  occ. eigenvalues --  -38.43994 -38.43752 -38.43633 -38.43617 -38.43391
 Alpha  occ. eigenvalues --  -38.43307 -38.43115  -2.19828  -2.19583  -2.19479
 Alpha  occ. eigenvalues --   -2.19467  -2.19248  -2.19239  -2.19108  -1.13543
 Alpha  occ. eigenvalues --   -1.13476  -1.13450  -1.13269  -1.13260  -1.13205
 Alpha  occ. eigenvalues --   -1.13183  -1.13162  -1.13146  -1.13121  -1.13120
 Alpha  occ. eigenvalues --   -1.13070  -1.12952  -1.12914  -1.12898  -1.12873
 Alpha  occ. eigenvalues --   -1.12863  -1.12846  -1.12788  -1.12742  -1.12724
 Alpha  occ. eigenvalues --   -0.18674  -0.12964  -0.12529  -0.10706
 Alpha virt. eigenvalues --   -0.05498  -0.05198  -0.04718  -0.03076  -0.03029
 Alpha virt. eigenvalues --   -0.02354  -0.01501  -0.01244  -0.00377  -0.00279
 Alpha virt. eigenvalues --    0.00044   0.00348   0.00825   0.00847   0.00899

  Beta  occ. eigenvalues --  -38.43984 -38.43749 -38.43619 -38.43613 -38.43371
  Beta  occ. eigenvalues --  -38.43222 -38.43059  -2.19814  -2.19580  -2.19463
  Beta  occ. eigenvalues --   -2.19455  -2.19204  -2.19092  -2.19005  -1.13524
  Beta  occ. eigenvalues --   -1.13460  -1.13438  -1.13262  -1.13249  -1.13199
  Beta  occ. eigenvalues --   -1.13176  -1.13136  -1.13124  -1.13117  -1.13097
  Beta  occ. eigenvalues --   -1.13061  -1.12905  -1.12859  -1.12847  -1.12823
  Beta  occ. eigenvalues --   -1.12768  -1.12735  -1.12711  -1.12667  -1.12652
  Beta  occ. eigenvalues --   -0.17984  -0.12658  -0.12282
  Beta virt. eigenvalues --   -0.06861  -0.05478  -0.05124  -0.04644  -0.02364
  Beta virt. eigenvalues --   -0.02281  -0.01399  -0.01348  -0.01175  -0.00357
  Beta virt. eigenvalues --   -0.00297   0.00145   0.00386   0.00838   0.00883

 Mulliken charges and spin densities:
               1          2
     1  Na   0.049112  -0.041913
     2  Na   0.122461  -0.040275
     3  Na  -0.049123  -0.103621
     4  Na  -0.151243   0.454177
     5  Na   0.015910   0.098964
     6  Na  -0.063219   0.594007
     7  Na   0.076103   0.038660
 Sum of Mulliken charges =  -0.00000   1.00000

 Dipole moment (field-independent basis, Debye):
    X=              0.2383    Y=              0.1170    Z=              0.0521  Tot=              0.2705
 Quadrupole moment (field-independent basis, Debye-Ang):
   XX=            -57.0919   YY=            -60.9708   ZZ=            -74.5275
   XY=              0.1316   XZ=              0.4699   YZ=             -1.1293

 Normal termination of Gaussian 16 at Sun Dec  3 22:52:49 2023.
