 Gaussian 16, Revision B.01,
 Gaussian 16:  ES64L-G16RevB.01 20-Dec-2017

 -------------------------
 #P B3LYP/6-311+g(d) force
 -------------------------

 -----
 DPGEN
 -----
 Symbolic Z-matrix:
 Charge =  0 Multiplicity = 2

                         Standard orientation:
 ---------------------------------------------------------------------
 Center     Atomic      Atomic             Coordinates (Angstroms)
 Number     Number       Type             X           Y           Z
 ---------------------------------------------------------------------
      1         11           0       -2.342766   -2.132940    0.220744
      2         11           0       -0.785811    0.190296   -1.540326
      3         11           0        3.408468   -0.321992   -0.420174
      4         11           0        0.815777   -2.414035   -0.245579
      5         11           0       -2.675678    1.760424    0.048744
      6         11           0        1.013517    2.855627   -0.061317
      7         11           0        0.566493    0.062620    1.997909
 ---------------------------------------------------------------------

 SCF Done:  E(UB3LYP) =  -1136.13154732     A.U. after   19 cycles

 The electronic state is 2-A.
 Alpha  occ. eigenvalues --  -38.44343 -38.44248 -38.44007 -38.43806 -38.43372
 Alpha  occ. eigenvalues --  -38.43253 -38.43063  -2.20181  -2.20046  -2.19808
 Alpha  occ. eigenvalues --   -2.19657  -2.19260  -2.19244  -2.18989  -1.13940
 Alpha  occ. eigenvalues --   -1.13825  -1.13786  -1.13716  -1.13708  -1.13679
 Alpha  occ. eigenvalues --   -1.13490  -1.13485  -1.13428  -1.13349  -1.13310
 Alpha  occ. eigenvalues --   -1.13302  -1.12945  -1.12917  -1.12909  -1.12895
 Alpha  occ. eigenvalues --   -1.12869  -1.12846  -1.12671  -1.12649  -1.12611
 Alpha  occ. eigenvalues --   -0.18499  -0.13006  -0.12603  -0.10388
 Alpha virt. eigenvalues --   -0.05997  -0.05386  -0.04573  -0.03183  -0.02882
 Alpha virt. eigenvalues --   -0.02223  -0.01680  -0.01336  -0.00619  -0.00207
 Alpha virt. eigenvalues --   -0.00020   0.00316   0.00743   0.00812   0.00904

  Beta  occ. eigenvalues --  -38.44341 -38.44237 -38.44002 -38.43802 -38.43281
  Beta  occ. eigenvalues --  -38.43203 -38.43051  -2.20180  -2.20025  -2.19803
  Beta  occ. eigenvalues --   -2.19652  -2.19154  -2.19092  -2.18971  -1.13932
  Beta  occ. eigenvalues --   -1.13809  -1.13789  -1.13703  -1.13681  -1.13666
  Beta  occ. eigenvalues --   -1.13485  -1.13463  -1.13429  -1.13347  -1.13304
  Beta  occ. eigenvalues --   -1.13284  -1.12861  -1.12850  -1.12820  -1.12785
  Beta  occ. eigenvalues --   -1.12778  -1.12750  -1.12658  -1.12608  -1.12592
  Beta  occ. eigenvalues --   -0.17812  -0.12773  -0.12373
  Beta virt. eigenvalues --   -0.06586  -0.05907  -0.05300  -0.04543  -0.02473
  Beta virt. eigenvalues --   -0.02129  -0.01594  -0.01287  -0.01211  -0.00640
  Beta virt. eigenvalues --   -0.00236   0.00140   0.00367   0.00761   0.00872

 Mulliken charges and spin densities:
               1          2
     1  Na   0.161195  -0.008280
     2  Na  -0.084165   0.463747
     3  Na   0.004110   0.033154
     4  Na   0.155387   0.079477
     5  Na   0.222984  -0.125218
     6  Na   0.003300  -0.116357
     7  Na  -0.462811   0.673476
 Sum of Mulliken charges =  -0.00000   1.00000

 Dipole moment (field-independent basis, Debye):
    X=             -0.1315    Y=              0.4315    Z=              0.1863  Tot=              0.4880
 Quadrupole moment (field-independent basis, Debye-Ang):
   XX=            -54.4286   YY=            -62.8704   ZZ=            -75.5058
   XY=              1.3183   XZ=             -3.0520   YZ=             -0.0321

 Normal termination of Gaussian 16 at Fri Dec  8 01:58:39 2023.
