 Gaussian 16, Revision B.01,
 Gaussian 16:  ES64L-G16RevB.01 20-Dec-2017

 -------------------------
 #P B3LYP/6-311+g(d) force
 -------------------------

 -----
 DPGEN
 -----
 Symbolic Z-matrix:
 Charge =  0 Multiplicity = 2

                         Standard orientation:
 ---------------------------------------------------------------------
 Center     Atomic      Atomic             Coordinates (Angstroms)
 Number     Number       Type             X           Y           Z
 ---------------------------------------------------------------------
      1         11           0       -2.339867   -1.889150    1.449236
      2         11           0       -1.243452    0.859794   -0.598365
      3         11           0        2.602432    0.915345    0.989829
      4         11           0        0.939651   -1.787146   -0.555252
      5         11           0        4.141888   -1.438240   -0.603528
      6         11           0        0.085776    3.717775    0.055638
      7         11           0       -4.186428   -0.378378   -0.737558
 ---------------------------------------------------------------------

 SCF Done:  E(UB3LYP) =  -1136.12030824     A.U. after   23 cycles

 The electronic state is 2-A.
 Alpha  occ. eigenvalues --  -38.44926 -38.44881 -38.43814 -38.43545 -38.43545
 Alpha  occ. eigenvalues --  -38.43537 -38.43099  -2.20742  -2.20696  -2.19697
 Alpha  occ. eigenvalues --   -2.19465  -2.19425  -2.19402  -2.18898  -1.14444
 Alpha  occ. eigenvalues --   -1.14421  -1.14378  -1.14356  -1.14346  -1.14333
 Alpha  occ. eigenvalues --   -1.13400  -1.13368  -1.13315  -1.13192  -1.13165
 Alpha  occ. eigenvalues --   -1.13121  -1.13059  -1.13057  -1.13044  -1.13042
 Alpha  occ. eigenvalues --   -1.13025  -1.13008  -1.12572  -1.12560  -1.12528
 Alpha  occ. eigenvalues --   -0.17407  -0.14397  -0.12056  -0.10133
 Alpha virt. eigenvalues --   -0.06851  -0.05379  -0.04280  -0.03629  -0.03121
 Alpha virt. eigenvalues --   -0.02272  -0.01469  -0.01259  -0.00911  -0.00450
 Alpha virt. eigenvalues --   -0.00327  -0.00248   0.00314   0.00603   0.00646

  Beta  occ. eigenvalues --  -38.44913 -38.44869 -38.43775 -38.43529 -38.43498
  Beta  occ. eigenvalues --  -38.43466 -38.43103  -2.20721  -2.20680  -2.19627
  Beta  occ. eigenvalues --   -2.19440  -2.19329  -2.19276  -2.18906  -1.14424
  Beta  occ. eigenvalues --   -1.14409  -1.14371  -1.14341  -1.14317  -1.14289
  Beta  occ. eigenvalues --   -1.13351  -1.13321  -1.13250  -1.13160  -1.13118
  Beta  occ. eigenvalues --   -1.13089  -1.12999  -1.12993  -1.12982  -1.12962
  Beta  occ. eigenvalues --   -1.12944  -1.12934  -1.12577  -1.12565  -1.12532
  Beta  occ. eigenvalues --   -0.16780  -0.13856  -0.11937
  Beta virt. eigenvalues --   -0.06672  -0.06482  -0.05214  -0.03958  -0.03232
  Beta virt. eigenvalues --   -0.02685  -0.02179  -0.01352  -0.01018  -0.00374
  Beta virt. eigenvalues --   -0.00337  -0.00022   0.00126   0.00382   0.00655

 Mulliken charges and spin densities:
               1          2
     1  Na   0.474832   0.118294
     2  Na  -1.398590   0.150084
     3  Na  -0.103164   0.186441
     4  Na  -0.570813  -0.074388
     5  Na   0.562365   0.311351
     6  Na   0.755921  -0.014266
     7  Na   0.279450   0.322484
 Sum of Mulliken charges =  -0.00000   1.00000

 Dipole moment (field-independent basis, Debye):
    X=              0.4289    Y=             -0.8475    Z=              0.8376  Tot=              1.2664
 Quadrupole moment (field-independent basis, Debye-Ang):
   XX=            -69.6895   YY=            -67.1696   ZZ=            -63.6281
   XY=              2.7620   XZ=             -1.6702   YZ=              0.3217

 Normal termination of Gaussian 16 at Tue Nov 28 22:07:54 2023.
