 Gaussian 16, Revision B.01,
 Gaussian 16:  ES64L-G16RevB.01 20-Dec-2017

 -------------------------
 #P B3LYP/6-311+g(d) force
 -------------------------

 -----
 DPGEN
 -----
 Symbolic Z-matrix:
 Charge =  0 Multiplicity = 2

                         Standard orientation:
 ---------------------------------------------------------------------
 Center     Atomic      Atomic             Coordinates (Angstroms)
 Number     Number       Type             X           Y           Z
 ---------------------------------------------------------------------
      1         11           0        3.319394    2.526453   -0.199121
      2         11           0       -3.343936    2.193841   -0.108969
      3         11           0       -0.852791    3.860840   -0.081556
      4         11           0        2.188409   -3.017592   -0.623141
      5         11           0        4.378119   -0.550615    0.712434
      6         11           0       -4.618258   -1.659876    0.340185
      7         11           0       -1.070938   -3.353052   -0.039832
 ---------------------------------------------------------------------

 SCF Done:  E(UB3LYP) =  -1136.10419218     A.U. after   20 cycles

 The electronic state is 2-A.
 Alpha  occ. eigenvalues --  -38.45301 -38.44959 -38.44760 -38.44699 -38.44624
 Alpha  occ. eigenvalues --  -38.44259 -38.44113  -2.21059  -2.20732  -2.20505
 Alpha  occ. eigenvalues --   -2.20492  -2.20397  -2.20064  -2.19927  -1.14724
 Alpha  occ. eigenvalues --   -1.14713  -1.14692  -1.14406  -1.14394  -1.14376
 Alpha  occ. eigenvalues --   -1.14209  -1.14195  -1.14191  -1.14156  -1.14148
 Alpha  occ. eigenvalues --   -1.14134  -1.14046  -1.14028  -1.14016  -1.13721
 Alpha  occ. eigenvalues --   -1.13715  -1.13688  -1.13583  -1.13569  -1.13554
 Alpha  occ. eigenvalues --   -0.15273  -0.13950  -0.13353  -0.11246
 Alpha virt. eigenvalues --   -0.07653  -0.04801  -0.04717  -0.03532  -0.03416
 Alpha virt. eigenvalues --   -0.02544  -0.02240  -0.02107  -0.01451  -0.00945
 Alpha virt. eigenvalues --   -0.00531  -0.00431  -0.00112   0.00341   0.00365

  Beta  occ. eigenvalues --  -38.45261 -38.44958 -38.44766 -38.44688 -38.44529
  Beta  occ. eigenvalues --  -38.44208 -38.44077  -2.20987  -2.20734  -2.20523
  Beta  occ. eigenvalues --   -2.20477  -2.20219  -2.19970  -2.19862  -1.14676
  Beta  occ. eigenvalues --   -1.14666  -1.14635  -1.14411  -1.14399  -1.14355
  Beta  occ. eigenvalues --   -1.14211  -1.14207  -1.14179  -1.14151  -1.14122
  Beta  occ. eigenvalues --   -1.14111  -1.13925  -1.13907  -1.13899  -1.13658
  Beta  occ. eigenvalues --   -1.13652  -1.13625  -1.13537  -1.13526  -1.13507
  Beta  occ. eigenvalues --   -0.14781  -0.13221  -0.12522
  Beta virt. eigenvalues --   -0.08138  -0.07780  -0.04373  -0.04207  -0.03339
  Beta virt. eigenvalues --   -0.03141  -0.02313  -0.02016  -0.01903  -0.01302
  Beta virt. eigenvalues --   -0.00594  -0.00258  -0.00081   0.00094   0.00318

 Mulliken charges and spin densities:
               1          2
     1  Na  -0.010553   0.206965
     2  Na  -0.173918   0.059962
     3  Na   0.157898   0.102034
     4  Na  -0.307049   0.145611
     5  Na  -0.065480  -0.010538
     6  Na   0.340809   0.476493
     7  Na   0.058293   0.019473
 Sum of Mulliken charges =  -0.00000   1.00000

 Dipole moment (field-independent basis, Debye):
    X=              0.9335    Y=              0.2617    Z=              0.0602  Tot=              0.9714
 Quadrupole moment (field-independent basis, Debye-Ang):
   XX=            -59.2468   YY=            -67.2402   ZZ=            -73.6236
   XY=              0.8459   XZ=              0.3481   YZ=             -1.4185

 Normal termination of Gaussian 16 at Sun Dec  3 12:59:05 2023.
