 Gaussian 16, Revision B.01,
 Gaussian 16:  ES64L-G16RevB.01 20-Dec-2017

 -------------------------
 #P B3LYP/6-311+g(d) force
 -------------------------

 -----
 DPGEN
 -----
 Symbolic Z-matrix:
 Charge =  0 Multiplicity = 2

                         Standard orientation:
 ---------------------------------------------------------------------
 Center     Atomic      Atomic             Coordinates (Angstroms)
 Number     Number       Type             X           Y           Z
 ---------------------------------------------------------------------
      1         11           0        1.484816   -2.085314   -0.386792
      2         11           0       -5.483873   -0.282689    0.249567
      3         11           0       -2.690863   -1.535185   -0.386003
      4         11           0       -2.755109    2.256844   -0.095123
      5         11           0        0.290450    1.240184   -0.100839
      6         11           0        3.299792   -0.350201    1.385237
      7         11           0        5.854788    0.756361   -0.666046
 ---------------------------------------------------------------------

 SCF Done:  E(UB3LYP) =  -1136.11218852     A.U. after   25 cycles

 The electronic state is 2-A.
 Alpha  occ. eigenvalues --  -38.44838 -38.44812 -38.44543 -38.44118 -38.43976
 Alpha  occ. eigenvalues --  -38.43727 -38.43631  -2.20681  -2.20638  -2.20389
 Alpha  occ. eigenvalues --   -2.19968  -2.19829  -2.19552  -2.19381  -1.14358
 Alpha  occ. eigenvalues --   -1.14345  -1.14329  -1.14297  -1.14270  -1.14260
 Alpha  occ. eigenvalues --   -1.14101  -1.14038  -1.13992  -1.13667  -1.13627
 Alpha  occ. eigenvalues --   -1.13565  -1.13513  -1.13497  -1.13446  -1.13229
 Alpha  occ. eigenvalues --   -1.13204  -1.13178  -1.13053  -1.13051  -1.13014
 Alpha  occ. eigenvalues --   -0.16939  -0.14561  -0.11870  -0.10899
 Alpha virt. eigenvalues --   -0.06578  -0.05694  -0.04520  -0.03643  -0.03296
 Alpha virt. eigenvalues --   -0.02452  -0.01963  -0.01443  -0.00981  -0.00861
 Alpha virt. eigenvalues --   -0.00366  -0.00089   0.00262   0.00344   0.00575

  Beta  occ. eigenvalues --  -38.44770 -38.44764 -38.44499 -38.44115 -38.43942
  Beta  occ. eigenvalues --  -38.43710 -38.43634  -2.20562  -2.20547  -2.20306
  Beta  occ. eigenvalues --   -2.19963  -2.19770  -2.19522  -2.19387  -1.14278
  Beta  occ. eigenvalues --   -1.14266  -1.14258  -1.14237  -1.14197  -1.14165
  Beta  occ. eigenvalues --   -1.14045  -1.13982  -1.13939  -1.13653  -1.13625
  Beta  occ. eigenvalues --   -1.13564  -1.13479  -1.13455  -1.13374  -1.13197
  Beta  occ. eigenvalues --   -1.13185  -1.13164  -1.13057  -1.13055  -1.13018
  Beta  occ. eigenvalues --   -0.16329  -0.14279  -0.10749
  Beta virt. eigenvalues --   -0.07947  -0.06364  -0.05133  -0.04400  -0.03441
  Beta virt. eigenvalues --   -0.02564  -0.02138  -0.01698  -0.01322  -0.00696
  Beta virt. eigenvalues --   -0.00560  -0.00265   0.00066   0.00359   0.00455

 Mulliken charges and spin densities:
               1          2
     1  Na   0.082564   0.310859
     2  Na   0.931036  -0.022845
     3  Na  -0.811745   0.257112
     4  Na  -0.049860   0.017727
     5  Na  -0.638179   0.365552
     6  Na   0.391965   0.092594
     7  Na   0.094220  -0.020998
 Sum of Mulliken charges =  -0.00000   1.00000

 Dipole moment (field-independent basis, Debye):
    X=             -1.3927    Y=             -0.1351    Z=             -0.1811  Tot=              1.4109
 Quadrupole moment (field-independent basis, Debye-Ang):
   XX=            -71.6796   YY=            -65.7182   ZZ=            -68.4649
   XY=             -4.2206   XZ=             -3.9093   YZ=              0.1386

 Normal termination of Gaussian 16 at Wed Nov 29 00:52:35 2023.
