 Gaussian 16, Revision B.01,
 Gaussian 16:  ES64L-G16RevB.01 20-Dec-2017

 -------------------------
 #P B3LYP/6-311+g(d) force
 -------------------------

 -----
 DPGEN
 -----
 Symbolic Z-matrix:
 Charge =  0 Multiplicity = 2

                         Standard orientation:
 ---------------------------------------------------------------------
 Center     Atomic      Atomic             Coordinates (Angstroms)
 Number     Number       Type             X           Y           Z
 ---------------------------------------------------------------------
      1         11           0        0.191668   -2.548676    0.881128
      2         11           0        3.085554   -0.815633   -0.526621
      3         11           0       -0.602354    0.462832    1.690323
      4         11           0       -1.679203    2.216137   -0.370595
      5         11           0       -3.020163   -0.931152   -0.409459
      6         11           0        0.026954   -0.489227   -1.594301
      7         11           0        1.997545    2.105719    0.329526
 ---------------------------------------------------------------------

 SCF Done:  E(UB3LYP) =  -1136.13296337     A.U. after   20 cycles

 The electronic state is 2-A.
 Alpha  occ. eigenvalues --  -38.44202 -38.43946 -38.43462 -38.43450 -38.43265
 Alpha  occ. eigenvalues --  -38.43184 -38.43167  -2.20065  -2.19803  -2.19372
 Alpha  occ. eigenvalues --   -2.19317  -2.19268  -2.19216  -2.19057  -1.13750
 Alpha  occ. eigenvalues --   -1.13724  -1.13694  -1.13491  -1.13469  -1.13434
 Alpha  occ. eigenvalues --   -1.13204  -1.13049  -1.13010  -1.12983  -1.12978
 Alpha  occ. eigenvalues --   -1.12968  -1.12943  -1.12905  -1.12889  -1.12882
 Alpha  occ. eigenvalues --   -1.12819  -1.12807  -1.12717  -1.12699  -1.12658
 Alpha  occ. eigenvalues --   -0.19124  -0.13461  -0.12260  -0.10935
 Alpha virt. eigenvalues --   -0.05800  -0.05090  -0.04207  -0.03314  -0.02923
 Alpha virt. eigenvalues --   -0.02357  -0.01739  -0.00951  -0.00306   0.00016
 Alpha virt. eigenvalues --    0.00108   0.00356   0.00827   0.00889   0.00906

  Beta  occ. eigenvalues --  -38.44189 -38.43936 -38.43458 -38.43441 -38.43210
  Beta  occ. eigenvalues --  -38.43137 -38.43108  -2.20045  -2.19787  -2.19358
  Beta  occ. eigenvalues --   -2.19313  -2.19168  -2.19078  -2.19004  -1.13726
  Beta  occ. eigenvalues --   -1.13709  -1.13669  -1.13474  -1.13456  -1.13421
  Beta  occ. eigenvalues --   -1.13172  -1.13020  -1.12997  -1.12967  -1.12955
  Beta  occ. eigenvalues --   -1.12937  -1.12912  -1.12843  -1.12811  -1.12796
  Beta  occ. eigenvalues --   -1.12737  -1.12718  -1.12666  -1.12641  -1.12619
  Beta  occ. eigenvalues --   -0.18416  -0.13179  -0.12002
  Beta virt. eigenvalues --   -0.07006  -0.05714  -0.05056  -0.04127  -0.02629
  Beta virt. eigenvalues --   -0.02204  -0.01626  -0.01321  -0.00916  -0.00201
  Beta virt. eigenvalues --    0.00014   0.00164   0.00397   0.00859   0.00918

 Mulliken charges and spin densities:
               1          2
     1  Na  -0.241039   0.033395
     2  Na   0.269991   0.049030
     3  Na   0.234302   0.466175
     4  Na  -0.024866   0.045292
     5  Na   0.237977   0.020131
     6  Na  -0.214862   0.467803
     7  Na  -0.261502  -0.081826
 Sum of Mulliken charges =  -0.00000   1.00000

 Dipole moment (field-independent basis, Debye):
    X=             -0.1776    Y=             -0.1461    Z=             -0.1233  Tot=              0.2610
 Quadrupole moment (field-independent basis, Debye-Ang):
   XX=            -53.9345   YY=            -66.0764   ZZ=            -73.0979
   XY=              0.3737   XZ=              1.0350   YZ=             -1.4048

 Normal termination of Gaussian 16 at Wed Nov 29 00:29:35 2023.
