 Gaussian 16, Revision B.01,
 Gaussian 16:  ES64L-G16RevB.01 20-Dec-2017

 -------------------------
 #P B3LYP/6-311+g(d) force
 -------------------------

 -----
 DPGEN
 -----
 Symbolic Z-matrix:
 Charge =  0 Multiplicity = 2

                         Standard orientation:
 ---------------------------------------------------------------------
 Center     Atomic      Atomic             Coordinates (Angstroms)
 Number     Number       Type             X           Y           Z
 ---------------------------------------------------------------------
      1         11           0       -2.468953    0.337691   -1.288873
      2         11           0       -0.211294    2.755546    0.015136
      3         11           0       -1.089708    0.554710    1.808556
      4         11           0        2.665139    1.112180   -0.021665
      5         11           0        3.518239   -1.964287    0.289301
      6         11           0        0.682880   -0.711689   -1.231194
      7         11           0       -3.096304   -2.084150    0.428738
 ---------------------------------------------------------------------

 SCF Done:  E(UB3LYP) =  -1136.12185605     A.U. after   21 cycles

 The electronic state is 2-A.
 Alpha  occ. eigenvalues --  -38.44391 -38.44089 -38.43977 -38.43929 -38.43751
 Alpha  occ. eigenvalues --  -38.43744 -38.42728  -2.20313  -2.19911  -2.19873
 Alpha  occ. eigenvalues --   -2.19813  -2.19693  -2.19682  -2.18653  -1.14099
 Alpha  occ. eigenvalues --   -1.13975  -1.13918  -1.13580  -1.13567  -1.13565
 Alpha  occ. eigenvalues --   -1.13554  -1.13550  -1.13532  -1.13483  -1.13461
 Alpha  occ. eigenvalues --   -1.13454  -1.13398  -1.13345  -1.13339  -1.13326
 Alpha  occ. eigenvalues --   -1.13278  -1.13268  -1.12347  -1.12305  -1.12277
 Alpha  occ. eigenvalues --   -0.18602  -0.14198  -0.11951  -0.10523
 Alpha virt. eigenvalues --   -0.06004  -0.05988  -0.03911  -0.03676  -0.02700
 Alpha virt. eigenvalues --   -0.02226  -0.01967  -0.01293  -0.00776  -0.00182
 Alpha virt. eigenvalues --    0.00147   0.00245   0.00658   0.00682   0.00726

  Beta  occ. eigenvalues --  -38.44388 -38.44087 -38.43967 -38.43883 -38.43703
  Beta  occ. eigenvalues --  -38.43681 -38.42720  -2.20309  -2.19908  -2.19797
  Beta  occ. eigenvalues --   -2.19792  -2.19621  -2.19552  -2.18643  -1.14089
  Beta  occ. eigenvalues --   -1.13960  -1.13921  -1.13574  -1.13560  -1.13549
  Beta  occ. eigenvalues --   -1.13546  -1.13501  -1.13481  -1.13449  -1.13426
  Beta  occ. eigenvalues --   -1.13405  -1.13324  -1.13281  -1.13260  -1.13249
  Beta  occ. eigenvalues --   -1.13224  -1.13177  -1.12336  -1.12302  -1.12240
  Beta  occ. eigenvalues --   -0.17912  -0.13991  -0.11761
  Beta virt. eigenvalues --   -0.06626  -0.05941  -0.05752  -0.03869  -0.03130
  Beta virt. eigenvalues --   -0.02124  -0.01870  -0.01346  -0.01099  -0.00736
  Beta virt. eigenvalues --    0.00048   0.00209   0.00294   0.00737   0.00748

 Mulliken charges and spin densities:
               1          2
     1  Na   0.484163   0.103029
     2  Na   0.466893   0.146142
     3  Na  -0.576826   0.583047
     4  Na  -0.061683  -0.003294
     5  Na   0.489910  -0.048031
     6  Na  -0.817749   0.184954
     7  Na   0.015293   0.034153
 Sum of Mulliken charges =  -0.00000   1.00000

 Dipole moment (field-independent basis, Debye):
    X=              0.5499    Y=             -0.4130    Z=              0.0988  Tot=              0.6948
 Quadrupole moment (field-independent basis, Debye-Ang):
   XX=            -57.0052   YY=            -63.1862   ZZ=            -74.5017
   XY=              0.0388   XZ=              2.7107   YZ=             -3.6176

 Normal termination of Gaussian 16 at Thu Dec  7 21:49:19 2023.
