 Gaussian 16, Revision B.01,
 Gaussian 16:  ES64L-G16RevB.01 20-Dec-2017

 -------------------------
 #P B3LYP/6-311+g(d) force
 -------------------------

 -----
 DPGEN
 -----
 Symbolic Z-matrix:
 Charge =  0 Multiplicity = 2

                         Standard orientation:
 ---------------------------------------------------------------------
 Center     Atomic      Atomic             Coordinates (Angstroms)
 Number     Number       Type             X           Y           Z
 ---------------------------------------------------------------------
      1         11           0       -3.738264    1.191941    0.338777
      2         11           0       -0.910468   -1.143083   -0.855978
      3         11           0        2.674425   -2.194203    1.127838
      4         11           0        4.803128   -0.731972   -0.540686
      5         11           0       -4.321771   -2.265126   -0.158558
      6         11           0        2.353747    2.313322   -0.168365
      7         11           0       -0.860797    2.829122    0.256973
 ---------------------------------------------------------------------

 SCF Done:  E(UB3LYP) =  -1136.11087449     A.U. after   27 cycles

 The electronic state is 2-A.
 Alpha  occ. eigenvalues --  -38.45186 -38.45108 -38.45030 -38.44068 -38.44029
 Alpha  occ. eigenvalues --  -38.43889 -38.43123  -2.20961  -2.20870  -2.20786
 Alpha  occ. eigenvalues --   -2.19866  -2.19861  -2.19721  -2.18949  -1.14654
 Alpha  occ. eigenvalues --   -1.14625  -1.14609  -1.14560  -1.14534  -1.14498
 Alpha  occ. eigenvalues --   -1.14465  -1.14449  -1.14425  -1.13543  -1.13531
 Alpha  occ. eigenvalues --   -1.13528  -1.13508  -1.13475  -1.13464  -1.13379
 Alpha  occ. eigenvalues --   -1.13362  -1.13351  -1.12617  -1.12615  -1.12601
 Alpha  occ. eigenvalues --   -0.16311  -0.14279  -0.12137  -0.10072
 Alpha virt. eigenvalues --   -0.07687  -0.05552  -0.04331  -0.03477  -0.03106
 Alpha virt. eigenvalues --   -0.02786  -0.02227  -0.01561  -0.00917  -0.00580
 Alpha virt. eigenvalues --   -0.00488  -0.00081   0.00188   0.00419   0.00514

  Beta  occ. eigenvalues --  -38.45194 -38.45108 -38.45035 -38.43990 -38.43966
  Beta  occ. eigenvalues --  -38.43843 -38.43114  -2.20979  -2.20871  -2.20798
  Beta  occ. eigenvalues --   -2.19747  -2.19720  -2.19634  -2.18936  -1.14664
  Beta  occ. eigenvalues --   -1.14639  -1.14597  -1.14561  -1.14528  -1.14497
  Beta  occ. eigenvalues --   -1.14475  -1.14438  -1.14436  -1.13451  -1.13449
  Beta  occ. eigenvalues --   -1.13444  -1.13406  -1.13390  -1.13367  -1.13325
  Beta  occ. eigenvalues --   -1.13300  -1.13292  -1.12610  -1.12607  -1.12572
  Beta  occ. eigenvalues --   -0.15704  -0.13879  -0.11951
  Beta virt. eigenvalues --   -0.07469  -0.06614  -0.05279  -0.03976  -0.03095
  Beta virt. eigenvalues --   -0.02854  -0.02444  -0.01931  -0.01463  -0.00752
  Beta virt. eigenvalues --   -0.00316  -0.00170   0.00074   0.00299   0.00545

 Mulliken charges and spin densities:
               1          2
     1  Na   0.186198   0.395160
     2  Na  -1.183937   0.390107
     3  Na   0.032249  -0.031121
     4  Na   0.203934   0.279040
     5  Na   0.727554  -0.003856
     6  Na  -0.156459  -0.051583
     7  Na   0.190462   0.022254
 Sum of Mulliken charges =  -0.00000   1.00000

 Dipole moment (field-independent basis, Debye):
    X=              0.1006    Y=             -1.0177    Z=              0.1560  Tot=              1.0345
 Quadrupole moment (field-independent basis, Debye-Ang):
   XX=            -62.3697   YY=            -66.7622   ZZ=            -69.8530
   XY=              9.4857   XZ=             -1.8551   YZ=             -3.0270

 Normal termination of Gaussian 16 at Sun Dec  3 19:58:10 2023.
