 Gaussian 16, Revision B.01,
 Gaussian 16:  ES64L-G16RevB.01 20-Dec-2017

 -------------------------
 #P B3LYP/6-311+g(d) force
 -------------------------

 -----
 DPGEN
 -----
 Symbolic Z-matrix:
 Charge =  0 Multiplicity = 2

                         Standard orientation:
 ---------------------------------------------------------------------
 Center     Atomic      Atomic             Coordinates (Angstroms)
 Number     Number       Type             X           Y           Z
 ---------------------------------------------------------------------
      1         11           0        2.204041    2.001361    0.287472
      2         11           0        2.963529   -1.181061   -0.583102
      3         11           0       -1.473591    2.636872   -0.145222
      4         11           0        0.129378    0.181489    1.653774
      5         11           0       -0.404989   -2.772275    0.665752
      6         11           0       -0.082282   -0.326344   -1.638487
      7         11           0       -3.336086   -0.540042   -0.240187
 ---------------------------------------------------------------------

 SCF Done:  E(UB3LYP) =  -1136.13559774     A.U. after   19 cycles

 The electronic state is 2-A.
 Alpha  occ. eigenvalues --  -38.44469 -38.43903 -38.43613 -38.43466 -38.43325
 Alpha  occ. eigenvalues --  -38.43250 -38.43050  -2.20261  -2.19745  -2.19487
 Alpha  occ. eigenvalues --   -2.19292  -2.19283  -2.19119  -2.19058  -1.13941
 Alpha  occ. eigenvalues --   -1.13908  -1.13900  -1.13428  -1.13402  -1.13378
 Alpha  occ. eigenvalues --   -1.13221  -1.13137  -1.13103  -1.13008  -1.12976
 Alpha  occ. eigenvalues --   -1.12973  -1.12919  -1.12914  -1.12891  -1.12860
 Alpha  occ. eigenvalues --   -1.12765  -1.12728  -1.12724  -1.12670  -1.12647
 Alpha  occ. eigenvalues --   -0.18699  -0.13141  -0.12356  -0.10572
 Alpha virt. eigenvalues --   -0.05919  -0.05118  -0.04537  -0.03125  -0.02825
 Alpha virt. eigenvalues --   -0.02181  -0.01860  -0.01160  -0.00415  -0.00300
 Alpha virt. eigenvalues --    0.00037   0.00316   0.00761   0.00858   0.00868

  Beta  occ. eigenvalues --  -38.44464 -38.43883 -38.43605 -38.43464 -38.43267
  Beta  occ. eigenvalues --  -38.43226 -38.42972  -2.20255  -2.19711  -2.19476
  Beta  occ. eigenvalues --   -2.19291  -2.19178  -2.19078  -2.18917  -1.13927
  Beta  occ. eigenvalues --   -1.13906  -1.13892  -1.13396  -1.13377  -1.13350
  Beta  occ. eigenvalues --   -1.13201  -1.13120  -1.13092  -1.12977  -1.12964
  Beta  occ. eigenvalues --   -1.12928  -1.12907  -1.12857  -1.12809  -1.12804
  Beta  occ. eigenvalues --   -1.12722  -1.12702  -1.12631  -1.12576  -1.12550
  Beta  occ. eigenvalues --   -0.18029  -0.12853  -0.12068
  Beta virt. eigenvalues --   -0.06757  -0.05838  -0.05063  -0.04488  -0.02440
  Beta virt. eigenvalues --   -0.02097  -0.01727  -0.01220  -0.01073  -0.00395
  Beta virt. eigenvalues --   -0.00307   0.00143   0.00365   0.00808   0.00873

 Mulliken charges and spin densities:
               1          2
     1  Na   0.131670  -0.027712
     2  Na   0.126586   0.095452
     3  Na  -0.168810  -0.072033
     4  Na   0.130007   0.438558
     5  Na   0.007962   0.021507
     6  Na  -0.219707   0.600919
     7  Na  -0.007707  -0.056691
 Sum of Mulliken charges =  -0.00000   1.00000

 Dipole moment (field-independent basis, Debye):
    X=             -0.2720    Y=             -0.0527    Z=             -0.1189  Tot=              0.3014
 Quadrupole moment (field-independent basis, Debye-Ang):
   XX=            -53.3197   YY=            -63.1707   ZZ=            -75.3016
   XY=              0.2016   XZ=             -0.3010   YZ=             -0.7645

 Normal termination of Gaussian 16 at Thu Dec  7 16:32:33 2023.
