 Gaussian 16, Revision B.01,
 Gaussian 16:  ES64L-G16RevB.01 20-Dec-2017

 -------------------------
 #P B3LYP/6-311+g(d) force
 -------------------------

 -----
 DPGEN
 -----
 Symbolic Z-matrix:
 Charge =  0 Multiplicity = 2

                         Standard orientation:
 ---------------------------------------------------------------------
 Center     Atomic      Atomic             Coordinates (Angstroms)
 Number     Number       Type             X           Y           Z
 ---------------------------------------------------------------------
      1         11           0       -0.988676    2.560171   -0.410471
      2         11           0        2.207883   -1.850385    0.023949
      3         11           0       -0.020914    0.027309    1.926457
      4         11           0       -1.091517   -2.348783   -0.408866
      5         11           0        2.317399    1.546583    0.315268
      6         11           0       -2.812809   -0.138718    0.322729
      7         11           0        0.388635    0.203823   -1.769067
 ---------------------------------------------------------------------

 SCF Done:  E(UB3LYP) =  -1136.13326489     A.U. after   19 cycles

 The electronic state is 2-A.
 Alpha  occ. eigenvalues --  -38.43630 -38.43565 -38.43548 -38.43407 -38.43383
 Alpha  occ. eigenvalues --  -38.43250 -38.43219  -2.19619  -2.19490  -2.19487
 Alpha  occ. eigenvalues --   -2.19454  -2.19281  -2.19175  -2.19160  -1.13327
 Alpha  occ. eigenvalues --   -1.13320  -1.13259  -1.13238  -1.13234  -1.13158
 Alpha  occ. eigenvalues --   -1.13148  -1.13132  -1.13118  -1.13105  -1.13093
 Alpha  occ. eigenvalues --   -1.13047  -1.12948  -1.12942  -1.12915  -1.12832
 Alpha  occ. eigenvalues --   -1.12825  -1.12804  -1.12801  -1.12780  -1.12769
 Alpha  occ. eigenvalues --   -0.19657  -0.13232  -0.12696  -0.11426
 Alpha virt. eigenvalues --   -0.05100  -0.04928  -0.04383  -0.03450  -0.03119
 Alpha virt. eigenvalues --   -0.02851  -0.01142  -0.00939  -0.00093   0.00213
 Alpha virt. eigenvalues --    0.00254   0.00381   0.00921   0.00976   0.00999

  Beta  occ. eigenvalues --  -38.43554 -38.43542 -38.43541 -38.43379 -38.43328
  Beta  occ. eigenvalues --  -38.43238 -38.43209  -2.19481  -2.19472  -2.19457
  Beta  occ. eigenvalues --   -2.19312  -2.19276  -2.19160  -2.19144  -1.13288
  Beta  occ. eigenvalues --   -1.13250  -1.13204  -1.13176  -1.13139  -1.13105
  Beta  occ. eigenvalues --   -1.13100  -1.13094  -1.13057  -1.13053  -1.13038
  Beta  occ. eigenvalues --   -1.12970  -1.12938  -1.12915  -1.12900  -1.12812
  Beta  occ. eigenvalues --   -1.12799  -1.12776  -1.12770  -1.12769  -1.12755
  Beta  occ. eigenvalues --   -0.18891  -0.12955  -0.12404
  Beta virt. eigenvalues --   -0.07418  -0.05087  -0.04913  -0.04367  -0.02595
  Beta virt. eigenvalues --   -0.02299  -0.01748  -0.01065  -0.00879   0.00026
  Beta virt. eigenvalues --    0.00177   0.00221   0.00396   0.00954   0.00982

 Mulliken charges and spin densities:
               1          2
     1  Na   0.212193  -0.042255
     2  Na   0.126963  -0.056618
     3  Na  -0.490826   0.601362
     4  Na   0.142817  -0.007687
     5  Na   0.243177  -0.038443
     6  Na   0.184076   0.037680
     7  Na  -0.418400   0.505961
 Sum of Mulliken charges =  -0.00000   1.00000

 Dipole moment (field-independent basis, Debye):
    X=              0.2393    Y=              0.1174    Z=              0.1613  Tot=              0.3116
 Quadrupole moment (field-independent basis, Debye-Ang):
   XX=            -60.0360   YY=            -64.2267   ZZ=            -71.0921
   XY=             -0.6288   XZ=              0.6841   YZ=              0.3988

 Normal termination of Gaussian 16 at Fri Dec  8 05:54:31 2023.
