 Gaussian 16, Revision B.01,
 Gaussian 16:  ES64L-G16RevB.01 20-Dec-2017

 -------------------------
 #P B3LYP/6-311+g(d) force
 -------------------------

 -----
 DPGEN
 -----
 Symbolic Z-matrix:
 Charge =  0 Multiplicity = 2

                         Standard orientation:
 ---------------------------------------------------------------------
 Center     Atomic      Atomic             Coordinates (Angstroms)
 Number     Number       Type             X           Y           Z
 ---------------------------------------------------------------------
      1         11           0        1.521214   -2.122935   -0.483932
      2         11           0       -5.412842   -0.373549    0.221897
      3         11           0       -2.660205   -1.456562   -0.293559
      4         11           0       -2.749726    2.314485   -0.115285
      5         11           0        0.241264    1.195471   -0.094795
      6         11           0        3.276300   -0.337226    1.422202
      7         11           0        5.783995    0.780317   -0.656529
 ---------------------------------------------------------------------

 SCF Done:  E(UB3LYP) =  -1136.11193146     A.U. after   26 cycles

 The electronic state is 2-A.
 Alpha  occ. eigenvalues --  -38.44902 -38.44636 -38.44634 -38.44168 -38.43853
 Alpha  occ. eigenvalues --  -38.43623 -38.43596  -2.20745  -2.20484  -2.20473
 Alpha  occ. eigenvalues --   -2.20009  -2.19709  -2.19435  -2.19379  -1.14420
 Alpha  occ. eigenvalues --   -1.14407  -1.14336  -1.14170  -1.14168  -1.14139
 Alpha  occ. eigenvalues --   -1.14124  -1.14122  -1.14075  -1.13710  -1.13671
 Alpha  occ. eigenvalues --   -1.13612  -1.13394  -1.13380  -1.13329  -1.13121
 Alpha  occ. eigenvalues --   -1.13080  -1.13054  -1.13048  -1.13047  -1.13010
 Alpha  occ. eigenvalues --   -0.16956  -0.14563  -0.11847  -0.10923
 Alpha virt. eigenvalues --   -0.06431  -0.05779  -0.04497  -0.03600  -0.03292
 Alpha virt. eigenvalues --   -0.02442  -0.01905  -0.01441  -0.01046  -0.00853
 Alpha virt. eigenvalues --   -0.00399  -0.00093   0.00305   0.00377   0.00578

  Beta  occ. eigenvalues --  -38.44826 -38.44594 -38.44589 -38.44167 -38.43824
  Beta  occ. eigenvalues --  -38.43618 -38.43580  -2.20608  -2.20412  -2.20383
  Beta  occ. eigenvalues --   -2.20009  -2.19661  -2.19406  -2.19369  -1.14324
  Beta  occ. eigenvalues --   -1.14317  -1.14230  -1.14123  -1.14108  -1.14088
  Beta  occ. eigenvalues --   -1.14065  -1.14060  -1.14017  -1.13701  -1.13673
  Beta  occ. eigenvalues --   -1.13611  -1.13368  -1.13347  -1.13261  -1.13090
  Beta  occ. eigenvalues --   -1.13061  -1.13042  -1.13040  -1.13039  -1.13003
  Beta  occ. eigenvalues --   -0.16368  -0.14277  -0.10701
  Beta virt. eigenvalues --   -0.07976  -0.06233  -0.05231  -0.04379  -0.03399
  Beta virt. eigenvalues --   -0.02577  -0.02120  -0.01647  -0.01271  -0.00763
  Beta virt. eigenvalues --   -0.00563  -0.00286   0.00069   0.00384   0.00487

 Mulliken charges and spin densities:
               1          2
     1  Na   0.086152   0.306419
     2  Na   1.253976  -0.051942
     3  Na  -1.157585   0.280877
     4  Na   0.013343   0.040214
     5  Na  -0.800946   0.344601
     6  Na   0.510519   0.062204
     7  Na   0.094541   0.017626
 Sum of Mulliken charges =  -0.00000   1.00000

 Dipole moment (field-independent basis, Debye):
    X=             -1.1630    Y=             -0.0771    Z=             -0.2083  Tot=              1.1840
 Quadrupole moment (field-independent basis, Debye-Ang):
   XX=            -72.7336   YY=            -65.3702   ZZ=            -68.1277
   XY=             -5.3733   XZ=             -3.8908   YZ=              0.1720

 Normal termination of Gaussian 16 at Wed Nov 29 02:18:16 2023.
