 Gaussian 16, Revision B.01,
 Gaussian 16:  ES64L-G16RevB.01 20-Dec-2017

 -------------------------
 #P B3LYP/6-311+g(d) force
 -------------------------

 -----
 DPGEN
 -----
 Symbolic Z-matrix:
 Charge =  0 Multiplicity = 2

                         Standard orientation:
 ---------------------------------------------------------------------
 Center     Atomic      Atomic             Coordinates (Angstroms)
 Number     Number       Type             X           Y           Z
 ---------------------------------------------------------------------
      1         11           0        0.660937   -2.702181   -0.111732
      2         11           0        1.481161    2.551954   -0.211998
      3         11           0        3.069739   -0.296396    0.079117
      4         11           0       -0.311494   -0.173974    2.251828
      5         11           0        0.219615   -0.063124   -1.572599
      6         11           0       -2.747639   -1.325945   -0.428247
      7         11           0       -2.372320    2.009666   -0.006369
 ---------------------------------------------------------------------

 SCF Done:  E(UB3LYP) =  -1136.13654421     A.U. after   19 cycles

 The electronic state is 2-A.
 Alpha  occ. eigenvalues --  -38.43984 -38.43946 -38.43916 -38.43781 -38.43325
 Alpha  occ. eigenvalues --  -38.43206 -38.43063  -2.19854  -2.19798  -2.19758
 Alpha  occ. eigenvalues --   -2.19595  -2.19228  -2.19178  -2.18957  -1.13541
 Alpha  occ. eigenvalues --   -1.13514  -1.13497  -1.13455  -1.13443  -1.13430
 Alpha  occ. eigenvalues --   -1.13421  -1.13408  -1.13398  -1.13266  -1.13253
 Alpha  occ. eigenvalues --   -1.13234  -1.12966  -1.12941  -1.12853  -1.12835
 Alpha  occ. eigenvalues --   -1.12810  -1.12801  -1.12629  -1.12608  -1.12573
 Alpha  occ. eigenvalues --   -0.18699  -0.13209  -0.12262  -0.10957
 Alpha virt. eigenvalues --   -0.05573  -0.05310  -0.04427  -0.03347  -0.02823
 Alpha virt. eigenvalues --   -0.02804  -0.01516  -0.01041  -0.00334  -0.00241
 Alpha virt. eigenvalues --   -0.00039   0.00355   0.00777   0.00886   0.00909

  Beta  occ. eigenvalues --  -38.43981 -38.43907 -38.43840 -38.43779 -38.43322
  Beta  occ. eigenvalues --  -38.43149 -38.43056  -2.19852  -2.19744  -2.19602
  Beta  occ. eigenvalues --   -2.19594  -2.19175  -2.19126  -2.18949  -1.13538
  Beta  occ. eigenvalues --   -1.13508  -1.13485  -1.13431  -1.13395  -1.13393
  Beta  occ. eigenvalues --   -1.13321  -1.13287  -1.13279  -1.13253  -1.13242
  Beta  occ. eigenvalues --   -1.13237  -1.12920  -1.12888  -1.12823  -1.12803
  Beta  occ. eigenvalues --   -1.12785  -1.12754  -1.12614  -1.12576  -1.12567
  Beta  occ. eigenvalues --   -0.17976  -0.12996  -0.12033
  Beta virt. eigenvalues --   -0.06973  -0.05509  -0.05319  -0.04396  -0.02553
  Beta virt. eigenvalues --   -0.02050  -0.01702  -0.01423  -0.00973  -0.00375
  Beta virt. eigenvalues --   -0.00296   0.00128   0.00388   0.00864   0.00881

 Mulliken charges and spin densities:
               1          2
     1  Na   0.333875   0.033582
     2  Na   0.140554  -0.026141
     3  Na   0.220221   0.050965
     4  Na  -0.698545   0.752703
     5  Na  -0.315840   0.216639
     6  Na   0.254739  -0.007759
     7  Na   0.064997  -0.019991
 Sum of Mulliken charges =  -0.00000   1.00000

 Dipole moment (field-independent basis, Debye):
    X=             -0.1201    Y=              0.0148    Z=              0.2516  Tot=              0.2791
 Quadrupole moment (field-independent basis, Debye-Ang):
   XX=            -56.4413   YY=            -64.3592   ZZ=            -73.4114
   XY=             -0.2404   XZ=              1.2608   YZ=              0.3248

 Normal termination of Gaussian 16 at Sat Dec  9 05:39:44 2023.
