 Gaussian 16, Revision B.01,
 Gaussian 16:  ES64L-G16RevB.01 20-Dec-2017

 -------------------------
 #P B3LYP/6-311+g(d) force
 -------------------------

 -----
 DPGEN
 -----
 Symbolic Z-matrix:
 Charge =  0 Multiplicity = 2

                         Standard orientation:
 ---------------------------------------------------------------------
 Center     Atomic      Atomic             Coordinates (Angstroms)
 Number     Number       Type             X           Y           Z
 ---------------------------------------------------------------------
      1         11           0       -1.741768    2.267852   -0.271796
      2         11           0        4.548375    0.277066    0.051296
      3         11           0        2.428425   -1.850627   -0.543318
      4         11           0       -0.187200   -0.539078    1.984839
      5         11           0       -4.510696   -0.178132   -0.030112
      6         11           0        1.300271    2.014764   -0.426991
      7         11           0       -1.837406   -1.991845   -0.763918
 ---------------------------------------------------------------------

 SCF Done:  E(UB3LYP) =  -1136.11912380     A.U. after   22 cycles

 The electronic state is 2-A.
 Alpha  occ. eigenvalues --  -38.45457 -38.44387 -38.44369 -38.44189 -38.44039
 Alpha  occ. eigenvalues --  -38.43052 -38.43027  -2.21263  -2.20230  -2.20191
 Alpha  occ. eigenvalues --   -2.20005  -2.19837  -2.18901  -2.18869  -1.14915
 Alpha  occ. eigenvalues --   -1.14908  -1.14873  -1.13938  -1.13868  -1.13852
 Alpha  occ. eigenvalues --   -1.13843  -1.13828  -1.13819  -1.13689  -1.13658
 Alpha  occ. eigenvalues --   -1.13625  -1.13524  -1.13508  -1.13473  -1.12678
 Alpha  occ. eigenvalues --   -1.12582  -1.12557  -1.12536  -1.12508  -1.12437
 Alpha  occ. eigenvalues --   -0.17328  -0.14319  -0.11456  -0.11067
 Alpha virt. eigenvalues --   -0.06685  -0.05657  -0.04390  -0.03304  -0.03184
 Alpha virt. eigenvalues --   -0.02375  -0.01908  -0.01704  -0.01025  -0.00568
 Alpha virt. eigenvalues --   -0.00360   0.00010   0.00505   0.00631   0.00653

  Beta  occ. eigenvalues --  -38.45380 -38.44330 -38.44293 -38.44188 -38.44042
  Beta  occ. eigenvalues --  -38.43050 -38.43024  -2.21122  -2.20123  -2.20050
  Beta  occ. eigenvalues --   -2.20009  -2.19847  -2.18900  -2.18866  -1.14821
  Beta  occ. eigenvalues --   -1.14815  -1.14768  -1.13879  -1.13794  -1.13781
  Beta  occ. eigenvalues --   -1.13748  -1.13734  -1.13725  -1.13695  -1.13660
  Beta  occ. eigenvalues --   -1.13587  -1.13535  -1.13515  -1.13445  -1.12666
  Beta  occ. eigenvalues --   -1.12578  -1.12557  -1.12535  -1.12508  -1.12423
  Beta  occ. eigenvalues --   -0.16718  -0.13587  -0.11286
  Beta virt. eigenvalues --   -0.07654  -0.06333  -0.05484  -0.03710  -0.03226
  Beta virt. eigenvalues --   -0.02939  -0.01824  -0.01612  -0.01377  -0.00702
  Beta virt. eigenvalues --   -0.00441  -0.00139   0.00043   0.00601   0.00677

 Mulliken charges and spin densities:
               1          2
     1  Na  -0.349772   0.100156
     2  Na   0.713759   0.294514
     3  Na  -0.232125   0.039262
     4  Na  -0.209141   0.246313
     5  Na   0.388242   0.404082
     6  Na  -0.152775  -0.071362
     7  Na  -0.158188  -0.012965
 Sum of Mulliken charges =  -0.00000   1.00000

 Dipole moment (field-independent basis, Debye):
    X=              0.2413    Y=             -0.4658    Z=              0.9201  Tot=              1.0591
 Quadrupole moment (field-independent basis, Debye-Ang):
   XX=            -60.2953   YY=            -76.7492   ZZ=            -64.5344
   XY=              0.1051   XZ=             -0.2353   YZ=              2.0251

 Normal termination of Gaussian 16 at Mon Dec  4 02:07:56 2023.
