 Gaussian 16, Revision B.01,
 Gaussian 16:  ES64L-G16RevB.01 20-Dec-2017

 -------------------------
 #P B3LYP/6-311+g(d) force
 -------------------------

 -----
 DPGEN
 -----
 Symbolic Z-matrix:
 Charge =  0 Multiplicity = 2

                         Standard orientation:
 ---------------------------------------------------------------------
 Center     Atomic      Atomic             Coordinates (Angstroms)
 Number     Number       Type             X           Y           Z
 ---------------------------------------------------------------------
      1         11           0       -3.129318   -0.960507    0.061551
      2         11           0        0.426555    0.213649    1.741207
      3         11           0       -0.067679   -2.519147    0.134436
      4         11           0        1.592822    2.330315   -0.248566
      5         11           0        2.950693   -1.052360   -0.033218
      6         11           0       -1.736090    2.236716    0.063737
      7         11           0       -0.036984   -0.248668   -1.719147
 ---------------------------------------------------------------------

 SCF Done:  E(UB3LYP) =  -1136.13569661     A.U. after   19 cycles

 The electronic state is 2-A.
 Alpha  occ. eigenvalues --  -38.43994 -38.43943 -38.43418 -38.43329 -38.43171
 Alpha  occ. eigenvalues --  -38.43171 -38.43122  -2.19815  -2.19812  -2.19294
 Alpha  occ. eigenvalues --   -2.19237  -2.19192  -2.19137  -2.19129  -1.13489
 Alpha  occ. eigenvalues --   -1.13482  -1.13475  -1.13473  -1.13467  -1.13458
 Alpha  occ. eigenvalues --   -1.13047  -1.13018  -1.12970  -1.12959  -1.12932
 Alpha  occ. eigenvalues --   -1.12916  -1.12867  -1.12839  -1.12819  -1.12777
 Alpha  occ. eigenvalues --   -1.12773  -1.12738  -1.12722  -1.12714  -1.12704
 Alpha  occ. eigenvalues --   -0.19286  -0.13133  -0.12711  -0.10685
 Alpha virt. eigenvalues --   -0.05671  -0.05129  -0.04445  -0.03049  -0.02917
 Alpha virt. eigenvalues --   -0.02282  -0.01672  -0.01053  -0.00156  -0.00052
 Alpha virt. eigenvalues --    0.00012   0.00341   0.00816   0.00914   0.00932

  Beta  occ. eigenvalues --  -38.43995 -38.43937 -38.43413 -38.43319 -38.43159
  Beta  occ. eigenvalues --  -38.43092 -38.43044  -2.19818  -2.19806  -2.19289
  Beta  occ. eigenvalues --   -2.19223  -2.19117  -2.19043  -2.18993  -1.13484
  Beta  occ. eigenvalues --   -1.13483  -1.13470  -1.13464  -1.13459  -1.13441
  Beta  occ. eigenvalues --   -1.13006  -1.12989  -1.12948  -1.12937  -1.12926
  Beta  occ. eigenvalues --   -1.12869  -1.12836  -1.12801  -1.12736  -1.12718
  Beta  occ. eigenvalues --   -1.12690  -1.12661  -1.12644  -1.12638  -1.12626
  Beta  occ. eigenvalues --   -0.18539  -0.12902  -0.12429
  Beta virt. eigenvalues --   -0.06725  -0.05632  -0.05134  -0.04440  -0.02288
  Beta virt. eigenvalues --   -0.02073  -0.01602  -0.01228  -0.00999  -0.00202
  Beta virt. eigenvalues --   -0.00098   0.00143   0.00364   0.00856   0.00902

 Mulliken charges and spin densities:
               1          2
     1  Na  -0.041437  -0.086207
     2  Na  -0.438042   0.703949
     3  Na   0.326261  -0.072577
     4  Na   0.189340  -0.082838
     5  Na   0.363467  -0.060209
     6  Na   0.096905  -0.096323
     7  Na  -0.496494   0.694207
 Sum of Mulliken charges =  -0.00000   1.00000

 Dipole moment (field-independent basis, Debye):
    X=              0.0109    Y=              0.0124    Z=             -0.0006  Tot=              0.0165
 Quadrupole moment (field-independent basis, Debye-Ang):
   XX=            -53.3769   YY=            -64.3566   ZZ=            -74.7576
   XY=             -0.1706   XZ=             -1.0516   YZ=             -0.9320

 Normal termination of Gaussian 16 at Sun Dec  3 15:14:54 2023.
