 Gaussian 16, Revision B.01,
 Gaussian 16:  ES64L-G16RevB.01 20-Dec-2017

 -------------------------
 #P B3LYP/6-311+g(d) force
 -------------------------

 -----
 DPGEN
 -----
 Symbolic Z-matrix:
 Charge =  0 Multiplicity = 2

                         Standard orientation:
 ---------------------------------------------------------------------
 Center     Atomic      Atomic             Coordinates (Angstroms)
 Number     Number       Type             X           Y           Z
 ---------------------------------------------------------------------
      1         11           0       -1.554960    0.603295    1.308951
      2         11           0        2.204790    0.636529    0.910324
      3         11           0        0.687507   -2.402538    0.714903
      4         11           0       -3.717530    0.779478   -0.882792
      5         11           0       -2.440482   -2.173147   -0.661552
      6         11           0        4.732443   -0.311120   -1.127617
      7         11           0        0.088233    2.867504   -0.262216
 ---------------------------------------------------------------------

 SCF Done:  E(UB3LYP) =  -1136.12306594     A.U. after   19 cycles

 The electronic state is 2-A.
 Alpha  occ. eigenvalues --  -38.44741 -38.44209 -38.44087 -38.43794 -38.43727
 Alpha  occ. eigenvalues --  -38.43386 -38.43377  -2.20543  -2.20081  -2.20021
 Alpha  occ. eigenvalues --   -2.19641  -2.19555  -2.19250  -2.19209  -1.14178
 Alpha  occ. eigenvalues --   -1.14174  -1.14154  -1.13843  -1.13741  -1.13714
 Alpha  occ. eigenvalues --   -1.13693  -1.13647  -1.13627  -1.13317  -1.13303
 Alpha  occ. eigenvalues --   -1.13285  -1.13233  -1.13212  -1.13192  -1.12951
 Alpha  occ. eigenvalues --   -1.12939  -1.12888  -1.12877  -1.12865  -1.12822
 Alpha  occ. eigenvalues --   -0.17530  -0.14131  -0.12014  -0.11173
 Alpha virt. eigenvalues --   -0.05969  -0.05116  -0.04925  -0.03789  -0.02529
 Alpha virt. eigenvalues --   -0.02110  -0.02024  -0.01282  -0.00588  -0.00548
 Alpha virt. eigenvalues --   -0.00440   0.00155   0.00370   0.00519   0.00567

  Beta  occ. eigenvalues --  -38.44627 -38.44160 -38.44073 -38.43789 -38.43724
  Beta  occ. eigenvalues --  -38.43374 -38.43358  -2.20331  -2.20002  -2.19988
  Beta  occ. eigenvalues --   -2.19636  -2.19552  -2.19251  -2.19161  -1.14032
  Beta  occ. eigenvalues --   -1.14030  -1.14014  -1.13799  -1.13698  -1.13673
  Beta  occ. eigenvalues --   -1.13643  -1.13621  -1.13578  -1.13317  -1.13303
  Beta  occ. eigenvalues --   -1.13250  -1.13228  -1.13204  -1.13195  -1.12948
  Beta  occ. eigenvalues --   -1.12939  -1.12847  -1.12845  -1.12827  -1.12795
  Beta  occ. eigenvalues --   -0.17046  -0.13269  -0.11792
  Beta virt. eigenvalues --   -0.07627  -0.05875  -0.04821  -0.04392  -0.03657
  Beta virt. eigenvalues --   -0.02184  -0.01744  -0.01391  -0.00959  -0.00528
  Beta virt. eigenvalues --   -0.00433  -0.00222   0.00339   0.00464   0.00598

 Mulliken charges and spin densities:
               1          2
     1  Na   0.943269   0.128386
     2  Na  -0.429711  -0.020553
     3  Na  -0.212154   0.044943
     4  Na  -0.024405   0.287762
     5  Na  -0.216401   0.052416
     6  Na   0.199408   0.551901
     7  Na  -0.260006  -0.044855
 Sum of Mulliken charges =  -0.00000   1.00000

 Dipole moment (field-independent basis, Debye):
    X=             -0.5433    Y=              0.1885    Z=             -0.7715  Tot=              0.9623
 Quadrupole moment (field-independent basis, Debye-Ang):
   XX=            -63.9704   YY=            -68.9175   ZZ=            -65.8204
   XY=             -1.0231   XZ=             -0.1890   YZ=             -0.6804

 Normal termination of Gaussian 16 at Wed Nov 29 03:01:53 2023.
