 Gaussian 16, Revision B.01,
 Gaussian 16:  ES64L-G16RevB.01 20-Dec-2017

 -------------------------
 #P B3LYP/6-311+g(d) force
 -------------------------

 -----
 DPGEN
 -----
 Symbolic Z-matrix:
 Charge =  0 Multiplicity = 2

                         Standard orientation:
 ---------------------------------------------------------------------
 Center     Atomic      Atomic             Coordinates (Angstroms)
 Number     Number       Type             X           Y           Z
 ---------------------------------------------------------------------
      1         11           0       -4.498435   -0.562202    0.021399
      2         11           0        3.253212    1.895544    0.776692
      3         11           0        0.761510    3.439232   -0.728243
      4         11           0       -3.245078    2.518424    0.149851
      5         11           0        4.582525   -1.119430   -0.077645
      6         11           0        1.153489   -3.290418   -0.417300
      7         11           0       -2.007225   -2.881149    0.275246
 ---------------------------------------------------------------------

 SCF Done:  E(UB3LYP) =  -1136.10722665     A.U. after   23 cycles

 The electronic state is 2-A.
 Alpha  occ. eigenvalues --  -38.45390 -38.44743 -38.44741 -38.44565 -38.44337
 Alpha  occ. eigenvalues --  -38.44160 -38.44122  -2.21136  -2.20528  -2.20509
 Alpha  occ. eigenvalues --   -2.20369  -2.20134  -2.19965  -2.19915  -1.14815
 Alpha  occ. eigenvalues --   -1.14802  -1.14777  -1.14209  -1.14203  -1.14186
 Alpha  occ. eigenvalues --   -1.14185  -1.14181  -1.14144  -1.14030  -1.14027
 Alpha  occ. eigenvalues --   -1.14012  -1.13781  -1.13770  -1.13760  -1.13629
 Alpha  occ. eigenvalues --   -1.13627  -1.13600  -1.13563  -1.13562  -1.13543
 Alpha  occ. eigenvalues --   -0.15475  -0.14176  -0.13211  -0.11005
 Alpha virt. eigenvalues --   -0.07688  -0.04848  -0.04460  -0.03550  -0.03463
 Alpha virt. eigenvalues --   -0.02637  -0.02229  -0.01901  -0.01222  -0.00758
 Alpha virt. eigenvalues --   -0.00588  -0.00213  -0.00082   0.00388   0.00524

  Beta  occ. eigenvalues --  -38.45380 -38.44735 -38.44724 -38.44541 -38.44258
  Beta  occ. eigenvalues --  -38.44134 -38.44057  -2.21123  -2.20524  -2.20478
  Beta  occ. eigenvalues --   -2.20326  -2.19987  -2.19921  -2.19794  -1.14809
  Beta  occ. eigenvalues --   -1.14797  -1.14745  -1.14212  -1.14205  -1.14165
  Beta  occ. eigenvalues --   -1.14164  -1.14134  -1.14100  -1.14003  -1.13999
  Beta  occ. eigenvalues --   -1.13974  -1.13681  -1.13671  -1.13662  -1.13601
  Beta  occ. eigenvalues --   -1.13597  -1.13557  -1.13482  -1.13479  -1.13462
  Beta  occ. eigenvalues --   -0.14971  -0.13434  -0.12383
  Beta virt. eigenvalues --   -0.07926  -0.07867  -0.04374  -0.03921  -0.03347
  Beta virt. eigenvalues --   -0.03204  -0.02415  -0.02005  -0.01762  -0.01059
  Beta virt. eigenvalues --   -0.00367  -0.00321  -0.00052   0.00110   0.00406

 Mulliken charges and spin densities:
               1          2
     1  Na   0.217411   0.145612
     2  Na  -0.221932   0.032755
     3  Na  -0.165133   0.283936
     4  Na  -0.058139   0.041063
     5  Na   0.265967   0.385188
     6  Na   0.164609   0.074120
     7  Na  -0.202781   0.037325
 Sum of Mulliken charges =  -0.00000   1.00000

 Dipole moment (field-independent basis, Debye):
    X=             -0.5601    Y=              0.1374    Z=             -0.0300  Tot=              0.5775
 Quadrupole moment (field-independent basis, Debye-Ang):
   XX=            -60.8602   YY=            -67.2565   ZZ=            -72.1074
   XY=             -1.9897   XZ=             -0.2823   YZ=              1.0734

 Normal termination of Gaussian 16 at Sun Dec  3 21:29:41 2023.
