 Gaussian 16, Revision B.01,
 Gaussian 16:  ES64L-G16RevB.01 20-Dec-2017

 -------------------------
 #P B3LYP/6-311+g(d) force
 -------------------------

 -----
 DPGEN
 -----
 Symbolic Z-matrix:
 Charge =  0 Multiplicity = 2

                         Standard orientation:
 ---------------------------------------------------------------------
 Center     Atomic      Atomic             Coordinates (Angstroms)
 Number     Number       Type             X           Y           Z
 ---------------------------------------------------------------------
      1         11           0       -3.425408    0.554696   -1.170423
      2         11           0        2.172937    2.080277   -0.262434
      3         11           0       -1.341591    2.147688    0.820345
      4         11           0       -0.200269   -1.049297   -1.102483
      5         11           0       -3.099990   -1.909599    0.878288
      6         11           0        2.056460   -0.634641    1.710805
      7         11           0        3.837861   -1.189126   -0.874098
 ---------------------------------------------------------------------

 SCF Done:  E(UB3LYP) =  -1136.11516416     A.U. after   28 cycles

 The electronic state is 2-A.
 Alpha  occ. eigenvalues --  -38.45494 -38.44554 -38.44356 -38.44302 -38.44278
 Alpha  occ. eigenvalues --  -38.43888 -38.43022  -2.21290  -2.20363  -2.20228
 Alpha  occ. eigenvalues --   -2.20179  -2.20088  -2.19728  -2.18837  -1.15003
 Alpha  occ. eigenvalues --   -1.14964  -1.14901  -1.14047  -1.14017  -1.14006
 Alpha  occ. eigenvalues --   -1.13904  -1.13894  -1.13867  -1.13847  -1.13829
 Alpha  occ. eigenvalues --   -1.13786  -1.13780  -1.13751  -1.13701  -1.13394
 Alpha  occ. eigenvalues --   -1.13372  -1.13353  -1.12519  -1.12503  -1.12477
 Alpha  occ. eigenvalues --   -0.17796  -0.14792  -0.11075  -0.09891
 Alpha virt. eigenvalues --   -0.06969  -0.06273  -0.05221  -0.03143  -0.02925
 Alpha virt. eigenvalues --   -0.02192  -0.01879  -0.01458  -0.01034  -0.00777
 Alpha virt. eigenvalues --    0.00029   0.00059   0.00169   0.00289   0.00418

  Beta  occ. eigenvalues --  -38.45482 -38.44534 -38.44316 -38.44280 -38.44264
  Beta  occ. eigenvalues --  -38.43850 -38.43016  -2.21273  -2.20327  -2.20155
  Beta  occ. eigenvalues --   -2.20107  -2.20094  -2.19656  -2.18829  -1.14964
  Beta  occ. eigenvalues --   -1.14948  -1.14894  -1.14017  -1.13991  -1.13976
  Beta  occ. eigenvalues --   -1.13861  -1.13839  -1.13808  -1.13797  -1.13782
  Beta  occ. eigenvalues --   -1.13781  -1.13744  -1.13735  -1.13696  -1.13342
  Beta  occ. eigenvalues --   -1.13320  -1.13306  -1.12514  -1.12490  -1.12460
  Beta  occ. eigenvalues --   -0.17278  -0.14481  -0.10899
  Beta virt. eigenvalues --   -0.06815  -0.06488  -0.06004  -0.04550  -0.03075
  Beta virt. eigenvalues --   -0.02716  -0.01780  -0.01353  -0.01213  -0.00793
  Beta virt. eigenvalues --   -0.00425   0.00116   0.00147   0.00341   0.00471

 Mulliken charges and spin densities:
               1          2
     1  Na   0.673593   0.093624
     2  Na  -0.034934  -0.012984
     3  Na  -0.323196   0.051038
     4  Na  -0.623853   0.132119
     5  Na   0.035423   0.141330
     6  Na  -0.038175   0.277554
     7  Na   0.311142   0.317319
 Sum of Mulliken charges =  -0.00000   1.00000

 Dipole moment (field-independent basis, Debye):
    X=             -0.2619    Y=             -0.3244    Z=              0.2283  Tot=              0.4753
 Quadrupole moment (field-independent basis, Debye-Ang):
   XX=            -54.2055   YY=            -76.2762   ZZ=            -68.7140
   XY=              2.1873   XZ=             -0.4041   YZ=             -1.6436

 Normal termination of Gaussian 16 at Thu Dec  7 18:42:36 2023.
