 Gaussian 16, Revision B.01,
 Gaussian 16:  ES64L-G16RevB.01 20-Dec-2017

 -------------------------
 #P B3LYP/6-311+g(d) force
 -------------------------

 -----
 DPGEN
 -----
 Symbolic Z-matrix:
 Charge =  0 Multiplicity = 2

                         Standard orientation:
 ---------------------------------------------------------------------
 Center     Atomic      Atomic             Coordinates (Angstroms)
 Number     Number       Type             X           Y           Z
 ---------------------------------------------------------------------
      1         11           0        1.474614   -2.039558    1.060681
      2         11           0        4.990613   -1.937593   -0.385822
      3         11           0        2.859785    0.914702   -0.831948
      4         11           0        1.605752    3.823267    0.455826
      5         11           0       -0.311729    0.331498    0.157124
      6         11           0       -3.753663   -1.116284   -0.344517
      7         11           0       -6.865372    0.023968   -0.111344
 ---------------------------------------------------------------------

 SCF Done:  E(UB3LYP) =  -1136.11439064     A.U. after   21 cycles

 The electronic state is 2-A.
 Alpha  occ. eigenvalues --  -38.44958 -38.44770 -38.44234 -38.44150 -38.44110
 Alpha  occ. eigenvalues --  -38.44062 -38.43788  -2.20778  -2.20552  -2.20111
 Alpha  occ. eigenvalues --   -2.20011  -2.19872  -2.19847  -2.19572  -1.14499
 Alpha  occ. eigenvalues --   -1.14447  -1.14371  -1.14198  -1.14197  -1.14177
 Alpha  occ. eigenvalues --   -1.13811  -1.13795  -1.13729  -1.13708  -1.13669
 Alpha  occ. eigenvalues --   -1.13594  -1.13557  -1.13553  -1.13513  -1.13508
 Alpha  occ. eigenvalues --   -1.13507  -1.13457  -1.13239  -1.13234  -1.13186
 Alpha  occ. eigenvalues --   -0.16827  -0.13607  -0.12029  -0.11637
 Alpha virt. eigenvalues --   -0.06422  -0.05659  -0.04272  -0.03648  -0.02967
 Alpha virt. eigenvalues --   -0.02221  -0.02176  -0.02019  -0.01258  -0.00887
 Alpha virt. eigenvalues --   -0.00573  -0.00146   0.00128   0.00370   0.00599

  Beta  occ. eigenvalues --  -38.44925 -38.44708 -38.44183 -38.44127 -38.44124
  Beta  occ. eigenvalues --  -38.44021 -38.43765  -2.20721  -2.20435  -2.20020
  Beta  occ. eigenvalues --   -2.19966  -2.19909  -2.19771  -2.19528  -1.14451
  Beta  occ. eigenvalues --   -1.14412  -1.14314  -1.14118  -1.14117  -1.14101
  Beta  occ. eigenvalues --   -1.13760  -1.13733  -1.13683  -1.13668  -1.13604
  Beta  occ. eigenvalues --   -1.13586  -1.13582  -1.13553  -1.13501  -1.13457
  Beta  occ. eigenvalues --   -1.13449  -1.13412  -1.13207  -1.13201  -1.13160
  Beta  occ. eigenvalues --   -0.16148  -0.13020  -0.11688
  Beta virt. eigenvalues --   -0.08281  -0.05855  -0.05486  -0.03995  -0.03402
  Beta virt. eigenvalues --   -0.02506  -0.02054  -0.01870  -0.01825  -0.00873
  Beta virt. eigenvalues --   -0.00686  -0.00327  -0.00046   0.00260   0.00490

 Mulliken charges and spin densities:
               1          2
     1  Na   0.379663   0.128243
     2  Na   0.225476   0.145523
     3  Na  -0.021670   0.349825
     4  Na   0.453166   0.109687
     5  Na  -1.022094   0.016595
     6  Na  -0.368442  -0.011596
     7  Na   0.353901   0.261723
 Sum of Mulliken charges =  -0.00000   1.00000

 Dipole moment (field-independent basis, Debye):
    X=             -0.0417    Y=              0.0157    Z=              0.4427  Tot=              0.4449
 Quadrupole moment (field-independent basis, Debye-Ang):
   XX=            -55.2389   YY=            -65.7619   ZZ=            -70.8307
   XY=             -4.7114   XZ=             -1.4026   YZ=              0.6070

 Normal termination of Gaussian 16 at Tue Nov 28 19:32:58 2023.
