 Gaussian 16, Revision B.01,
 Gaussian 16:  ES64L-G16RevB.01 20-Dec-2017

 -------------------------
 #P B3LYP/6-311+g(d) force
 -------------------------

 -----
 DPGEN
 -----
 Symbolic Z-matrix:
 Charge =  0 Multiplicity = 2

                         Standard orientation:
 ---------------------------------------------------------------------
 Center     Atomic      Atomic             Coordinates (Angstroms)
 Number     Number       Type             X           Y           Z
 ---------------------------------------------------------------------
      1         11           0       -0.924626   -2.737312    0.096297
      2         11           0        3.116861   -1.368509   -0.446550
      3         11           0       -3.248643   -0.058751   -0.601126
      4         11           0       -0.464691   -0.511589    2.055384
      5         11           0        2.899466    1.714647    0.229039
      6         11           0       -1.319293    2.769948    0.206068
      7         11           0       -0.059074    0.191564   -1.539111
 ---------------------------------------------------------------------

 SCF Done:  E(UB3LYP) =  -1136.12964646     A.U. after   20 cycles

 The electronic state is 2-A.
 Alpha  occ. eigenvalues --  -38.44563 -38.44365 -38.44347 -38.43615 -38.43553
 Alpha  occ. eigenvalues --  -38.43223 -38.43002  -2.20406  -2.20164  -2.20153
 Alpha  occ. eigenvalues --   -2.19546  -2.19453  -2.19043  -2.18882  -1.14089
 Alpha  occ. eigenvalues --   -1.14056  -1.14028  -1.13909  -1.13836  -1.13818
 Alpha  occ. eigenvalues --   -1.13807  -1.13784  -1.13745  -1.13249  -1.13197
 Alpha  occ. eigenvalues --   -1.13170  -1.13155  -1.13082  -1.13064  -1.12719
 Alpha  occ. eigenvalues --   -1.12706  -1.12681  -1.12570  -1.12534  -1.12500
 Alpha  occ. eigenvalues --   -0.18219  -0.13459  -0.11946  -0.10580
 Alpha virt. eigenvalues --   -0.06168  -0.05452  -0.04396  -0.03265  -0.02811
 Alpha virt. eigenvalues --   -0.02401  -0.02016  -0.01175  -0.00567  -0.00501
 Alpha virt. eigenvalues --   -0.00048   0.00294   0.00698   0.00799   0.00828

  Beta  occ. eigenvalues --  -38.44540 -38.44367 -38.44340 -38.43570 -38.43458
  Beta  occ. eigenvalues --  -38.43218 -38.42995  -2.20365  -2.20167  -2.20141
  Beta  occ. eigenvalues --   -2.19465  -2.19278  -2.19037  -2.18874  -1.14048
  Beta  occ. eigenvalues --   -1.14021  -1.14004  -1.13909  -1.13830  -1.13809
  Beta  occ. eigenvalues --   -1.13799  -1.13778  -1.13742  -1.13190  -1.13139
  Beta  occ. eigenvalues --   -1.13103  -1.13041  -1.12958  -1.12943  -1.12715
  Beta  occ. eigenvalues --   -1.12695  -1.12666  -1.12555  -1.12505  -1.12494
  Beta  occ. eigenvalues --   -0.17535  -0.13252  -0.11702
  Beta virt. eigenvalues --   -0.06764  -0.06032  -0.05385  -0.04310  -0.02675
  Beta virt. eigenvalues --   -0.02073  -0.01896  -0.01410  -0.01098  -0.00568
  Beta virt. eigenvalues --   -0.00487   0.00114   0.00354   0.00783   0.00818

 Mulliken charges and spin densities:
               1          2
     1  Na   0.164410  -0.057708
     2  Na   0.104811  -0.022059
     3  Na   0.342062   0.089796
     4  Na  -0.366318   0.669151
     5  Na  -0.059838   0.001409
     6  Na  -0.190635   0.014420
     7  Na   0.005509   0.304991
 Sum of Mulliken charges =  -0.00000   1.00000

 Dipole moment (field-independent basis, Debye):
    X=              0.1843    Y=              0.0214    Z=             -0.0216  Tot=              0.1868
 Quadrupole moment (field-independent basis, Debye-Ang):
   XX=            -53.7549   YY=            -65.2872   ZZ=            -74.8886
   XY=              0.1758   XZ=              1.0183   YZ=              2.6958

 Normal termination of Gaussian 16 at Fri Dec  8 00:33:29 2023.
