 Gaussian 16, Revision B.01,
 Gaussian 16:  ES64L-G16RevB.01 20-Dec-2017

 -------------------------
 #P B3LYP/6-311+g(d) force
 -------------------------

 -----
 DPGEN
 -----
 Symbolic Z-matrix:
 Charge =  0 Multiplicity = 2

                         Standard orientation:
 ---------------------------------------------------------------------
 Center     Atomic      Atomic             Coordinates (Angstroms)
 Number     Number       Type             X           Y           Z
 ---------------------------------------------------------------------
      1         11           0       -1.203711   -0.469774    2.018139
      2         11           0        0.257840   -2.208711   -1.147102
      3         11           0       -0.109040    1.093593   -1.321332
      4         11           0       -1.820681    2.743684    0.090427
      5         11           0        2.123333   -0.538324    1.399893
      6         11           0        3.928324    0.603998   -0.496882
      7         11           0       -3.176065   -1.224465   -0.543144
 ---------------------------------------------------------------------

 SCF Done:  E(UB3LYP) =  -1136.11455596     A.U. after   23 cycles

 The electronic state is 2-A.
 Alpha  occ. eigenvalues --  -38.45348 -38.45259 -38.43947 -38.43904 -38.43834
 Alpha  occ. eigenvalues --  -38.43443 -38.42728  -2.21163  -2.21049  -2.19833
 Alpha  occ. eigenvalues --   -2.19825  -2.19681  -2.19396  -2.18598  -1.14917
 Alpha  occ. eigenvalues --   -1.14792  -1.14781  -1.14746  -1.14696  -1.14678
 Alpha  occ. eigenvalues --   -1.13560  -1.13480  -1.13470  -1.13460  -1.13450
 Alpha  occ. eigenvalues --   -1.13429  -1.13397  -1.13329  -1.13274  -1.13201
 Alpha  occ. eigenvalues --   -1.13047  -1.12997  -1.12283  -1.12221  -1.12204
 Alpha  occ. eigenvalues --   -0.18385  -0.13679  -0.11409  -0.11359
 Alpha virt. eigenvalues --   -0.07185  -0.04633  -0.04298  -0.03357  -0.02804
 Alpha virt. eigenvalues --   -0.02690  -0.02529  -0.00949  -0.00718  -0.00095
 Alpha virt. eigenvalues --    0.00036   0.00174   0.00305   0.00745   0.00886

  Beta  occ. eigenvalues --  -38.45347 -38.45260 -38.43869 -38.43864 -38.43789
  Beta  occ. eigenvalues --  -38.43410 -38.42731  -2.21162  -2.21054  -2.19762
  Beta  occ. eigenvalues --   -2.19681  -2.19603  -2.19336  -2.18605  -1.14917
  Beta  occ. eigenvalues --   -1.14792  -1.14776  -1.14738  -1.14697  -1.14681
  Beta  occ. eigenvalues --   -1.13477  -1.13424  -1.13409  -1.13386  -1.13361
  Beta  occ. eigenvalues --   -1.13337  -1.13324  -1.13261  -1.13223  -1.13152
  Beta  occ. eigenvalues --   -1.13009  -1.12949  -1.12282  -1.12219  -1.12208
  Beta  occ. eigenvalues --   -0.17606  -0.13594  -0.11204
  Beta virt. eigenvalues --   -0.07353  -0.07012  -0.04423  -0.03786  -0.03168
  Beta virt. eigenvalues --   -0.02545  -0.02144  -0.01756  -0.00700  -0.00513
  Beta virt. eigenvalues --   -0.00037   0.00102   0.00208   0.00418   0.00802

 Mulliken charges and spin densities:
               1          2
     1  Na   0.124334   0.392526
     2  Na  -0.070430   0.251872
     3  Na  -0.316176   0.309069
     4  Na  -0.077895  -0.117186
     5  Na  -0.274664   0.137691
     6  Na   0.333666   0.010791
     7  Na   0.281165   0.015236
 Sum of Mulliken charges =  -0.00000   1.00000

 Dipole moment (field-independent basis, Debye):
    X=              0.2336    Y=             -0.6160    Z=             -0.3048  Tot=              0.7259
 Quadrupole moment (field-independent basis, Debye-Ang):
   XX=            -47.8751   YY=            -75.6883   ZZ=            -70.2658
   XY=              3.0931   XZ=             -2.6178   YZ=              2.1227

 Normal termination of Gaussian 16 at Tue Dec  5 23:00:31 2023.
