 Gaussian 16, Revision B.01,
 Gaussian 16:  ES64L-G16RevB.01 20-Dec-2017

 -------------------------
 #P B3LYP/6-311+g(d) force
 -------------------------

 -----
 DPGEN
 -----
 Symbolic Z-matrix:
 Charge =  0 Multiplicity = 2

                         Standard orientation:
 ---------------------------------------------------------------------
 Center     Atomic      Atomic             Coordinates (Angstroms)
 Number     Number       Type             X           Y           Z
 ---------------------------------------------------------------------
      1         11           0        0.714206    2.424546    0.871223
      2         11           0        2.839971   -1.650566    0.671103
      3         11           0       -0.130430   -1.224160    2.545565
      4         11           0       -3.644387   -0.543439   -1.308548
      5         11           0       -0.308140   -1.800122   -1.560968
      6         11           0       -2.147463    1.495873    0.867655
      7         11           0        2.676243    1.297867   -2.086030
 ---------------------------------------------------------------------

 SCF Done:  E(UB3LYP) =  -1136.11764449     A.U. after   23 cycles

 The electronic state is 2-A.
 Alpha  occ. eigenvalues --  -38.45827 -38.45439 -38.44518 -38.43978 -38.43693
 Alpha  occ. eigenvalues --  -38.43107 -38.43036  -2.21623  -2.21206  -2.20286
 Alpha  occ. eigenvalues --   -2.19735  -2.19489  -2.18976  -2.18862  -1.15272
 Alpha  occ. eigenvalues --   -1.15265  -1.15229  -1.14864  -1.14838  -1.14820
 Alpha  occ. eigenvalues --   -1.13965  -1.13944  -1.13928  -1.13431  -1.13422
 Alpha  occ. eigenvalues --   -1.13346  -1.13162  -1.13150  -1.13122  -1.12757
 Alpha  occ. eigenvalues --   -1.12643  -1.12611  -1.12525  -1.12508  -1.12463
 Alpha  occ. eigenvalues --   -0.17155  -0.13029  -0.12300  -0.11467
 Alpha virt. eigenvalues --   -0.05894  -0.05769  -0.04774  -0.03450  -0.03285
 Alpha virt. eigenvalues --   -0.02996  -0.01725  -0.01183  -0.00659  -0.00344
 Alpha virt. eigenvalues --    0.00080   0.00119   0.00148   0.00381   0.00566

  Beta  occ. eigenvalues --  -38.45729 -38.45356 -38.44509 -38.43972 -38.43684
  Beta  occ. eigenvalues --  -38.43107 -38.43040  -2.21442  -2.21052  -2.20274
  Beta  occ. eigenvalues --   -2.19725  -2.19473  -2.18977  -2.18871  -1.15147
  Beta  occ. eigenvalues --   -1.15145  -1.15095  -1.14757  -1.14732  -1.14718
  Beta  occ. eigenvalues --   -1.13950  -1.13938  -1.13904  -1.13421  -1.13410
  Beta  occ. eigenvalues --   -1.13341  -1.13151  -1.13139  -1.13111  -1.12765
  Beta  occ. eigenvalues --   -1.12634  -1.12611  -1.12527  -1.12514  -1.12459
  Beta  occ. eigenvalues --   -0.16460  -0.12639  -0.11351
  Beta virt. eigenvalues --   -0.08528  -0.05780  -0.04932  -0.04502  -0.03244
  Beta virt. eigenvalues --   -0.02766  -0.02453  -0.01661  -0.00686  -0.00573
  Beta virt. eigenvalues --   -0.00019   0.00101   0.00168   0.00337   0.00431

 Mulliken charges and spin densities:
               1          2
     1  Na  -0.360518   0.008403
     2  Na   0.220167   0.067522
     3  Na   0.052158   0.412995
     4  Na   0.236376  -0.067985
     5  Na  -0.371486   0.155551
     6  Na   0.110273   0.076064
     7  Na   0.113030   0.347451
 Sum of Mulliken charges =  -0.00000   1.00000

 Dipole moment (field-independent basis, Debye):
    X=              0.8317    Y=             -0.5383    Z=              0.0600  Tot=              0.9925
 Quadrupole moment (field-independent basis, Debye-Ang):
   XX=            -59.3710   YY=            -74.8782   ZZ=            -63.8671
   XY=              0.3121   XZ=             -2.3415   YZ=             -6.7679

 Normal termination of Gaussian 16 at Sun Dec  3 15:51:51 2023.
