 Gaussian 16, Revision B.01,
 Gaussian 16:  ES64L-G16RevB.01 20-Dec-2017

 -------------------------
 #P B3LYP/6-311+g(d) force
 -------------------------

 -----
 DPGEN
 -----
 Symbolic Z-matrix:
 Charge =  0 Multiplicity = 2

                         Standard orientation:
 ---------------------------------------------------------------------
 Center     Atomic      Atomic             Coordinates (Angstroms)
 Number     Number       Type             X           Y           Z
 ---------------------------------------------------------------------
      1         11           0       -0.343819    3.265134    0.166836
      2         11           0       -2.003455    0.636367   -1.237317
      3         11           0        3.197248   -1.558412    0.663758
      4         11           0       -3.566317   -1.668030    0.426778
      5         11           0        0.751677   -1.941734   -1.463136
      6         11           0       -0.265437   -0.026527    2.059729
      7         11           0        2.230103    1.293202   -0.616648
 ---------------------------------------------------------------------

 SCF Done:  E(UB3LYP) =  -1136.12928489     A.U. after   20 cycles

 The electronic state is 2-A.
 Alpha  occ. eigenvalues --  -38.44277 -38.44264 -38.44232 -38.44114 -38.44077
 Alpha  occ. eigenvalues --  -38.43581 -38.42919  -2.20093  -2.20060  -2.20039
 Alpha  occ. eigenvalues --   -2.19955  -2.19936  -2.19448  -2.18755  -1.13766
 Alpha  occ. eigenvalues --   -1.13742  -1.13740  -1.13728  -1.13725  -1.13709
 Alpha  occ. eigenvalues --   -1.13695  -1.13692  -1.13679  -1.13667  -1.13616
 Alpha  occ. eigenvalues --   -1.13608  -1.13590  -1.13579  -1.13530  -1.13132
 Alpha  occ. eigenvalues --   -1.13117  -1.13068  -1.12424  -1.12411  -1.12402
 Alpha  occ. eigenvalues --   -0.17868  -0.13357  -0.12019  -0.10720
 Alpha virt. eigenvalues --   -0.06273  -0.05324  -0.04600  -0.03574  -0.02848
 Alpha virt. eigenvalues --   -0.02641  -0.01890  -0.01233  -0.00655  -0.00262
 Alpha virt. eigenvalues --    0.00107   0.00287   0.00396   0.00619   0.00729

  Beta  occ. eigenvalues --  -38.44268 -38.44189 -38.44189 -38.44110 -38.44067
  Beta  occ. eigenvalues --  -38.43556 -38.42919  -2.20049  -2.19981  -2.19950
  Beta  occ. eigenvalues --   -2.19928  -2.19920  -2.19402  -2.18756  -1.13733
  Beta  occ. eigenvalues --   -1.13701  -1.13695  -1.13685  -1.13679  -1.13661
  Beta  occ. eigenvalues --   -1.13653  -1.13640  -1.13613  -1.13603  -1.13589
  Beta  occ. eigenvalues --   -1.13580  -1.13569  -1.13555  -1.13525  -1.13100
  Beta  occ. eigenvalues --   -1.13071  -1.13037  -1.12426  -1.12409  -1.12394
  Beta  occ. eigenvalues --   -0.17154  -0.13242  -0.11865
  Beta virt. eigenvalues --   -0.06916  -0.06045  -0.05188  -0.04410  -0.03025
  Beta virt. eigenvalues --   -0.02260  -0.01900  -0.01591  -0.01147  -0.00584
  Beta virt. eigenvalues --   -0.00092   0.00183   0.00337   0.00574   0.00735

 Mulliken charges and spin densities:
               1          2
     1  Na   0.502034  -0.105675
     2  Na  -0.116712   0.277803
     3  Na   0.535002   0.017446
     4  Na   0.117799  -0.153304
     5  Na  -0.191893   0.110200
     6  Na  -0.591969   0.689319
     7  Na  -0.254261   0.164210
 Sum of Mulliken charges =  -0.00000   1.00000

 Dipole moment (field-independent basis, Debye):
    X=              0.2870    Y=             -0.5808    Z=              0.1977  Tot=              0.6773
 Quadrupole moment (field-independent basis, Debye-Ang):
   XX=            -56.6355   YY=            -65.8739   ZZ=            -72.3095
   XY=              0.0295   XZ=              0.3803   YZ=             -1.0794

 Normal termination of Gaussian 16 at Thu Dec  7 09:38:28 2023.
