 Gaussian 16, Revision B.01,
 Gaussian 16:  ES64L-G16RevB.01 20-Dec-2017

 -------------------------
 #P B3LYP/6-311+g(d) force
 -------------------------

 -----
 DPGEN
 -----
 Symbolic Z-matrix:
 Charge =  0 Multiplicity = 2

                         Standard orientation:
 ---------------------------------------------------------------------
 Center     Atomic      Atomic             Coordinates (Angstroms)
 Number     Number       Type             X           Y           Z
 ---------------------------------------------------------------------
      1         11           0        1.758460   -1.514723   -1.239585
      2         11           0       -2.619946    1.295863    0.767820
      3         11           0        0.867174   -0.448994    1.883808
      4         11           0       -0.875183    0.150835   -1.438293
      5         11           0       -4.887330   -1.052059    0.040839
      6         11           0        1.716192    2.108802   -0.670093
      7         11           0        4.040633   -0.539725    0.655504
 ---------------------------------------------------------------------

 SCF Done:  E(UB3LYP) =  -1136.10842371     A.U. after   28 cycles

 The electronic state is 2-A.
 Alpha  occ. eigenvalues --  -38.45651 -38.44453 -38.44239 -38.44164 -38.43888
 Alpha  occ. eigenvalues --  -38.43694 -38.42924  -2.21489  -2.20290  -2.20096
 Alpha  occ. eigenvalues --   -2.19926  -2.19855  -2.19556  -2.18890  -1.15193
 Alpha  occ. eigenvalues --   -1.15137  -1.15090  -1.13957  -1.13944  -1.13931
 Alpha  occ. eigenvalues --   -1.13827  -1.13769  -1.13699  -1.13594  -1.13592
 Alpha  occ. eigenvalues --   -1.13562  -1.13550  -1.13505  -1.13466  -1.13220
 Alpha  occ. eigenvalues --   -1.13210  -1.13185  -1.12601  -1.12559  -1.12474
 Alpha  occ. eigenvalues --   -0.18524  -0.14103  -0.11214  -0.10708
 Alpha virt. eigenvalues --   -0.07821  -0.05343  -0.04308  -0.03108  -0.03018
 Alpha virt. eigenvalues --   -0.02399  -0.02113  -0.01857  -0.01197  -0.00434
 Alpha virt. eigenvalues --   -0.00160   0.00164   0.00231   0.00568   0.00634

  Beta  occ. eigenvalues --  -38.45607 -38.44434 -38.44229 -38.44165 -38.43805
  Beta  occ. eigenvalues --  -38.43692 -38.42894  -2.21411  -2.20257  -2.20077
  Beta  occ. eigenvalues --   -2.19929  -2.19703  -2.19556  -2.18841  -1.15125
  Beta  occ. eigenvalues --   -1.15082  -1.15031  -1.13929  -1.13916  -1.13903
  Beta  occ. eigenvalues --   -1.13817  -1.13753  -1.13682  -1.13596  -1.13592
  Beta  occ. eigenvalues --   -1.13549  -1.13458  -1.13413  -1.13357  -1.13218
  Beta  occ. eigenvalues --   -1.13184  -1.13179  -1.12553  -1.12507  -1.12443
  Beta  occ. eigenvalues --   -0.17783  -0.13997  -0.10651
  Beta virt. eigenvalues --   -0.07553  -0.07145  -0.05156  -0.03916  -0.02951
  Beta virt. eigenvalues --   -0.02775  -0.01808  -0.01631  -0.01411  -0.00825
  Beta virt. eigenvalues --   -0.00371  -0.00086   0.00253   0.00332   0.00623

 Mulliken charges and spin densities:
               1          2
     1  Na  -0.153340   0.200005
     2  Na   0.477780   0.032720
     3  Na  -0.384321   0.375489
     4  Na  -0.244046   0.109099
     5  Na  -0.071737  -0.027418
     6  Na  -0.116758   0.243661
     7  Na   0.492423   0.066445
 Sum of Mulliken charges =  -0.00000   1.00000

 Dipole moment (field-independent basis, Debye):
    X=              0.6132    Y=              0.6743    Z=              0.1924  Tot=              0.9315
 Quadrupole moment (field-independent basis, Debye-Ang):
   XX=            -61.4458   YY=            -68.3322   ZZ=            -72.3002
   XY=              6.8365   XZ=             -2.0554   YZ=              0.8760

 Normal termination of Gaussian 16 at Thu Dec  7 15:28:05 2023.
