 Gaussian 16, Revision B.01,
 Gaussian 16:  ES64L-G16RevB.01 20-Dec-2017

 -------------------------
 #P B3LYP/6-311+g(d) force
 -------------------------

 -----
 DPGEN
 -----
 Symbolic Z-matrix:
 Charge =  0 Multiplicity = 2

                         Standard orientation:
 ---------------------------------------------------------------------
 Center     Atomic      Atomic             Coordinates (Angstroms)
 Number     Number       Type             X           Y           Z
 ---------------------------------------------------------------------
      1         11           0        1.624239   -1.695049   -1.174591
      2         11           0       -4.326923   -1.605670   -0.240476
      3         11           0       -1.264855    0.224279    0.762004
      4         11           0        4.394143   -0.112529   -0.579479
      5         11           0       -4.056924    1.517661   -0.300863
      6         11           0        1.689017    1.996841   -0.713684
      7         11           0        1.941303   -0.325533    2.247089
 ---------------------------------------------------------------------

 SCF Done:  E(UB3LYP) =  -1136.10699595     A.U. after   29 cycles

 The electronic state is 2-A.
 Alpha  occ. eigenvalues --  -38.45208 -38.45035 -38.44725 -38.44644 -38.43842
 Alpha  occ. eigenvalues --  -38.42767 -38.42305  -2.21041  -2.20866  -2.20534
 Alpha  occ. eigenvalues --   -2.20457  -2.19699  -2.18620  -2.18190  -1.14712
 Alpha  occ. eigenvalues --   -1.14697  -1.14688  -1.14551  -1.14514  -1.14481
 Alpha  occ. eigenvalues --   -1.14193  -1.14191  -1.14165  -1.14137  -1.14102
 Alpha  occ. eigenvalues --   -1.14078  -1.13391  -1.13338  -1.13284  -1.12294
 Alpha  occ. eigenvalues --   -1.12277  -1.12273  -1.11905  -1.11888  -1.11788
 Alpha  occ. eigenvalues --   -0.17350  -0.14862  -0.10445  -0.10268
 Alpha virt. eigenvalues --   -0.07284  -0.06415  -0.04366  -0.03221  -0.02892
 Alpha virt. eigenvalues --   -0.02120  -0.01903  -0.01626  -0.01406  -0.00828
 Alpha virt. eigenvalues --   -0.00450   0.00036   0.00255   0.00389   0.00437

  Beta  occ. eigenvalues --  -38.45202 -38.44997 -38.44718 -38.44620 -38.43754
  Beta  occ. eigenvalues --  -38.42765 -38.42299  -2.21030  -2.20799  -2.20521
  Beta  occ. eigenvalues --   -2.20414  -2.19536  -2.18620  -2.18183  -1.14705
  Beta  occ. eigenvalues --   -1.14690  -1.14677  -1.14495  -1.14470  -1.14427
  Beta  occ. eigenvalues --   -1.14184  -1.14180  -1.14157  -1.14092  -1.14070
  Beta  occ. eigenvalues --   -1.14053  -1.13280  -1.13230  -1.13163  -1.12299
  Beta  occ. eigenvalues --   -1.12280  -1.12247  -1.11902  -1.11853  -1.11789
  Beta  occ. eigenvalues --   -0.16749  -0.14695  -0.10130
  Beta virt. eigenvalues --   -0.07023  -0.06969  -0.05685  -0.04294  -0.03197
  Beta virt. eigenvalues --   -0.02530  -0.01688  -0.01378  -0.01229  -0.01032
  Beta virt. eigenvalues --   -0.00538  -0.00383   0.00166   0.00327   0.00429

 Mulliken charges and spin densities:
               1          2
     1  Na  -0.040990   0.208780
     2  Na   0.323015   0.015353
     3  Na  -1.588059   0.159996
     4  Na   0.381320   0.062357
     5  Na   0.960957  -0.007010
     6  Na  -0.149551   0.453135
     7  Na   0.113308   0.107388
 Sum of Mulliken charges =  -0.00000   1.00000

 Dipole moment (field-independent basis, Debye):
    X=             -1.6413    Y=             -0.2184    Z=              0.3402  Tot=              1.6904
 Quadrupole moment (field-independent basis, Debye-Ang):
   XX=            -65.6295   YY=            -66.5814   ZZ=            -69.7835
   XY=              0.0487   XZ=              9.5483   YZ=              0.2422

 Normal termination of Gaussian 16 at Fri Dec  8 04:42:32 2023.
