 Gaussian 16, Revision B.01,
 Gaussian 16:  ES64L-G16RevB.01 20-Dec-2017

 -------------------------
 #P B3LYP/6-311+g(d) force
 -------------------------

 -----
 DPGEN
 -----
 Symbolic Z-matrix:
 Charge =  0 Multiplicity = 2

                         Standard orientation:
 ---------------------------------------------------------------------
 Center     Atomic      Atomic             Coordinates (Angstroms)
 Number     Number       Type             X           Y           Z
 ---------------------------------------------------------------------
      1         11           0       -1.056635   -2.572934    0.017327
      2         11           0       -3.113429    0.150224   -0.411028
      3         11           0        2.986338    1.274161    0.123019
      4         11           0        2.241549   -1.990942    0.017126
      5         11           0       -0.735196    0.159248    1.954411
      6         11           0        0.176041    0.014834   -1.598391
      7         11           0       -0.498669    2.965409   -0.102464
 ---------------------------------------------------------------------

 SCF Done:  E(UB3LYP) =  -1136.13769397     A.U. after   19 cycles

 The electronic state is 2-A.
 Alpha  occ. eigenvalues --  -38.44195 -38.44165 -38.43603 -38.43519 -38.43336
 Alpha  occ. eigenvalues --  -38.43181 -38.43017  -2.20047  -2.19970  -2.19428
 Alpha  occ. eigenvalues --   -2.19384  -2.19251  -2.19086  -2.19009  -1.13720
 Alpha  occ. eigenvalues --   -1.13716  -1.13680  -1.13642  -1.13641  -1.13607
 Alpha  occ. eigenvalues --   -1.13116  -1.13106  -1.13078  -1.13051  -1.13041
 Alpha  occ. eigenvalues --   -1.13030  -1.12927  -1.12878  -1.12874  -1.12791
 Alpha  occ. eigenvalues --   -1.12744  -1.12711  -1.12685  -1.12636  -1.12623
 Alpha  occ. eigenvalues --   -0.18727  -0.13148  -0.12505  -0.10524
 Alpha virt. eigenvalues --   -0.05891  -0.05069  -0.04764  -0.03163  -0.02820
 Alpha virt. eigenvalues --   -0.02326  -0.01626  -0.01082  -0.00523  -0.00299
 Alpha virt. eigenvalues --   -0.00000   0.00355   0.00814   0.00846   0.00910

  Beta  occ. eigenvalues --  -38.44184 -38.44165 -38.43598 -38.43517 -38.43249
  Beta  occ. eigenvalues --  -38.43172 -38.42953  -2.20030  -2.19972  -2.19422
  Beta  occ. eigenvalues --   -2.19383  -2.19091  -2.19075  -2.18892  -1.13709
  Beta  occ. eigenvalues --   -1.13675  -1.13670  -1.13644  -1.13631  -1.13611
  Beta  occ. eigenvalues --   -1.13111  -1.13077  -1.13073  -1.13051  -1.13034
  Beta  occ. eigenvalues --   -1.13022  -1.12833  -1.12777  -1.12764  -1.12754
  Beta  occ. eigenvalues --   -1.12709  -1.12693  -1.12608  -1.12555  -1.12536
  Beta  occ. eigenvalues --   -0.18007  -0.12935  -0.12263
  Beta virt. eigenvalues --   -0.06614  -0.05848  -0.05054  -0.04720  -0.02427
  Beta virt. eigenvalues --   -0.02044  -0.01544  -0.01275  -0.01016  -0.00567
  Beta virt. eigenvalues --   -0.00348   0.00154   0.00389   0.00837   0.00862

 Mulliken charges and spin densities:
               1          2
     1  Na   0.294936   0.030044
     2  Na   0.331946  -0.028432
     3  Na   0.006380  -0.067148
     4  Na   0.042907  -0.048848
     5  Na  -0.496670   0.750160
     6  Na  -0.183417   0.485598
     7  Na   0.003917  -0.121374
 Sum of Mulliken charges =  -0.00000   1.00000

 Dipole moment (field-independent basis, Debye):
    X=             -0.0330    Y=              0.2886    Z=              0.0742  Tot=              0.2998
 Quadrupole moment (field-independent basis, Debye-Ang):
   XX=            -55.2291   YY=            -62.2838   ZZ=            -75.3244
   XY=              0.2499   XZ=              2.0925   YZ=             -0.2303

 Normal termination of Gaussian 16 at Thu Dec  7 09:04:04 2023.
