 Gaussian 16, Revision B.01,
 Gaussian 16:  ES64L-G16RevB.01 20-Dec-2017

 -------------------------
 #P B3LYP/6-311+g(d) force
 -------------------------

 -----
 DPGEN
 -----
 Symbolic Z-matrix:
 Charge =  0 Multiplicity = 2

                         Standard orientation:
 ---------------------------------------------------------------------
 Center     Atomic      Atomic             Coordinates (Angstroms)
 Number     Number       Type             X           Y           Z
 ---------------------------------------------------------------------
      1         11           0        1.665683    1.922308    0.280425
      2         11           0        3.496444   -0.635018   -0.818741
      3         11           0       -0.625885   -1.571121   -1.321465
      4         11           0       -3.330285   -1.212848   -0.543353
      5         11           0       -0.864136    2.254561   -1.384956
      6         11           0        1.300708   -1.800982    1.625500
      7         11           0       -1.642528    1.043100    2.162590
 ---------------------------------------------------------------------

 SCF Done:  E(UB3LYP) =  -1136.12237309     A.U. after   19 cycles

 The electronic state is 2-A.
 Alpha  occ. eigenvalues --  -38.44532 -38.44523 -38.44339 -38.44261 -38.43674
 Alpha  occ. eigenvalues --  -38.43574 -38.43221  -2.20333  -2.20318  -2.20147
 Alpha  occ. eigenvalues --   -2.20101  -2.19563  -2.19413  -2.19093  -1.14008
 Alpha  occ. eigenvalues --   -1.13995  -1.13980  -1.13967  -1.13954  -1.13933
 Alpha  occ. eigenvalues --   -1.13907  -1.13822  -1.13803  -1.13759  -1.13730
 Alpha  occ. eigenvalues --   -1.13717  -1.13215  -1.13200  -1.13186  -1.13144
 Alpha  occ. eigenvalues --   -1.13057  -1.13037  -1.12773  -1.12752  -1.12713
 Alpha  occ. eigenvalues --   -0.17765  -0.13271  -0.11809  -0.11336
 Alpha virt. eigenvalues --   -0.06290  -0.04984  -0.04568  -0.03453  -0.03269
 Alpha virt. eigenvalues --   -0.02898  -0.01857  -0.00998  -0.00575  -0.00119
 Alpha virt. eigenvalues --    0.00149   0.00247   0.00273   0.00658   0.00865

  Beta  occ. eigenvalues --  -38.44527 -38.44442 -38.44300 -38.44256 -38.43646
  Beta  occ. eigenvalues --  -38.43553 -38.43216  -2.20325  -2.20167  -2.20095
  Beta  occ. eigenvalues --   -2.20076  -2.19513  -2.19374  -2.19088  -1.14003
  Beta  occ. eigenvalues --   -1.13983  -1.13961  -1.13894  -1.13870  -1.13855
  Beta  occ. eigenvalues --   -1.13829  -1.13777  -1.13750  -1.13717  -1.13713
  Beta  occ. eigenvalues --   -1.13703  -1.13182  -1.13165  -1.13142  -1.13121
  Beta  occ. eigenvalues --   -1.13023  -1.13009  -1.12765  -1.12728  -1.12715
  Beta  occ. eigenvalues --   -0.17095  -0.13067  -0.11628
  Beta virt. eigenvalues --   -0.07530  -0.06049  -0.04832  -0.04074  -0.03258
  Beta virt. eigenvalues --   -0.02658  -0.02013  -0.01767  -0.00790  -0.00297
  Beta virt. eigenvalues --   -0.00052   0.00205   0.00326   0.00393   0.00750

 Mulliken charges and spin densities:
               1          2
     1  Na   0.148293   0.331776
     2  Na   0.364904  -0.107838
     3  Na   0.076394   0.375987
     4  Na   0.095060  -0.148279
     5  Na  -0.330738  -0.089438
     6  Na  -0.389987   0.178956
     7  Na   0.036074   0.458835
 Sum of Mulliken charges =  -0.00000   1.00000

 Dipole moment (field-independent basis, Debye):
    X=              0.1003    Y=             -0.2124    Z=              0.0799  Tot=              0.2481
 Quadrupole moment (field-independent basis, Debye-Ang):
   XX=            -54.6728   YY=            -75.1496   ZZ=            -66.7510
   XY=             -2.1240   XZ=             -2.9396   YZ=             -1.0875

 Normal termination of Gaussian 16 at Sun Dec  3 13:39:52 2023.
