 Gaussian 16, Revision B.01,
 Gaussian 16:  ES64L-G16RevB.01 20-Dec-2017

 -------------------------
 #P B3LYP/6-311+g(d) force
 -------------------------

 -----
 DPGEN
 -----
 Symbolic Z-matrix:
 Charge =  0 Multiplicity = 2

                         Standard orientation:
 ---------------------------------------------------------------------
 Center     Atomic      Atomic             Coordinates (Angstroms)
 Number     Number       Type             X           Y           Z
 ---------------------------------------------------------------------
      1         11           0        0.112600   -0.081814    1.893154
      2         11           0        0.106092   -0.227757   -1.796966
      3         11           0        2.138654   -1.533994   -0.054353
      4         11           0        2.182008    1.416773   -0.023480
      5         11           0       -0.670962    2.194504   -0.036023
      6         11           0       -2.732069    0.196531   -0.088272
      7         11           0       -1.136322   -1.964243    0.105941
 ---------------------------------------------------------------------

 SCF Done:  E(UB3LYP) =  -1136.10420482     A.U. after   19 cycles

 The electronic state is 2-A.
 Alpha  occ. eigenvalues --  -38.44159 -38.43960 -38.43865 -38.43492 -38.43440
 Alpha  occ. eigenvalues --  -38.43419 -38.42935  -2.20202  -2.20078  -2.20024
 Alpha  occ. eigenvalues --   -2.19540  -2.19528  -2.19460  -2.19007  -1.14084
 Alpha  occ. eigenvalues --   -1.13926  -1.13834  -1.13812  -1.13764  -1.13739
 Alpha  occ. eigenvalues --   -1.13690  -1.13679  -1.13657  -1.13310  -1.13239
 Alpha  occ. eigenvalues --   -1.13165  -1.13159  -1.13140  -1.13124  -1.13103
 Alpha  occ. eigenvalues --   -1.13063  -1.13000  -1.12678  -1.12635  -1.12630
 Alpha  occ. eigenvalues --   -0.21032  -0.13908  -0.12654  -0.12033
 Alpha virt. eigenvalues --   -0.05342  -0.04542  -0.03928  -0.03776  -0.03057
 Alpha virt. eigenvalues --   -0.02922  -0.01200  -0.00559  -0.00089   0.00353
 Alpha virt. eigenvalues --    0.00617   0.00641   0.00966   0.01097   0.01115

  Beta  occ. eigenvalues --  -38.44152 -38.43863 -38.43775 -38.43483 -38.43430
  Beta  occ. eigenvalues --  -38.43403 -38.42923  -2.20194  -2.19903  -2.19863
  Beta  occ. eigenvalues --   -2.19519  -2.19516  -2.19448  -2.18992  -1.14080
  Beta  occ. eigenvalues --   -1.13918  -1.13760  -1.13739  -1.13662  -1.13624
  Beta  occ. eigenvalues --   -1.13578  -1.13560  -1.13543  -1.13304  -1.13231
  Beta  occ. eigenvalues --   -1.13141  -1.13117  -1.13107  -1.13063  -1.13062
  Beta  occ. eigenvalues --   -1.13044  -1.12998  -1.12672  -1.12628  -1.12574
  Beta  occ. eigenvalues --   -0.20202  -0.13555  -0.12317
  Beta virt. eigenvalues --   -0.07901  -0.05356  -0.04541  -0.03909  -0.02807
  Beta virt. eigenvalues --   -0.02165  -0.01832  -0.01117  -0.00520   0.00059
  Beta virt. eigenvalues --    0.00376   0.00577   0.00618   0.01014   0.01093

 Mulliken charges and spin densities:
               1          2
     1  Na  -0.295393   0.487558
     2  Na  -0.214174   0.444509
     3  Na   0.174629  -0.011819
     4  Na   0.066598   0.004537
     5  Na   0.112203   0.057435
     6  Na  -0.050701  -0.046823
     7  Na   0.206839   0.064603
 Sum of Mulliken charges =  -0.00000   1.00000

 Dipole moment (field-independent basis, Debye):
    X=              0.1390    Y=              0.0007    Z=              0.0768  Tot=              0.1588
 Quadrupole moment (field-independent basis, Debye-Ang):
   XX=            -58.7119   YY=            -69.6823   ZZ=            -68.8746
   XY=             -0.5085   XZ=              0.1144   YZ=             -0.2531

 Normal termination of Gaussian 16 at Fri Dec  8 20:01:10 2023.
