 Gaussian 16, Revision B.01,
 Gaussian 16:  ES64L-G16RevB.01 20-Dec-2017

 -------------------------
 #P B3LYP/6-311+g(d) force
 -------------------------

 -----
 DPGEN
 -----
 Symbolic Z-matrix:
 Charge =  0 Multiplicity = 2

                         Standard orientation:
 ---------------------------------------------------------------------
 Center     Atomic      Atomic             Coordinates (Angstroms)
 Number     Number       Type             X           Y           Z
 ---------------------------------------------------------------------
      1         11           0       -0.239951    0.306051   -1.587817
      2         11           0       -1.543135   -2.568308   -0.194997
      3         11           0        0.193387   -0.203972    2.056964
      4         11           0       -3.300706    0.534473    0.003195
      5         11           0       -0.378820    2.907574    0.102901
      6         11           0        3.159337    1.023474   -0.217157
      7         11           0        2.109888   -1.999291   -0.163089
 ---------------------------------------------------------------------

 SCF Done:  E(UB3LYP) =  -1136.13617052     A.U. after   20 cycles

 The electronic state is 2-A.
 Alpha  occ. eigenvalues --  -38.44636 -38.44309 -38.43501 -38.43452 -38.43359
 Alpha  occ. eigenvalues --  -38.43312 -38.43223  -2.20435  -2.20123  -2.19371
 Alpha  occ. eigenvalues --   -2.19334  -2.19201  -2.19186  -2.19145  -1.14113
 Alpha  occ. eigenvalues --   -1.14091  -1.14071  -1.13807  -1.13785  -1.13757
 Alpha  occ. eigenvalues --   -1.13064  -1.13041  -1.13011  -1.13002  -1.12980
 Alpha  occ. eigenvalues --   -1.12950  -1.12950  -1.12879  -1.12853  -1.12828
 Alpha  occ. eigenvalues --   -1.12817  -1.12808  -1.12789  -1.12779  -1.12775
 Alpha  occ. eigenvalues --   -0.18465  -0.13202  -0.12208  -0.10521
 Alpha virt. eigenvalues --   -0.06154  -0.05121  -0.04585  -0.03191  -0.02732
 Alpha virt. eigenvalues --   -0.02421  -0.01915  -0.01110  -0.00528  -0.00379
 Alpha virt. eigenvalues --   -0.00028   0.00331   0.00757   0.00838   0.00881

  Beta  occ. eigenvalues --  -38.44635 -38.44304 -38.43494 -38.43354 -38.43352
  Beta  occ. eigenvalues --  -38.43308 -38.43169  -2.20435  -2.20117  -2.19362
  Beta  occ. eigenvalues --   -2.19193  -2.19150  -2.19140  -2.19089  -1.14100
  Beta  occ. eigenvalues --   -1.14090  -1.14074  -1.13805  -1.13764  -1.13755
  Beta  occ. eigenvalues --   -1.13051  -1.13010  -1.13001  -1.12960  -1.12881
  Beta  occ. eigenvalues --   -1.12840  -1.12836  -1.12823  -1.12813  -1.12812
  Beta  occ. eigenvalues --   -1.12789  -1.12784  -1.12774  -1.12727  -1.12719
  Beta  occ. eigenvalues --   -0.17748  -0.12988  -0.11983
  Beta virt. eigenvalues --   -0.06619  -0.06102  -0.05133  -0.04530  -0.02440
  Beta virt. eigenvalues --   -0.01972  -0.01818  -0.01361  -0.01054  -0.00568
  Beta virt. eigenvalues --   -0.00424   0.00129   0.00364   0.00807   0.00847

 Mulliken charges and spin densities:
               1          2
     1  Na  -0.218936   0.468427
     2  Na   0.100481  -0.067865
     3  Na  -0.475586   0.789762
     4  Na   0.159348  -0.060228
     5  Na   0.072487  -0.098980
     6  Na   0.131994  -0.034256
     7  Na   0.230211   0.003140
 Sum of Mulliken charges =  -0.00000   1.00000

 Dipole moment (field-independent basis, Debye):
    X=             -0.2139    Y=              0.2092    Z=              0.1146  Tot=              0.3205
 Quadrupole moment (field-independent basis, Debye-Ang):
   XX=            -52.8060   YY=            -64.2042   ZZ=            -75.5693
   XY=              0.5012   XZ=             -1.0261   YZ=              1.1118

 Normal termination of Gaussian 16 at Thu Dec  7 07:35:04 2023.
