 Gaussian 16, Revision B.01,
 Gaussian 16:  ES64L-G16RevB.01 20-Dec-2017

 -------------------------
 #P B3LYP/6-311+g(d) force
 -------------------------

 -----
 DPGEN
 -----
 Symbolic Z-matrix:
 Charge =  0 Multiplicity = 2

                         Standard orientation:
 ---------------------------------------------------------------------
 Center     Atomic      Atomic             Coordinates (Angstroms)
 Number     Number       Type             X           Y           Z
 ---------------------------------------------------------------------
      1         11           0       -0.114756   -0.170636   -1.435012
      2         11           0        2.588543   -1.628688   -0.472544
      3         11           0       -0.189239    0.210370    2.204129
      4         11           0       -3.188751    0.052012   -0.558616
      5         11           0       -0.655645    3.027104   -0.140443
      6         11           0        2.705943    1.214642    0.016498
      7         11           0       -1.146094   -2.704804    0.385988
 ---------------------------------------------------------------------

 SCF Done:  E(UB3LYP) =  -1136.13309990     A.U. after   20 cycles

 The electronic state is 2-A.
 Alpha  occ. eigenvalues --  -38.44345 -38.43885 -38.43840 -38.43659 -38.43437
 Alpha  occ. eigenvalues --  -38.43343 -38.43109  -2.20173  -2.19776  -2.19704
 Alpha  occ. eigenvalues --   -2.19554  -2.19282  -2.19149  -2.19129  -1.13873
 Alpha  occ. eigenvalues --   -1.13821  -1.13791  -1.13589  -1.13430  -1.13410
 Alpha  occ. eigenvalues --   -1.13364  -1.13332  -1.13315  -1.13225  -1.13173
 Alpha  occ. eigenvalues --   -1.13151  -1.12979  -1.12947  -1.12910  -1.12840
 Alpha  occ. eigenvalues --   -1.12818  -1.12804  -1.12787  -1.12768  -1.12740
 Alpha  occ. eigenvalues --   -0.18595  -0.13288  -0.12177  -0.10920
 Alpha virt. eigenvalues --   -0.05760  -0.04859  -0.04777  -0.03277  -0.02885
 Alpha virt. eigenvalues --   -0.02654  -0.01658  -0.01087  -0.00357  -0.00282
 Alpha virt. eigenvalues --   -0.00012   0.00340   0.00786   0.00872   0.00904

  Beta  occ. eigenvalues --  -38.44327 -38.43881 -38.43735 -38.43651 -38.43426
  Beta  occ. eigenvalues --  -38.43343 -38.43064  -2.20143  -2.19773  -2.19542
  Beta  occ. eigenvalues --   -2.19509  -2.19267  -2.19151  -2.19047  -1.13843
  Beta  occ. eigenvalues --   -1.13795  -1.13772  -1.13588  -1.13419  -1.13395
  Beta  occ. eigenvalues --   -1.13236  -1.13210  -1.13200  -1.13172  -1.13162
  Beta  occ. eigenvalues --   -1.13139  -1.12968  -1.12912  -1.12902  -1.12832
  Beta  occ. eigenvalues --   -1.12810  -1.12784  -1.12746  -1.12707  -1.12691
  Beta  occ. eigenvalues --   -0.17898  -0.13009  -0.11971
  Beta virt. eigenvalues --   -0.06987  -0.05685  -0.04836  -0.04705  -0.02544
  Beta virt. eigenvalues --   -0.02139  -0.01635  -0.01515  -0.01018  -0.00354
  Beta virt. eigenvalues --   -0.00309   0.00126   0.00384   0.00834   0.00889

 Mulliken charges and spin densities:
               1          2
     1  Na  -0.364203   0.115387
     2  Na   0.333985   0.059963
     3  Na  -0.488583   0.676564
     4  Na   0.188655   0.007872
     5  Na   0.009160  -0.012962
     6  Na   0.185500   0.043387
     7  Na   0.135486   0.109789
 Sum of Mulliken charges =  -0.00000   1.00000

 Dipole moment (field-independent basis, Debye):
    X=             -0.3481    Y=              0.0092    Z=              0.2149  Tot=              0.4092
 Quadrupole moment (field-independent basis, Debye-Ang):
   XX=            -57.1573   YY=            -63.0507   ZZ=            -73.7200
   XY=             -0.0411   XZ=              0.5148   YZ=             -0.5889

 Normal termination of Gaussian 16 at Fri Dec  8 06:36:34 2023.
