 Gaussian 16, Revision B.01,
 Gaussian 16:  ES64L-G16RevB.01 20-Dec-2017

 -------------------------
 #P B3LYP/6-311+g(d) force
 -------------------------

 -----
 DPGEN
 -----
 Symbolic Z-matrix:
 Charge =  0 Multiplicity = 2

                         Standard orientation:
 ---------------------------------------------------------------------
 Center     Atomic      Atomic             Coordinates (Angstroms)
 Number     Number       Type             X           Y           Z
 ---------------------------------------------------------------------
      1         11           0        1.898832    2.069533   -0.033426
      2         11           0       -0.666149    0.679245    1.306143
      3         11           0       -1.823835   -3.008545   -0.055220
      4         11           0        1.599979   -1.341522   -0.699376
      5         11           0        4.857146   -0.905783    0.169698
      6         11           0       -4.489267   -0.331920   -0.058041
      7         11           0       -1.376707    2.838991   -0.629777
 ---------------------------------------------------------------------

 SCF Done:  E(UB3LYP) =  -1136.12003654     A.U. after   19 cycles

 The electronic state is 2-A.
 Alpha  occ. eigenvalues --  -38.44792 -38.44584 -38.44500 -38.43979 -38.43807
 Alpha  occ. eigenvalues --  -38.43751 -38.43559  -2.20700  -2.20443  -2.20343
 Alpha  occ. eigenvalues --   -2.19753  -2.19569  -2.19554  -2.19399  -1.14453
 Alpha  occ. eigenvalues --   -1.14387  -1.14316  -1.14147  -1.14131  -1.14027
 Alpha  occ. eigenvalues --   -1.14012  -1.13999  -1.13933  -1.13418  -1.13390
 Alpha  occ. eigenvalues --   -1.13371  -1.13254  -1.13219  -1.13211  -1.13207
 Alpha  occ. eigenvalues --   -1.13203  -1.13169  -1.13094  -1.13091  -1.12998
 Alpha  occ. eigenvalues --   -0.17396  -0.13466  -0.12571  -0.10286
 Alpha virt. eigenvalues --   -0.06063  -0.05891  -0.05250  -0.03345  -0.02578
 Alpha virt. eigenvalues --   -0.02353  -0.02037  -0.01411  -0.00912  -0.00752
 Alpha virt. eigenvalues --   -0.00408  -0.00247   0.00452   0.00556   0.00589

  Beta  occ. eigenvalues --  -38.44777 -38.44583 -38.44501 -38.43906 -38.43794
  Beta  occ. eigenvalues --  -38.43678 -38.43546  -2.20675  -2.20443  -2.20347
  Beta  occ. eigenvalues --   -2.19615  -2.19547  -2.19417  -2.19380  -1.14441
  Beta  occ. eigenvalues --   -1.14352  -1.14300  -1.14147  -1.14123  -1.14028
  Beta  occ. eigenvalues --   -1.14015  -1.14003  -1.13923  -1.13324  -1.13294
  Beta  occ. eigenvalues --   -1.13282  -1.13242  -1.13202  -1.13178  -1.13122
  Beta  occ. eigenvalues --   -1.13109  -1.13089  -1.13079  -1.13072  -1.12949
  Beta  occ. eigenvalues --   -0.17036  -0.12811  -0.12246
  Beta virt. eigenvalues --   -0.06936  -0.05940  -0.05710  -0.04711  -0.02923
  Beta virt. eigenvalues --   -0.02347  -0.02126  -0.01711  -0.01215  -0.00701
  Beta virt. eigenvalues --   -0.00538  -0.00127   0.00045   0.00588   0.00628

 Mulliken charges and spin densities:
               1          2
     1  Na   0.080848  -0.049780
     2  Na   0.474114  -0.130070
     3  Na   0.056471   0.045395
     4  Na  -0.713600   0.110246
     5  Na   0.351073   0.386989
     6  Na  -0.074608   0.496413
     7  Na  -0.174299   0.140808
 Sum of Mulliken charges =  -0.00000   1.00000

 Dipole moment (field-independent basis, Debye):
    X=              0.1804    Y=              1.0610    Z=             -0.0352  Tot=              1.0768
 Quadrupole moment (field-independent basis, Debye-Ang):
   XX=            -71.6315   YY=            -64.5483   ZZ=            -67.5311
   XY=              2.6244   XZ=              2.2599   YZ=             -1.7003

 Normal termination of Gaussian 16 at Tue Nov 28 23:01:55 2023.
