 Gaussian 16, Revision B.01,
 Gaussian 16:  ES64L-G16RevB.01 20-Dec-2017

 -------------------------
 #P B3LYP/6-311+g(d) force
 -------------------------

 -----
 DPGEN
 -----
 Symbolic Z-matrix:
 Charge =  0 Multiplicity = 2

                         Standard orientation:
 ---------------------------------------------------------------------
 Center     Atomic      Atomic             Coordinates (Angstroms)
 Number     Number       Type             X           Y           Z
 ---------------------------------------------------------------------
      1         11           0        3.236125    0.376831    0.190532
      2         11           0       -2.954216    1.330640   -0.111330
      3         11           0        1.179104   -2.523527   -0.312740
      4         11           0       -2.222114   -2.012046    0.207706
      5         11           0        0.416034    2.982082   -0.059450
      6         11           0        0.202919   -0.044889   -1.687816
      7         11           0        0.142149   -0.109091    1.773098
 ---------------------------------------------------------------------

 SCF Done:  E(UB3LYP) =  -1136.13772402     A.U. after   20 cycles

 The electronic state is 2-A.
 Alpha  occ. eigenvalues --  -38.44264 -38.44053 -38.43569 -38.43509 -38.43292
 Alpha  occ. eigenvalues --  -38.43187 -38.43098  -2.20083  -2.19853  -2.19386
 Alpha  occ. eigenvalues --   -2.19369  -2.19215  -2.19138  -2.19085  -1.13757
 Alpha  occ. eigenvalues --   -1.13739  -1.13722  -1.13528  -1.13516  -1.13495
 Alpha  occ. eigenvalues --   -1.13073  -1.13061  -1.13058  -1.13037  -1.13018
 Alpha  occ. eigenvalues --   -1.13009  -1.13000  -1.12890  -1.12821  -1.12816
 Alpha  occ. eigenvalues --   -1.12758  -1.12748  -1.12741  -1.12688  -1.12680
 Alpha  occ. eigenvalues --   -0.18770  -0.13011  -0.12528  -0.10484
 Alpha virt. eigenvalues --   -0.05857  -0.05092  -0.04772  -0.03037  -0.02798
 Alpha virt. eigenvalues --   -0.02255  -0.01719  -0.01143  -0.00495  -0.00339
 Alpha virt. eigenvalues --    0.00022   0.00344   0.00806   0.00851   0.00894

  Beta  occ. eigenvalues --  -38.44257 -38.44053 -38.43566 -38.43503 -38.43277
  Beta  occ. eigenvalues --  -38.43109 -38.43021  -2.20074  -2.19855  -2.19383
  Beta  occ. eigenvalues --   -2.19362  -2.19193  -2.18995  -2.18946  -1.13739
  Beta  occ. eigenvalues --   -1.13726  -1.13718  -1.13524  -1.13510  -1.13497
  Beta  occ. eigenvalues --   -1.13066  -1.13048  -1.13044  -1.13014  -1.13008
  Beta  occ. eigenvalues --   -1.13005  -1.12970  -1.12836  -1.12806  -1.12733
  Beta  occ. eigenvalues --   -1.12661  -1.12648  -1.12642  -1.12592  -1.12584
  Beta  occ. eigenvalues --   -0.18049  -0.12777  -0.12263
  Beta virt. eigenvalues --   -0.06581  -0.05835  -0.05089  -0.04736  -0.02284
  Beta virt. eigenvalues --   -0.02019  -0.01629  -0.01228  -0.01059  -0.00545
  Beta virt. eigenvalues --   -0.00382   0.00150   0.00374   0.00844   0.00849

 Mulliken charges and spin densities:
               1          2
     1  Na   0.110348  -0.086022
     2  Na  -0.087816  -0.105170
     3  Na   0.404435  -0.003126
     4  Na   0.146951  -0.040626
     5  Na  -0.113533  -0.159783
     6  Na  -0.196308   0.632959
     7  Na  -0.264076   0.761768
 Sum of Mulliken charges =  -0.00000   1.00000

 Dipole moment (field-independent basis, Debye):
    X=              0.1398    Y=              0.2205    Z=              0.0832  Tot=              0.2740
 Quadrupole moment (field-independent basis, Debye-Ang):
   XX=            -54.0277   YY=            -61.9353   ZZ=            -75.9914
   XY=              0.2462   XZ=              0.2860   YZ=              0.0338

 Normal termination of Gaussian 16 at Sun Dec  3 18:50:56 2023.
