 Gaussian 16, Revision B.01,
 Gaussian 16:  ES64L-G16RevB.01 20-Dec-2017

 -------------------------
 #P B3LYP/6-311+g(d) force
 -------------------------

 -----
 DPGEN
 -----
 Symbolic Z-matrix:
 Charge =  0 Multiplicity = 2

                         Standard orientation:
 ---------------------------------------------------------------------
 Center     Atomic      Atomic             Coordinates (Angstroms)
 Number     Number       Type             X           Y           Z
 ---------------------------------------------------------------------
      1         11           0       -0.005365    0.052761   -1.751482
      2         11           0        1.162299   -2.450077   -0.013565
      3         11           0       -2.222904   -2.017523   -0.264401
      4         11           0        3.258122    0.288823   -0.047344
      5         11           0       -2.803920    1.283138    0.299421
      6         11           0        0.359998    2.811573   -0.323862
      7         11           0        0.251770    0.031304    2.101235
 ---------------------------------------------------------------------

 SCF Done:  E(UB3LYP) =  -1136.13885336     A.U. after   19 cycles

 The electronic state is 2-A.
 Alpha  occ. eigenvalues --  -38.44222 -38.43865 -38.43854 -38.43366 -38.43343
 Alpha  occ. eigenvalues --  -38.43257 -38.43141  -2.20033  -2.19736  -2.19694
 Alpha  occ. eigenvalues --   -2.19322  -2.19223  -2.19114  -2.19040  -1.13706
 Alpha  occ. eigenvalues --   -1.13691  -1.13676  -1.13405  -1.13375  -1.13364
 Alpha  occ. eigenvalues --   -1.13361  -1.13344  -1.13335  -1.13030  -1.13013
 Alpha  occ. eigenvalues --   -1.12950  -1.12882  -1.12876  -1.12870  -1.12789
 Alpha  occ. eigenvalues --   -1.12768  -1.12725  -1.12720  -1.12710  -1.12651
 Alpha  occ. eigenvalues --   -0.18730  -0.12971  -0.12406  -0.11003
 Alpha virt. eigenvalues --   -0.05766  -0.04918  -0.04510  -0.03271  -0.02963
 Alpha virt. eigenvalues --   -0.02796  -0.01628  -0.00968  -0.00270  -0.00145
 Alpha virt. eigenvalues --   -0.00025   0.00363   0.00812   0.00899   0.00932

  Beta  occ. eigenvalues --  -38.44221 -38.43860 -38.43760 -38.43362 -38.43270
  Beta  occ. eigenvalues --  -38.43248 -38.43133  -2.20034  -2.19688  -2.19562
  Beta  occ. eigenvalues --   -2.19219  -2.19191  -2.19102  -2.19030  -1.13699
  Beta  occ. eigenvalues --   -1.13686  -1.13675  -1.13362  -1.13341  -1.13336
  Beta  occ. eigenvalues --   -1.13289  -1.13247  -1.13222  -1.12952  -1.12940
  Beta  occ. eigenvalues --   -1.12889  -1.12872  -1.12858  -1.12826  -1.12759
  Beta  occ. eigenvalues --   -1.12742  -1.12719  -1.12711  -1.12672  -1.12644
  Beta  occ. eigenvalues --   -0.17980  -0.12762  -0.12139
  Beta virt. eigenvalues --   -0.07069  -0.05716  -0.04926  -0.04464  -0.02491
  Beta virt. eigenvalues --   -0.02164  -0.01720  -0.01537  -0.00901  -0.00310
  Beta virt. eigenvalues --   -0.00189   0.00102   0.00377   0.00866   0.00888

 Mulliken charges and spin densities:
               1          2
     1  Na  -0.208484   0.516593
     2  Na   0.246830  -0.033686
     3  Na   0.132231  -0.040468
     4  Na   0.150656  -0.100220
     5  Na   0.073589   0.009795
     6  Na   0.138044  -0.089651
     7  Na  -0.532865   0.737637
 Sum of Mulliken charges =  -0.00000   1.00000

 Dipole moment (field-independent basis, Debye):
    X=              0.2082    Y=              0.1551    Z=              0.2036  Tot=              0.3299
 Quadrupole moment (field-independent basis, Debye-Ang):
   XX=            -55.6424   YY=            -65.2817   ZZ=            -72.9412
   XY=              0.3517   XZ=             -0.6748   YZ=              0.3274

 Normal termination of Gaussian 16 at Thu Dec  7 20:20:56 2023.
