 Gaussian 16, Revision B.01,
 Gaussian 16:  ES64L-G16RevB.01 20-Dec-2017

 -------------------------
 #P B3LYP/6-311+g(d) force
 -------------------------

 -----
 DPGEN
 -----
 Symbolic Z-matrix:
 Charge =  0 Multiplicity = 2

                         Standard orientation:
 ---------------------------------------------------------------------
 Center     Atomic      Atomic             Coordinates (Angstroms)
 Number     Number       Type             X           Y           Z
 ---------------------------------------------------------------------
      1         11           0       -3.099486   -1.148729    0.970378
      2         11           0       -5.387689   -0.007508   -0.147404
      3         11           0        3.447883    0.477206    0.260480
      4         11           0       -0.395917    1.651574   -0.745312
      5         11           0        3.864180   -2.629015    0.199971
      6         11           0        0.116260   -2.358460   -0.769834
      7         11           0        1.454768    4.014932    0.231719
 ---------------------------------------------------------------------

 SCF Done:  E(UB3LYP) =  -1136.11537608     A.U. after   19 cycles

 The electronic state is 2-A.
 Alpha  occ. eigenvalues --  -38.44602 -38.44523 -38.44487 -38.44350 -38.44060
 Alpha  occ. eigenvalues --  -38.43843 -38.43727  -2.20405  -2.20320  -2.20272
 Alpha  occ. eigenvalues --   -2.20214  -2.19912  -2.19643  -2.19539  -1.14091
 Alpha  occ. eigenvalues --   -1.14070  -1.14065  -1.14028  -1.14011  -1.13992
 Alpha  occ. eigenvalues --   -1.13946  -1.13943  -1.13926  -1.13866  -1.13823
 Alpha  occ. eigenvalues --   -1.13819  -1.13558  -1.13536  -1.13514  -1.13309
 Alpha  occ. eigenvalues --   -1.13302  -1.13276  -1.13213  -1.13195  -1.13163
 Alpha  occ. eigenvalues --   -0.16238  -0.14030  -0.12587  -0.11008
 Alpha virt. eigenvalues --   -0.05704  -0.05661  -0.04939  -0.03543  -0.03068
 Alpha virt. eigenvalues --   -0.02307  -0.01655  -0.01531  -0.01324  -0.00948
 Alpha virt. eigenvalues --   -0.00783  -0.00106   0.00401   0.00527   0.00621

  Beta  occ. eigenvalues --  -38.44562 -38.44508 -38.44411 -38.44280 -38.44058
  Beta  occ. eigenvalues --  -38.43843 -38.43710  -2.20334  -2.20292  -2.20130
  Beta  occ. eigenvalues --   -2.20084  -2.19916  -2.19642  -2.19511  -1.14044
  Beta  occ. eigenvalues --   -1.14025  -1.13993  -1.13992  -1.13972  -1.13962
  Beta  occ. eigenvalues --   -1.13921  -1.13850  -1.13828  -1.13769  -1.13735
  Beta  occ. eigenvalues --   -1.13730  -1.13566  -1.13539  -1.13451  -1.13307
  Beta  occ. eigenvalues --   -1.13302  -1.13275  -1.13182  -1.13178  -1.13144
  Beta  occ. eigenvalues --   -0.15594  -0.13337  -0.12433
  Beta virt. eigenvalues --   -0.07552  -0.05458  -0.05384  -0.04486  -0.03208
  Beta virt. eigenvalues --   -0.02813  -0.02173  -0.01575  -0.01333  -0.01064
  Beta virt. eigenvalues --   -0.00526  -0.00307   0.00083   0.00525   0.00585

 Mulliken charges and spin densities:
               1          2
     1  Na   0.191232   0.214121
     2  Na   0.150469   0.164183
     3  Na  -0.323771   0.370764
     4  Na  -0.909760  -0.039310
     5  Na   0.484058  -0.011879
     6  Na  -0.350608   0.225422
     7  Na   0.758381   0.076699
 Sum of Mulliken charges =  -0.00000   1.00000

 Dipole moment (field-independent basis, Debye):
    X=              0.1183    Y=              0.2876    Z=             -0.1798  Tot=              0.3592
 Quadrupole moment (field-independent basis, Debye-Ang):
   XX=            -67.3447   YY=            -60.4530   ZZ=            -70.7115
   XY=             -1.3630   XZ=              4.0812   YZ=              0.4978

 Normal termination of Gaussian 16 at Mon Dec  4 05:14:08 2023.
