 Gaussian 16, Revision B.01,
 Gaussian 16:  ES64L-G16RevB.01 20-Dec-2017

 -------------------------
 #P B3LYP/6-311+g(d) force
 -------------------------

 -----
 DPGEN
 -----
 Symbolic Z-matrix:
 Charge =  0 Multiplicity = 2

                         Standard orientation:
 ---------------------------------------------------------------------
 Center     Atomic      Atomic             Coordinates (Angstroms)
 Number     Number       Type             X           Y           Z
 ---------------------------------------------------------------------
      1         11           0        1.453361   -1.711368   -0.817852
      2         11           0        1.862612   -0.238391    1.796984
      3         11           0        0.026498    1.491395   -0.337378
      4         11           0        3.781997    1.304977   -0.698962
      5         11           0       -1.140869   -1.408453    1.268567
      6         11           0       -3.794683    1.507511    0.442364
      7         11           0       -2.188916   -0.945671   -1.653723
 ---------------------------------------------------------------------

 SCF Done:  E(UB3LYP) =  -1136.12358753     A.U. after   22 cycles

 The electronic state is 2-A.
 Alpha  occ. eigenvalues --  -38.44498 -38.44178 -38.44137 -38.43821 -38.43778
 Alpha  occ. eigenvalues --  -38.43543 -38.42915  -2.20361  -2.20061  -2.19913
 Alpha  occ. eigenvalues --   -2.19750  -2.19622  -2.19473  -2.18875  -1.14095
 Alpha  occ. eigenvalues --   -1.14065  -1.13940  -1.13755  -1.13735  -1.13643
 Alpha  occ. eigenvalues --   -1.13582  -1.13579  -1.13532  -1.13486  -1.13438
 Alpha  occ. eigenvalues --   -1.13337  -1.13289  -1.13285  -1.13241  -1.13154
 Alpha  occ. eigenvalues --   -1.13131  -1.13062  -1.12570  -1.12552  -1.12468
 Alpha  occ. eigenvalues --   -0.18779  -0.14057  -0.11141  -0.10999
 Alpha virt. eigenvalues --   -0.06639  -0.05383  -0.04678  -0.02988  -0.02641
 Alpha virt. eigenvalues --   -0.02217  -0.02130  -0.01392  -0.00797  -0.00150
 Alpha virt. eigenvalues --    0.00075   0.00318   0.00466   0.00534   0.00580

  Beta  occ. eigenvalues --  -38.44485 -38.44130 -38.44125 -38.43813 -38.43726
  Beta  occ. eigenvalues --  -38.43521 -38.42888  -2.20343  -2.19973  -2.19892
  Beta  occ. eigenvalues --   -2.19656  -2.19606  -2.19433  -2.18832  -1.14067
  Beta  occ. eigenvalues --   -1.14033  -1.13931  -1.13700  -1.13673  -1.13580
  Beta  occ. eigenvalues --   -1.13566  -1.13555  -1.13516  -1.13435  -1.13363
  Beta  occ. eigenvalues --   -1.13291  -1.13273  -1.13257  -1.13217  -1.13129
  Beta  occ. eigenvalues --   -1.13078  -1.13033  -1.12541  -1.12486  -1.12441
  Beta  occ. eigenvalues --   -0.18063  -0.13864  -0.10901
  Beta virt. eigenvalues --   -0.07155  -0.06436  -0.05206  -0.04130  -0.02775
  Beta virt. eigenvalues --   -0.02502  -0.01756  -0.01487  -0.01167  -0.00336
  Beta virt. eigenvalues --   -0.00078   0.00123   0.00343   0.00605   0.00648

 Mulliken charges and spin densities:
               1          2
     1  Na  -0.235544   0.344361
     2  Na   0.396562  -0.130144
     3  Na  -1.204973   0.345711
     4  Na   0.475882   0.042439
     5  Na  -0.009447   0.353098
     6  Na   0.224624  -0.039247
     7  Na   0.352896   0.083781
 Sum of Mulliken charges =  -0.00000   1.00000

 Dipole moment (field-independent basis, Debye):
    X=             -0.0626    Y=             -0.3261    Z=             -0.0526  Tot=              0.3362
 Quadrupole moment (field-independent basis, Debye-Ang):
   XX=            -52.5573   YY=            -73.7779   ZZ=            -68.5976
   XY=             -0.1710   XZ=             -0.7448   YZ=              1.8137

 Normal termination of Gaussian 16 at Tue Dec  5 12:58:43 2023.
