 Gaussian 16, Revision B.01,
 Gaussian 16:  ES64L-G16RevB.01 20-Dec-2017

 -------------------------
 #P B3LYP/6-311+g(d) force
 -------------------------

 -----
 DPGEN
 -----
 Symbolic Z-matrix:
 Charge =  0 Multiplicity = 2

                         Standard orientation:
 ---------------------------------------------------------------------
 Center     Atomic      Atomic             Coordinates (Angstroms)
 Number     Number       Type             X           Y           Z
 ---------------------------------------------------------------------
      1         11           0       -0.654744   -1.916309    0.454548
      2         11           0       -3.693441   -2.953375   -0.372090
      3         11           0       -2.589550    0.687408   -0.590674
      4         11           0       -1.613438    4.082919   -0.271426
      5         11           0        0.175920    1.079685    1.094937
      6         11           0        2.675710   -0.529888    0.476141
      7         11           0        5.699542   -0.450440   -0.791436
 ---------------------------------------------------------------------

 SCF Done:  E(UB3LYP) =  -1136.12281614     A.U. after   19 cycles

 The electronic state is 2-A.
 Alpha  occ. eigenvalues --  -38.44589 -38.44314 -38.44025 -38.43981 -38.43976
 Alpha  occ. eigenvalues --  -38.43800 -38.43071  -2.20403  -2.20168  -2.19928
 Alpha  occ. eigenvalues --   -2.19828  -2.19763  -2.19714  -2.18951  -1.14030
 Alpha  occ. eigenvalues --   -1.14028  -1.14027  -1.13920  -1.13869  -1.13730
 Alpha  occ. eigenvalues --   -1.13652  -1.13614  -1.13534  -1.13497  -1.13486
 Alpha  occ. eigenvalues --   -1.13456  -1.13429  -1.13428  -1.13408  -1.13395
 Alpha  occ. eigenvalues --   -1.13375  -1.13283  -1.12656  -1.12613  -1.12597
 Alpha  occ. eigenvalues --   -0.17475  -0.13810  -0.12596  -0.11347
 Alpha virt. eigenvalues --   -0.05965  -0.05050  -0.04706  -0.03852  -0.02341
 Alpha virt. eigenvalues --   -0.02123  -0.02016  -0.01877  -0.01336  -0.00838
 Alpha virt. eigenvalues --   -0.00225   0.00037   0.00141   0.00541   0.00683

  Beta  occ. eigenvalues --  -38.44476 -38.44306 -38.44000 -38.43963 -38.43939
  Beta  occ. eigenvalues --  -38.43776 -38.43065  -2.20192  -2.20154  -2.19864
  Beta  occ. eigenvalues --   -2.19781  -2.19729  -2.19676  -2.18952  -1.13904
  Beta  occ. eigenvalues --   -1.13890  -1.13885  -1.13885  -1.13860  -1.13717
  Beta  occ. eigenvalues --   -1.13613  -1.13570  -1.13476  -1.13464  -1.13454
  Beta  occ. eigenvalues --   -1.13425  -1.13406  -1.13403  -1.13380  -1.13374
  Beta  occ. eigenvalues --   -1.13354  -1.13226  -1.12655  -1.12625  -1.12526
  Beta  occ. eigenvalues --   -0.16932  -0.12872  -0.12351
  Beta virt. eigenvalues --   -0.07900  -0.05747  -0.04835  -0.04302  -0.03599
  Beta virt. eigenvalues --   -0.02157  -0.01829  -0.01709  -0.01399  -0.01020
  Beta virt. eigenvalues --   -0.00519   0.00018   0.00148   0.00313   0.00625

 Mulliken charges and spin densities:
               1          2
     1  Na  -0.737832  -0.009259
     2  Na   1.209620   0.104182
     3  Na  -0.423309   0.154076
     4  Na   0.813791   0.079887
     5  Na  -1.096809   0.064128
     6  Na   0.350719   0.037560
     7  Na  -0.116180   0.569425
 Sum of Mulliken charges =  -0.00000   1.00000

 Dipole moment (field-independent basis, Debye):
    X=             -0.7102    Y=              0.1990    Z=             -0.2504  Tot=              0.7789
 Quadrupole moment (field-independent basis, Debye-Ang):
   XX=            -62.3715   YY=            -59.8701   ZZ=            -70.8430
   XY=              3.4137   XZ=             -0.4925   YZ=              0.0703

 Normal termination of Gaussian 16 at Wed Nov 29 02:41:33 2023.
