 Gaussian 16, Revision B.01,
 Gaussian 16:  ES64L-G16RevB.01 20-Dec-2017

 -------------------------
 #P B3LYP/6-311+g(d) force
 -------------------------

 -----
 DPGEN
 -----
 Symbolic Z-matrix:
 Charge =  0 Multiplicity = 2

                         Standard orientation:
 ---------------------------------------------------------------------
 Center     Atomic      Atomic             Coordinates (Angstroms)
 Number     Number       Type             X           Y           Z
 ---------------------------------------------------------------------
      1         11           0       -0.784219    0.330732   -1.803511
      2         11           0       -1.693990   -1.090383    1.385320
      3         11           0        4.241928   -2.173481   -0.593682
      4         11           0        2.417056   -0.100109    0.488088
      5         11           0       -0.695469    3.399816   -1.184556
      6         11           0        0.277027    2.193238    1.949446
      7         11           0       -3.762332   -2.559813   -0.241106
 ---------------------------------------------------------------------

 SCF Done:  E(UB3LYP) =  -1136.11591918     A.U. after   21 cycles

 The electronic state is 2-A.
 Alpha  occ. eigenvalues --  -38.45220 -38.44392 -38.44364 -38.44322 -38.44156
 Alpha  occ. eigenvalues --  -38.43615 -38.43092  -2.21054  -2.20237  -2.20167
 Alpha  occ. eigenvalues --   -2.20153  -2.20006  -2.19429  -2.18955  -1.14721
 Alpha  occ. eigenvalues --   -1.14713  -1.14675  -1.13910  -1.13902  -1.13883
 Alpha  occ. eigenvalues --   -1.13855  -1.13830  -1.13819  -1.13806  -1.13803
 Alpha  occ. eigenvalues --   -1.13765  -1.13673  -1.13662  -1.13592  -1.13151
 Alpha  occ. eigenvalues --   -1.13068  -1.13065  -1.12624  -1.12613  -1.12590
 Alpha  occ. eigenvalues --   -0.17426  -0.13059  -0.12502  -0.11490
 Alpha virt. eigenvalues --   -0.06675  -0.05361  -0.04241  -0.03354  -0.02983
 Alpha virt. eigenvalues --   -0.02736  -0.02027  -0.01673  -0.00975  -0.00633
 Alpha virt. eigenvalues --   -0.00084   0.00074   0.00222   0.00559   0.00696

  Beta  occ. eigenvalues --  -38.45154 -38.44366 -38.44316 -38.44296 -38.44136
  Beta  occ. eigenvalues --  -38.43600 -38.43086  -2.20934  -2.20171  -2.20109
  Beta  occ. eigenvalues --   -2.20097  -2.19969  -2.19400  -2.18947  -1.14640
  Beta  occ. eigenvalues --   -1.14627  -1.14583  -1.13905  -1.13822  -1.13807
  Beta  occ. eigenvalues --   -1.13806  -1.13790  -1.13780  -1.13776  -1.13771
  Beta  occ. eigenvalues --   -1.13717  -1.13650  -1.13640  -1.13558  -1.13133
  Beta  occ. eigenvalues --   -1.13048  -1.13045  -1.12620  -1.12607  -1.12561
  Beta  occ. eigenvalues --   -0.16676  -0.12963  -0.12125
  Beta virt. eigenvalues --   -0.07682  -0.06521  -0.04995  -0.03760  -0.02927
  Beta virt. eigenvalues --   -0.02700  -0.02189  -0.01866  -0.01530  -0.00642
  Beta virt. eigenvalues --   -0.00563   0.00059   0.00278   0.00374   0.00696

 Mulliken charges and spin densities:
               1          2
     1  Na  -0.483958   0.542777
     2  Na  -0.444487   0.086704
     3  Na  -0.238175   0.223589
     4  Na  -1.574062   0.161767
     5  Na   0.306214  -0.024353
     6  Na   1.951695  -0.000288
     7  Na   0.482772   0.009805
 Sum of Mulliken charges =  -0.00000   1.00000

 Dipole moment (field-independent basis, Debye):
    X=             -1.4537    Y=              0.3691    Z=             -0.4217  Tot=              1.5580
 Quadrupole moment (field-independent basis, Debye-Ang):
   XX=            -66.4406   YY=            -60.0108   ZZ=            -68.5682
   XY=              1.7499   XZ=              0.6632   YZ=              3.9983

 Normal termination of Gaussian 16 at Mon Dec  4 05:25:51 2023.
