 Gaussian 16, Revision B.01,
 Gaussian 16:  ES64L-G16RevB.01 20-Dec-2017

 -------------------------
 #P B3LYP/6-311+g(d) force
 -------------------------

 -----
 DPGEN
 -----
 Symbolic Z-matrix:
 Charge =  0 Multiplicity = 2

                         Standard orientation:
 ---------------------------------------------------------------------
 Center     Atomic      Atomic             Coordinates (Angstroms)
 Number     Number       Type             X           Y           Z
 ---------------------------------------------------------------------
      1         11           0       -4.374100   -1.778595   -0.222494
      2         11           0       -3.663523    1.844968    0.284626
      3         11           0        2.762223    2.907739    0.049800
      4         11           0       -0.437719    3.466916    0.025835
      5         11           0        3.612408   -0.542318   -0.747570
      6         11           0       -0.565206   -3.141195   -0.315096
      7         11           0        2.665917   -2.757514    0.924900
 ---------------------------------------------------------------------

 SCF Done:  E(UB3LYP) =  -1136.10529478     A.U. after   28 cycles

 The electronic state is 2-A.
 Alpha  occ. eigenvalues --  -38.46191 -38.45782 -38.44416 -38.44334 -38.44225
 Alpha  occ. eigenvalues --  -38.44198 -38.43425  -2.21922  -2.21598  -2.20186
 Alpha  occ. eigenvalues --   -2.20119  -2.20060  -2.19979  -2.19240  -1.15619
 Alpha  occ. eigenvalues --   -1.15603  -1.15521  -1.15320  -1.15251  -1.15227
 Alpha  occ. eigenvalues --   -1.13862  -1.13853  -1.13809  -1.13803  -1.13795
 Alpha  occ. eigenvalues --   -1.13753  -1.13751  -1.13688  -1.13677  -1.13653
 Alpha  occ. eigenvalues --   -1.13626  -1.13616  -1.12895  -1.12894  -1.12881
 Alpha  occ. eigenvalues --   -0.15914  -0.13849  -0.13354  -0.10514
 Alpha virt. eigenvalues --   -0.07899  -0.05151  -0.04320  -0.03654  -0.03348
 Alpha virt. eigenvalues --   -0.02556  -0.02297  -0.02006  -0.01369  -0.00512
 Alpha virt. eigenvalues --   -0.00424  -0.00085   0.00063   0.00379   0.00503

  Beta  occ. eigenvalues --  -38.46163 -38.45763 -38.44372 -38.44324 -38.44196
  Beta  occ. eigenvalues --  -38.44168 -38.43390  -2.21873  -2.21569  -2.20109
  Beta  occ. eigenvalues --   -2.20102  -2.20004  -2.19926  -2.19175  -1.15589
  Beta  occ. eigenvalues --   -1.15574  -1.15460  -1.15293  -1.15236  -1.15183
  Beta  occ. eigenvalues --   -1.13811  -1.13802  -1.13796  -1.13787  -1.13744
  Beta  occ. eigenvalues --   -1.13715  -1.13706  -1.13650  -1.13639  -1.13617
  Beta  occ. eigenvalues --   -1.13595  -1.13571  -1.12859  -1.12850  -1.12831
  Beta  occ. eigenvalues --   -0.15455  -0.13264  -0.12769
  Beta virt. eigenvalues --   -0.08013  -0.07166  -0.04801  -0.03889  -0.03387
  Beta virt. eigenvalues --   -0.02889  -0.02386  -0.02105  -0.01769  -0.01265
  Beta virt. eigenvalues --   -0.00326  -0.00149   0.00115   0.00252   0.00406

 Mulliken charges and spin densities:
               1          2
     1  Na   0.222736   0.159038
     2  Na  -0.022494   0.182529
     3  Na  -0.141400   0.220092
     4  Na   0.069762   0.004257
     5  Na  -0.077513   0.078845
     6  Na  -0.323684   0.197967
     7  Na   0.272593   0.157272
 Sum of Mulliken charges =  -0.00000   1.00000

 Dipole moment (field-independent basis, Debye):
    X=              0.8602    Y=             -1.2990    Z=             -0.0499  Tot=              1.5588
 Quadrupole moment (field-independent basis, Debye-Ang):
   XX=            -61.1044   YY=            -69.6488   ZZ=            -71.1826
   XY=             -2.2843   XZ=             -0.7124   YZ=             -0.0603

 Normal termination of Gaussian 16 at Sun Dec  3 15:17:05 2023.
