 Gaussian 16, Revision B.01,
 Gaussian 16:  ES64L-G16RevB.01 20-Dec-2017

 -------------------------
 #P B3LYP/6-311+g(d) force
 -------------------------

 -----
 DPGEN
 -----
 Symbolic Z-matrix:
 Charge =  0 Multiplicity = 2

                         Standard orientation:
 ---------------------------------------------------------------------
 Center     Atomic      Atomic             Coordinates (Angstroms)
 Number     Number       Type             X           Y           Z
 ---------------------------------------------------------------------
      1         11           0       -1.003377    2.166983   -0.375957
      2         11           0       -2.879250   -1.628315   -1.263583
      3         11           0        2.279501    2.526812   -0.748127
      4         11           0        3.891004   -1.531977    0.628678
      5         11           0        0.365419   -0.409275    1.464897
      6         11           0       -3.268422    0.379001    1.409133
      7         11           0        0.615125   -1.503229   -1.115041
 ---------------------------------------------------------------------

 SCF Done:  E(UB3LYP) =  -1136.11847491     A.U. after   23 cycles

 The electronic state is 2-A.
 Alpha  occ. eigenvalues --  -38.45036 -38.44718 -38.44197 -38.44125 -38.44103
 Alpha  occ. eigenvalues --  -38.43632 -38.43011  -2.20928  -2.20482  -2.20019
 Alpha  occ. eigenvalues --   -2.19995  -2.19978  -2.19419  -2.18874  -1.14776
 Alpha  occ. eigenvalues --   -1.14554  -1.14498  -1.14153  -1.14144  -1.14091
 Alpha  occ. eigenvalues --   -1.13746  -1.13692  -1.13678  -1.13670  -1.13637
 Alpha  occ. eigenvalues --   -1.13624  -1.13615  -1.13583  -1.13551  -1.13089
 Alpha  occ. eigenvalues --   -1.13073  -1.13056  -1.12572  -1.12548  -1.12494
 Alpha  occ. eigenvalues --   -0.17970  -0.13604  -0.11825  -0.10672
 Alpha virt. eigenvalues --   -0.06961  -0.05359  -0.04395  -0.03365  -0.02839
 Alpha virt. eigenvalues --   -0.02640  -0.01767  -0.01550  -0.00967  -0.00201
 Alpha virt. eigenvalues --    0.00021   0.00139   0.00338   0.00500   0.00630

  Beta  occ. eigenvalues --  -38.45014 -38.44695 -38.44155 -38.44077 -38.44068
  Beta  occ. eigenvalues --  -38.43619 -38.43007  -2.20888  -2.20439  -2.19945
  Beta  occ. eigenvalues --   -2.19934  -2.19890  -2.19394  -2.18870  -1.14738
  Beta  occ. eigenvalues --   -1.14531  -1.14464  -1.14122  -1.14115  -1.14065
  Beta  occ. eigenvalues --   -1.13709  -1.13633  -1.13628  -1.13612  -1.13578
  Beta  occ. eigenvalues --   -1.13573  -1.13555  -1.13526  -1.13484  -1.13068
  Beta  occ. eigenvalues --   -1.13057  -1.13040  -1.12573  -1.12530  -1.12480
  Beta  occ. eigenvalues --   -0.17402  -0.13315  -0.11358
  Beta virt. eigenvalues --   -0.07169  -0.06765  -0.05179  -0.03832  -0.03198
  Beta virt. eigenvalues --   -0.02645  -0.02039  -0.01412  -0.01227  -0.00546
  Beta virt. eigenvalues --   -0.00173   0.00090   0.00253   0.00446   0.00605

 Mulliken charges and spin densities:
               1          2
     1  Na  -0.456303   0.138228
     2  Na  -0.258203   0.030629
     3  Na  -0.165484  -0.059825
     4  Na   0.704606   0.099917
     5  Na  -1.056002   0.092640
     6  Na   1.419060   0.279039
     7  Na  -0.187674   0.419373
 Sum of Mulliken charges =  -0.00000   1.00000

 Dipole moment (field-independent basis, Debye):
    X=              0.4936    Y=             -0.3278    Z=              0.0911  Tot=              0.5995
 Quadrupole moment (field-independent basis, Debye-Ang):
   XX=            -46.9030   YY=            -76.3213   ZZ=            -70.7871
   XY=              0.4508   XZ=             -0.0192   YZ=              0.2312

 Normal termination of Gaussian 16 at Tue Dec  5 19:15:09 2023.
