 Gaussian 16, Revision B.01,
 Gaussian 16:  ES64L-G16RevB.01 20-Dec-2017

 -------------------------
 #P B3LYP/6-311+g(d) force
 -------------------------

 -----
 DPGEN
 -----
 Symbolic Z-matrix:
 Charge =  0 Multiplicity = 2

                         Standard orientation:
 ---------------------------------------------------------------------
 Center     Atomic      Atomic             Coordinates (Angstroms)
 Number     Number       Type             X           Y           Z
 ---------------------------------------------------------------------
      1         11           0       -3.504602   -0.338968    0.164580
      2         11           0       -0.920238   -1.990596   -0.620170
      3         11           0        2.186565    1.723525    1.182759
      4         11           0        2.341968   -2.169525   -0.054784
      5         11           0       -0.401845   -0.388965    1.763813
      6         11           0        1.305590    0.572562   -1.814648
      7         11           0       -1.007437    2.591967   -0.621549
 ---------------------------------------------------------------------

 SCF Done:  E(UB3LYP) =  -1136.13297810     A.U. after   19 cycles

 The electronic state is 2-A.
 Alpha  occ. eigenvalues --  -38.44001 -38.43924 -38.43779 -38.43573 -38.43494
 Alpha  occ. eigenvalues --  -38.43470 -38.43232  -2.19831  -2.19773  -2.19734
 Alpha  occ. eigenvalues --   -2.19392  -2.19391  -2.19337  -2.19194  -1.13535
 Alpha  occ. eigenvalues --   -1.13511  -1.13480  -1.13467  -1.13464  -1.13437
 Alpha  occ. eigenvalues --   -1.13386  -1.13358  -1.13318  -1.13126  -1.13063
 Alpha  occ. eigenvalues --   -1.13050  -1.13047  -1.13022  -1.13007  -1.13000
 Alpha  occ. eigenvalues --   -1.12982  -1.12955  -1.12892  -1.12840  -1.12774
 Alpha  occ. eigenvalues --   -0.18637  -0.13113  -0.12251  -0.11171
 Alpha virt. eigenvalues --   -0.05647  -0.05114  -0.04199  -0.03568  -0.02973
 Alpha virt. eigenvalues --   -0.02703  -0.01612  -0.01084  -0.00370   0.00018
 Alpha virt. eigenvalues --    0.00197   0.00338   0.00705   0.00799   0.00902

  Beta  occ. eigenvalues --  -38.44003 -38.43885 -38.43713 -38.43558 -38.43492
  Beta  occ. eigenvalues --  -38.43410 -38.43219  -2.19835  -2.19704  -2.19615
  Beta  occ. eigenvalues --   -2.19365  -2.19336  -2.19282  -2.19173  -1.13528
  Beta  occ. eigenvalues --   -1.13490  -1.13467  -1.13421  -1.13408  -1.13383
  Beta  occ. eigenvalues --   -1.13337  -1.13282  -1.13231  -1.13083  -1.13025
  Beta  occ. eigenvalues --   -1.13020  -1.13007  -1.12998  -1.12980  -1.12969
  Beta  occ. eigenvalues --   -1.12952  -1.12894  -1.12870  -1.12807  -1.12759
  Beta  occ. eigenvalues --   -0.17918  -0.12927  -0.12009
  Beta virt. eigenvalues --   -0.07197  -0.05534  -0.05077  -0.04054  -0.02974
  Beta virt. eigenvalues --   -0.02299  -0.01707  -0.01524  -0.00975  -0.00197
  Beta virt. eigenvalues --    0.00091   0.00199   0.00377   0.00820   0.00835

 Mulliken charges and spin densities:
               1          2
     1  Na   0.433527  -0.038783
     2  Na  -0.080722   0.163169
     3  Na   0.067129   0.080677
     4  Na   0.297600  -0.039421
     5  Na  -0.342731   0.414257
     6  Na  -0.064711   0.344829
     7  Na  -0.310093   0.075273
 Sum of Mulliken charges =  -0.00000   1.00000

 Dipole moment (field-independent basis, Debye):
    X=             -0.0946    Y=              0.1613    Z=              0.0885  Tot=              0.2069
 Quadrupole moment (field-independent basis, Debye-Ang):
   XX=            -54.9121   YY=            -68.0395   ZZ=            -70.9925
   XY=             -1.6705   XZ=              1.7190   YZ=              0.9398

 Normal termination of Gaussian 16 at Thu Dec  7 04:11:15 2023.
