 Gaussian 16, Revision B.01,
 Gaussian 16:  ES64L-G16RevB.01 20-Dec-2017

 -------------------------
 #P B3LYP/6-311+g(d) force
 -------------------------

 -----
 DPGEN
 -----
 Symbolic Z-matrix:
 Charge =  0 Multiplicity = 2

                         Standard orientation:
 ---------------------------------------------------------------------
 Center     Atomic      Atomic             Coordinates (Angstroms)
 Number     Number       Type             X           Y           Z
 ---------------------------------------------------------------------
      1         11           0       -2.546515   -1.623904   -0.744974
      2         11           0       -0.636065    0.578855   -1.682424
      3         11           0       -2.389710    1.118008    0.867941
      4         11           0        1.126306    2.831352   -0.084910
      5         11           0        2.875759   -0.345165   -0.671325
      6         11           0        0.286325    0.006073    1.844482
      7         11           0        1.283901   -2.565219    0.471211
 ---------------------------------------------------------------------

 SCF Done:  E(UB3LYP) =  -1136.12859605     A.U. after   19 cycles

 The electronic state is 2-A.
 Alpha  occ. eigenvalues --  -38.44066 -38.43983 -38.43748 -38.43679 -38.43527
 Alpha  occ. eigenvalues --  -38.43259 -38.43121  -2.19944  -2.19928  -2.19669
 Alpha  occ. eigenvalues --   -2.19628  -2.19517  -2.19156  -2.18966  -1.13681
 Alpha  occ. eigenvalues --   -1.13664  -1.13617  -1.13601  -1.13570  -1.13541
 Alpha  occ. eigenvalues --   -1.13380  -1.13343  -1.13311  -1.13276  -1.13263
 Alpha  occ. eigenvalues --   -1.13243  -1.13178  -1.13151  -1.13111  -1.12831
 Alpha  occ. eigenvalues --   -1.12818  -1.12761  -1.12644  -1.12627  -1.12599
 Alpha  occ. eigenvalues --   -0.19018  -0.13461  -0.12221  -0.11385
 Alpha virt. eigenvalues --   -0.05343  -0.04969  -0.04427  -0.03672  -0.02993
 Alpha virt. eigenvalues --   -0.02844  -0.01323  -0.00996  -0.00255   0.00139
 Alpha virt. eigenvalues --    0.00178   0.00387   0.00845   0.00877   0.00923

  Beta  occ. eigenvalues --  -38.44055 -38.43955 -38.43729 -38.43594 -38.43468
  Beta  occ. eigenvalues --  -38.43254 -38.43120  -2.19925  -2.19880  -2.19596
  Beta  occ. eigenvalues --   -2.19515  -2.19410  -2.19149  -2.18968  -1.13654
  Beta  occ. eigenvalues --   -1.13639  -1.13576  -1.13556  -1.13551  -1.13515
  Beta  occ. eigenvalues --   -1.13334  -1.13240  -1.13238  -1.13216  -1.13206
  Beta  occ. eigenvalues --   -1.13169  -1.13107  -1.13077  -1.13035  -1.12821
  Beta  occ. eigenvalues --   -1.12799  -1.12754  -1.12636  -1.12629  -1.12590
  Beta  occ. eigenvalues --   -0.18288  -0.13219  -0.11972
  Beta virt. eigenvalues --   -0.07409  -0.05207  -0.04901  -0.04381  -0.02978
  Beta virt. eigenvalues --   -0.02299  -0.01788  -0.01216  -0.00917  -0.00136
  Beta virt. eigenvalues --    0.00175   0.00202   0.00429   0.00893   0.00922

 Mulliken charges and spin densities:
               1          2
     1  Na  -0.126556   0.040117
     2  Na  -0.075386   0.469989
     3  Na   0.343807   0.076260
     4  Na  -0.084837  -0.031298
     5  Na  -0.241936   0.014439
     6  Na  -0.030650   0.415079
     7  Na   0.215558   0.015415
 Sum of Mulliken charges =  -0.00000   1.00000

 Dipole moment (field-independent basis, Debye):
    X=             -0.0750    Y=              0.0408    Z=             -0.1176  Tot=              0.1453
 Quadrupole moment (field-independent basis, Debye-Ang):
   XX=            -59.8934   YY=            -64.6951   ZZ=            -71.0277
   XY=              1.4692   XZ=             -2.1583   YZ=              1.6518

 Normal termination of Gaussian 16 at Sun Dec  3 12:24:19 2023.
