 Gaussian 16, Revision B.01,
 Gaussian 16:  ES64L-G16RevB.01 20-Dec-2017

 -------------------------
 #P B3LYP/6-311+g(d) force
 -------------------------

 -----
 DPGEN
 -----
 Symbolic Z-matrix:
 Charge =  0 Multiplicity = 2

                         Standard orientation:
 ---------------------------------------------------------------------
 Center     Atomic      Atomic             Coordinates (Angstroms)
 Number     Number       Type             X           Y           Z
 ---------------------------------------------------------------------
      1         11           0       -3.108929   -0.655257    0.365957
      2         11           0        2.965160   -1.219258   -0.486920
      3         11           0       -2.416964    2.779115   -0.278976
      4         11           0        0.183297    0.746834   -0.775414
      5         11           0        3.082636    2.123073    0.403200
      6         11           0       -0.044052   -1.429105    2.134148
      7         11           0       -0.661148   -2.345403   -1.361995
 ---------------------------------------------------------------------

 SCF Done:  E(UB3LYP) =  -1136.12701609     A.U. after   21 cycles

 The electronic state is 2-A.
 Alpha  occ. eigenvalues --  -38.44612 -38.44515 -38.44506 -38.43733 -38.43599
 Alpha  occ. eigenvalues --  -38.43221 -38.43033  -2.20426  -2.20331  -2.20303
 Alpha  occ. eigenvalues --   -2.19571  -2.19388  -2.19096  -2.18999  -1.14109
 Alpha  occ. eigenvalues --   -1.14094  -1.14057  -1.14017  -1.13996  -1.13967
 Alpha  occ. eigenvalues --   -1.13962  -1.13954  -1.13931  -1.13239  -1.13197
 Alpha  occ. eigenvalues --   -1.13184  -1.13067  -1.13048  -1.13029  -1.12816
 Alpha  occ. eigenvalues --   -1.12731  -1.12720  -1.12705  -1.12648  -1.12616
 Alpha  occ. eigenvalues --   -0.17950  -0.13454  -0.11877  -0.10430
 Alpha virt. eigenvalues --   -0.06378  -0.05857  -0.04383  -0.03248  -0.02557
 Alpha virt. eigenvalues --   -0.02176  -0.01997  -0.01497  -0.00986  -0.00350
 Alpha virt. eigenvalues --   -0.00100   0.00278   0.00423   0.00626   0.00717

  Beta  occ. eigenvalues --  -38.44604 -38.44509 -38.44498 -38.43644 -38.43602
  Beta  occ. eigenvalues --  -38.43177 -38.43008  -2.20414  -2.20319  -2.20291
  Beta  occ. eigenvalues --   -2.19406  -2.19394  -2.19017  -2.18958  -1.14096
  Beta  occ. eigenvalues --   -1.14080  -1.14041  -1.13996  -1.13988  -1.13960
  Beta  occ. eigenvalues --   -1.13950  -1.13940  -1.13924  -1.13127  -1.13079
  Beta  occ. eigenvalues --   -1.13072  -1.13069  -1.13050  -1.13034  -1.12762
  Beta  occ. eigenvalues --   -1.12677  -1.12662  -1.12648  -1.12607  -1.12591
  Beta  occ. eigenvalues --   -0.17304  -0.13297  -0.11675
  Beta virt. eigenvalues --   -0.06614  -0.06145  -0.05782  -0.04186  -0.02649
  Beta virt. eigenvalues --   -0.02041  -0.01918  -0.01492  -0.01246  -0.00881
  Beta virt. eigenvalues --   -0.00310   0.00129   0.00334   0.00585   0.00652

 Mulliken charges and spin densities:
               1          2
     1  Na   0.452020   0.192788
     2  Na   0.807165   0.059828
     3  Na   0.061130  -0.131156
     4  Na  -1.089890   0.294728
     5  Na  -0.106644  -0.016307
     6  Na  -0.508750   0.464557
     7  Na   0.384968   0.135563
 Sum of Mulliken charges =  -0.00000   1.00000

 Dipole moment (field-independent basis, Debye):
    X=              0.5908    Y=             -0.1142    Z=              0.1952  Tot=              0.6326
 Quadrupole moment (field-independent basis, Debye-Ang):
   XX=            -52.2743   YY=            -64.4908   ZZ=            -75.3655
   XY=              1.1476   XZ=              0.6771   YZ=              2.8985

 Normal termination of Gaussian 16 at Tue Dec  5 16:15:24 2023.
