 Gaussian 16, Revision B.01,
 Gaussian 16:  ES64L-G16RevB.01 20-Dec-2017

 -------------------------
 #P B3LYP/6-311+g(d) force
 -------------------------

 -----
 DPGEN
 -----
 Symbolic Z-matrix:
 Charge =  0 Multiplicity = 2

                         Standard orientation:
 ---------------------------------------------------------------------
 Center     Atomic      Atomic             Coordinates (Angstroms)
 Number     Number       Type             X           Y           Z
 ---------------------------------------------------------------------
      1         11           0        2.064166   -1.376779    1.338850
      2         11           0        1.047601    0.506670   -1.038078
      3         11           0       -2.352688    1.503681   -0.239553
      4         11           0       -1.128448   -2.052142    0.521462
      5         11           0       -4.219088   -1.093010   -0.657511
      6         11           0       -0.000104    2.746544    1.039241
      7         11           0        4.588560   -0.234965   -0.964411
 ---------------------------------------------------------------------

 SCF Done:  E(UB3LYP) =  -1136.12434224     A.U. after   20 cycles

 The electronic state is 2-A.
 Alpha  occ. eigenvalues --  -38.44572 -38.44296 -38.44146 -38.43504 -38.43489
 Alpha  occ. eigenvalues --  -38.43435 -38.43298  -2.20476  -2.20111  -2.20015
 Alpha  occ. eigenvalues --   -2.19431  -2.19343  -2.19278  -2.19179  -1.14197
 Alpha  occ. eigenvalues --   -1.14164  -1.14083  -1.13762  -1.13753  -1.13719
 Alpha  occ. eigenvalues --   -1.13699  -1.13671  -1.13632  -1.13196  -1.13109
 Alpha  occ. eigenvalues --   -1.13085  -1.13034  -1.13017  -1.12969  -1.12934
 Alpha  occ. eigenvalues --   -1.12923  -1.12881  -1.12827  -1.12812  -1.12786
 Alpha  occ. eigenvalues --   -0.17842  -0.14153  -0.12111  -0.11065
 Alpha virt. eigenvalues --   -0.06331  -0.04856  -0.04758  -0.03600  -0.02795
 Alpha virt. eigenvalues --   -0.02444  -0.01716  -0.01390  -0.00993  -0.00317
 Alpha virt. eigenvalues --   -0.00164   0.00151   0.00395   0.00508   0.00833

  Beta  occ. eigenvalues --  -38.44566 -38.44207 -38.44115 -38.43492 -38.43453
  Beta  occ. eigenvalues --  -38.43398 -38.43298  -2.20469  -2.19964  -2.19945
  Beta  occ. eigenvalues --   -2.19412  -2.19282  -2.19208  -2.19180  -1.14189
  Beta  occ. eigenvalues --   -1.14143  -1.14075  -1.13664  -1.13647  -1.13643
  Beta  occ. eigenvalues --   -1.13636  -1.13615  -1.13555  -1.13171  -1.13096
  Beta  occ. eigenvalues --   -1.13075  -1.12998  -1.12976  -1.12907  -1.12887
  Beta  occ. eigenvalues --   -1.12876  -1.12833  -1.12827  -1.12808  -1.12779
  Beta  occ. eigenvalues --   -0.17315  -0.13507  -0.11856
  Beta virt. eigenvalues --   -0.07410  -0.06174  -0.04738  -0.04110  -0.03383
  Beta virt. eigenvalues --   -0.02565  -0.02036  -0.01294  -0.01100  -0.00633
  Beta virt. eigenvalues --   -0.00184  -0.00006   0.00281   0.00571   0.00649

 Mulliken charges and spin densities:
               1          2
     1  Na   0.303216  -0.052470
     2  Na  -0.560115  -0.104731
     3  Na   0.125056   0.074103
     4  Na  -0.481063   0.208559
     5  Na   0.342871   0.248689
     6  Na   0.053530   0.182751
     7  Na   0.216505   0.443099
 Sum of Mulliken charges =  -0.00000   1.00000

 Dipole moment (field-independent basis, Debye):
    X=              0.7124    Y=              0.0666    Z=              0.4947  Tot=              0.8699
 Quadrupole moment (field-independent basis, Debye-Ang):
   XX=            -62.0577   YY=            -72.5733   ZZ=            -65.1649
   XY=              0.1477   XZ=              2.8852   YZ=              1.2232

 Normal termination of Gaussian 16 at Tue Nov 28 22:45:35 2023.
