 Gaussian 16, Revision B.01,
 Gaussian 16:  ES64L-G16RevB.01 20-Dec-2017

 -------------------------
 #P B3LYP/6-311+g(d) force
 -------------------------

 -----
 DPGEN
 -----
 Symbolic Z-matrix:
 Charge =  0 Multiplicity = 2

                         Standard orientation:
 ---------------------------------------------------------------------
 Center     Atomic      Atomic             Coordinates (Angstroms)
 Number     Number       Type             X           Y           Z
 ---------------------------------------------------------------------
      1         11           0       -2.679575   -1.396569   -0.099137
      2         11           0       -0.268025   -0.596206   -1.842772
      3         11           0       -0.167786    0.564052    2.272574
      4         11           0       -1.985096    1.840809   -0.265469
      5         11           0        3.170762   -0.463824   -0.285578
      6         11           0        1.213997    2.569789   -0.316012
      7         11           0        0.715722   -2.518051    0.536394
 ---------------------------------------------------------------------

 SCF Done:  E(UB3LYP) =  -1136.13691626     A.U. after   19 cycles

 The electronic state is 2-A.
 Alpha  occ. eigenvalues --  -38.44182 -38.43844 -38.43706 -38.43575 -38.43300
 Alpha  occ. eigenvalues --  -38.43292 -38.43269  -2.20050  -2.19669  -2.19657
 Alpha  occ. eigenvalues --   -2.19458  -2.19207  -2.19184  -2.19117  -1.13706
 Alpha  occ. eigenvalues --   -1.13683  -1.13668  -1.13394  -1.13335  -1.13330
 Alpha  occ. eigenvalues --   -1.13314  -1.13306  -1.13299  -1.13118  -1.13107
 Alpha  occ. eigenvalues --   -1.13091  -1.12904  -1.12875  -1.12865  -1.12848
 Alpha  occ. eigenvalues --   -1.12846  -1.12801  -1.12783  -1.12774  -1.12739
 Alpha  occ. eigenvalues --   -0.18783  -0.12886  -0.12488  -0.11411
 Alpha virt. eigenvalues --   -0.05386  -0.04932  -0.04486  -0.03462  -0.03326
 Alpha virt. eigenvalues --   -0.02988  -0.01302  -0.00833  -0.00171  -0.00053
 Alpha virt. eigenvalues --    0.00026   0.00378   0.00815   0.00939   0.00956

  Beta  occ. eigenvalues --  -38.44084 -38.43843 -38.43645 -38.43572 -38.43287
  Beta  occ. eigenvalues --  -38.43283 -38.43263  -2.19869  -2.19657  -2.19557
  Beta  occ. eigenvalues --   -2.19455  -2.19195  -2.19162  -2.19109  -1.13588
  Beta  occ. eigenvalues --   -1.13555  -1.13537  -1.13332  -1.13328  -1.13312
  Beta  occ. eigenvalues --   -1.13307  -1.13235  -1.13234  -1.13113  -1.13085
  Beta  occ. eigenvalues --   -1.13071  -1.12897  -1.12853  -1.12852  -1.12823
  Beta  occ. eigenvalues --   -1.12806  -1.12791  -1.12772  -1.12759  -1.12734
  Beta  occ. eigenvalues --   -0.18012  -0.12671  -0.12285
  Beta virt. eigenvalues --   -0.07428  -0.05336  -0.04930  -0.04322  -0.02686
  Beta virt. eigenvalues --   -0.02554  -0.01963  -0.01234  -0.00786  -0.00114
  Beta virt. eigenvalues --   -0.00014   0.00059   0.00408   0.00913   0.00935

 Mulliken charges and spin densities:
               1          2
     1  Na   0.487409   0.032716
     2  Na  -0.371594   0.390666
     3  Na  -0.594971   0.551602
     4  Na   0.306872   0.022503
     5  Na   0.032563  -0.093207
     6  Na   0.025357  -0.029027
     7  Na   0.114365   0.124748
 Sum of Mulliken charges =  -0.00000   1.00000

 Dipole moment (field-independent basis, Debye):
    X=              0.0495    Y=             -0.0507    Z=              0.1621  Tot=              0.1770
 Quadrupole moment (field-independent basis, Debye-Ang):
   XX=            -59.5521   YY=            -66.8455   ZZ=            -69.6087
   XY=              0.9233   XZ=             -0.7136   YZ=             -1.8059

 Normal termination of Gaussian 16 at Tue Dec  5 21:46:53 2023.
