 Gaussian 16, Revision B.01,
 Gaussian 16:  ES64L-G16RevB.01 20-Dec-2017

 -------------------------
 #P B3LYP/6-311+g(d) force
 -------------------------

 -----
 DPGEN
 -----
 Symbolic Z-matrix:
 Charge =  0 Multiplicity = 2

                         Standard orientation:
 ---------------------------------------------------------------------
 Center     Atomic      Atomic             Coordinates (Angstroms)
 Number     Number       Type             X           Y           Z
 ---------------------------------------------------------------------
      1         11           0        3.075035    2.261438   -0.290655
      2         11           0        0.860923    0.297559    2.041963
      3         11           0       -5.577752    0.675178    0.353200
      4         11           0       -0.072770    1.043827   -1.519394
      5         11           0        0.677997   -2.176544   -0.737223
      6         11           0        3.976689   -1.166881    0.280816
      7         11           0       -2.940121   -0.934577   -0.128707
 ---------------------------------------------------------------------

 SCF Done:  E(UB3LYP) =  -1136.10897088     A.U. after   30 cycles

 The electronic state is 2-A.
 Alpha  occ. eigenvalues --  -38.47971 -38.45041 -38.44987 -38.43446 -38.43225
 Alpha  occ. eigenvalues --  -38.43100 -38.42640  -2.23710  -2.20893  -2.20804
 Alpha  occ. eigenvalues --   -2.19257  -2.19059  -2.18910  -2.18489  -1.17395
 Alpha  occ. eigenvalues --   -1.17360  -1.17334  -1.14566  -1.14544  -1.14484
 Alpha  occ. eigenvalues --   -1.14476  -1.14431  -1.14414  -1.12945  -1.12896
 Alpha  occ. eigenvalues --   -1.12892  -1.12755  -1.12741  -1.12655  -1.12597
 Alpha  occ. eigenvalues --   -1.12571  -1.12556  -1.12191  -1.12149  -1.12121
 Alpha  occ. eigenvalues --   -0.17792  -0.13685  -0.11407  -0.11031
 Alpha virt. eigenvalues --   -0.08026  -0.04960  -0.04559  -0.03276  -0.03177
 Alpha virt. eigenvalues --   -0.02437  -0.02278  -0.01946  -0.01311  -0.01002
 Alpha virt. eigenvalues --   -0.00285  -0.00030   0.00166   0.00544   0.00558

  Beta  occ. eigenvalues --  -38.47972 -38.44960 -38.44910 -38.43395 -38.43224
  Beta  occ. eigenvalues --  -38.43102 -38.42634  -2.23714  -2.20744  -2.20660
  Beta  occ. eigenvalues --   -2.19163  -2.19060  -2.18916  -2.18482  -1.17377
  Beta  occ. eigenvalues --   -1.17364  -1.17343  -1.14468  -1.14447  -1.14377
  Beta  occ. eigenvalues --   -1.14368  -1.14337  -1.14315  -1.12887  -1.12833
  Beta  occ. eigenvalues --   -1.12829  -1.12758  -1.12743  -1.12624  -1.12604
  Beta  occ. eigenvalues --   -1.12564  -1.12549  -1.12185  -1.12151  -1.12091
  Beta  occ. eigenvalues --   -0.17177  -0.13100  -0.10623
  Beta virt. eigenvalues --   -0.08018  -0.07800  -0.04716  -0.03988  -0.03042
  Beta virt. eigenvalues --   -0.02909  -0.02054  -0.01966  -0.01720  -0.01005
  Beta virt. eigenvalues --   -0.00704  -0.00193   0.00079   0.00239   0.00611

 Mulliken charges and spin densities:
               1          2
     1  Na   0.064199  -0.104181
     2  Na   0.076233   0.118898
     3  Na   0.492139  -0.010877
     4  Na  -0.013918   0.328311
     5  Na   0.011787   0.057933
     6  Na   0.166567   0.456975
     7  Na  -0.797007   0.152942
 Sum of Mulliken charges =  -0.00000   1.00000

 Dipole moment (field-independent basis, Debye):
    X=              1.5978    Y=              0.1610    Z=              0.9403  Tot=              1.8609
 Quadrupole moment (field-independent basis, Debye-Ang):
   XX=            -71.5988   YY=            -77.0603   ZZ=            -60.2984
   XY=             -4.5561   XZ=             -1.6843   YZ=              0.1577

 Normal termination of Gaussian 16 at Fri Dec  8 04:34:16 2023.
