 Gaussian 16, Revision B.01,
 Gaussian 16:  ES64L-G16RevB.01 20-Dec-2017

 -------------------------
 #P B3LYP/6-311+g(d) force
 -------------------------

 -----
 DPGEN
 -----
 Symbolic Z-matrix:
 Charge =  0 Multiplicity = 2

                         Standard orientation:
 ---------------------------------------------------------------------
 Center     Atomic      Atomic             Coordinates (Angstroms)
 Number     Number       Type             X           Y           Z
 ---------------------------------------------------------------------
      1         11           0       -3.052287    1.264901    0.228183
      2         11           0        3.150033   -1.992232   -0.194209
      3         11           0       -0.043701   -0.587588    1.939068
      4         11           0        3.298184    1.194812    0.347472
      5         11           0       -0.117685    2.430757   -0.413080
      6         11           0        0.229284   -0.419044   -1.735307
      7         11           0       -3.463828   -1.891605   -0.172128
 ---------------------------------------------------------------------

 SCF Done:  E(UB3LYP) =  -1136.11623462     A.U. after   27 cycles

 The electronic state is 2-A.
 Alpha  occ. eigenvalues --  -38.45505 -38.44959 -38.44782 -38.44183 -38.44170
 Alpha  occ. eigenvalues --  -38.44091 -38.42008  -2.21303  -2.20754  -2.20628
 Alpha  occ. eigenvalues --   -2.19990  -2.19965  -2.19945  -2.17906  -1.14974
 Alpha  occ. eigenvalues --   -1.14962  -1.14941  -1.14445  -1.14396  -1.14354
 Alpha  occ. eigenvalues --   -1.14302  -1.14287  -1.14283  -1.13668  -1.13657
 Alpha  occ. eigenvalues --   -1.13648  -1.13636  -1.13632  -1.13614  -1.13607
 Alpha  occ. eigenvalues --   -1.13588  -1.13558  -1.11605  -1.11566  -1.11543
 Alpha  occ. eigenvalues --   -0.18038  -0.13977  -0.11247  -0.10474
 Alpha virt. eigenvalues --   -0.07279  -0.06219  -0.03707  -0.03526  -0.02809
 Alpha virt. eigenvalues --   -0.02563  -0.02335  -0.01687  -0.00952  -0.00353
 Alpha virt. eigenvalues --   -0.00042   0.00130   0.00407   0.00495   0.00573

  Beta  occ. eigenvalues --  -38.45493 -38.44880 -38.44783 -38.44190 -38.44182
  Beta  occ. eigenvalues --  -38.44007 -38.42001  -2.21283  -2.20630  -2.20609
  Beta  occ. eigenvalues --   -2.19990  -2.19983  -2.19811  -2.17897  -1.14955
  Beta  occ. eigenvalues --   -1.14939  -1.14930  -1.14343  -1.14308  -1.14295
  Beta  occ. eigenvalues --   -1.14287  -1.14277  -1.14247  -1.13671  -1.13661
  Beta  occ. eigenvalues --   -1.13639  -1.13625  -1.13624  -1.13612  -1.13549
  Beta  occ. eigenvalues --   -1.13498  -1.13451  -1.11596  -1.11559  -1.11515
  Beta  occ. eigenvalues --   -0.17304  -0.13948  -0.11070
  Beta virt. eigenvalues --   -0.07043  -0.06610  -0.06169  -0.03540  -0.03046
  Beta virt. eigenvalues --   -0.02651  -0.01853  -0.01654  -0.01164  -0.01044
  Beta virt. eigenvalues --   -0.00173  -0.00017   0.00153   0.00576   0.00593

 Mulliken charges and spin densities:
               1          2
     1  Na   0.117862   0.018693
     2  Na   0.322936  -0.028857
     3  Na  -0.412903   0.501653
     4  Na   0.103011   0.107176
     5  Na   0.156756  -0.000489
     6  Na  -0.515975   0.535793
     7  Na   0.228313  -0.133969
 Sum of Mulliken charges =  -0.00000   1.00000

 Dipole moment (field-independent basis, Debye):
    X=              0.5613    Y=              0.0248    Z=              0.2853  Tot=              0.6301
 Quadrupole moment (field-independent basis, Debye-Ang):
   XX=            -50.4004   YY=            -68.9202   ZZ=            -76.1823
   XY=              0.3428   XZ=              0.7256   YZ=              1.3822

 Normal termination of Gaussian 16 at Thu Dec  7 14:17:08 2023.
