 Gaussian 16, Revision B.01,
 Gaussian 16:  ES64L-G16RevB.01 20-Dec-2017

 -------------------------
 #P B3LYP/6-311+g(d) force
 -------------------------

 -----
 DPGEN
 -----
 Symbolic Z-matrix:
 Charge =  0 Multiplicity = 2

                         Standard orientation:
 ---------------------------------------------------------------------
 Center     Atomic      Atomic             Coordinates (Angstroms)
 Number     Number       Type             X           Y           Z
 ---------------------------------------------------------------------
      1         11           0        0.272895   -2.899122    0.614852
      2         11           0        1.841787    2.221455    0.071906
      3         11           0       -0.375479   -0.515778   -1.593538
      4         11           0       -3.230386   -0.804020   -0.157586
      5         11           0       -1.451556    2.467078   -0.355113
      6         11           0        2.863225   -0.888314   -0.731386
      7         11           0        0.079515    0.418702    2.150865
 ---------------------------------------------------------------------

 SCF Done:  E(UB3LYP) =  -1136.13694069     A.U. after   20 cycles

 The electronic state is 2-A.
 Alpha  occ. eigenvalues --  -38.44070 -38.43873 -38.43723 -38.43612 -38.43598
 Alpha  occ. eigenvalues --  -38.43263 -38.43212  -2.19875  -2.19756  -2.19554
 Alpha  occ. eigenvalues --   -2.19461  -2.19456  -2.19181  -2.19144  -1.13571
 Alpha  occ. eigenvalues --   -1.13528  -1.13508  -1.13422  -1.13392  -1.13376
 Alpha  occ. eigenvalues --   -1.13239  -1.13220  -1.13185  -1.13156  -1.13148
 Alpha  occ. eigenvalues --   -1.13120  -1.13116  -1.13089  -1.13080  -1.12858
 Alpha  occ. eigenvalues --   -1.12825  -1.12822  -1.12804  -1.12797  -1.12778
 Alpha  occ. eigenvalues --   -0.18538  -0.12780  -0.12581  -0.11042
 Alpha virt. eigenvalues --   -0.05614  -0.04892  -0.04730  -0.03285  -0.03118
 Alpha virt. eigenvalues --   -0.02739  -0.01480  -0.01066  -0.00355  -0.00143
 Alpha virt. eigenvalues --    0.00002   0.00353   0.00823   0.00877   0.00898

  Beta  occ. eigenvalues --  -38.44070 -38.43777 -38.43707 -38.43593 -38.43592
  Beta  occ. eigenvalues --  -38.43258 -38.43164  -2.19877  -2.19579  -2.19528
  Beta  occ. eigenvalues --   -2.19446  -2.19429  -2.19139  -2.19093  -1.13566
  Beta  occ. eigenvalues --   -1.13527  -1.13507  -1.13306  -1.13270  -1.13250
  Beta  occ. eigenvalues --   -1.13220  -1.13182  -1.13166  -1.13145  -1.13117
  Beta  occ. eigenvalues --   -1.13102  -1.13092  -1.13071  -1.13065  -1.12813
  Beta  occ. eigenvalues --   -1.12798  -1.12790  -1.12763  -1.12757  -1.12736
  Beta  occ. eigenvalues --   -0.17819  -0.12519  -0.12374
  Beta virt. eigenvalues --   -0.07134  -0.05568  -0.04826  -0.04621  -0.02529
  Beta virt. eigenvalues --   -0.02437  -0.01719  -0.01371  -0.00989  -0.00318
  Beta virt. eigenvalues --   -0.00157   0.00117   0.00394   0.00848   0.00905

 Mulliken charges and spin densities:
               1          2
     1  Na  -0.035479   0.116904
     2  Na   0.181365   0.087848
     3  Na  -0.092302   0.301175
     4  Na   0.091180  -0.058323
     5  Na   0.065017  -0.063547
     6  Na   0.174903   0.020439
     7  Na  -0.384685   0.595504
 Sum of Mulliken charges =  -0.00000   1.00000

 Dipole moment (field-independent basis, Debye):
    X=             -0.3431    Y=             -0.1536    Z=              0.1982  Tot=              0.4249
 Quadrupole moment (field-independent basis, Debye-Ang):
   XX=            -58.6911   YY=            -63.1660   ZZ=            -72.4128
   XY=              0.1888   XZ=             -1.4146   YZ=             -1.9688

 Normal termination of Gaussian 16 at Wed Nov 29 17:27:36 2023.
