 Gaussian 16, Revision B.01,
 Gaussian 16:  ES64L-G16RevB.01 20-Dec-2017

 -------------------------
 #P B3LYP/6-311+g(d) force
 -------------------------

 -----
 DPGEN
 -----
 Symbolic Z-matrix:
 Charge =  0 Multiplicity = 2

                         Standard orientation:
 ---------------------------------------------------------------------
 Center     Atomic      Atomic             Coordinates (Angstroms)
 Number     Number       Type             X           Y           Z
 ---------------------------------------------------------------------
      1         11           0        1.620035    2.366603   -0.483218
      2         11           0       -2.304155   -2.814858    1.016298
      3         11           0       -2.243042    2.741820   -0.199090
      4         11           0       -0.058169   -1.293044   -0.808165
      5         11           0       -4.203605    0.267905    0.053669
      6         11           0        4.102223    0.784222    1.534778
      7         11           0        3.086713   -2.052647   -1.114273
 ---------------------------------------------------------------------

 SCF Done:  E(UB3LYP) =  -1136.11095960     A.U. after   24 cycles

 The electronic state is 2-A.
 Alpha  occ. eigenvalues --  -38.45358 -38.44983 -38.44982 -38.44193 -38.44065
 Alpha  occ. eigenvalues --  -38.43843 -38.43593  -2.21144  -2.20768  -2.20732
 Alpha  occ. eigenvalues --   -2.19994  -2.19853  -2.19682  -2.19388  -1.14811
 Alpha  occ. eigenvalues --   -1.14801  -1.14759  -1.14454  -1.14448  -1.14426
 Alpha  occ. eigenvalues --   -1.14414  -1.14389  -1.14351  -1.13641  -1.13634
 Alpha  occ. eigenvalues --   -1.13602  -1.13546  -1.13520  -1.13483  -1.13370
 Alpha  occ. eigenvalues --   -1.13333  -1.13313  -1.13061  -1.13055  -1.13026
 Alpha  occ. eigenvalues --   -0.16375  -0.13979  -0.12325  -0.10544
 Alpha virt. eigenvalues --   -0.07557  -0.05026  -0.04749  -0.03584  -0.03069
 Alpha virt. eigenvalues --   -0.02415  -0.02113  -0.01697  -0.01093  -0.00941
 Alpha virt. eigenvalues --   -0.00388  -0.00010   0.00200   0.00414   0.00534

  Beta  occ. eigenvalues --  -38.45310 -38.44982 -38.44969 -38.44095 -38.44058
  Beta  occ. eigenvalues --  -38.43825 -38.43587  -2.21059  -2.20767  -2.20713
  Beta  occ. eigenvalues --   -2.19839  -2.19812  -2.19651  -2.19375  -1.14747
  Beta  occ. eigenvalues --   -1.14738  -1.14697  -1.14455  -1.14445  -1.14417
  Beta  occ. eigenvalues --   -1.14396  -1.14386  -1.14311  -1.13543  -1.13517
  Beta  occ. eigenvalues --   -1.13511  -1.13506  -1.13485  -1.13464  -1.13352
  Beta  occ. eigenvalues --   -1.13314  -1.13275  -1.13057  -1.13047  -1.13013
  Beta  occ. eigenvalues --   -0.15930  -0.13453  -0.11892
  Beta virt. eigenvalues --   -0.07560  -0.07100  -0.04724  -0.04319  -0.03338
  Beta virt. eigenvalues --   -0.02690  -0.02191  -0.01829  -0.01205  -0.00964
  Beta virt. eigenvalues --   -0.00764  -0.00186   0.00101   0.00353   0.00563

 Mulliken charges and spin densities:
               1          2
     1  Na  -0.167761   0.129165
     2  Na   0.734558   0.131070
     3  Na   0.116727   0.003637
     4  Na  -1.369874   0.035521
     5  Na   0.201566   0.047456
     6  Na   0.122498   0.514292
     7  Na   0.362287   0.138860
 Sum of Mulliken charges =  -0.00000   1.00000

 Dipole moment (field-independent basis, Debye):
    X=              0.1964    Y=             -0.7820    Z=             -0.0751  Tot=              0.8098
 Quadrupole moment (field-independent basis, Debye-Ang):
   XX=            -57.1846   YY=            -69.3257   ZZ=            -71.4008
   XY=             -5.9923   XZ=             -3.1463   YZ=             -2.4437

 Normal termination of Gaussian 16 at Sun Dec  3 17:19:46 2023.
