 Gaussian 16, Revision B.01,
 Gaussian 16:  ES64L-G16RevB.01 20-Dec-2017

 -------------------------
 #P B3LYP/6-311+g(d) force
 -------------------------

 -----
 DPGEN
 -----
 Symbolic Z-matrix:
 Charge =  0 Multiplicity = 2

                         Standard orientation:
 ---------------------------------------------------------------------
 Center     Atomic      Atomic             Coordinates (Angstroms)
 Number     Number       Type             X           Y           Z
 ---------------------------------------------------------------------
      1         11           0        2.815235    0.948037    1.033522
      2         11           0        1.514366    3.510749   -0.402785
      3         11           0       -3.921715    0.655274   -0.914269
      4         11           0        4.343979   -1.994645   -0.116121
      5         11           0       -5.774075   -1.285055    0.789378
      6         11           0       -0.320262    1.027489    0.180184
      7         11           0        1.342473   -2.861849   -0.569908
 ---------------------------------------------------------------------

 SCF Done:  E(UB3LYP) =  -1136.11394226     A.U. after   19 cycles

 The electronic state is 2-A.
 Alpha  occ. eigenvalues --  -38.44638 -38.44473 -38.44250 -38.44035 -38.43969
 Alpha  occ. eigenvalues --  -38.43859 -38.43672  -2.20483  -2.20268  -2.20135
 Alpha  occ. eigenvalues --   -2.19858  -2.19767  -2.19741  -2.19458  -1.14158
 Alpha  occ. eigenvalues --   -1.14152  -1.14130  -1.13937  -1.13924  -1.13911
 Alpha  occ. eigenvalues --   -1.13839  -1.13805  -1.13728  -1.13516  -1.13512
 Alpha  occ. eigenvalues --   -1.13496  -1.13427  -1.13424  -1.13411  -1.13408
 Alpha  occ. eigenvalues --   -1.13393  -1.13344  -1.13131  -1.13120  -1.13104
 Alpha  occ. eigenvalues --   -0.16780  -0.13526  -0.12839  -0.10275
 Alpha virt. eigenvalues --   -0.06368  -0.06061  -0.04204  -0.03918  -0.02791
 Alpha virt. eigenvalues --   -0.02444  -0.02056  -0.01450  -0.01104  -0.00696
 Alpha virt. eigenvalues --   -0.00170  -0.00136  -0.00058   0.00373   0.00599

  Beta  occ. eigenvalues --  -38.44634 -38.44440 -38.44209 -38.44023 -38.43912
  Beta  occ. eigenvalues --  -38.43813 -38.43684  -2.20478  -2.20207  -2.20061
  Beta  occ. eigenvalues --   -2.19837  -2.19661  -2.19656  -2.19484  -1.14156
  Beta  occ. eigenvalues --   -1.14132  -1.14126  -1.13897  -1.13883  -1.13866
  Beta  occ. eigenvalues --   -1.13771  -1.13758  -1.13677  -1.13503  -1.13486
  Beta  occ. eigenvalues --   -1.13478  -1.13367  -1.13361  -1.13339  -1.13338
  Beta  occ. eigenvalues --   -1.13335  -1.13282  -1.13153  -1.13139  -1.13085
  Beta  occ. eigenvalues --   -0.16232  -0.13195  -0.12522
  Beta virt. eigenvalues --   -0.07050  -0.06003  -0.05498  -0.03871  -0.03558
  Beta virt. eigenvalues --   -0.02457  -0.02348  -0.01946  -0.01094  -0.01040
  Beta virt. eigenvalues --   -0.00361   0.00010   0.00110   0.00171   0.00537

 Mulliken charges and spin densities:
               1          2
     1  Na   0.350484   0.474002
     2  Na   1.045652   0.182524
     3  Na  -0.298160  -0.082628
     4  Na   0.455551   0.136397
     5  Na   0.085697   0.221673
     6  Na  -1.555689  -0.059148
     7  Na  -0.083534   0.127179
 Sum of Mulliken charges =  -0.00000   1.00000

 Dipole moment (field-independent basis, Debye):
    X=              1.2590    Y=              0.4488    Z=             -0.2955  Tot=              1.3689
 Quadrupole moment (field-independent basis, Debye-Ang):
   XX=            -70.9699   YY=            -58.7663   ZZ=            -69.1113
   XY=              2.2884   XZ=             -3.0265   YZ=             -4.5482

 Normal termination of Gaussian 16 at Tue Nov 28 19:05:36 2023.
