 Gaussian 16, Revision B.01,
 Gaussian 16:  ES64L-G16RevB.01 20-Dec-2017

 -------------------------
 #P B3LYP/6-311+g(d) force
 -------------------------

 -----
 DPGEN
 -----
 Symbolic Z-matrix:
 Charge =  0 Multiplicity = 2

                         Standard orientation:
 ---------------------------------------------------------------------
 Center     Atomic      Atomic             Coordinates (Angstroms)
 Number     Number       Type             X           Y           Z
 ---------------------------------------------------------------------
      1         11           0        1.692208    2.398868   -0.208902
      2         11           0       -0.010090   -0.212751   -1.484904
      3         11           0        3.062254   -0.818140   -0.126785
      4         11           0        0.265298    0.130320    2.118717
      5         11           0       -1.855322    2.455715   -0.227129
      6         11           0        0.067976   -2.971071   -0.147552
      7         11           0       -3.222323   -0.982941    0.076555
 ---------------------------------------------------------------------

 SCF Done:  E(UB3LYP) =  -1136.13745665     A.U. after   19 cycles

 The electronic state is 2-A.
 Alpha  occ. eigenvalues --  -38.44305 -38.44008 -38.43669 -38.43607 -38.43523
 Alpha  occ. eigenvalues --  -38.43435 -38.42986  -2.20080  -2.19844  -2.19485
 Alpha  occ. eigenvalues --   -2.19453  -2.19393  -2.19298  -2.18989  -1.13757
 Alpha  occ. eigenvalues --   -1.13733  -1.13724  -1.13522  -1.13504  -1.13484
 Alpha  occ. eigenvalues --   -1.13195  -1.13168  -1.13150  -1.13122  -1.13109
 Alpha  occ. eigenvalues --   -1.13061  -1.13060  -1.13021  -1.13008  -1.12984
 Alpha  occ. eigenvalues --   -1.12953  -1.12925  -1.12674  -1.12631  -1.12598
 Alpha  occ. eigenvalues --   -0.18470  -0.12825  -0.12537  -0.10506
 Alpha virt. eigenvalues --   -0.05813  -0.05247  -0.04822  -0.02961  -0.02820
 Alpha virt. eigenvalues --   -0.02454  -0.01662  -0.01211  -0.00576  -0.00483
 Alpha virt. eigenvalues --   -0.00010   0.00334   0.00776   0.00838   0.00864

  Beta  occ. eigenvalues --  -38.44307 -38.44003 -38.43665 -38.43602 -38.43428
  Beta  occ. eigenvalues --  -38.43420 -38.42932  -2.20083  -2.19838  -2.19481
  Beta  occ. eigenvalues --   -2.19446  -2.19288  -2.19202  -2.18891  -1.13746
  Beta  occ. eigenvalues --   -1.13737  -1.13729  -1.13513  -1.13486  -1.13478
  Beta  occ. eigenvalues --   -1.13183  -1.13159  -1.13135  -1.13121  -1.13085
  Beta  occ. eigenvalues --   -1.13059  -1.12983  -1.12940  -1.12923  -1.12920
  Beta  occ. eigenvalues --   -1.12876  -1.12871  -1.12603  -1.12560  -1.12527
  Beta  occ. eigenvalues --   -0.17752  -0.12636  -0.12297
  Beta virt. eigenvalues --   -0.06564  -0.05784  -0.05256  -0.04764  -0.02242
  Beta virt. eigenvalues --   -0.02051  -0.01582  -0.01350  -0.01139  -0.00621
  Beta virt. eigenvalues --   -0.00539   0.00149   0.00370   0.00815   0.00854

 Mulliken charges and spin densities:
               1          2
     1  Na   0.253776  -0.002580
     2  Na  -0.280010   0.333109
     3  Na   0.316838  -0.004641
     4  Na  -0.575674   0.831978
     5  Na   0.074523  -0.051123
     6  Na   0.192222  -0.059844
     7  Na   0.018326  -0.046897
 Sum of Mulliken charges =  -0.00000   1.00000

 Dipole moment (field-independent basis, Debye):
    X=             -0.1115    Y=             -0.1418    Z=              0.1581  Tot=              0.2399
 Quadrupole moment (field-independent basis, Debye-Ang):
   XX=            -54.7665   YY=            -61.4864   ZZ=            -76.0184
   XY=             -0.0322   XZ=             -0.7878   YZ=             -0.8404

 Normal termination of Gaussian 16 at Thu Dec  7 06:44:38 2023.
