 Gaussian 16, Revision B.01,
 Gaussian 16:  ES64L-G16RevB.01 20-Dec-2017

 -------------------------
 #P B3LYP/6-311+g(d) force
 -------------------------

 -----
 DPGEN
 -----
 Symbolic Z-matrix:
 Charge =  0 Multiplicity = 2

                         Standard orientation:
 ---------------------------------------------------------------------
 Center     Atomic      Atomic             Coordinates (Angstroms)
 Number     Number       Type             X           Y           Z
 ---------------------------------------------------------------------
      1         11           0       -0.085147   -2.815794   -0.376238
      2         11           0       -3.319497   -0.729617    0.052860
      3         11           0       -0.231353   -0.073679    2.212808
      4         11           0       -1.567442    2.282501   -0.325421
      5         11           0        1.926346    2.687241    0.176828
      6         11           0        2.884849   -1.503585    0.195577
      7         11           0        0.392244    0.152934   -1.936414
 ---------------------------------------------------------------------

 SCF Done:  E(UB3LYP) =  -1136.13564957     A.U. after   19 cycles

 The electronic state is 2-A.
 Alpha  occ. eigenvalues --  -38.44216 -38.44051 -38.43792 -38.43770 -38.43739
 Alpha  occ. eigenvalues --  -38.43558 -38.43533  -2.20044  -2.19854  -2.19684
 Alpha  occ. eigenvalues --   -2.19555  -2.19524  -2.19413  -2.19380  -1.13704
 Alpha  occ. eigenvalues --   -1.13679  -1.13659  -1.13523  -1.13521  -1.13502
 Alpha  occ. eigenvalues --   -1.13368  -1.13330  -1.13313  -1.13226  -1.13209
 Alpha  occ. eigenvalues --   -1.13207  -1.13194  -1.13191  -1.13173  -1.13103
 Alpha  occ. eigenvalues --   -1.13080  -1.13064  -1.13044  -1.13014  -1.12998
 Alpha  occ. eigenvalues --   -0.18051  -0.12732  -0.12242  -0.11018
 Alpha virt. eigenvalues --   -0.05513  -0.05357  -0.04772  -0.03304  -0.03119
 Alpha virt. eigenvalues --   -0.02888  -0.01478  -0.01254  -0.00388  -0.00327
 Alpha virt. eigenvalues --   -0.00083   0.00370   0.00729   0.00817   0.00841

  Beta  occ. eigenvalues --  -38.44123 -38.44050 -38.43770 -38.43742 -38.43720
  Beta  occ. eigenvalues --  -38.43549 -38.43523  -2.19871  -2.19854  -2.19558
  Beta  occ. eigenvalues --   -2.19551  -2.19531  -2.19400  -2.19366  -1.13589
  Beta  occ. eigenvalues --   -1.13558  -1.13534  -1.13524  -1.13509  -1.13497
  Beta  occ. eigenvalues --   -1.13284  -1.13239  -1.13230  -1.13218  -1.13206
  Beta  occ. eigenvalues --   -1.13200  -1.13193  -1.13182  -1.13178  -1.13084
  Beta  occ. eigenvalues --   -1.13054  -1.13047  -1.13017  -1.13011  -1.12992
  Beta  occ. eigenvalues --   -0.17289  -0.12538  -0.12086
  Beta virt. eigenvalues --   -0.07109  -0.05447  -0.05289  -0.04674  -0.02522
  Beta virt. eigenvalues --   -0.02387  -0.01913  -0.01379  -0.01191  -0.00418
  Beta virt. eigenvalues --   -0.00358   0.00069   0.00390   0.00808   0.00832

 Mulliken charges and spin densities:
               1          2
     1  Na   0.160411  -0.032642
     2  Na   0.055470  -0.076212
     3  Na  -0.479639   0.807838
     4  Na   0.195266  -0.036813
     5  Na   0.015318  -0.088498
     6  Na   0.051174  -0.072466
     7  Na   0.001999   0.498794
 Sum of Mulliken charges =  -0.00000   1.00000

 Dipole moment (field-independent basis, Debye):
    X=              0.2805    Y=             -0.0407    Z=              0.1491  Tot=              0.3203
 Quadrupole moment (field-independent basis, Debye-Ang):
   XX=            -58.4701   YY=            -64.1194   ZZ=            -72.3732
   XY=              0.9663   XZ=              1.5647   YZ=              0.5549

 Normal termination of Gaussian 16 at Fri Dec  8 03:51:41 2023.
