 Gaussian 16, Revision B.01,
 Gaussian 16:  ES64L-G16RevB.01 20-Dec-2017

 -------------------------
 #P B3LYP/6-311+g(d) force
 -------------------------

 -----
 DPGEN
 -----
 Symbolic Z-matrix:
 Charge =  0 Multiplicity = 2

                         Standard orientation:
 ---------------------------------------------------------------------
 Center     Atomic      Atomic             Coordinates (Angstroms)
 Number     Number       Type             X           Y           Z
 ---------------------------------------------------------------------
      1         11           0        0.434005    0.260704    2.094751
      2         11           0        0.477089   -0.197089   -1.829782
      3         11           0        1.579282    2.631576    0.105911
      4         11           0       -1.677333    2.256830   -0.479070
      5         11           0        3.312220   -1.517483   -0.127431
      6         11           0       -0.998914   -2.867766    0.071318
      7         11           0       -3.126349   -0.566772    0.164303
 ---------------------------------------------------------------------

 SCF Done:  E(UB3LYP) =  -1136.13082332     A.U. after   20 cycles

 The electronic state is 2-A.
 Alpha  occ. eigenvalues --  -38.44526 -38.44016 -38.43965 -38.43947 -38.43720
 Alpha  occ. eigenvalues --  -38.43636 -38.43379  -2.20273  -2.19834  -2.19810
 Alpha  occ. eigenvalues --   -2.19799  -2.19572  -2.19515  -2.19251  -1.13950
 Alpha  occ. eigenvalues --   -1.13929  -1.13915  -1.13537  -1.13531  -1.13502
 Alpha  occ. eigenvalues --   -1.13476  -1.13475  -1.13448  -1.13444  -1.13414
 Alpha  occ. eigenvalues --   -1.13407  -1.13254  -1.13220  -1.13214  -1.13192
 Alpha  occ. eigenvalues --   -1.13156  -1.13135  -1.12918  -1.12908  -1.12887
 Alpha  occ. eigenvalues --   -0.18145  -0.12886  -0.12366  -0.10815
 Alpha virt. eigenvalues --   -0.06185  -0.05301  -0.04499  -0.03238  -0.03038
 Alpha virt. eigenvalues --   -0.02735  -0.01761  -0.01273  -0.00487  -0.00342
 Alpha virt. eigenvalues --   -0.00057   0.00333   0.00734   0.00794   0.00844

  Beta  occ. eigenvalues --  -38.44527 -38.44013 -38.43958 -38.43855 -38.43719
  Beta  occ. eigenvalues --  -38.43567 -38.43366  -2.20277  -2.19831  -2.19802
  Beta  occ. eigenvalues --   -2.19629  -2.19571  -2.19390  -2.19231  -1.13941
  Beta  occ. eigenvalues --   -1.13931  -1.13920  -1.13538  -1.13500  -1.13481
  Beta  occ. eigenvalues --   -1.13475  -1.13447  -1.13443  -1.13339  -1.13301
  Beta  occ. eigenvalues --   -1.13296  -1.13255  -1.13216  -1.13203  -1.13109
  Beta  occ. eigenvalues --   -1.13070  -1.13041  -1.12905  -1.12884  -1.12864
  Beta  occ. eigenvalues --   -0.17421  -0.12670  -0.12161
  Beta virt. eigenvalues --   -0.06945  -0.06180  -0.05125  -0.04476  -0.02495
  Beta virt. eigenvalues --   -0.02311  -0.01833  -0.01568  -0.01189  -0.00528
  Beta virt. eigenvalues --   -0.00369   0.00092   0.00373   0.00759   0.00865

 Mulliken charges and spin densities:
               1          2
     1  Na  -0.337112   0.649674
     2  Na  -0.052661   0.484873
     3  Na   0.284976  -0.036934
     4  Na   0.129308   0.116642
     5  Na  -0.026390  -0.157405
     6  Na   0.065511  -0.063294
     7  Na  -0.063633   0.006443
 Sum of Mulliken charges =  -0.00000   1.00000

 Dipole moment (field-independent basis, Debye):
    X=              0.5663    Y=             -0.1498    Z=              0.1104  Tot=              0.5961
 Quadrupole moment (field-independent basis, Debye-Ang):
   XX=            -57.9539   YY=            -62.8272   ZZ=            -74.0898
   XY=             -0.2050   XZ=              0.2394   YZ=             -1.0937

 Normal termination of Gaussian 16 at Tue Dec  5 12:12:09 2023.
