 Gaussian 16, Revision B.01,
 Gaussian 16:  ES64L-G16RevB.01 20-Dec-2017

 -------------------------
 #P B3LYP/6-311+g(d) force
 -------------------------

 -----
 DPGEN
 -----
 Symbolic Z-matrix:
 Charge =  0 Multiplicity = 2

                         Standard orientation:
 ---------------------------------------------------------------------
 Center     Atomic      Atomic             Coordinates (Angstroms)
 Number     Number       Type             X           Y           Z
 ---------------------------------------------------------------------
      1         11           0       -0.145291    1.303215    0.429844
      2         11           0        1.142806    4.266531   -0.354151
      3         11           0        2.892478    0.649741    0.122625
      4         11           0        0.901684   -2.221061    0.310987
      5         11           0       -2.565599   -0.842157    1.384800
      6         11           0        3.890036   -2.601188   -0.819460
      7         11           0       -6.116115   -0.555081   -1.074644
 ---------------------------------------------------------------------

 SCF Done:  E(UB3LYP) =  -1136.11845392     A.U. after   20 cycles

 The electronic state is 2-A.
 Alpha  occ. eigenvalues --  -38.44940 -38.44896 -38.44256 -38.44246 -38.44203
 Alpha  occ. eigenvalues --  -38.43276 -38.43221  -2.20735  -2.20717  -2.20072
 Alpha  occ. eigenvalues --   -2.20056  -2.20036  -2.19191  -2.19000  -1.14490
 Alpha  occ. eigenvalues --   -1.14431  -1.14344  -1.14343  -1.14316  -1.14291
 Alpha  occ. eigenvalues --   -1.13773  -1.13758  -1.13751  -1.13722  -1.13713
 Alpha  occ. eigenvalues --   -1.13708  -1.13701  -1.13651  -1.13605  -1.12931
 Alpha  occ. eigenvalues --   -1.12876  -1.12778  -1.12683  -1.12670  -1.12628
 Alpha  occ. eigenvalues --   -0.16959  -0.13245  -0.12753  -0.11135
 Alpha virt. eigenvalues --   -0.06450  -0.05341  -0.04479  -0.03965  -0.02539
 Alpha virt. eigenvalues --   -0.02211  -0.01954  -0.01626  -0.01562  -0.00891
 Alpha virt. eigenvalues --   -0.00503  -0.00067  -0.00040   0.00316   0.00555

  Beta  occ. eigenvalues --  -38.44894 -38.44787 -38.44247 -38.44231 -38.44188
  Beta  occ. eigenvalues --  -38.43264 -38.43232  -2.20733  -2.20431  -2.20044
  Beta  occ. eigenvalues --   -2.20031  -2.20019  -2.19171  -2.19025  -1.14482
  Beta  occ. eigenvalues --   -1.14429  -1.14290  -1.14150  -1.14149  -1.14124
  Beta  occ. eigenvalues --   -1.13756  -1.13741  -1.13736  -1.13704  -1.13702
  Beta  occ. eigenvalues --   -1.13689  -1.13687  -1.13641  -1.13578  -1.12923
  Beta  occ. eigenvalues --   -1.12865  -1.12760  -1.12699  -1.12687  -1.12615
  Beta  occ. eigenvalues --   -0.16714  -0.12972  -0.12045
  Beta virt. eigenvalues --   -0.07243  -0.06256  -0.04929  -0.04392  -0.03797
  Beta virt. eigenvalues --   -0.02464  -0.01837  -0.01605  -0.01342  -0.00991
  Beta virt. eigenvalues --   -0.00594  -0.00061   0.00042   0.00213   0.00504

 Mulliken charges and spin densities:
               1          2
     1  Na  -1.710704   0.077944
     2  Na   0.325833   0.000061
     3  Na  -0.272376   0.092243
     4  Na  -0.176235   0.072279
     5  Na   0.918397  -0.163365
     6  Na   0.795877   0.086657
     7  Na   0.119208   0.834180
 Sum of Mulliken charges =  -0.00000   1.00000

 Dipole moment (field-independent basis, Debye):
    X=              2.0057    Y=              0.0691    Z=             -0.4622  Tot=              2.0594
 Quadrupole moment (field-independent basis, Debye-Ang):
   XX=            -67.3018   YY=            -57.6543   ZZ=            -71.3560
   XY=             -4.2658   XZ=             -1.7710   YZ=             -0.0831

 Normal termination of Gaussian 16 at Tue Nov 28 19:55:42 2023.
