 Gaussian 16, Revision B.01,
 Gaussian 16:  ES64L-G16RevB.01 20-Dec-2017

 -------------------------
 #P B3LYP/6-311+g(d) force
 -------------------------

 -----
 DPGEN
 -----
 Symbolic Z-matrix:
 Charge =  0 Multiplicity = 2

                         Standard orientation:
 ---------------------------------------------------------------------
 Center     Atomic      Atomic             Coordinates (Angstroms)
 Number     Number       Type             X           Y           Z
 ---------------------------------------------------------------------
      1         11           0       -1.751992    2.376211   -0.107907
      2         11           0       -2.607876   -1.605291   -0.193550
      3         11           0       -0.776677    0.065162    1.974641
      4         11           0        2.948489   -0.600572    0.343124
      5         11           0        1.628318    2.200259   -0.156181
      6         11           0       -0.138649    0.099778   -1.650536
      7         11           0        0.698388   -2.535548   -0.209592
 ---------------------------------------------------------------------

 SCF Done:  E(UB3LYP) =  -1136.13337080     A.U. after   19 cycles

 The electronic state is 2-A.
 Alpha  occ. eigenvalues --  -38.43825 -38.43659 -38.43581 -38.43571 -38.43509
 Alpha  occ. eigenvalues --  -38.43395 -38.43156  -2.19691  -2.19548  -2.19495
 Alpha  occ. eigenvalues --   -2.19475  -2.19420  -2.19326  -2.19207  -1.13380
 Alpha  occ. eigenvalues --   -1.13368  -1.13325  -1.13271  -1.13242  -1.13241
 Alpha  occ. eigenvalues --   -1.13206  -1.13180  -1.13144  -1.13127  -1.13111
 Alpha  occ. eigenvalues --   -1.13106  -1.13101  -1.13056  -1.13054  -1.13007
 Alpha  occ. eigenvalues --   -1.12963  -1.12916  -1.12856  -1.12815  -1.12811
 Alpha  occ. eigenvalues --   -0.19240  -0.13110  -0.12878  -0.10946
 Alpha virt. eigenvalues --   -0.05472  -0.05096  -0.04525  -0.03271  -0.03091
 Alpha virt. eigenvalues --   -0.02552  -0.01315  -0.01116  -0.00081  -0.00029
 Alpha virt. eigenvalues --    0.00051   0.00357   0.00889   0.00904   0.00989

  Beta  occ. eigenvalues --  -38.43818 -38.43652 -38.43576 -38.43503 -38.43485
  Beta  occ. eigenvalues --  -38.43387 -38.43082  -2.19683  -2.19539  -2.19468
  Beta  occ. eigenvalues --   -2.19413  -2.19337  -2.19314  -2.19072  -1.13374
  Beta  occ. eigenvalues --   -1.13334  -1.13321  -1.13258  -1.13241  -1.13202
  Beta  occ. eigenvalues --   -1.13194  -1.13176  -1.13105  -1.13086  -1.13049
  Beta  occ. eigenvalues --   -1.13036  -1.13026  -1.13005  -1.13000  -1.12998
  Beta  occ. eigenvalues --   -1.12933  -1.12913  -1.12770  -1.12726  -1.12717
  Beta  occ. eigenvalues --   -0.18510  -0.12868  -0.12593
  Beta virt. eigenvalues --   -0.07016  -0.05473  -0.05003  -0.04519  -0.02478
  Beta virt. eigenvalues --   -0.02257  -0.01498  -0.01251  -0.01058  -0.00105
  Beta virt. eigenvalues --   -0.00036   0.00152   0.00387   0.00896   0.00911

 Mulliken charges and spin densities:
               1          2
     1  Na   0.318709  -0.092709
     2  Na   0.319510  -0.095843
     3  Na  -0.639496   0.712007
     4  Na  -0.157397  -0.002916
     5  Na   0.270593   0.081019
     6  Na  -0.412734   0.303498
     7  Na   0.300815   0.094944
 Sum of Mulliken charges =  -0.00000   1.00000

 Dipole moment (field-independent basis, Debye):
    X=             -0.3967    Y=              0.0780    Z=              0.1917  Tot=              0.4475
 Quadrupole moment (field-independent basis, Debye-Ang):
   XX=            -58.5764   YY=            -62.7739   ZZ=            -73.2735
   XY=              0.3533   XZ=              1.4663   YZ=              0.0613

 Normal termination of Gaussian 16 at Thu Dec  7 09:00:38 2023.
