 Gaussian 16, Revision B.01,
 Gaussian 16:  ES64L-G16RevB.01 20-Dec-2017

 -------------------------
 #P B3LYP/6-311+g(d) force
 -------------------------

 -----
 DPGEN
 -----
 Symbolic Z-matrix:
 Charge =  0 Multiplicity = 2

                         Standard orientation:
 ---------------------------------------------------------------------
 Center     Atomic      Atomic             Coordinates (Angstroms)
 Number     Number       Type             X           Y           Z
 ---------------------------------------------------------------------
      1         11           0       -1.328340   -2.019771   -1.236441
      2         11           0       -4.132503   -0.248864    0.985479
      3         11           0        4.708697   -0.111981    0.910402
      4         11           0       -0.055946   -0.498962    1.910894
      5         11           0        1.849760   -0.814223   -1.332986
      6         11           0        1.028438    1.917247   -0.595621
      7         11           0       -2.070107    1.776554   -0.641727
 ---------------------------------------------------------------------

 SCF Done:  E(UB3LYP) =  -1136.10624150     A.U. after   50 cycles

 The electronic state is 2-A.
 Alpha  occ. eigenvalues --  -38.47389 -38.45261 -38.44820 -38.43986 -38.43426
 Alpha  occ. eigenvalues --  -38.42909 -38.42612  -2.23132  -2.21033  -2.20616
 Alpha  occ. eigenvalues --   -2.19887  -2.19244  -2.18783  -2.18538  -1.16815
 Alpha  occ. eigenvalues --   -1.16782  -1.16758  -1.14685  -1.14674  -1.14634
 Alpha  occ. eigenvalues --   -1.14287  -1.14265  -1.14230  -1.13628  -1.13533
 Alpha  occ. eigenvalues --   -1.13517  -1.12927  -1.12903  -1.12872  -1.12496
 Alpha  occ. eigenvalues --   -1.12451  -1.12426  -1.12233  -1.12188  -1.12133
 Alpha  occ. eigenvalues --   -0.17988  -0.13985  -0.11351  -0.10772
 Alpha virt. eigenvalues --   -0.07876  -0.05515  -0.04172  -0.03333  -0.03081
 Alpha virt. eigenvalues --   -0.02331  -0.02302  -0.01883  -0.01088  -0.00504
 Alpha virt. eigenvalues --   -0.00286   0.00133   0.00267   0.00495   0.00637

  Beta  occ. eigenvalues --  -38.47382 -38.45166 -38.44776 -38.43965 -38.43404
  Beta  occ. eigenvalues --  -38.42903 -38.42600  -2.23118  -2.20856  -2.20534
  Beta  occ. eigenvalues --   -2.19856  -2.19207  -2.18776  -2.18517  -1.16800
  Beta  occ. eigenvalues --   -1.16774  -1.16750  -1.14564  -1.14553  -1.14518
  Beta  occ. eigenvalues --   -1.14231  -1.14208  -1.14176  -1.13606  -1.13512
  Beta  occ. eigenvalues --   -1.13455  -1.12896  -1.12876  -1.12838  -1.12480
  Beta  occ. eigenvalues --   -1.12447  -1.12417  -1.12212  -1.12180  -1.12114
  Beta  occ. eigenvalues --   -0.17517  -0.13322  -0.10546
  Beta virt. eigenvalues --   -0.07917  -0.07546  -0.04814  -0.04118  -0.03002
  Beta virt. eigenvalues --   -0.02898  -0.02044  -0.01784  -0.01503  -0.00839
  Beta virt. eigenvalues --   -0.00247  -0.00111   0.00254   0.00312   0.00612

 Mulliken charges and spin densities:
               1          2
     1  Na  -0.063773  -0.030764
     2  Na   0.554619   0.247601
     3  Na   0.135975   0.502091
     4  Na  -0.305938   0.025657
     5  Na   0.170577   0.113675
     6  Na  -0.078526   0.108351
     7  Na  -0.412932   0.033389
 Sum of Mulliken charges =  -0.00000   1.00000

 Dipole moment (field-independent basis, Debye):
    X=             -0.0287    Y=             -0.5850    Z=              1.2887  Tot=              1.4156
 Quadrupole moment (field-independent basis, Debye-Ang):
   XX=            -54.3789   YY=            -84.0940   ZZ=            -61.3639
   XY=              1.8573   XZ=              0.1986   YZ=              0.6312

 Normal termination of Gaussian 16 at Fri Dec  8 07:18:22 2023.
