 Gaussian 16, Revision B.01,
 Gaussian 16:  ES64L-G16RevB.01 20-Dec-2017

 -------------------------
 #P B3LYP/6-311+g(d) force
 -------------------------

 -----
 DPGEN
 -----
 Symbolic Z-matrix:
 Charge =  0 Multiplicity = 2

                         Standard orientation:
 ---------------------------------------------------------------------
 Center     Atomic      Atomic             Coordinates (Angstroms)
 Number     Number       Type             X           Y           Z
 ---------------------------------------------------------------------
      1         11           0        3.247307   -0.677327    0.208725
      2         11           0       -0.193810    0.630707    1.813215
      3         11           0       -2.894376   -1.276045    0.427582
      4         11           0       -2.574142    1.856508   -0.423447
      5         11           0       -0.136758   -0.282490   -1.750289
      6         11           0        2.058695    2.230820   -0.180240
      7         11           0        0.493084   -2.482174   -0.095545
 ---------------------------------------------------------------------

 SCF Done:  E(UB3LYP) =  -1136.12837668     A.U. after   19 cycles

 The electronic state is 2-A.
 Alpha  occ. eigenvalues --  -38.44704 -38.44407 -38.44063 -38.43599 -38.43594
 Alpha  occ. eigenvalues --  -38.43444 -38.42660  -2.20548  -2.20258  -2.19906
 Alpha  occ. eigenvalues --   -2.19497  -2.19440  -2.19424  -2.18591  -1.14228
 Alpha  occ. eigenvalues --   -1.14204  -1.14194  -1.13932  -1.13923  -1.13896
 Alpha  occ. eigenvalues --   -1.13571  -1.13561  -1.13551  -1.13209  -1.13187
 Alpha  occ. eigenvalues --   -1.13149  -1.13124  -1.13107  -1.13090  -1.13074
 Alpha  occ. eigenvalues --   -1.13055  -1.13010  -1.12300  -1.12227  -1.12191
 Alpha  occ. eigenvalues --   -0.18790  -0.13810  -0.11844  -0.10642
 Alpha virt. eigenvalues --   -0.06333  -0.05608  -0.03807  -0.03581  -0.02663
 Alpha virt. eigenvalues --   -0.02306  -0.02077  -0.01245  -0.00429  -0.00102
 Alpha virt. eigenvalues --    0.00007   0.00316   0.00683   0.00803   0.00827

  Beta  occ. eigenvalues --  -38.44703 -38.44395 -38.44052 -38.43592 -38.43532
  Beta  occ. eigenvalues --  -38.43366 -38.42652  -2.20548  -2.20238  -2.19888
  Beta  occ. eigenvalues --   -2.19439  -2.19375  -2.19283  -2.18581  -1.14230
  Beta  occ. eigenvalues --   -1.14203  -1.14183  -1.13921  -1.13895  -1.13877
  Beta  occ. eigenvalues --   -1.13558  -1.13543  -1.13525  -1.13134  -1.13108
  Beta  occ. eigenvalues --   -1.13102  -1.13085  -1.13073  -1.13040  -1.13011
  Beta  occ. eigenvalues --   -1.12958  -1.12911  -1.12281  -1.12204  -1.12179
  Beta  occ. eigenvalues --   -0.18068  -0.13596  -0.11612
  Beta virt. eigenvalues --   -0.06763  -0.06240  -0.05574  -0.03791  -0.02821
  Beta virt. eigenvalues --   -0.01995  -0.01903  -0.01341  -0.01097  -0.00462
  Beta virt. eigenvalues --   -0.00090   0.00127   0.00348   0.00751   0.00822

 Mulliken charges and spin densities:
               1          2
     1  Na  -0.074486  -0.020986
     2  Na  -0.393457   0.452458
     3  Na   0.148519   0.083957
     4  Na   0.111906  -0.043781
     5  Na  -0.350803   0.506451
     6  Na   0.230942  -0.042624
     7  Na   0.327379   0.064525
 Sum of Mulliken charges =  -0.00000   1.00000

 Dipole moment (field-independent basis, Debye):
    X=             -0.1323    Y=              0.1605    Z=              0.1873  Tot=              0.2799
 Quadrupole moment (field-independent basis, Debye-Ang):
   XX=            -50.1359   YY=            -68.3785   ZZ=            -74.7184
   XY=             -0.3082   XZ=              0.1508   YZ=             -2.7791

 Normal termination of Gaussian 16 at Tue Dec  5 10:56:11 2023.
