 Gaussian 16, Revision B.01,
 Gaussian 16:  ES64L-G16RevB.01 20-Dec-2017

 -------------------------
 #P B3LYP/6-311+g(d) force
 -------------------------

 -----
 DPGEN
 -----
 Symbolic Z-matrix:
 Charge =  0 Multiplicity = 2

                         Standard orientation:
 ---------------------------------------------------------------------
 Center     Atomic      Atomic             Coordinates (Angstroms)
 Number     Number       Type             X           Y           Z
 ---------------------------------------------------------------------
      1         11           0       -1.841582    2.491289   -0.521425
      2         11           0       -0.064335   -0.400408    1.158664
      3         11           0        1.634267   -2.667175    0.000751
      4         11           0        2.407440    2.564187   -0.153103
      5         11           0       -4.093697    0.323665    0.535727
      6         11           0       -2.265807   -2.132091   -0.922340
      7         11           0        4.223714   -0.179467   -0.098274
 ---------------------------------------------------------------------

 SCF Done:  E(UB3LYP) =  -1136.11931929     A.U. after   21 cycles

 The electronic state is 2-A.
 Alpha  occ. eigenvalues --  -38.44937 -38.44305 -38.44207 -38.44071 -38.44027
 Alpha  occ. eigenvalues --  -38.43966 -38.43584  -2.20732  -2.20070  -2.19999
 Alpha  occ. eigenvalues --   -2.19957  -2.19872  -2.19797  -2.19415  -1.14422
 Alpha  occ. eigenvalues --   -1.14408  -1.14347  -1.13759  -1.13745  -1.13711
 Alpha  occ. eigenvalues --   -1.13694  -1.13683  -1.13667  -1.13644  -1.13622
 Alpha  occ. eigenvalues --   -1.13575  -1.13529  -1.13515  -1.13492  -1.13460
 Alpha  occ. eigenvalues --   -1.13440  -1.13405  -1.13068  -1.13057  -1.13038
 Alpha  occ. eigenvalues --   -0.17146  -0.14208  -0.12227  -0.10071
 Alpha virt. eigenvalues --   -0.06878  -0.05894  -0.04280  -0.03359  -0.03036
 Alpha virt. eigenvalues --   -0.02549  -0.02045  -0.01546  -0.00707  -0.00581
 Alpha virt. eigenvalues --   -0.00321   0.00061   0.00524   0.00547   0.00593

  Beta  occ. eigenvalues --  -38.44920 -38.44307 -38.44189 -38.44027 -38.43979
  Beta  occ. eigenvalues --  -38.43957 -38.43517  -2.20706  -2.20077  -2.19967
  Beta  occ. eigenvalues --   -2.19876  -2.19785  -2.19784  -2.19288  -1.14406
  Beta  occ. eigenvalues --   -1.14395  -1.14298  -1.13769  -1.13755  -1.13679
  Beta  occ. eigenvalues --   -1.13665  -1.13649  -1.13642  -1.13601  -1.13572
  Beta  occ. eigenvalues --   -1.13524  -1.13470  -1.13451  -1.13451  -1.13433
  Beta  occ. eigenvalues --   -1.13424  -1.13376  -1.12981  -1.12973  -1.12953
  Beta  occ. eigenvalues --   -0.16633  -0.13563  -0.11869
  Beta virt. eigenvalues --   -0.06838  -0.06702  -0.05689  -0.04003  -0.02803
  Beta virt. eigenvalues --   -0.02711  -0.02004  -0.01864  -0.01468  -0.00557
  Beta virt. eigenvalues --   -0.00492   0.00045   0.00278   0.00541   0.00648

 Mulliken charges and spin densities:
               1          2
     1  Na  -0.130668   0.000169
     2  Na  -0.604109   0.010733
     3  Na   0.206014   0.033608
     4  Na   0.001705   0.029755
     5  Na   0.491163   0.450131
     6  Na   0.046464   0.078163
     7  Na  -0.010569   0.397442
 Sum of Mulliken charges =  -0.00000   1.00000

 Dipole moment (field-independent basis, Debye):
    X=             -0.7874    Y=             -0.4152    Z=             -0.2853  Tot=              0.9348
 Quadrupole moment (field-independent basis, Debye-Ang):
   XX=            -70.9790   YY=            -64.5222   ZZ=            -67.6378
   XY=             -4.0332   XZ=             -0.1641   YZ=              1.3943

 Normal termination of Gaussian 16 at Sun Dec  3 17:19:02 2023.
