 Gaussian 16, Revision B.01,
 Gaussian 16:  ES64L-G16RevB.01 20-Dec-2017

 -------------------------
 #P B3LYP/6-311+g(d) force
 -------------------------

 -----
 DPGEN
 -----
 Symbolic Z-matrix:
 Charge =  0 Multiplicity = 2

                         Standard orientation:
 ---------------------------------------------------------------------
 Center     Atomic      Atomic             Coordinates (Angstroms)
 Number     Number       Type             X           Y           Z
 ---------------------------------------------------------------------
      1         11           0        2.936458   -1.665538   -0.515644
      2         11           0       -3.169031    0.942970   -0.235660
      3         11           0        0.233439   -1.171820    1.907900
      4         11           0       -2.436144   -2.096268    0.020818
      5         11           0       -0.112172   -0.002978   -1.843012
      6         11           0        2.776423    1.317604    0.105929
      7         11           0       -0.228974    2.676029    0.559669
 ---------------------------------------------------------------------

 SCF Done:  E(UB3LYP) =  -1136.12876306     A.U. after   21 cycles

 The electronic state is 2-A.
 Alpha  occ. eigenvalues --  -38.44662 -38.44248 -38.44233 -38.44197 -38.43800
 Alpha  occ. eigenvalues --  -38.43760 -38.42576  -2.20504  -2.20121  -2.20098
 Alpha  occ. eigenvalues --   -2.20041  -2.19651  -2.19602  -2.18423  -1.14180
 Alpha  occ. eigenvalues --   -1.14168  -1.14148  -1.13883  -1.13793  -1.13778
 Alpha  occ. eigenvalues --   -1.13775  -1.13740  -1.13718  -1.13681  -1.13674
 Alpha  occ. eigenvalues --   -1.13647  -1.13332  -1.13318  -1.13301  -1.13258
 Alpha  occ. eigenvalues --   -1.13235  -1.13213  -1.12097  -1.12082  -1.12070
 Alpha  occ. eigenvalues --   -0.18284  -0.13940  -0.11810  -0.10732
 Alpha virt. eigenvalues --   -0.06453  -0.05707  -0.04070  -0.03586  -0.02957
 Alpha virt. eigenvalues --   -0.02336  -0.02122  -0.01201  -0.00616  -0.00127
 Alpha virt. eigenvalues --   -0.00052   0.00293   0.00558   0.00648   0.00772

  Beta  occ. eigenvalues --  -38.44659 -38.44242 -38.44186 -38.44170 -38.43798
  Beta  occ. eigenvalues --  -38.43680 -38.42563  -2.20498  -2.20114  -2.20023
  Beta  occ. eigenvalues --   -2.19983  -2.19652  -2.19454  -2.18401  -1.14181
  Beta  occ. eigenvalues --   -1.14148  -1.14145  -1.13876  -1.13780  -1.13751
  Beta  occ. eigenvalues --   -1.13705  -1.13672  -1.13661  -1.13649  -1.13638
  Beta  occ. eigenvalues --   -1.13622  -1.13327  -1.13315  -1.13278  -1.13164
  Beta  occ. eigenvalues --   -1.13130  -1.13114  -1.12084  -1.12068  -1.12040
  Beta  occ. eigenvalues --   -0.17606  -0.13720  -0.11550
  Beta virt. eigenvalues --   -0.06974  -0.06286  -0.05702  -0.03805  -0.02975
  Beta virt. eigenvalues --   -0.02231  -0.01970  -0.01489  -0.01119  -0.00645
  Beta virt. eigenvalues --   -0.00086   0.00103   0.00341   0.00691   0.00779

 Mulliken charges and spin densities:
               1          2
     1  Na   0.351055   0.113668
     2  Na   0.159901   0.071005
     3  Na  -0.294995   0.357802
     4  Na   0.117218   0.070716
     5  Na  -0.052117   0.188414
     6  Na   0.003112   0.077078
     7  Na  -0.284175   0.121317
 Sum of Mulliken charges =  -0.00000   1.00000

 Dipole moment (field-independent basis, Debye):
    X=             -0.0933    Y=             -0.3118    Z=             -0.1844  Tot=              0.3740
 Quadrupole moment (field-independent basis, Debye-Ang):
   XX=            -52.1829   YY=            -70.0594   ZZ=            -73.5335
   XY=             -0.9604   XZ=             -0.0041   YZ=              1.7573

 Normal termination of Gaussian 16 at Fri Dec  8 07:42:12 2023.
