 Gaussian 16, Revision B.01,
 Gaussian 16:  ES64L-G16RevB.01 20-Dec-2017

 -------------------------
 #P B3LYP/6-311+g(d) force
 -------------------------

 -----
 DPGEN
 -----
 Symbolic Z-matrix:
 Charge =  0 Multiplicity = 2

                         Standard orientation:
 ---------------------------------------------------------------------
 Center     Atomic      Atomic             Coordinates (Angstroms)
 Number     Number       Type             X           Y           Z
 ---------------------------------------------------------------------
      1         11           0        1.290584   -2.095104   -1.293660
      2         11           0        0.243959    2.069951   -1.352215
      3         11           0        3.734757    0.335656    0.143731
      4         11           0        0.666040   -0.077730    2.102542
      5         11           0       -1.760234    2.347642    0.979303
      6         11           0       -1.926136   -2.087063    1.494123
      7         11           0       -2.248970   -0.493352   -2.073825
 ---------------------------------------------------------------------

 SCF Done:  E(UB3LYP) =  -1136.12397887     A.U. after   22 cycles

 The electronic state is 2-A.
 Alpha  occ. eigenvalues --  -38.44856 -38.44693 -38.44490 -38.43741 -38.43695
 Alpha  occ. eigenvalues --  -38.43603 -38.43526  -2.20639  -2.20454  -2.20341
 Alpha  occ. eigenvalues --   -2.19525  -2.19510  -2.19393  -2.19365  -1.14316
 Alpha  occ. eigenvalues --   -1.14274  -1.14255  -1.14141  -1.14114  -1.14064
 Alpha  occ. eigenvalues --   -1.14014  -1.13985  -1.13965  -1.13253  -1.13188
 Alpha  occ. eigenvalues --   -1.13185  -1.13167  -1.13157  -1.13148  -1.13081
 Alpha  occ. eigenvalues --   -1.13045  -1.13036  -1.13021  -1.13014  -1.12972
 Alpha  occ. eigenvalues --   -0.17556  -0.12418  -0.12260  -0.11637
 Alpha virt. eigenvalues --   -0.05684  -0.05048  -0.04856  -0.03518  -0.03426
 Alpha virt. eigenvalues --   -0.03286  -0.01474  -0.00928  -0.00740  -0.00133
 Alpha virt. eigenvalues --    0.00134   0.00317   0.00398   0.00614   0.00742

  Beta  occ. eigenvalues --  -38.44796 -38.44664 -38.44420 -38.43743 -38.43683
  Beta  occ. eigenvalues --  -38.43583 -38.43513  -2.20528  -2.20401  -2.20214
  Beta  occ. eigenvalues --   -2.19515  -2.19503  -2.19359  -2.19342  -1.14229
  Beta  occ. eigenvalues --   -1.14203  -1.14180  -1.14099  -1.14078  -1.14026
  Beta  occ. eigenvalues --   -1.13934  -1.13895  -1.13861  -1.13242  -1.13188
  Beta  occ. eigenvalues --   -1.13172  -1.13153  -1.13152  -1.13145  -1.13044
  Beta  occ. eigenvalues --   -1.13025  -1.13017  -1.12994  -1.12986  -1.12958
  Beta  occ. eigenvalues --   -0.16719  -0.12263  -0.11468
  Beta virt. eigenvalues --   -0.08338  -0.05465  -0.04704  -0.04372  -0.03175
  Beta virt. eigenvalues --   -0.02987  -0.02583  -0.01369  -0.00742  -0.00454
  Beta virt. eigenvalues --   -0.00024   0.00225   0.00354   0.00455   0.00687

 Mulliken charges and spin densities:
               1          2
     1  Na  -0.144549   0.214950
     2  Na  -0.236573   0.295406
     3  Na   0.217733  -0.126896
     4  Na  -0.182709   0.522572
     5  Na   0.314245  -0.130066
     6  Na   0.072323  -0.039318
     7  Na  -0.040471   0.263352
 Sum of Mulliken charges =  -0.00000   1.00000

 Dipole moment (field-independent basis, Debye):
    X=             -0.0975    Y=             -0.1593    Z=             -0.2978  Tot=              0.3516
 Quadrupole moment (field-independent basis, Debye-Ang):
   XX=            -61.0540   YY=            -73.1166   ZZ=            -63.2830
   XY=              0.4108   XZ=             -0.5402   YZ=              2.6691

 Normal termination of Gaussian 16 at Sun Dec  3 18:22:31 2023.
