 Gaussian 16, Revision B.01,
 Gaussian 16:  ES64L-G16RevB.01 20-Dec-2017

 -------------------------
 #P B3LYP/6-311+g(d) force
 -------------------------

 -----
 DPGEN
 -----
 Symbolic Z-matrix:
 Charge =  0 Multiplicity = 2

                         Standard orientation:
 ---------------------------------------------------------------------
 Center     Atomic      Atomic             Coordinates (Angstroms)
 Number     Number       Type             X           Y           Z
 ---------------------------------------------------------------------
      1         11           0        0.046744    0.188884   -1.705740
      2         11           0       -1.064108    3.035236   -0.183014
      3         11           0       -1.408786   -2.619330    0.051440
      4         11           0       -3.244172    0.075492    0.031024
      5         11           0        3.005122    1.466364    0.358667
      6         11           0        0.200918   -0.291231    2.026667
      7         11           0        2.464282   -1.855415   -0.579044
 ---------------------------------------------------------------------

 SCF Done:  E(UB3LYP) =  -1136.13506351     A.U. after   21 cycles

 The electronic state is 2-A.
 Alpha  occ. eigenvalues --  -38.44486 -38.44335 -38.43885 -38.43840 -38.43385
 Alpha  occ. eigenvalues --  -38.43374 -38.43215  -2.20272  -2.20154  -2.19718
 Alpha  occ. eigenvalues --   -2.19699  -2.19300  -2.19164  -2.19067  -1.13944
 Alpha  occ. eigenvalues --   -1.13924  -1.13918  -1.13834  -1.13819  -1.13788
 Alpha  occ. eigenvalues --   -1.13406  -1.13379  -1.13362  -1.13348  -1.13333
 Alpha  occ. eigenvalues --   -1.13312  -1.12989  -1.12946  -1.12928  -1.12837
 Alpha  occ. eigenvalues --   -1.12820  -1.12801  -1.12740  -1.12734  -1.12706
 Alpha  occ. eigenvalues --   -0.18170  -0.13185  -0.12003  -0.10669
 Alpha virt. eigenvalues --   -0.06046  -0.05330  -0.04608  -0.03337  -0.02714
 Alpha virt. eigenvalues --   -0.02557  -0.01778  -0.01236  -0.00630  -0.00452
 Alpha virt. eigenvalues --   -0.00041   0.00340   0.00725   0.00801   0.00829

  Beta  occ. eigenvalues --  -38.44478 -38.44335 -38.43867 -38.43754 -38.43374
  Beta  occ. eigenvalues --  -38.43320 -38.43211  -2.20259  -2.20155  -2.19687
  Beta  occ. eigenvalues --   -2.19539  -2.19182  -2.19167  -2.19065  -1.13920
  Beta  occ. eigenvalues --   -1.13913  -1.13912  -1.13834  -1.13812  -1.13787
  Beta  occ. eigenvalues --   -1.13375  -1.13339  -1.13328  -1.13263  -1.13224
  Beta  occ. eigenvalues --   -1.13195  -1.12909  -1.12876  -1.12848  -1.12825
  Beta  occ. eigenvalues --   -1.12805  -1.12799  -1.12740  -1.12720  -1.12692
  Beta  occ. eigenvalues --   -0.17457  -0.12976  -0.11781
  Beta virt. eigenvalues --   -0.06810  -0.05959  -0.05270  -0.04566  -0.02600
  Beta virt. eigenvalues --   -0.02036  -0.01662  -0.01545  -0.01114  -0.00657
  Beta virt. eigenvalues --   -0.00495   0.00106   0.00374   0.00794   0.00820

 Mulliken charges and spin densities:
               1          2
     1  Na  -0.030772   0.484716
     2  Na  -0.048241  -0.106219
     3  Na   0.179624  -0.022039
     4  Na   0.005104  -0.072660
     5  Na  -0.030088  -0.003528
     6  Na  -0.291888   0.689525
     7  Na   0.216262   0.030206
 Sum of Mulliken charges =  -0.00000   1.00000

 Dipole moment (field-independent basis, Debye):
    X=              0.2434    Y=              0.0578    Z=              0.1473  Tot=              0.2903
 Quadrupole moment (field-independent basis, Debye-Ang):
   XX=            -54.5219   YY=            -63.9996   ZZ=            -74.9419
   XY=              0.7567   XZ=             -0.3471   YZ=              1.6335

 Normal termination of Gaussian 16 at Fri Dec  8 01:20:51 2023.
