 Gaussian 16, Revision B.01,
 Gaussian 16:  ES64L-G16RevB.01 20-Dec-2017

 -------------------------
 #P B3LYP/6-311+g(d) force
 -------------------------

 -----
 DPGEN
 -----
 Symbolic Z-matrix:
 Charge =  0 Multiplicity = 2

                         Standard orientation:
 ---------------------------------------------------------------------
 Center     Atomic      Atomic             Coordinates (Angstroms)
 Number     Number       Type             X           Y           Z
 ---------------------------------------------------------------------
      1         11           0       -0.237329   -1.090311   -0.118839
      2         11           0        1.856857    0.763315   -1.750655
      3         11           0        2.803337   -2.017245   -0.497018
      4         11           0        2.376441    0.141826    1.927807
      5         11           0       -2.971826    1.323267   -0.595041
      6         11           0       -3.985169   -1.794831    0.457864
      7         11           0        0.157690    2.673978    0.575882
 ---------------------------------------------------------------------

 SCF Done:  E(UB3LYP) =  -1136.12505377     A.U. after   22 cycles

 The electronic state is 2-A.
 Alpha  occ. eigenvalues --  -38.44690 -38.44206 -38.44150 -38.44114 -38.43960
 Alpha  occ. eigenvalues --  -38.43769 -38.42528  -2.20483  -2.20112  -2.20038
 Alpha  occ. eigenvalues --   -2.19923  -2.19851  -2.19681  -2.18368  -1.14175
 Alpha  occ. eigenvalues --   -1.14158  -1.14096  -1.13857  -1.13800  -1.13762
 Alpha  occ. eigenvalues --   -1.13696  -1.13672  -1.13647  -1.13592  -1.13588
 Alpha  occ. eigenvalues --   -1.13552  -1.13516  -1.13495  -1.13465  -1.13339
 Alpha  occ. eigenvalues --   -1.13325  -1.13306  -1.12041  -1.12036  -1.12014
 Alpha  occ. eigenvalues --   -0.18355  -0.13904  -0.11676  -0.10849
 Alpha virt. eigenvalues --   -0.06341  -0.06028  -0.04199  -0.03174  -0.02749
 Alpha virt. eigenvalues --   -0.02436  -0.02213  -0.01298  -0.00817  -0.00507
 Alpha virt. eigenvalues --   -0.00064   0.00199   0.00390   0.00563   0.00710

  Beta  occ. eigenvalues --  -38.44692 -38.44194 -38.44151 -38.44045 -38.43866
  Beta  occ. eigenvalues --  -38.43755 -38.42523  -2.20487  -2.20095  -2.19924
  Beta  occ. eigenvalues --   -2.19911  -2.19677  -2.19660  -2.18362  -1.14174
  Beta  occ. eigenvalues --   -1.14160  -1.14101  -1.13806  -1.13777  -1.13750
  Beta  occ. eigenvalues --   -1.13614  -1.13602  -1.13592  -1.13589  -1.13553
  Beta  occ. eigenvalues --   -1.13546  -1.13397  -1.13394  -1.13343  -1.13330
  Beta  occ. eigenvalues --   -1.13296  -1.13246  -1.12037  -1.12035  -1.11991
  Beta  occ. eigenvalues --   -0.17630  -0.13759  -0.11455
  Beta virt. eigenvalues --   -0.06876  -0.06079  -0.05917  -0.04062  -0.02827
  Beta virt. eigenvalues --   -0.02317  -0.01955  -0.01578  -0.01120  -0.00692
  Beta virt. eigenvalues --   -0.00149   0.00065   0.00269   0.00543   0.00626

 Mulliken charges and spin densities:
               1          2
     1  Na  -2.021096   0.475633
     2  Na   0.124890   0.220597
     3  Na   1.370184  -0.020190
     4  Na  -0.304958   0.321166
     5  Na   0.201629  -0.039371
     6  Na   0.535106  -0.030802
     7  Na   0.094245   0.072967
 Sum of Mulliken charges =  -0.00000   1.00000

 Dipole moment (field-independent basis, Debye):
    X=             -0.2537    Y=             -0.1175    Z=             -0.2574  Tot=              0.3800
 Quadrupole moment (field-independent basis, Debye-Ang):
   XX=            -54.3374   YY=            -67.7946   ZZ=            -72.3308
   XY=             -1.8015   XZ=             -1.4587   YZ=             -1.7411

 Normal termination of Gaussian 16 at Fri Dec  8 02:27:50 2023.
