 Gaussian 16, Revision B.01,
 Gaussian 16:  ES64L-G16RevB.01 20-Dec-2017

 -------------------------
 #P B3LYP/6-311+g(d) force
 -------------------------

 -----
 DPGEN
 -----
 Symbolic Z-matrix:
 Charge =  0 Multiplicity = 2

                         Standard orientation:
 ---------------------------------------------------------------------
 Center     Atomic      Atomic             Coordinates (Angstroms)
 Number     Number       Type             X           Y           Z
 ---------------------------------------------------------------------
      1         11           0       -3.525741   -0.933321    0.910876
      2         11           0       -1.249516   -1.499138   -0.914005
      3         11           0        0.645046    1.025160   -1.545382
      4         11           0       -2.364498    1.983289   -0.646337
      5         11           0       -0.094588    0.376673    2.085341
      6         11           0        2.362577   -1.569961   -0.682575
      7         11           0        4.226720    0.617299    0.792082
 ---------------------------------------------------------------------

 SCF Done:  E(UB3LYP) =  -1136.11299798     A.U. after   31 cycles

 The electronic state is 2-A.
 Alpha  occ. eigenvalues --  -38.45671 -38.44746 -38.44473 -38.44262 -38.43797
 Alpha  occ. eigenvalues --  -38.43621 -38.42301  -2.21429  -2.20521  -2.20341
 Alpha  occ. eigenvalues --   -2.20143  -2.19666  -2.19597  -2.18233  -1.15132
 Alpha  occ. eigenvalues --   -1.15111  -1.15017  -1.14209  -1.14184  -1.14157
 Alpha  occ. eigenvalues --   -1.14013  -1.13980  -1.13957  -1.13821  -1.13815
 Alpha  occ. eigenvalues --   -1.13751  -1.13479  -1.13314  -1.13292  -1.13260
 Alpha  occ. eigenvalues --   -1.13220  -1.13156  -1.11934  -1.11898  -1.11865
 Alpha  occ. eigenvalues --   -0.18515  -0.14215  -0.11510  -0.10790
 Alpha virt. eigenvalues --   -0.07521  -0.05275  -0.04396  -0.03233  -0.02924
 Alpha virt. eigenvalues --   -0.02552  -0.02238  -0.01523  -0.01054  -0.00179
 Alpha virt. eigenvalues --   -0.00033   0.00134   0.00333   0.00573   0.00638

  Beta  occ. eigenvalues --  -38.45645 -38.44746 -38.44415 -38.44235 -38.43784
  Beta  occ. eigenvalues --  -38.43556 -38.42296  -2.21382  -2.20521  -2.20234
  Beta  occ. eigenvalues --   -2.20094  -2.19643  -2.19480  -2.18229  -1.15097
  Beta  occ. eigenvalues --   -1.15065  -1.14986  -1.14209  -1.14184  -1.14153
  Beta  occ. eigenvalues --   -1.13926  -1.13914  -1.13886  -1.13790  -1.13782
  Beta  occ. eigenvalues --   -1.13703  -1.13433  -1.13293  -1.13260  -1.13197
  Beta  occ. eigenvalues --   -1.13137  -1.13082  -1.11938  -1.11867  -1.11853
  Beta  occ. eigenvalues --   -0.17812  -0.14071  -0.10498
  Beta virt. eigenvalues --   -0.07668  -0.07287  -0.04696  -0.04296  -0.02912
  Beta virt. eigenvalues --   -0.02757  -0.01952  -0.01669  -0.01061  -0.00835
  Beta virt. eigenvalues --   -0.00088  -0.00003   0.00263   0.00351   0.00646

 Mulliken charges and spin densities:
               1          2
     1  Na   0.878771  -0.044866
     2  Na  -0.617276   0.362660
     3  Na  -0.194022   0.232556
     4  Na   0.101362   0.209049
     5  Na  -0.638005   0.244923
     6  Na   0.398066  -0.029883
     7  Na   0.071104   0.025561
 Sum of Mulliken charges =  -0.00000   1.00000

 Dipole moment (field-independent basis, Debye):
    X=              0.2046    Y=              0.5092    Z=              0.0164  Tot=              0.5490
 Quadrupole moment (field-independent basis, Debye-Ang):
   XX=            -53.2689   YY=            -67.6556   ZZ=            -77.4023
   XY=             -1.7671   XZ=              0.6340   YZ=              2.6354

 Normal termination of Gaussian 16 at Fri Dec  8 06:30:21 2023.
