 Gaussian 16, Revision B.01,
 Gaussian 16:  ES64L-G16RevB.01 20-Dec-2017

 -------------------------
 #P B3LYP/6-311+g(d) force
 -------------------------

 -----
 DPGEN
 -----
 Symbolic Z-matrix:
 Charge =  0 Multiplicity = 2

                         Standard orientation:
 ---------------------------------------------------------------------
 Center     Atomic      Atomic             Coordinates (Angstroms)
 Number     Number       Type             X           Y           Z
 ---------------------------------------------------------------------
      1         11           0       -0.012085   -1.851060   -0.788208
      2         11           0       -3.125343   -2.878046    0.400610
      3         11           0       -3.091977    0.510065    1.233783
      4         11           0       -2.730092    3.074228   -0.782933
      5         11           0        0.419883    1.380502   -0.114845
      6         11           0        3.193543   -0.758708   -1.250747
      7         11           0        5.346072    0.523020    1.302340
 ---------------------------------------------------------------------

 SCF Done:  E(UB3LYP) =  -1136.12276461     A.U. after   21 cycles

 The electronic state is 2-A.
 Alpha  occ. eigenvalues --  -38.44902 -38.44746 -38.44351 -38.44207 -38.43833
 Alpha  occ. eigenvalues --  -38.43686 -38.43017  -2.20697  -2.20563  -2.20178
 Alpha  occ. eigenvalues --   -2.20018  -2.19634  -2.19538  -2.18824  -1.14331
 Alpha  occ. eigenvalues --   -1.14330  -1.14301  -1.14277  -1.14264  -1.14127
 Alpha  occ. eigenvalues --   -1.13882  -1.13844  -1.13785  -1.13705  -1.13678
 Alpha  occ. eigenvalues --   -1.13671  -1.13306  -1.13297  -1.13260  -1.13240
 Alpha  occ. eigenvalues --   -1.13220  -1.13129  -1.12486  -1.12482  -1.12461
 Alpha  occ. eigenvalues --   -0.16812  -0.14139  -0.11983  -0.11328
 Alpha virt. eigenvalues --   -0.06059  -0.05554  -0.04723  -0.03662  -0.02836
 Alpha virt. eigenvalues --   -0.02530  -0.01966  -0.01785  -0.00856  -0.00473
 Alpha virt. eigenvalues --   -0.00220  -0.00143   0.00020   0.00237   0.00606

  Beta  occ. eigenvalues --  -38.44778 -38.44722 -38.44328 -38.44207 -38.43832
  Beta  occ. eigenvalues --  -38.43657 -38.43001  -2.20521  -2.20466  -2.20136
  Beta  occ. eigenvalues --   -2.20026  -2.19633  -2.19488  -2.18793  -1.14249
  Beta  occ. eigenvalues --   -1.14228  -1.14173  -1.14172  -1.14150  -1.14099
  Beta  occ. eigenvalues --   -1.13853  -1.13818  -1.13748  -1.13718  -1.13690
  Beta  occ. eigenvalues --   -1.13621  -1.13302  -1.13295  -1.13259  -1.13206
  Beta  occ. eigenvalues --   -1.13189  -1.13082  -1.12466  -1.12455  -1.12446
  Beta  occ. eigenvalues --   -0.16319  -0.13358  -0.11797
  Beta virt. eigenvalues --   -0.07686  -0.05916  -0.05228  -0.04324  -0.03448
  Beta virt. eigenvalues --   -0.02583  -0.02109  -0.01627  -0.01469  -0.00507
  Beta virt. eigenvalues --   -0.00297  -0.00068   0.00062   0.00188   0.00397

 Mulliken charges and spin densities:
               1          2
     1  Na  -0.662218  -0.042107
     2  Na   0.972545   0.323452
     3  Na  -0.340951   0.140384
     4  Na   0.709103   0.016555
     5  Na  -0.830384   0.001309
     6  Na  -0.023873  -0.102900
     7  Na   0.175777   0.663306
 Sum of Mulliken charges =  -0.00000   1.00000

 Dipole moment (field-independent basis, Debye):
    X=              0.0886    Y=              0.6863    Z=             -0.2518  Tot=              0.7364
 Quadrupole moment (field-independent basis, Debye-Ang):
   XX=            -64.6852   YY=            -68.8894   ZZ=            -66.3725
   XY=             -2.7980   XZ=              0.0511   YZ=              0.8768

 Normal termination of Gaussian 16 at Tue Nov 28 18:51:06 2023.
