 Gaussian 16, Revision B.01,
 Gaussian 16:  ES64L-G16RevB.01 20-Dec-2017

 -------------------------
 #P B3LYP/6-311+g(d) force
 -------------------------

 -----
 DPGEN
 -----
 Symbolic Z-matrix:
 Charge =  0 Multiplicity = 2

                         Standard orientation:
 ---------------------------------------------------------------------
 Center     Atomic      Atomic             Coordinates (Angstroms)
 Number     Number       Type             X           Y           Z
 ---------------------------------------------------------------------
      1         11           0        3.894285   -1.069803    0.333552
      2         11           0       -1.534207    1.685763   -0.761211
      3         11           0        0.645247   -0.081136    1.615991
      4         11           0        2.376029    1.921316   -0.884162
      5         11           0       -2.838352    0.353223    1.762279
      6         11           0        0.426324   -1.501823   -0.748815
      7         11           0       -2.969327   -1.307540   -1.317634
 ---------------------------------------------------------------------

 SCF Done:  E(UB3LYP) =  -1136.11337660     A.U. after   31 cycles

 The electronic state is 2-A.
 Alpha  occ. eigenvalues --  -38.45425 -38.44726 -38.44564 -38.43957 -38.43664
 Alpha  occ. eigenvalues --  -38.43646 -38.43381  -2.21216  -2.20598  -2.20515
 Alpha  occ. eigenvalues --   -2.19861  -2.19520  -2.19461  -2.19275  -1.14896
 Alpha  occ. eigenvalues --   -1.14870  -1.14839  -1.14406  -1.14269  -1.14254
 Alpha  occ. eigenvalues --   -1.14216  -1.14114  -1.14080  -1.13591  -1.13502
 Alpha  occ. eigenvalues --   -1.13419  -1.13193  -1.13170  -1.13151  -1.13135
 Alpha  occ. eigenvalues --   -1.13108  -1.13093  -1.12959  -1.12954  -1.12888
 Alpha  occ. eigenvalues --   -0.18628  -0.14562  -0.11209  -0.10669
 Alpha virt. eigenvalues --   -0.07327  -0.05366  -0.04701  -0.03090  -0.03060
 Alpha virt. eigenvalues --   -0.02368  -0.01891  -0.01277  -0.01147  -0.00069
 Alpha virt. eigenvalues --    0.00036   0.00265   0.00323   0.00597   0.00670

  Beta  occ. eigenvalues --  -38.45420 -38.44675 -38.44510 -38.43950 -38.43634
  Beta  occ. eigenvalues --  -38.43616 -38.43365  -2.21208  -2.20505  -2.20418
  Beta  occ. eigenvalues --   -2.19853  -2.19466  -2.19403  -2.19249  -1.14885
  Beta  occ. eigenvalues --   -1.14864  -1.14833  -1.14349  -1.14213  -1.14173
  Beta  occ. eigenvalues --   -1.14152  -1.14040  -1.14000  -1.13575  -1.13480
  Beta  occ. eigenvalues --   -1.13409  -1.13147  -1.13131  -1.13119  -1.13091
  Beta  occ. eigenvalues --   -1.13072  -1.13053  -1.12945  -1.12913  -1.12863
  Beta  occ. eigenvalues --   -0.17996  -0.14327  -0.10351
  Beta virt. eigenvalues --   -0.07408  -0.07185  -0.05109  -0.04199  -0.02924
  Beta virt. eigenvalues --   -0.02771  -0.01827  -0.01264  -0.01130  -0.00689
  Beta virt. eigenvalues --   -0.00032   0.00068   0.00321   0.00429   0.00644

 Mulliken charges and spin densities:
               1          2
     1  Na   1.285758   0.123458
     2  Na  -0.063418   0.467633
     3  Na  -0.323050   0.172670
     4  Na  -0.367893   0.056623
     5  Na   0.110068   0.087416
     6  Na  -0.882761   0.281425
     7  Na   0.241297  -0.189225
 Sum of Mulliken charges =  -0.00000   1.00000

 Dipole moment (field-independent basis, Debye):
    X=              0.8546    Y=             -0.1366    Z=              0.4001  Tot=              0.9535
 Quadrupole moment (field-independent basis, Debye-Ang):
   XX=            -41.1669   YY=            -80.4959   ZZ=            -70.5297
   XY=             -1.7072   XZ=             -1.1722   YZ=             -1.9503

 Normal termination of Gaussian 16 at Tue Dec  5 16:52:25 2023.
