 Gaussian 16, Revision B.01,
 Gaussian 16:  ES64L-G16RevB.01 20-Dec-2017

 -------------------------
 #P B3LYP/6-311+g(d) force
 -------------------------

 -----
 DPGEN
 -----
 Symbolic Z-matrix:
 Charge =  0 Multiplicity = 2

                         Standard orientation:
 ---------------------------------------------------------------------
 Center     Atomic      Atomic             Coordinates (Angstroms)
 Number     Number       Type             X           Y           Z
 ---------------------------------------------------------------------
      1         11           0       -0.279709    3.104380   -0.087095
      2         11           0        1.750689   -2.173361    0.326181
      3         11           0        2.872733    0.814488    0.170402
      4         11           0       -1.446156   -2.381187   -0.570762
      5         11           0        0.491020    0.274483   -1.770037
      6         11           0       -0.333920   -0.052050    1.785650
      7         11           0       -3.054657    0.413247    0.145662
 ---------------------------------------------------------------------

 SCF Done:  E(UB3LYP) =  -1136.13733176     A.U. after   19 cycles

 The electronic state is 2-A.
 Alpha  occ. eigenvalues --  -38.43946 -38.43905 -38.43693 -38.43281 -38.43268
 Alpha  occ. eigenvalues --  -38.43258 -38.43245  -2.19793  -2.19789  -2.19503
 Alpha  occ. eigenvalues --   -2.19247  -2.19215  -2.19181  -2.19162  -1.13507
 Alpha  occ. eigenvalues --   -1.13495  -1.13457  -1.13450  -1.13420  -1.13417
 Alpha  occ. eigenvalues --   -1.13191  -1.13168  -1.13133  -1.12962  -1.12903
 Alpha  occ. eigenvalues --   -1.12892  -1.12882  -1.12864  -1.12856  -1.12844
 Alpha  occ. eigenvalues --   -1.12820  -1.12813  -1.12802  -1.12798  -1.12772
 Alpha  occ. eigenvalues --   -0.18990  -0.13124  -0.12580  -0.10812
 Alpha virt. eigenvalues --   -0.05631  -0.04935  -0.04709  -0.03268  -0.02976
 Alpha virt. eigenvalues --   -0.02433  -0.01368  -0.01147  -0.00293  -0.00146
 Alpha virt. eigenvalues --    0.00043   0.00373   0.00868   0.00886   0.00952

  Beta  occ. eigenvalues --  -38.43942 -38.43899 -38.43691 -38.43251 -38.43247
  Beta  occ. eigenvalues --  -38.43206 -38.43171  -2.19789  -2.19781  -2.19502
  Beta  occ. eigenvalues --   -2.19164  -2.19135  -2.19108  -2.19080  -1.13499
  Beta  occ. eigenvalues --   -1.13486  -1.13438  -1.13421  -1.13417  -1.13416
  Beta  occ. eigenvalues --   -1.13180  -1.13161  -1.13133  -1.12910  -1.12844
  Beta  occ. eigenvalues --   -1.12828  -1.12821  -1.12805  -1.12786  -1.12779
  Beta  occ. eigenvalues --   -1.12759  -1.12755  -1.12747  -1.12744  -1.12715
  Beta  occ. eigenvalues --   -0.18255  -0.12871  -0.12325
  Beta virt. eigenvalues --   -0.06899  -0.05614  -0.04873  -0.04680  -0.02475
  Beta virt. eigenvalues --   -0.02209  -0.01423  -0.01284  -0.01062  -0.00323
  Beta virt. eigenvalues --   -0.00158   0.00145   0.00396   0.00857   0.00919

 Mulliken charges and spin densities:
               1          2
     1  Na  -0.098477  -0.168409
     2  Na   0.255340   0.085286
     3  Na   0.158814  -0.092883
     4  Na   0.073678   0.071855
     5  Na  -0.228230   0.614851
     6  Na  -0.221585   0.567996
     7  Na   0.060460  -0.078696
 Sum of Mulliken charges =  -0.00000   1.00000

 Dipole moment (field-independent basis, Debye):
    X=             -0.0638    Y=              0.3357    Z=              0.0322  Tot=              0.3432
 Quadrupole moment (field-independent basis, Debye-Ang):
   XX=            -58.1160   YY=            -61.6042   ZZ=            -73.8805
   XY=             -0.1286   XZ=              1.6526   YZ=              0.8052

 Normal termination of Gaussian 16 at Thu Dec  7 12:12:17 2023.
