 Gaussian 16, Revision B.01,
 Gaussian 16:  ES64L-G16RevB.01 20-Dec-2017

 -------------------------
 #P B3LYP/6-311+g(d) force
 -------------------------

 -----
 DPGEN
 -----
 Symbolic Z-matrix:
 Charge =  0 Multiplicity = 2

                         Standard orientation:
 ---------------------------------------------------------------------
 Center     Atomic      Atomic             Coordinates (Angstroms)
 Number     Number       Type             X           Y           Z
 ---------------------------------------------------------------------
      1         11           0       -0.991156   -2.578720    0.182632
      2         11           0        2.394553   -1.863012   -0.226531
      3         11           0        2.659519    1.480510   -0.053039
      4         11           0        0.084795    0.070792    1.903149
      5         11           0       -0.275965    0.173008   -1.812920
      6         11           0       -3.025424   -0.141928   -0.095689
      7         11           0       -0.846321    2.859351    0.102398
 ---------------------------------------------------------------------

 SCF Done:  E(UB3LYP) =  -1136.14047677     A.U. after   19 cycles

 The electronic state is 2-A.
 Alpha  occ. eigenvalues --  -38.43866 -38.43847 -38.43540 -38.43436 -38.43380
 Alpha  occ. eigenvalues --  -38.43339 -38.43143  -2.19726  -2.19701  -2.19384
 Alpha  occ. eigenvalues --   -2.19317  -2.19294  -2.19281  -2.19048  -1.13425
 Alpha  occ. eigenvalues --   -1.13389  -1.13379  -1.13374  -1.13361  -1.13338
 Alpha  occ. eigenvalues --   -1.13053  -1.13048  -1.13033  -1.13015  -1.12985
 Alpha  occ. eigenvalues --   -1.12979  -1.12957  -1.12939  -1.12918  -1.12917
 Alpha  occ. eigenvalues --   -1.12904  -1.12893  -1.12721  -1.12703  -1.12681
 Alpha  occ. eigenvalues --   -0.18896  -0.13071  -0.12534  -0.10839
 Alpha virt. eigenvalues --   -0.05521  -0.05086  -0.04683  -0.03214  -0.02962
 Alpha virt. eigenvalues --   -0.02573  -0.01404  -0.01098  -0.00300  -0.00195
 Alpha virt. eigenvalues --   -0.00003   0.00378   0.00842   0.00901   0.00932

  Beta  occ. eigenvalues --  -38.43863 -38.43841 -38.43536 -38.43431 -38.43293
  Beta  occ. eigenvalues --  -38.43263 -38.43135  -2.19719  -2.19699  -2.19379
  Beta  occ. eigenvalues --   -2.19276  -2.19160  -2.19154  -2.19037  -1.13419
  Beta  occ. eigenvalues --   -1.13378  -1.13367  -1.13351  -1.13350  -1.13339
  Beta  occ. eigenvalues --   -1.13048  -1.13034  -1.13022  -1.12978  -1.12936
  Beta  occ. eigenvalues --   -1.12907  -1.12897  -1.12866  -1.12832  -1.12818
  Beta  occ. eigenvalues --   -1.12817  -1.12809  -1.12710  -1.12679  -1.12661
  Beta  occ. eigenvalues --   -0.18147  -0.12827  -0.12282
  Beta virt. eigenvalues --   -0.06919  -0.05509  -0.05063  -0.04654  -0.02405
  Beta virt. eigenvalues --   -0.02158  -0.01519  -0.01317  -0.01032  -0.00364
  Beta virt. eigenvalues --   -0.00241   0.00123   0.00394   0.00869   0.00909

 Mulliken charges and spin densities:
               1          2
     1  Na   0.188116  -0.018696
     2  Na   0.006088  -0.056692
     3  Na   0.071657  -0.113649
     4  Na  -0.336180   0.720975
     5  Na  -0.332541   0.687762
     6  Na   0.309518  -0.061177
     7  Na   0.093342  -0.158523
 Sum of Mulliken charges =  -0.00000   1.00000

 Dipole moment (field-independent basis, Debye):
    X=              0.0414    Y=              0.2245    Z=              0.0054  Tot=              0.2283
 Quadrupole moment (field-independent basis, Debye-Ang):
   XX=            -57.5542   YY=            -62.4234   ZZ=            -73.8024
   XY=             -0.1434   XZ=             -0.7409   YZ=              0.3079

 Normal termination of Gaussian 16 at Thu Dec  7 07:45:56 2023.
