 Gaussian 16, Revision B.01,
 Gaussian 16:  ES64L-G16RevB.01 20-Dec-2017

 -------------------------
 #P B3LYP/6-311+g(d) force
 -------------------------

 -----
 DPGEN
 -----
 Symbolic Z-matrix:
 Charge =  0 Multiplicity = 2

                         Standard orientation:
 ---------------------------------------------------------------------
 Center     Atomic      Atomic             Coordinates (Angstroms)
 Number     Number       Type             X           Y           Z
 ---------------------------------------------------------------------
      1         11           0        0.049329    1.489407   -0.265321
      2         11           0        2.720831    3.213741    0.535107
      3         11           0        3.235895    0.263676   -0.480128
      4         11           0        2.886434   -3.061738   -0.108087
      5         11           0       -0.391682   -1.863368    0.179593
      6         11           0       -3.360879   -0.999139    0.678302
      7         11           0       -5.139926    0.957421   -0.539466
 ---------------------------------------------------------------------

 SCF Done:  E(UB3LYP) =  -1136.12014294     A.U. after   20 cycles

 The electronic state is 2-A.
 Alpha  occ. eigenvalues --  -38.44917 -38.44263 -38.44193 -38.44120 -38.43967
 Alpha  occ. eigenvalues --  -38.43444 -38.43247  -2.20766  -2.20117  -2.20039
 Alpha  occ. eigenvalues --   -2.20006  -2.19855  -2.19332  -2.19065  -1.14464
 Alpha  occ. eigenvalues --   -1.14451  -1.14355  -1.13894  -1.13764  -1.13732
 Alpha  occ. eigenvalues --   -1.13726  -1.13700  -1.13695  -1.13678  -1.13668
 Alpha  occ. eigenvalues --   -1.13571  -1.13527  -1.13495  -1.13475  -1.13012
 Alpha  occ. eigenvalues --   -1.12994  -1.12943  -1.12726  -1.12722  -1.12694
 Alpha  occ. eigenvalues --   -0.17201  -0.14558  -0.12511  -0.10867
 Alpha virt. eigenvalues --   -0.06382  -0.05287  -0.04235  -0.03904  -0.03140
 Alpha virt. eigenvalues --   -0.02396  -0.01930  -0.01265  -0.01023  -0.00693
 Alpha virt. eigenvalues --   -0.00225   0.00046   0.00414   0.00506   0.00730

  Beta  occ. eigenvalues --  -38.44885 -38.44192 -38.44170 -38.44090 -38.43959
  Beta  occ. eigenvalues --  -38.43401 -38.43221  -2.20708  -2.20037  -2.19951
  Beta  occ. eigenvalues --   -2.19945  -2.19851  -2.19254  -2.19018  -1.14427
  Beta  occ. eigenvalues --   -1.14411  -1.14307  -1.13795  -1.13749  -1.13690
  Beta  occ. eigenvalues --   -1.13677  -1.13656  -1.13638  -1.13616  -1.13609
  Beta  occ. eigenvalues --   -1.13531  -1.13511  -1.13476  -1.13427  -1.12958
  Beta  occ. eigenvalues --   -1.12943  -1.12883  -1.12692  -1.12681  -1.12668
  Beta  occ. eigenvalues --   -0.16660  -0.13867  -0.12175
  Beta virt. eigenvalues --   -0.07401  -0.06071  -0.05096  -0.04018  -0.03379
  Beta virt. eigenvalues --   -0.02846  -0.02102  -0.01771  -0.00973  -0.00879
  Beta virt. eigenvalues --   -0.00284  -0.00012   0.00300   0.00556   0.00600

 Mulliken charges and spin densities:
               1          2
     1  Na  -1.291256  -0.026037
     2  Na   1.184744   0.049421
     3  Na  -0.271390   0.324299
     4  Na   1.222699   0.276644
     5  Na  -1.316030  -0.189958
     6  Na   0.413473   0.160979
     7  Na   0.057761   0.404651
 Sum of Mulliken charges =  -0.00000   1.00000

 Dipole moment (field-independent basis, Debye):
    X=              0.6757    Y=              1.2495    Z=              0.1492  Tot=              1.4283
 Quadrupole moment (field-independent basis, Debye-Ang):
   XX=            -69.2491   YY=            -60.9313   ZZ=            -70.5430
   XY=              3.1915   XZ=              2.0655   YZ=             -0.8797

 Normal termination of Gaussian 16 at Tue Nov 28 21:15:24 2023.
