 Gaussian 16, Revision B.01,
 Gaussian 16:  ES64L-G16RevB.01 20-Dec-2017

 -------------------------
 #P B3LYP/6-311+g(d) force
 -------------------------

 -----
 DPGEN
 -----
 Symbolic Z-matrix:
 Charge =  0 Multiplicity = 2

                         Standard orientation:
 ---------------------------------------------------------------------
 Center     Atomic      Atomic             Coordinates (Angstroms)
 Number     Number       Type             X           Y           Z
 ---------------------------------------------------------------------
      1         11           0        2.676648   -0.896578   -1.392244
      2         11           0       -0.242594    2.276438   -1.183972
      3         11           0        2.779241    2.377053    1.175479
      4         11           0        1.021744   -1.267090    1.516033
      5         11           0       -3.675239    1.571837   -0.259842
      6         11           0       -0.055701   -2.758379   -0.804460
      7         11           0       -2.504099   -1.303281    0.949006
 ---------------------------------------------------------------------

 SCF Done:  E(UB3LYP) =  -1136.12195758     A.U. after   20 cycles

 The electronic state is 2-A.
 Alpha  occ. eigenvalues --  -38.44510 -38.44290 -38.44230 -38.44138 -38.43969
 Alpha  occ. eigenvalues --  -38.43924 -38.43727  -2.20253  -2.20131  -2.20128
 Alpha  occ. eigenvalues --   -2.19905  -2.19831  -2.19757  -2.19570  -1.13943
 Alpha  occ. eigenvalues --   -1.13935  -1.13900  -1.13865  -1.13813  -1.13799
 Alpha  occ. eigenvalues --   -1.13787  -1.13741  -1.13726  -1.13569  -1.13557
 Alpha  occ. eigenvalues --   -1.13527  -1.13489  -1.13476  -1.13457  -1.13431
 Alpha  occ. eigenvalues --   -1.13421  -1.13399  -1.13252  -1.13235  -1.13178
 Alpha  occ. eigenvalues --   -0.17474  -0.13233  -0.12683  -0.10564
 Alpha virt. eigenvalues --   -0.06222  -0.05766  -0.04798  -0.03561  -0.02957
 Alpha virt. eigenvalues --   -0.02215  -0.01679  -0.01434  -0.00894  -0.00332
 Alpha virt. eigenvalues --   -0.00318   0.00138   0.00290   0.00442   0.00674

  Beta  occ. eigenvalues --  -38.44498 -38.44232 -38.44201 -38.44092 -38.43965
  Beta  occ. eigenvalues --  -38.43910 -38.43708  -2.20232  -2.20076  -2.20028
  Beta  occ. eigenvalues --   -2.19820  -2.19810  -2.19749  -2.19536  -1.13925
  Beta  occ. eigenvalues --   -1.13920  -1.13861  -1.13846  -1.13762  -1.13745
  Beta  occ. eigenvalues --   -1.13720  -1.13679  -1.13654  -1.13509  -1.13495
  Beta  occ. eigenvalues --   -1.13479  -1.13473  -1.13464  -1.13428  -1.13416
  Beta  occ. eigenvalues --   -1.13397  -1.13389  -1.13227  -1.13212  -1.13150
  Beta  occ. eigenvalues --   -0.16908  -0.12940  -0.12312
  Beta virt. eigenvalues --   -0.07087  -0.06157  -0.05388  -0.04413  -0.03173
  Beta virt. eigenvalues --   -0.02549  -0.01801  -0.01345  -0.01160  -0.00793
  Beta virt. eigenvalues --   -0.00246  -0.00065   0.00285   0.00401   0.00523

 Mulliken charges and spin densities:
               1          2
     1  Na   0.050647   0.289001
     2  Na  -0.528517   0.103460
     3  Na   0.189902   0.125548
     4  Na  -0.181880   0.343793
     5  Na   0.209677   0.048275
     6  Na   0.234876   0.131737
     7  Na   0.025294  -0.041814
 Sum of Mulliken charges =  -0.00000   1.00000

 Dipole moment (field-independent basis, Debye):
    X=              0.1493    Y=             -0.1215    Z=             -0.1613  Tot=              0.2512
 Quadrupole moment (field-independent basis, Debye-Ang):
   XX=            -59.6912   YY=            -67.6031   ZZ=            -70.6203
   XY=              1.1754   XZ=              0.0124   YZ=              1.1005

 Normal termination of Gaussian 16 at Sun Dec  3 17:25:44 2023.
