 Gaussian 16, Revision B.01,
 Gaussian 16:  ES64L-G16RevB.01 20-Dec-2017

 -------------------------
 #P B3LYP/6-311+g(d) force
 -------------------------

 -----
 DPGEN
 -----
 Symbolic Z-matrix:
 Charge =  0 Multiplicity = 2

                         Standard orientation:
 ---------------------------------------------------------------------
 Center     Atomic      Atomic             Coordinates (Angstroms)
 Number     Number       Type             X           Y           Z
 ---------------------------------------------------------------------
      1         11           0       -2.453815   -2.000139   -0.167388
      2         11           0        0.303539   -0.750345    2.000596
      3         11           0        1.373595   -2.654320   -0.519730
      4         11           0        0.833913    3.006380    0.007215
      5         11           0        3.388774    0.450166   -0.010094
      6         11           0       -3.161965    1.568296    0.225223
      7         11           0       -0.284041    0.379963   -1.535821
 ---------------------------------------------------------------------

 SCF Done:  E(UB3LYP) =  -1136.13243714     A.U. after   20 cycles

 The electronic state is 2-A.
 Alpha  occ. eigenvalues --  -38.44639 -38.44561 -38.44181 -38.43726 -38.43529
 Alpha  occ. eigenvalues --  -38.43404 -38.43117  -2.20415  -2.20325  -2.19985
 Alpha  occ. eigenvalues --   -2.19528  -2.19362  -2.19264  -2.19040  -1.14093
 Alpha  occ. eigenvalues --   -1.14066  -1.14061  -1.14000  -1.13976  -1.13972
 Alpha  occ. eigenvalues --   -1.13666  -1.13653  -1.13613  -1.13234  -1.13191
 Alpha  occ. eigenvalues --   -1.13151  -1.13055  -1.13033  -1.12992  -1.12928
 Alpha  occ. eigenvalues --   -1.12889  -1.12877  -1.12734  -1.12683  -1.12658
 Alpha  occ. eigenvalues --   -0.17927  -0.12959  -0.12309  -0.10090
 Alpha virt. eigenvalues --   -0.06170  -0.05693  -0.04767  -0.03053  -0.02779
 Alpha virt. eigenvalues --   -0.02132  -0.01887  -0.01432  -0.00822  -0.00678
 Alpha virt. eigenvalues --   -0.00026   0.00318   0.00695   0.00760   0.00799

  Beta  occ. eigenvalues --  -38.44638 -38.44559 -38.44176 -38.43725 -38.43515
  Beta  occ. eigenvalues --  -38.43319 -38.43061  -2.20416  -2.20324  -2.19979
  Beta  occ. eigenvalues --   -2.19527  -2.19340  -2.19107  -2.18940  -1.14076
  Beta  occ. eigenvalues --   -1.14068  -1.14064  -1.13988  -1.13976  -1.13972
  Beta  occ. eigenvalues --   -1.13655  -1.13633  -1.13611  -1.13228  -1.13179
  Beta  occ. eigenvalues --   -1.13153  -1.13035  -1.12993  -1.12977  -1.12822
  Beta  occ. eigenvalues --   -1.12784  -1.12765  -1.12661  -1.12608  -1.12584
  Beta  occ. eigenvalues --   -0.17247  -0.12792  -0.12101
  Beta virt. eigenvalues --   -0.06309  -0.06068  -0.05689  -0.04651  -0.02385
  Beta virt. eigenvalues --   -0.02088  -0.01785  -0.01364  -0.01147  -0.00853
  Beta virt. eigenvalues --   -0.00694   0.00151   0.00361   0.00758   0.00770

 Mulliken charges and spin densities:
               1          2
     1  Na   0.180679  -0.018261
     2  Na  -0.433831   0.775459
     3  Na   0.107895  -0.009546
     4  Na  -0.059718  -0.122097
     5  Na   0.084241  -0.034934
     6  Na  -0.089975  -0.054431
     7  Na   0.210709   0.463810
 Sum of Mulliken charges =  -0.00000   1.00000

 Dipole moment (field-independent basis, Debye):
    X=             -0.1182    Y=              0.1131    Z=              0.0541  Tot=              0.1723
 Quadrupole moment (field-independent basis, Debye-Ang):
   XX=            -52.0370   YY=            -62.0972   ZZ=            -77.5613
   XY=             -0.3036   XZ=             -1.2895   YZ=              2.6092

 Normal termination of Gaussian 16 at Thu Dec  7 02:02:01 2023.
