 Gaussian 16, Revision B.01,
 Gaussian 16:  ES64L-G16RevB.01 20-Dec-2017

 -------------------------
 #P B3LYP/6-311+g(d) force
 -------------------------

 -----
 DPGEN
 -----
 Symbolic Z-matrix:
 Charge =  0 Multiplicity = 2

                         Standard orientation:
 ---------------------------------------------------------------------
 Center     Atomic      Atomic             Coordinates (Angstroms)
 Number     Number       Type             X           Y           Z
 ---------------------------------------------------------------------
      1         11           0        0.384181   -1.208026   -0.473365
      2         11           0       -2.227603    1.415529   -1.392233
      3         11           0       -3.204714   -1.833173    0.216240
      4         11           0        0.998452    2.083547   -0.757980
      5         11           0       -1.465090    0.596558    1.680471
      6         11           0        3.076993   -1.397476   -1.219614
      7         11           0        2.437782    0.343041    1.946481
 ---------------------------------------------------------------------

 SCF Done:  E(UB3LYP) =  -1136.12443844     A.U. after   23 cycles

 The electronic state is 2-A.
 Alpha  occ. eigenvalues --  -38.44684 -38.44176 -38.44046 -38.43942 -38.43489
 Alpha  occ. eigenvalues --  -38.43389 -38.42772  -2.20524  -2.20087  -2.19927
 Alpha  occ. eigenvalues --   -2.19812  -2.19389  -2.19306  -2.18654  -1.14193
 Alpha  occ. eigenvalues --   -1.14169  -1.14135  -1.13802  -1.13759  -1.13750
 Alpha  occ. eigenvalues --   -1.13682  -1.13542  -1.13524  -1.13489  -1.13467
 Alpha  occ. eigenvalues --   -1.13416  -1.13082  -1.13035  -1.12987  -1.12980
 Alpha  occ. eigenvalues --   -1.12959  -1.12942  -1.12356  -1.12313  -1.12272
 Alpha  occ. eigenvalues --   -0.18609  -0.14014  -0.11439  -0.11178
 Alpha virt. eigenvalues --   -0.05943  -0.05268  -0.04951  -0.03248  -0.02641
 Alpha virt. eigenvalues --   -0.02292  -0.01977  -0.01079  -0.00841   0.00103
 Alpha virt. eigenvalues --    0.00223   0.00329   0.00390   0.00484   0.00662

  Beta  occ. eigenvalues --  -38.44622 -38.44137 -38.44014 -38.43911 -38.43493
  Beta  occ. eigenvalues --  -38.43365 -38.42760  -2.20409  -2.20017  -2.19869
  Beta  occ. eigenvalues --   -2.19755  -2.19351  -2.19314  -2.18635  -1.14109
  Beta  occ. eigenvalues --   -1.14095  -1.14049  -1.13757  -1.13705  -1.13696
  Beta  occ. eigenvalues --   -1.13631  -1.13499  -1.13485  -1.13441  -1.13432
  Beta  occ. eigenvalues --   -1.13375  -1.13028  -1.12993  -1.12980  -1.12975
  Beta  occ. eigenvalues --   -1.12963  -1.12942  -1.12343  -1.12273  -1.12263
  Beta  occ. eigenvalues --   -0.17931  -0.13805  -0.10910
  Beta virt. eigenvalues --   -0.07567  -0.05708  -0.05133  -0.04378  -0.02948
  Beta virt. eigenvalues --   -0.02127  -0.01816  -0.01679  -0.00839  -0.00449
  Beta virt. eigenvalues --    0.00171   0.00259   0.00443   0.00500   0.00567

 Mulliken charges and spin densities:
               1          2
     1  Na  -0.822603   0.313399
     2  Na   0.069372   0.020806
     3  Na   0.593572  -0.148070
     4  Na  -0.069606   0.174482
     5  Na   0.183141   0.346729
     6  Na  -0.070954   0.063865
     7  Na   0.117077   0.228788
 Sum of Mulliken charges =  -0.00000   1.00000

 Dipole moment (field-independent basis, Debye):
    X=              0.1858    Y=              0.3871    Z=              0.2344  Tot=              0.4892
 Quadrupole moment (field-independent basis, Debye-Ang):
   XX=            -51.8717   YY=            -76.0464   ZZ=            -66.0681
   XY=              0.8434   XZ=              2.3732   YZ=              0.9486

 Normal termination of Gaussian 16 at Tue Dec  5 19:57:39 2023.
