 Gaussian 16, Revision B.01,
 Gaussian 16:  ES64L-G16RevB.01 20-Dec-2017

 -------------------------
 #P B3LYP/6-311+g(d) force
 -------------------------

 -----
 DPGEN
 -----
 Symbolic Z-matrix:
 Charge =  0 Multiplicity = 2

                         Standard orientation:
 ---------------------------------------------------------------------
 Center     Atomic      Atomic             Coordinates (Angstroms)
 Number     Number       Type             X           Y           Z
 ---------------------------------------------------------------------
      1         11           0       -0.501008   -0.699854    2.089901
      2         11           0        1.246584    2.794609   -0.033993
      3         11           0       -2.738734   -1.494783   -0.412890
      4         11           0       -0.354521    0.214904   -1.955807
      5         11           0       -2.003197    2.019539    0.399650
      6         11           0        1.339834   -2.829153   -0.195895
      7         11           0        3.011042   -0.005262    0.109034
 ---------------------------------------------------------------------

 SCF Done:  E(UB3LYP) =  -1136.13681537     A.U. after   19 cycles

 The electronic state is 2-A.
 Alpha  occ. eigenvalues --  -38.43971 -38.43910 -38.43797 -38.43777 -38.43757
 Alpha  occ. eigenvalues --  -38.43675 -38.43284  -2.19804  -2.19769  -2.19676
 Alpha  occ. eigenvalues --   -2.19619  -2.19606  -2.19506  -2.19126  -1.13504
 Alpha  occ. eigenvalues --   -1.13483  -1.13440  -1.13427  -1.13400  -1.13387
 Alpha  occ. eigenvalues --   -1.13358  -1.13321  -1.13298  -1.13294  -1.13291
 Alpha  occ. eigenvalues --   -1.13273  -1.13264  -1.13247  -1.13242  -1.13180
 Alpha  occ. eigenvalues --   -1.13170  -1.13138  -1.12789  -1.12787  -1.12775
 Alpha  occ. eigenvalues --   -0.18299  -0.12886  -0.12502  -0.11038
 Alpha virt. eigenvalues --   -0.05670  -0.05080  -0.04803  -0.03296  -0.03208
 Alpha virt. eigenvalues --   -0.02840  -0.01296  -0.01131  -0.00379  -0.00323
 Alpha virt. eigenvalues --   -0.00065   0.00390   0.00825   0.00860   0.00870

  Beta  occ. eigenvalues --  -38.43960 -38.43828 -38.43796 -38.43745 -38.43698
  Beta  occ. eigenvalues --  -38.43676 -38.43284  -2.19789  -2.19618  -2.19607
  Beta  occ. eigenvalues --   -2.19599  -2.19532  -2.19508  -2.19128  -1.13481
  Beta  occ. eigenvalues --   -1.13441  -1.13431  -1.13335  -1.13310  -1.13300
  Beta  occ. eigenvalues --   -1.13298  -1.13285  -1.13256  -1.13253  -1.13247
  Beta  occ. eigenvalues --   -1.13232  -1.13230  -1.13194  -1.13189  -1.13179
  Beta  occ. eigenvalues --   -1.13159  -1.13141  -1.12791  -1.12780  -1.12772
  Beta  occ. eigenvalues --   -0.17565  -0.12683  -0.12309
  Beta virt. eigenvalues --   -0.07117  -0.05670  -0.04975  -0.04688  -0.02545
  Beta virt. eigenvalues --   -0.02479  -0.01824  -0.01224  -0.01044  -0.00427
  Beta virt. eigenvalues --   -0.00345   0.00098   0.00436   0.00843   0.00892

 Mulliken charges and spin densities:
               1          2
     1  Na  -0.280652   0.591292
     2  Na  -0.023851  -0.063822
     3  Na   0.287271  -0.107867
     4  Na  -0.161883   0.655690
     5  Na   0.176917   0.068037
     6  Na   0.083225  -0.094858
     7  Na  -0.081026  -0.048472
 Sum of Mulliken charges =  -0.00000   1.00000

 Dipole moment (field-independent basis, Debye):
    X=             -0.3189    Y=             -0.2883    Z=              0.0362  Tot=              0.4315
 Quadrupole moment (field-independent basis, Debye-Ang):
   XX=            -61.1908   YY=            -62.5730   ZZ=            -72.1225
   XY=              0.5989   XZ=              0.2014   YZ=              1.6526

 Normal termination of Gaussian 16 at Tue Dec  5 18:57:45 2023.
