 Gaussian 16, Revision B.01,
 Gaussian 16:  ES64L-G16RevB.01 20-Dec-2017

 -------------------------
 #P B3LYP/6-311+g(d) force
 -------------------------

 -----
 DPGEN
 -----
 Symbolic Z-matrix:
 Charge =  0 Multiplicity = 2

                         Standard orientation:
 ---------------------------------------------------------------------
 Center     Atomic      Atomic             Coordinates (Angstroms)
 Number     Number       Type             X           Y           Z
 ---------------------------------------------------------------------
      1         11           0       -0.362313   -0.815225   -0.284478
      2         11           0       -3.641956   -1.991383   -0.302459
      3         11           0        0.738368    0.324703    2.363396
      4         11           0       -2.681023    1.582687   -0.199658
      5         11           0        2.379368    0.220501   -1.728846
      6         11           0        0.790366    2.996744   -0.103856
      7         11           0        2.777190   -2.318028    0.255902
 ---------------------------------------------------------------------

 SCF Done:  E(UB3LYP) =  -1136.12565554     A.U. after   20 cycles

 The electronic state is 2-A.
 Alpha  occ. eigenvalues --  -38.44699 -38.44341 -38.44020 -38.43969 -38.43898
 Alpha  occ. eigenvalues --  -38.43263 -38.42984  -2.20491  -2.20207  -2.19851
 Alpha  occ. eigenvalues --   -2.19838  -2.19672  -2.19240  -2.18800  -1.14193
 Alpha  occ. eigenvalues --   -1.14173  -1.14081  -1.13919  -1.13823  -1.13783
 Alpha  occ. eigenvalues --   -1.13557  -1.13543  -1.13501  -1.13489  -1.13471
 Alpha  occ. eigenvalues --   -1.13416  -1.13345  -1.13340  -1.13299  -1.12992
 Alpha  occ. eigenvalues --   -1.12897  -1.12835  -1.12471  -1.12467  -1.12441
 Alpha  occ. eigenvalues --   -0.17986  -0.13302  -0.11745  -0.11069
 Alpha virt. eigenvalues --   -0.06004  -0.05646  -0.04297  -0.03223  -0.02860
 Alpha virt. eigenvalues --   -0.02535  -0.01965  -0.01467  -0.00618  -0.00298
 Alpha virt. eigenvalues --   -0.00018   0.00221   0.00603   0.00692   0.00731

  Beta  occ. eigenvalues --  -38.44698 -38.44230 -38.44018 -38.43903 -38.43902
  Beta  occ. eigenvalues --  -38.43247 -38.42977  -2.20488  -2.20002  -2.19838
  Beta  occ. eigenvalues --   -2.19729  -2.19680  -2.19217  -2.18789  -1.14191
  Beta  occ. eigenvalues --   -1.14166  -1.14083  -1.13778  -1.13686  -1.13635
  Beta  occ. eigenvalues --   -1.13532  -1.13506  -1.13467  -1.13457  -1.13399
  Beta  occ. eigenvalues --   -1.13351  -1.13346  -1.13344  -1.13304  -1.12924
  Beta  occ. eigenvalues --   -1.12887  -1.12828  -1.12465  -1.12447  -1.12428
  Beta  occ. eigenvalues --   -0.17260  -0.13102  -0.11594
  Beta virt. eigenvalues --   -0.07104  -0.05911  -0.05449  -0.04013  -0.02692
  Beta virt. eigenvalues --   -0.02058  -0.01940  -0.01879  -0.01391  -0.00544
  Beta virt. eigenvalues --   -0.00033   0.00056   0.00285   0.00694   0.00759

 Mulliken charges and spin densities:
               1          2
     1  Na  -1.818810   0.481737
     2  Na   0.663119  -0.096495
     3  Na  -0.067796   0.311731
     4  Na   0.373623  -0.049888
     5  Na   0.391218   0.106865
     6  Na   0.022238   0.185557
     7  Na   0.436407   0.060493
 Sum of Mulliken charges =  -0.00000   1.00000

 Dipole moment (field-independent basis, Debye):
    X=             -0.1183    Y=             -0.0901    Z=              0.3669  Tot=              0.3959
 Quadrupole moment (field-independent basis, Debye-Ang):
   XX=            -57.2215   YY=            -63.8108   ZZ=            -71.3682
   XY=             -2.3240   XZ=              0.4987   YZ=             -1.4194

 Normal termination of Gaussian 16 at Tue Dec  5 22:24:42 2023.
