 Gaussian 16, Revision B.01,
 Gaussian 16:  ES64L-G16RevB.01 20-Dec-2017

 -------------------------
 #P B3LYP/6-311+g(d) force
 -------------------------

 -----
 DPGEN
 -----
 Symbolic Z-matrix:
 Charge =  0 Multiplicity = 2

                         Standard orientation:
 ---------------------------------------------------------------------
 Center     Atomic      Atomic             Coordinates (Angstroms)
 Number     Number       Type             X           Y           Z
 ---------------------------------------------------------------------
      1         11           0       -0.095296    0.206921   -1.799011
      2         11           0        0.590575    2.049997    0.010856
      3         11           0        2.737123    0.071253    0.152201
      4         11           0        0.848227   -1.891029   -0.312166
      5         11           0       -0.020502   -0.195135    1.808202
      6         11           0       -1.930131   -1.508230    0.027207
      7         11           0       -2.129995    1.266223    0.112710
 ---------------------------------------------------------------------

 SCF Done:  E(UB3LYP) =  -1136.07957814     A.U. after   19 cycles

 The electronic state is 2-A.
 Alpha  occ. eigenvalues --  -38.44476 -38.44139 -38.44041 -38.43697 -38.43582
 Alpha  occ. eigenvalues --  -38.43519 -38.43313  -2.20730  -2.20361  -2.20083
 Alpha  occ. eigenvalues --   -2.19830  -2.19741  -2.19694  -2.19491  -1.14548
 Alpha  occ. eigenvalues --   -1.14504  -1.14325  -1.14154  -1.14047  -1.14043
 Alpha  occ. eigenvalues --   -1.13908  -1.13782  -1.13694  -1.13682  -1.13585
 Alpha  occ. eigenvalues --   -1.13541  -1.13433  -1.13335  -1.13303  -1.13291
 Alpha  occ. eigenvalues --   -1.13223  -1.13143  -1.13128  -1.13102  -1.13008
 Alpha  occ. eigenvalues --   -0.21742  -0.14000  -0.12815  -0.12399
 Alpha virt. eigenvalues --   -0.05285  -0.04204  -0.03976  -0.03799  -0.03191
 Alpha virt. eigenvalues --   -0.02921  -0.01174  -0.00412  -0.00110   0.00337
 Alpha virt. eigenvalues --    0.00745   0.00852   0.01037   0.01165   0.01246

  Beta  occ. eigenvalues --  -38.44377 -38.44044 -38.44034 -38.43685 -38.43569
  Beta  occ. eigenvalues --  -38.43498 -38.43297  -2.20553  -2.20191  -2.20075
  Beta  occ. eigenvalues --   -2.19814  -2.19716  -2.19673  -2.19469  -1.14442
  Beta  occ. eigenvalues --   -1.14378  -1.14202  -1.14060  -1.13964  -1.13927
  Beta  occ. eigenvalues --   -1.13871  -1.13774  -1.13683  -1.13638  -1.13569
  Beta  occ. eigenvalues --   -1.13523  -1.13366  -1.13289  -1.13249  -1.13227
  Beta  occ. eigenvalues --   -1.13212  -1.13132  -1.13112  -1.13028  -1.13003
  Beta  occ. eigenvalues --   -0.20899  -0.13625  -0.12437
  Beta virt. eigenvalues --   -0.08186  -0.05313  -0.04195  -0.03916  -0.02824
  Beta virt. eigenvalues --   -0.02268  -0.01846  -0.01096  -0.00374   0.00040
  Beta virt. eigenvalues --    0.00361   0.00748   0.00824   0.01074   0.01152

 Mulliken charges and spin densities:
               1          2
     1  Na  -0.210746   0.432784
     2  Na   0.171060   0.052864
     3  Na  -0.136361  -0.078708
     4  Na   0.224148   0.082592
     5  Na  -0.228614   0.513854
     6  Na   0.122556  -0.005416
     7  Na   0.057957   0.002030
 Sum of Mulliken charges =  -0.00000   1.00000

 Dipole moment (field-independent basis, Debye):
    X=              0.1551    Y=              0.0523    Z=              0.1452  Tot=              0.2188
 Quadrupole moment (field-independent basis, Debye-Ang):
   XX=            -58.9752   YY=            -71.1304   ZZ=            -67.9029
   XY=              0.2687   XZ=              0.1106   YZ=              0.6515

 Normal termination of Gaussian 16 at Thu Dec  7 22:37:24 2023.
