 Gaussian 16, Revision B.01,
 Gaussian 16:  ES64L-G16RevB.01 20-Dec-2017

 -------------------------
 #P B3LYP/6-311+g(d) force
 -------------------------

 -----
 DPGEN
 -----
 Symbolic Z-matrix:
 Charge =  0 Multiplicity = 2

                         Standard orientation:
 ---------------------------------------------------------------------
 Center     Atomic      Atomic             Coordinates (Angstroms)
 Number     Number       Type             X           Y           Z
 ---------------------------------------------------------------------
      1         11           0        0.021128    2.443977    1.626523
      2         11           0       -0.022451   -1.859435   -0.569224
      3         11           0       -1.879324    1.306367   -1.301256
      4         11           0        2.691510   -1.299828   -0.780151
      5         11           0        1.016249   -0.630614    2.545682
      6         11           0        1.381246    1.444113   -1.712924
      7         11           0       -3.208357   -1.404579    0.191350
 ---------------------------------------------------------------------

 SCF Done:  E(UB3LYP) =  -1136.12273452     A.U. after   25 cycles

 The electronic state is 2-A.
 Alpha  occ. eigenvalues --  -38.45530 -38.44154 -38.43942 -38.43772 -38.43530
 Alpha  occ. eigenvalues --  -38.43211 -38.43079  -2.21365  -2.19968  -2.19828
 Alpha  occ. eigenvalues --   -2.19700  -2.19391  -2.19045  -2.19028  -1.15027
 Alpha  occ. eigenvalues --   -1.14998  -1.14969  -1.13654  -1.13622  -1.13581
 Alpha  occ. eigenvalues --   -1.13545  -1.13520  -1.13494  -1.13439  -1.13304
 Alpha  occ. eigenvalues --   -1.13299  -1.13095  -1.13056  -1.12993  -1.12738
 Alpha  occ. eigenvalues --   -1.12704  -1.12694  -1.12682  -1.12677  -1.12618
 Alpha  occ. eigenvalues --   -0.18403  -0.12845  -0.12743  -0.11894
 Alpha virt. eigenvalues --   -0.05254  -0.04850  -0.04575  -0.03910  -0.03572
 Alpha virt. eigenvalues --   -0.03187  -0.01185  -0.00699  -0.00636   0.00195
 Alpha virt. eigenvalues --    0.00312   0.00371   0.00590   0.00743   0.00872

  Beta  occ. eigenvalues --  -38.45427 -38.44114 -38.43894 -38.43758 -38.43514
  Beta  occ. eigenvalues --  -38.43217 -38.43070  -2.21176  -2.19896  -2.19741
  Beta  occ. eigenvalues --   -2.19677  -2.19363  -2.19039  -2.19031  -1.14896
  Beta  occ. eigenvalues --   -1.14868  -1.14829  -1.13593  -1.13577  -1.13523
  Beta  occ. eigenvalues --   -1.13520  -1.13457  -1.13450  -1.13381  -1.13286
  Beta  occ. eigenvalues --   -1.13259  -1.13065  -1.13038  -1.12980  -1.12733
  Beta  occ. eigenvalues --   -1.12701  -1.12688  -1.12684  -1.12662  -1.12617
  Beta  occ. eigenvalues --   -0.17602  -0.12599  -0.11751
  Beta virt. eigenvalues --   -0.08586  -0.04951  -0.04475  -0.04269  -0.03401
  Beta virt. eigenvalues --   -0.02916  -0.02642  -0.01129  -0.00633  -0.00261
  Beta virt. eigenvalues --    0.00331   0.00394   0.00414   0.00766   0.00845

 Mulliken charges and spin densities:
               1          2
     1  Na  -0.176809   0.166024
     2  Na  -1.515757   0.375347
     3  Na   0.125650  -0.009127
     4  Na   1.420446  -0.087059
     5  Na  -0.023843   0.302534
     6  Na  -0.231729   0.255097
     7  Na   0.402043  -0.002816
 Sum of Mulliken charges =  -0.00000   1.00000

 Dipole moment (field-independent basis, Debye):
    X=              0.4409    Y=              0.3114    Z=              0.7866  Tot=              0.9540
 Quadrupole moment (field-independent basis, Debye-Ang):
   XX=            -63.4313   YY=            -72.4000   ZZ=            -62.0918
   XY=             -1.2482   XZ=             -1.5317   YZ=             -1.4831

 Normal termination of Gaussian 16 at Tue Dec  5 20:30:03 2023.
