 Gaussian 16, Revision B.01,
 Gaussian 16:  ES64L-G16RevB.01 20-Dec-2017

 -------------------------
 #P B3LYP/6-311+g(d) force
 -------------------------

 -----
 DPGEN
 -----
 Symbolic Z-matrix:
 Charge =  0 Multiplicity = 2

                         Standard orientation:
 ---------------------------------------------------------------------
 Center     Atomic      Atomic             Coordinates (Angstroms)
 Number     Number       Type             X           Y           Z
 ---------------------------------------------------------------------
      1         11           0        1.045380   -3.777453   -0.140810
      2         11           0       -4.332108   -0.548115   -0.375241
      3         11           0        0.568353    3.957678    0.196153
      4         11           0        3.863805   -1.451294   -0.201909
      5         11           0       -2.900325    2.116145   -0.101546
      6         11           0        3.375166    2.119712   -0.018867
      7         11           0       -1.620272   -2.416674    0.642220
 ---------------------------------------------------------------------

 SCF Done:  E(UB3LYP) =  -1136.11129557     A.U. after   21 cycles

 The electronic state is 2-A.
 Alpha  occ. eigenvalues --  -38.45553 -38.44893 -38.44684 -38.44477 -38.44287
 Alpha  occ. eigenvalues --  -38.43978 -38.43591  -2.21344  -2.20716  -2.20448
 Alpha  occ. eigenvalues --   -2.20261  -2.20140  -2.19795  -2.19388  -1.15024
 Alpha  occ. eigenvalues --   -1.15010  -1.14997  -1.14394  -1.14383  -1.14350
 Alpha  occ. eigenvalues --   -1.14136  -1.14126  -1.14093  -1.13924  -1.13909
 Alpha  occ. eigenvalues --   -1.13878  -1.13810  -1.13776  -1.13773  -1.13476
 Alpha  occ. eigenvalues --   -1.13451  -1.13428  -1.13042  -1.13033  -1.13024
 Alpha  occ. eigenvalues --   -0.15916  -0.14070  -0.13557  -0.10870
 Alpha virt. eigenvalues --   -0.07583  -0.04838  -0.04246  -0.03778  -0.03311
 Alpha virt. eigenvalues --   -0.02508  -0.02178  -0.02028  -0.01632  -0.00436
 Alpha virt. eigenvalues --   -0.00076  -0.00025   0.00048   0.00385   0.00559

  Beta  occ. eigenvalues --  -38.45534 -38.44852 -38.44685 -38.44410 -38.44256
  Beta  occ. eigenvalues --  -38.43962 -38.43537  -2.21314  -2.20646  -2.20455
  Beta  occ. eigenvalues --   -2.20139  -2.20085  -2.19771  -2.19287  -1.15003
  Beta  occ. eigenvalues --   -1.14992  -1.14947  -1.14344  -1.14339  -1.14285
  Beta  occ. eigenvalues --   -1.14146  -1.14136  -1.14058  -1.13841  -1.13828
  Beta  occ. eigenvalues --   -1.13792  -1.13764  -1.13740  -1.13738  -1.13447
  Beta  occ. eigenvalues --   -1.13437  -1.13402  -1.12973  -1.12969  -1.12957
  Beta  occ. eigenvalues --   -0.15424  -0.13393  -0.12872
  Beta virt. eigenvalues --   -0.07719  -0.07539  -0.04510  -0.03727  -0.03559
  Beta virt. eigenvalues --   -0.02800  -0.02342  -0.02000  -0.01866  -0.01468
  Beta virt. eigenvalues --   -0.00124   0.00144   0.00202   0.00271   0.00428

 Mulliken charges and spin densities:
               1          2
     1  Na   0.456465  -0.000023
     2  Na   0.729880   0.118876
     3  Na   0.260977   0.269311
     4  Na  -0.299926   0.284195
     5  Na  -0.220639   0.165757
     6  Na   0.129079  -0.033596
     7  Na  -1.055836   0.195480
 Sum of Mulliken charges =  -0.00000   1.00000

 Dipole moment (field-independent basis, Debye):
    X=             -1.1143    Y=             -0.4274    Z=             -0.1054  Tot=              1.1981
 Quadrupole moment (field-independent basis, Debye-Ang):
   XX=            -60.8382   YY=            -66.0715   ZZ=            -73.3300
   XY=             -1.4085   XZ=              0.0781   YZ=              0.9667

 Normal termination of Gaussian 16 at Mon Dec  4 00:35:22 2023.
