 Gaussian 16, Revision B.01,
 Gaussian 16:  ES64L-G16RevB.01 20-Dec-2017

 -------------------------
 #P B3LYP/6-311+g(d) force
 -------------------------

 -----
 DPGEN
 -----
 Symbolic Z-matrix:
 Charge =  0 Multiplicity = 2

                         Standard orientation:
 ---------------------------------------------------------------------
 Center     Atomic      Atomic             Coordinates (Angstroms)
 Number     Number       Type             X           Y           Z
 ---------------------------------------------------------------------
      1         11           0       -1.536689    0.200300    1.879996
      2         11           0       -2.647351   -2.063689   -0.575854
      3         11           0       -2.356941    1.676782   -0.913689
      4         11           0        0.256300   -0.151662   -1.286251
      5         11           0        1.005810    2.489974    0.485427
      6         11           0        1.207268   -1.777685    0.914164
      7         11           0        4.071603   -0.374020   -0.503794
 ---------------------------------------------------------------------

 SCF Done:  E(UB3LYP) =  -1136.12659538     A.U. after   20 cycles

 The electronic state is 2-A.
 Alpha  occ. eigenvalues --  -38.44952 -38.43736 -38.43690 -38.43599 -38.43596
 Alpha  occ. eigenvalues --  -38.43529 -38.43283  -2.20716  -2.19703  -2.19619
 Alpha  occ. eigenvalues --   -2.19487  -2.19452  -2.19414  -2.19105  -1.14391
 Alpha  occ. eigenvalues --   -1.14374  -1.14337  -1.13562  -1.13401  -1.13323
 Alpha  occ. eigenvalues --   -1.13315  -1.13255  -1.13206  -1.13165  -1.13141
 Alpha  occ. eigenvalues --   -1.13112  -1.13106  -1.13087  -1.13066  -1.13059
 Alpha  occ. eigenvalues --   -1.13046  -1.13026  -1.12800  -1.12774  -1.12712
 Alpha  occ. eigenvalues --   -0.18575  -0.13405  -0.11570  -0.10799
 Alpha virt. eigenvalues --   -0.06580  -0.05147  -0.03974  -0.03151  -0.02586
 Alpha virt. eigenvalues --   -0.02379  -0.02276  -0.01180  -0.00705  -0.00150
 Alpha virt. eigenvalues --    0.00183   0.00212   0.00477   0.00669   0.00795

  Beta  occ. eigenvalues --  -38.44944 -38.43708 -38.43656 -38.43588 -38.43572
  Beta  occ. eigenvalues --  -38.43456 -38.43276  -2.20701  -2.19644  -2.19570
  Beta  occ. eigenvalues --   -2.19445  -2.19396  -2.19319  -2.19095  -1.14378
  Beta  occ. eigenvalues --   -1.14365  -1.14327  -1.13510  -1.13363  -1.13283
  Beta  occ. eigenvalues --   -1.13269  -1.13218  -1.13165  -1.13122  -1.13084
  Beta  occ. eigenvalues --   -1.13078  -1.13056  -1.13038  -1.13027  -1.13008
  Beta  occ. eigenvalues --   -1.12995  -1.12943  -1.12795  -1.12747  -1.12708
  Beta  occ. eigenvalues --   -0.17844  -0.13184  -0.11374
  Beta virt. eigenvalues --   -0.06896  -0.06349  -0.05104  -0.03757  -0.02802
  Beta virt. eigenvalues --   -0.02253  -0.01917  -0.01332  -0.01111  -0.00416
  Beta virt. eigenvalues --   -0.00020   0.00199   0.00252   0.00619   0.00724

 Mulliken charges and spin densities:
               1          2
     1  Na   0.174690   0.453320
     2  Na   0.065531   0.052042
     3  Na   0.245668   0.145486
     4  Na  -0.651509   0.200629
     5  Na  -0.125890   0.015538
     6  Na   0.061169   0.093877
     7  Na   0.230340   0.039109
 Sum of Mulliken charges =  -0.00000   1.00000

 Dipole moment (field-independent basis, Debye):
    X=              0.6352    Y=              0.1385    Z=              0.0710  Tot=              0.6539
 Quadrupole moment (field-independent basis, Debye-Ang):
   XX=            -48.2634   YY=            -70.3919   ZZ=            -71.6843
   XY=              1.0727   XZ=             -0.1014   YZ=              0.4225

 Normal termination of Gaussian 16 at Thu Dec  7 21:42:48 2023.
