 Gaussian 16, Revision B.01,
 Gaussian 16:  ES64L-G16RevB.01 20-Dec-2017

 -------------------------
 #P B3LYP/6-311+g(d) force
 -------------------------

 -----
 DPGEN
 -----
 Symbolic Z-matrix:
 Charge =  0 Multiplicity = 2

                         Standard orientation:
 ---------------------------------------------------------------------
 Center     Atomic      Atomic             Coordinates (Angstroms)
 Number     Number       Type             X           Y           Z
 ---------------------------------------------------------------------
      1         11           0       -0.580740    2.694259    0.121816
      2         11           0        3.013761    1.261852   -0.120413
      3         11           0        0.337191    0.200543   -1.794768
      4         11           0        2.200649   -2.157244    0.127432
      5         11           0       -2.342952   -2.020668   -0.689783
      6         11           0        0.310467   -0.686524    1.866584
      7         11           0       -2.938376    0.707782    0.489133
 ---------------------------------------------------------------------

 SCF Done:  E(UB3LYP) =  -1136.12893184     A.U. after   20 cycles

 The electronic state is 2-A.
 Alpha  occ. eigenvalues --  -38.44625 -38.43985 -38.43857 -38.43834 -38.43757
 Alpha  occ. eigenvalues --  -38.43576 -38.42951  -2.20444  -2.19882  -2.19731
 Alpha  occ. eigenvalues --   -2.19676  -2.19664  -2.19507  -2.18825  -1.14130
 Alpha  occ. eigenvalues --   -1.14101  -1.14074  -1.13624  -1.13561  -1.13552
 Alpha  occ. eigenvalues --   -1.13525  -1.13382  -1.13349  -1.13327  -1.13314
 Alpha  occ. eigenvalues --   -1.13310  -1.13298  -1.13270  -1.13243  -1.13189
 Alpha  occ. eigenvalues --   -1.13147  -1.13124  -1.12513  -1.12480  -1.12459
 Alpha  occ. eigenvalues --   -0.18621  -0.13690  -0.11997  -0.10868
 Alpha virt. eigenvalues --   -0.06094  -0.05441  -0.04179  -0.03499  -0.02906
 Alpha virt. eigenvalues --   -0.02465  -0.01861  -0.01104  -0.00390  -0.00115
 Alpha virt. eigenvalues --   -0.00035   0.00331   0.00717   0.00812   0.00832

  Beta  occ. eigenvalues --  -38.44620 -38.43977 -38.43850 -38.43814 -38.43684
  Beta  occ. eigenvalues --  -38.43506 -38.42945  -2.20437  -2.19870  -2.19722
  Beta  occ. eigenvalues --   -2.19641  -2.19533  -2.19378  -2.18817  -1.14112
  Beta  occ. eigenvalues --   -1.14094  -1.14070  -1.13611  -1.13547  -1.13519
  Beta  occ. eigenvalues --   -1.13501  -1.13355  -1.13345  -1.13295  -1.13289
  Beta  occ. eigenvalues --   -1.13274  -1.13224  -1.13183  -1.13163  -1.13101
  Beta  occ. eigenvalues --   -1.13063  -1.13024  -1.12510  -1.12460  -1.12445
  Beta  occ. eigenvalues --   -0.17930  -0.13435  -0.11725
  Beta virt. eigenvalues --   -0.07063  -0.06018  -0.05332  -0.04026  -0.02844
  Beta virt. eigenvalues --   -0.02177  -0.01751  -0.01521  -0.00998  -0.00397
  Beta virt. eigenvalues --   -0.00129   0.00101   0.00371   0.00802   0.00824

 Mulliken charges and spin densities:
               1          2
     1  Na  -0.084189   0.025092
     2  Na   0.077571  -0.042536
     3  Na  -0.125092   0.528007
     4  Na   0.221702  -0.062637
     5  Na   0.066646   0.073744
     6  Na  -0.238693   0.465792
     7  Na   0.082056   0.012539
 Sum of Mulliken charges =  -0.00000   1.00000

 Dipole moment (field-independent basis, Debye):
    X=              0.6472    Y=             -0.1112    Z=              0.0232  Tot=              0.6571
 Quadrupole moment (field-independent basis, Debye-Ang):
   XX=            -54.3027   YY=            -67.3085   ZZ=            -73.4067
   XY=              1.0819   XZ=             -0.5661   YZ=              2.5843

 Normal termination of Gaussian 16 at Thu Dec  7 07:29:04 2023.
