 Gaussian 16, Revision B.01,
 Gaussian 16:  ES64L-G16RevB.01 20-Dec-2017

 -------------------------
 #P B3LYP/6-311+g(d) force
 -------------------------

 -----
 DPGEN
 -----
 Symbolic Z-matrix:
 Charge =  0 Multiplicity = 2

                         Standard orientation:
 ---------------------------------------------------------------------
 Center     Atomic      Atomic             Coordinates (Angstroms)
 Number     Number       Type             X           Y           Z
 ---------------------------------------------------------------------
      1         11           0       -1.734758    2.416269   -0.822398
      2         11           0        1.080219   -1.891879    1.033694
      3         11           0        1.381172    2.127986    0.637002
      4         11           0        0.144133   -0.463493   -1.593521
      5         11           0        3.779851   -0.503834   -0.442419
      6         11           0       -1.760846    0.352537    1.692656
      7         11           0       -2.889771   -2.037587   -0.505015
 ---------------------------------------------------------------------

 SCF Done:  E(UB3LYP) =  -1136.13259211     A.U. after   21 cycles

 The electronic state is 2-A.
 Alpha  occ. eigenvalues --  -38.44565 -38.43993 -38.43855 -38.43589 -38.43529
 Alpha  occ. eigenvalues --  -38.43398 -38.43379  -2.20363  -2.19781  -2.19720
 Alpha  occ. eigenvalues --   -2.19453  -2.19418  -2.19295  -2.19232  -1.14034
 Alpha  occ. eigenvalues --   -1.14024  -1.13998  -1.13469  -1.13459  -1.13440
 Alpha  occ. eigenvalues --   -1.13418  -1.13382  -1.13308  -1.13153  -1.13117
 Alpha  occ. eigenvalues --   -1.13099  -1.13087  -1.13048  -1.13035  -1.12995
 Alpha  occ. eigenvalues --   -1.12968  -1.12911  -1.12892  -1.12862  -1.12847
 Alpha  occ. eigenvalues --   -0.18296  -0.13334  -0.11879  -0.10588
 Alpha virt. eigenvalues --   -0.06223  -0.05409  -0.04270  -0.03285  -0.02796
 Alpha virt. eigenvalues --   -0.02334  -0.02064  -0.01228  -0.00642  -0.00039
 Alpha virt. eigenvalues --    0.00110   0.00250   0.00593   0.00703   0.00736

  Beta  occ. eigenvalues --  -38.44564 -38.43989 -38.43828 -38.43580 -38.43468
  Beta  occ. eigenvalues --  -38.43364 -38.43342  -2.20363  -2.19775  -2.19674
  Beta  occ. eigenvalues --   -2.19403  -2.19342  -2.19208  -2.19194  -1.14030
  Beta  occ. eigenvalues --   -1.14021  -1.13999  -1.13451  -1.13437  -1.13425
  Beta  occ. eigenvalues --   -1.13414  -1.13328  -1.13278  -1.13109  -1.13066
  Beta  occ. eigenvalues --   -1.13063  -1.13030  -1.13015  -1.12967  -1.12943
  Beta  occ. eigenvalues --   -1.12897  -1.12863  -1.12845  -1.12836  -1.12805
  Beta  occ. eigenvalues --   -0.17577  -0.13177  -0.11680
  Beta virt. eigenvalues --   -0.06711  -0.06101  -0.05372  -0.04014  -0.02847
  Beta virt. eigenvalues --   -0.02150  -0.02001  -0.01401  -0.01099  -0.00386
  Beta virt. eigenvalues --    0.00024   0.00138   0.00288   0.00716   0.00761

 Mulliken charges and spin densities:
               1          2
     1  Na   0.196996  -0.010343
     2  Na  -0.142206   0.136372
     3  Na  -0.228499   0.056908
     4  Na  -0.402438   0.526931
     5  Na   0.418796  -0.019372
     6  Na   0.087909   0.398588
     7  Na   0.069442  -0.089085
 Sum of Mulliken charges =  -0.00000   1.00000

 Dipole moment (field-independent basis, Debye):
    X=              0.6081    Y=             -0.1255    Z=             -0.1086  Tot=              0.6303
 Quadrupole moment (field-independent basis, Debye-Ang):
   XX=            -50.1058   YY=            -68.9687   ZZ=            -72.6384
   XY=              0.4128   XZ=              0.4683   YZ=             -0.4602

 Normal termination of Gaussian 16 at Tue Dec  5 20:46:15 2023.
