 Gaussian 16, Revision B.01,
 Gaussian 16:  ES64L-G16RevB.01 20-Dec-2017

 -------------------------
 #P B3LYP/6-311+g(d) force
 -------------------------

 -----
 DPGEN
 -----
 Symbolic Z-matrix:
 Charge =  0 Multiplicity = 2

                         Standard orientation:
 ---------------------------------------------------------------------
 Center     Atomic      Atomic             Coordinates (Angstroms)
 Number     Number       Type             X           Y           Z
 ---------------------------------------------------------------------
      1         11           0        0.147150   -0.378107   -1.544652
      2         11           0        1.379513    2.720107   -0.058357
      3         11           0        3.192235   -0.791082   -0.361675
      4         11           0        0.259284   -2.774849    0.622593
      5         11           0       -0.428965    0.205683    2.178785
      6         11           0       -2.845947   -1.199453   -0.709239
      7         11           0       -1.703270    2.217700   -0.127456
 ---------------------------------------------------------------------

 SCF Done:  E(UB3LYP) =  -1136.13639240     A.U. after   18 cycles

 The electronic state is 2-A.
 Alpha  occ. eigenvalues --  -38.44003 -38.43734 -38.43703 -38.43665 -38.43577
 Alpha  occ. eigenvalues --  -38.43386 -38.43137  -2.19885  -2.19595  -2.19508
 Alpha  occ. eigenvalues --   -2.19503  -2.19420  -2.19288  -2.19134  -1.13545
 Alpha  occ. eigenvalues --   -1.13531  -1.13498  -1.13293  -1.13268  -1.13219
 Alpha  occ. eigenvalues --   -1.13211  -1.13198  -1.13166  -1.13161  -1.13144
 Alpha  occ. eigenvalues --   -1.13134  -1.13125  -1.13062  -1.13052  -1.12961
 Alpha  occ. eigenvalues --   -1.12957  -1.12898  -1.12814  -1.12770  -1.12751
 Alpha  occ. eigenvalues --   -0.18608  -0.12856  -0.12497  -0.11133
 Alpha virt. eigenvalues --   -0.05326  -0.04997  -0.04851  -0.03340  -0.02947
 Alpha virt. eigenvalues --   -0.02787  -0.01373  -0.01127  -0.00356  -0.00159
 Alpha virt. eigenvalues --   -0.00005   0.00345   0.00831   0.00873   0.00913

  Beta  occ. eigenvalues --  -38.43904 -38.43716 -38.43701 -38.43665 -38.43558
  Beta  occ. eigenvalues --  -38.43380 -38.43086  -2.19702  -2.19566  -2.19507
  Beta  occ. eigenvalues --   -2.19503  -2.19388  -2.19280  -2.19041  -1.13426
  Beta  occ. eigenvalues --   -1.13400  -1.13370  -1.13275  -1.13222  -1.13216
  Beta  occ. eigenvalues --   -1.13200  -1.13184  -1.13162  -1.13153  -1.13140
  Beta  occ. eigenvalues --   -1.13132  -1.13091  -1.13042  -1.13023  -1.12957
  Beta  occ. eigenvalues --   -1.12930  -1.12888  -1.12750  -1.12708  -1.12676
  Beta  occ. eigenvalues --   -0.17888  -0.12645  -0.12232
  Beta virt. eigenvalues --   -0.07174  -0.05272  -0.04939  -0.04766  -0.02552
  Beta virt. eigenvalues --   -0.02304  -0.01744  -0.01249  -0.01062  -0.00299
  Beta virt. eigenvalues --   -0.00193   0.00114   0.00385   0.00869   0.00905

 Mulliken charges and spin densities:
               1          2
     1  Na  -0.261459   0.350590
     2  Na  -0.094845  -0.052747
     3  Na   0.057658  -0.058202
     4  Na   0.093029   0.124891
     5  Na  -0.328098   0.541605
     6  Na   0.254498   0.032076
     7  Na   0.279218   0.061787
 Sum of Mulliken charges =  -0.00000   1.00000

 Dipole moment (field-independent basis, Debye):
    X=              0.0594    Y=             -0.0730    Z=              0.2612  Tot=              0.2776
 Quadrupole moment (field-independent basis, Debye-Ang):
   XX=            -59.5203   YY=            -62.2128   ZZ=            -72.5198
   XY=              0.8199   XZ=              1.1573   YZ=             -1.0058

 Normal termination of Gaussian 16 at Tue Dec  5 10:14:03 2023.
