 Gaussian 16, Revision B.01,
 Gaussian 16:  ES64L-G16RevB.01 20-Dec-2017

 -------------------------
 #P B3LYP/6-311+g(d) force
 -------------------------

 -----
 DPGEN
 -----
 Symbolic Z-matrix:
 Charge =  0 Multiplicity = 2

                         Standard orientation:
 ---------------------------------------------------------------------
 Center     Atomic      Atomic             Coordinates (Angstroms)
 Number     Number       Type             X           Y           Z
 ---------------------------------------------------------------------
      1         11           0       -0.101097    0.044774    1.852907
      2         11           0       -0.703895    2.185552   -0.056549
      3         11           0       -2.683384    0.096819   -0.080064
      4         11           0        0.204797   -0.107046   -1.840854
      5         11           0        2.124510    1.365381    0.004988
      6         11           0        1.977736   -1.434497    0.141957
      7         11           0       -0.818668   -2.150983   -0.022385
 ---------------------------------------------------------------------

 SCF Done:  E(UB3LYP) =  -1136.10029352     A.U. after   19 cycles

 The electronic state is 2-A.
 Alpha  occ. eigenvalues --  -38.43979 -38.43957 -38.43734 -38.43525 -38.43502
 Alpha  occ. eigenvalues --  -38.43174 -38.43156  -2.20150  -2.20120  -2.19760
 Alpha  occ. eigenvalues --   -2.19645  -2.19573  -2.19287  -2.19256  -1.13939
 Alpha  occ. eigenvalues --   -1.13842  -1.13827  -1.13810  -1.13791  -1.13757
 Alpha  occ. eigenvalues --   -1.13521  -1.13507  -1.13470  -1.13373  -1.13355
 Alpha  occ. eigenvalues --   -1.13285  -1.13249  -1.13183  -1.13080  -1.12938
 Alpha  occ. eigenvalues --   -1.12915  -1.12909  -1.12884  -1.12855  -1.12818
 Alpha  occ. eigenvalues --   -0.21292  -0.13713  -0.12944  -0.12196
 Alpha virt. eigenvalues --   -0.05098  -0.04344  -0.04142  -0.03662  -0.03259
 Alpha virt. eigenvalues --   -0.02983  -0.01012  -0.00527  -0.00105   0.00370
 Alpha virt. eigenvalues --    0.00706   0.00769   0.01028   0.01143   0.01184

  Beta  occ. eigenvalues --  -38.43886 -38.43862 -38.43728 -38.43511 -38.43491
  Beta  occ. eigenvalues --  -38.43160 -38.43143  -2.19981  -2.19949  -2.19752
  Beta  occ. eigenvalues --   -2.19628  -2.19559  -2.19269  -2.19239  -1.13850
  Beta  occ. eigenvalues --   -1.13734  -1.13715  -1.13693  -1.13673  -1.13636
  Beta  occ. eigenvalues --   -1.13513  -1.13507  -1.13451  -1.13337  -1.13328
  Beta  occ. eigenvalues --   -1.13276  -1.13180  -1.13123  -1.13076  -1.12929
  Beta  occ. eigenvalues --   -1.12902  -1.12852  -1.12844  -1.12818  -1.12815
  Beta  occ. eigenvalues --   -0.20451  -0.13359  -0.12583
  Beta virt. eigenvalues --   -0.08033  -0.05119  -0.04339  -0.04133  -0.02712
  Beta virt. eigenvalues --   -0.02326  -0.01880  -0.00942  -0.00484   0.00045
  Beta virt. eigenvalues --    0.00390   0.00679   0.00724   0.01072   0.01129

 Mulliken charges and spin densities:
               1          2
     1  Na  -0.309220   0.443318
     2  Na   0.159169   0.062589
     3  Na  -0.049963  -0.049223
     4  Na  -0.305939   0.446711
     5  Na   0.128969   0.008843
     6  Na   0.204508   0.039027
     7  Na   0.172476   0.048735
 Sum of Mulliken charges =  -0.00000   1.00000

 Dipole moment (field-independent basis, Debye):
    X=             -0.1264    Y=              0.0551    Z=              0.0072  Tot=              0.1381
 Quadrupole moment (field-independent basis, Debye-Ang):
   XX=            -60.9142   YY=            -68.6468   ZZ=            -68.1986
   XY=              0.1787   XZ=              0.5826   YZ=             -0.2962

 Normal termination of Gaussian 16 at Thu Dec  7 09:56:47 2023.
