 Gaussian 16, Revision B.01,
 Gaussian 16:  ES64L-G16RevB.01 20-Dec-2017

 -------------------------
 #P B3LYP/6-311+g(d) force
 -------------------------

 -----
 DPGEN
 -----
 Symbolic Z-matrix:
 Charge =  0 Multiplicity = 2

                         Standard orientation:
 ---------------------------------------------------------------------
 Center     Atomic      Atomic             Coordinates (Angstroms)
 Number     Number       Type             X           Y           Z
 ---------------------------------------------------------------------
      1         11           0       -3.364426   -1.550156   -0.624686
      2         11           0       -1.713323   -0.245641    1.946071
      3         11           0       -1.880557    2.113357   -0.931666
      4         11           0        0.990505    1.642016    1.465136
      5         11           0        3.574309   -1.717909    0.335718
      6         11           0        0.012640   -1.447222   -0.863409
      7         11           0        2.380852    1.205554   -1.327165
 ---------------------------------------------------------------------

 SCF Done:  E(UB3LYP) =  -1136.12576270     A.U. after   22 cycles

 The electronic state is 2-A.
 Alpha  occ. eigenvalues --  -38.44453 -38.44400 -38.44218 -38.43912 -38.43899
 Alpha  occ. eigenvalues --  -38.43739 -38.43077  -2.20248  -2.20216  -2.20005
 Alpha  occ. eigenvalues --   -2.19745  -2.19743  -2.19640  -2.18956  -1.13950
 Alpha  occ. eigenvalues --   -1.13928  -1.13891  -1.13883  -1.13860  -1.13817
 Alpha  occ. eigenvalues --   -1.13679  -1.13659  -1.13627  -1.13467  -1.13431
 Alpha  occ. eigenvalues --   -1.13425  -1.13422  -1.13385  -1.13330  -1.13315
 Alpha  occ. eigenvalues --   -1.13268  -1.13240  -1.12642  -1.12630  -1.12565
 Alpha  occ. eigenvalues --   -0.18024  -0.13784  -0.11357  -0.10809
 Alpha virt. eigenvalues --   -0.06269  -0.05873  -0.04595  -0.03136  -0.02737
 Alpha virt. eigenvalues --   -0.02372  -0.02175  -0.01450  -0.00599  -0.00325
 Alpha virt. eigenvalues --    0.00180   0.00205   0.00343   0.00462   0.00635

  Beta  occ. eigenvalues --  -38.44456 -38.44378 -38.44180 -38.43904 -38.43885
  Beta  occ. eigenvalues --  -38.43669 -38.43048  -2.20222  -2.20207  -2.19936
  Beta  occ. eigenvalues --   -2.19730  -2.19722  -2.19513  -2.18907  -1.13925
  Beta  occ. eigenvalues --   -1.13896  -1.13892  -1.13886  -1.13857  -1.13794
  Beta  occ. eigenvalues --   -1.13623  -1.13612  -1.13578  -1.13438  -1.13416
  Beta  occ. eigenvalues --   -1.13406  -1.13400  -1.13369  -1.13309  -1.13236
  Beta  occ. eigenvalues --   -1.13185  -1.13144  -1.12604  -1.12577  -1.12529
  Beta  occ. eigenvalues --   -0.17347  -0.13635  -0.11116
  Beta virt. eigenvalues --   -0.07040  -0.06043  -0.05754  -0.04083  -0.02946
  Beta virt. eigenvalues --   -0.02263  -0.02020  -0.01603  -0.01203  -0.00350
  Beta virt. eigenvalues --   -0.00141   0.00227   0.00249   0.00428   0.00581

 Mulliken charges and spin densities:
               1          2
     1  Na   0.444276   0.068818
     2  Na   0.020869   0.061913
     3  Na  -0.313921   0.251867
     4  Na   0.042699   0.314512
     5  Na   0.142450  -0.094971
     6  Na  -0.888671   0.334888
     7  Na   0.552298   0.062972
 Sum of Mulliken charges =  -0.00000   1.00000

 Dipole moment (field-independent basis, Debye):
    X=              0.0924    Y=              0.0141    Z=             -0.2126  Tot=              0.2322
 Quadrupole moment (field-independent basis, Debye-Ang):
   XX=            -51.1645   YY=            -72.8510   ZZ=            -70.0183
   XY=             -0.0821   XZ=              1.9377   YZ=             -3.0470

 Normal termination of Gaussian 16 at Fri Dec  8 05:47:51 2023.
