 Gaussian 16, Revision B.01,
 Gaussian 16:  ES64L-G16RevB.01 20-Dec-2017

 -------------------------
 #P B3LYP/6-311+g(d) force
 -------------------------

 -----
 DPGEN
 -----
 Symbolic Z-matrix:
 Charge =  0 Multiplicity = 2

                         Standard orientation:
 ---------------------------------------------------------------------
 Center     Atomic      Atomic             Coordinates (Angstroms)
 Number     Number       Type             X           Y           Z
 ---------------------------------------------------------------------
      1         11           0       -2.982206   -0.049140   -0.237234
      2         11           0       -0.667894   -2.863224   -0.037632
      3         11           0       -0.817367    2.807761   -0.072929
      4         11           0       -0.448429   -0.217231    1.995028
      5         11           0        2.264581    1.908057    0.149427
      6         11           0       -0.042823   -0.033335   -1.682325
      7         11           0        2.694139   -1.552887   -0.114334
 ---------------------------------------------------------------------

 SCF Done:  E(UB3LYP) =  -1136.14043937     A.U. after   19 cycles

 The electronic state is 2-A.
 Alpha  occ. eigenvalues --  -38.43686 -38.43669 -38.43661 -38.43500 -38.43488
 Alpha  occ. eigenvalues --  -38.43454 -38.43111  -2.19551  -2.19532  -2.19490
 Alpha  occ. eigenvalues --   -2.19401  -2.19356  -2.19330  -2.19103  -1.13256
 Alpha  occ. eigenvalues --   -1.13235  -1.13223  -1.13209  -1.13183  -1.13167
 Alpha  occ. eigenvalues --   -1.13156  -1.13151  -1.13124  -1.13090  -1.13058
 Alpha  occ. eigenvalues --   -1.13027  -1.13019  -1.13014  -1.13003  -1.13000
 Alpha  occ. eigenvalues --   -1.12974  -1.12931  -1.12778  -1.12730  -1.12722
 Alpha  occ. eigenvalues --   -0.18850  -0.12900  -0.12740  -0.10768
 Alpha virt. eigenvalues --   -0.05417  -0.05024  -0.04964  -0.03110  -0.02975
 Alpha virt. eigenvalues --   -0.02546  -0.01289  -0.01190  -0.00343  -0.00268
 Alpha virt. eigenvalues --   -0.00005   0.00370   0.00873   0.00886   0.00920

  Beta  occ. eigenvalues --  -38.43679 -38.43668 -38.43651 -38.43498 -38.43449
  Beta  occ. eigenvalues --  -38.43397 -38.43041  -2.19542  -2.19520  -2.19491
  Beta  occ. eigenvalues --   -2.19354  -2.19325  -2.19233  -2.18975  -1.13249
  Beta  occ. eigenvalues --   -1.13215  -1.13195  -1.13182  -1.13167  -1.13163
  Beta  occ. eigenvalues --   -1.13148  -1.13143  -1.13126  -1.13088  -1.13007
  Beta  occ. eigenvalues --   -1.12998  -1.12989  -1.12963  -1.12948  -1.12931
  Beta  occ. eigenvalues --   -1.12900  -1.12896  -1.12693  -1.12639  -1.12626
  Beta  occ. eigenvalues --   -0.18112  -0.12660  -0.12503
  Beta virt. eigenvalues --   -0.06833  -0.05422  -0.05030  -0.04881  -0.02302
  Beta virt. eigenvalues --   -0.02202  -0.01476  -0.01212  -0.01117  -0.00398
  Beta virt. eigenvalues --   -0.00328   0.00137   0.00394   0.00874   0.00903

 Mulliken charges and spin densities:
               1          2
     1  Na   0.373311  -0.073586
     2  Na   0.245470  -0.096493
     3  Na   0.169696  -0.042625
     4  Na  -0.511473   0.784575
     5  Na  -0.022250  -0.048853
     6  Na  -0.267307   0.558679
     7  Na   0.012553  -0.081696
 Sum of Mulliken charges =  -0.00000   1.00000

 Dipole moment (field-independent basis, Debye):
    X=             -0.0941    Y=             -0.1680    Z=              0.1109  Tot=              0.2222
 Quadrupole moment (field-independent basis, Debye-Ang):
   XX=            -59.1284   YY=            -60.3150   ZZ=            -74.2583
   XY=             -0.3184   XZ=              0.9405   YZ=              0.4354

 Normal termination of Gaussian 16 at Fri Dec  8 01:45:15 2023.
