 Gaussian 16, Revision B.01,
 Gaussian 16:  ES64L-G16RevB.01 20-Dec-2017

 -------------------------
 #P B3LYP/6-311+g(d) force
 -------------------------

 -----
 DPGEN
 -----
 Symbolic Z-matrix:
 Charge =  0 Multiplicity = 2

                         Standard orientation:
 ---------------------------------------------------------------------
 Center     Atomic      Atomic             Coordinates (Angstroms)
 Number     Number       Type             X           Y           Z
 ---------------------------------------------------------------------
      1         11           0        2.946636   -1.721624   -0.940635
      2         11           0       -1.396432   -1.945967    0.355749
      3         11           0        0.733166   -3.650788    1.095331
      4         11           0        0.415665    3.642704    1.333813
      5         11           0       -1.680709    2.059880   -0.347373
      6         11           0        3.489471    1.783586   -0.677791
      7         11           0       -4.507797   -0.167791   -0.819093
 ---------------------------------------------------------------------

 SCF Done:  E(UB3LYP) =  -1136.11441341     A.U. after   19 cycles

 The electronic state is 2-A.
 Alpha  occ. eigenvalues --  -38.44788 -38.44676 -38.44509 -38.44245 -38.44016
 Alpha  occ. eigenvalues --  -38.43999 -38.43967  -2.20559  -2.20427  -2.20353
 Alpha  occ. eigenvalues --   -2.20055  -2.19845  -2.19817  -2.19808  -1.14247
 Alpha  occ. eigenvalues --   -1.14231  -1.14177  -1.14119  -1.14106  -1.14085
 Alpha  occ. eigenvalues --   -1.14046  -1.14023  -1.14014  -1.13771  -1.13739
 Alpha  occ. eigenvalues --   -1.13697  -1.13494  -1.13466  -1.13463  -1.13463
 Alpha  occ. eigenvalues --   -1.13459  -1.13456  -1.13438  -1.13425  -1.13417
 Alpha  occ. eigenvalues --   -0.16066  -0.13758  -0.13274  -0.10962
 Alpha virt. eigenvalues --   -0.06391  -0.05308  -0.04251  -0.03802  -0.03265
 Alpha virt. eigenvalues --   -0.02175  -0.01754  -0.01522  -0.01293  -0.01080
 Alpha virt. eigenvalues --   -0.00468  -0.00255   0.00100   0.00610   0.00659

  Beta  occ. eigenvalues --  -38.44759 -38.44643 -38.44495 -38.44231 -38.43960
  Beta  occ. eigenvalues --  -38.43941 -38.43931  -2.20509  -2.20369  -2.20333
  Beta  occ. eigenvalues --   -2.20036  -2.19780  -2.19712  -2.19704  -1.14216
  Beta  occ. eigenvalues --   -1.14199  -1.14119  -1.14069  -1.14069  -1.14047
  Beta  occ. eigenvalues --   -1.14013  -1.14006  -1.13989  -1.13744  -1.13731
  Beta  occ. eigenvalues --   -1.13658  -1.13442  -1.13419  -1.13402  -1.13393
  Beta  occ. eigenvalues --   -1.13392  -1.13389  -1.13382  -1.13360  -1.13350
  Beta  occ. eigenvalues --   -0.15653  -0.13112  -0.12398
  Beta virt. eigenvalues --   -0.07778  -0.06397  -0.04971  -0.03877  -0.03640
  Beta virt. eigenvalues --   -0.02823  -0.01919  -0.01593  -0.01268  -0.01060
  Beta virt. eigenvalues --   -0.00715  -0.00140  -0.00015   0.00230   0.00619

 Mulliken charges and spin densities:
               1          2
     1  Na  -0.129454   0.159684
     2  Na  -2.427412   0.294134
     3  Na   1.968129  -0.205376
     4  Na   0.464536   0.098534
     5  Na  -0.891972   0.213434
     6  Na   0.071209   0.092817
     7  Na   0.944965   0.346772
 Sum of Mulliken charges =  -0.00000   1.00000

 Dipole moment (field-independent basis, Debye):
    X=              0.1921    Y=             -0.3321    Z=              0.1501  Tot=              0.4119
 Quadrupole moment (field-independent basis, Debye-Ang):
   XX=            -63.4950   YY=            -63.8044   ZZ=            -69.7586
   XY=              0.4532   XZ=              1.9000   YZ=              0.2592

 Normal termination of Gaussian 16 at Sun Dec  3 15:15:13 2023.
