 Gaussian 16, Revision B.01,
 Gaussian 16:  ES64L-G16RevB.01 20-Dec-2017

 -------------------------
 #P B3LYP/6-311+g(d) force
 -------------------------

 -----
 DPGEN
 -----
 Symbolic Z-matrix:
 Charge =  0 Multiplicity = 2

                         Standard orientation:
 ---------------------------------------------------------------------
 Center     Atomic      Atomic             Coordinates (Angstroms)
 Number     Number       Type             X           Y           Z
 ---------------------------------------------------------------------
      1         11           0        0.489481    0.071411    1.598155
      2         11           0        3.015844    0.157483   -0.409758
      3         11           0       -0.433803   -0.340360   -1.489791
      4         11           0       -2.473192   -2.058329   -0.264263
      5         11           0        0.839401    2.879441   -0.279503
      6         11           0        1.384448   -2.417124    0.421587
      7         11           0       -2.822179    1.707479    0.423573
 ---------------------------------------------------------------------

 SCF Done:  E(UB3LYP) =  -1136.12864063     A.U. after   21 cycles

 The electronic state is 2-A.
 Alpha  occ. eigenvalues --  -38.44375 -38.44040 -38.43905 -38.43455 -38.43423
 Alpha  occ. eigenvalues --  -38.43191 -38.43016  -2.20154  -2.19885  -2.19812
 Alpha  occ. eigenvalues --   -2.19376  -2.19290  -2.19223  -2.19034  -1.13832
 Alpha  occ. eigenvalues --   -1.13803  -1.13790  -1.13640  -1.13521  -1.13516
 Alpha  occ. eigenvalues --   -1.13496  -1.13473  -1.13453  -1.13216  -1.13024
 Alpha  occ. eigenvalues --   -1.12982  -1.12974  -1.12961  -1.12918  -1.12899
 Alpha  occ. eigenvalues --   -1.12822  -1.12789  -1.12714  -1.12668  -1.12634
 Alpha  occ. eigenvalues --   -0.18936  -0.13298  -0.12541  -0.10283
 Alpha virt. eigenvalues --   -0.05810  -0.05425  -0.04642  -0.03161  -0.02682
 Alpha virt. eigenvalues --   -0.01893  -0.01672  -0.01311  -0.00446  -0.00379
 Alpha virt. eigenvalues --    0.00053   0.00318   0.00767   0.00824   0.00890

  Beta  occ. eigenvalues --  -38.44364 -38.44031 -38.43892 -38.43449 -38.43404
  Beta  occ. eigenvalues --  -38.43122 -38.42959  -2.20134  -2.19872  -2.19792
  Beta  occ. eigenvalues --   -2.19346  -2.19281  -2.19097  -2.18931  -1.13808
  Beta  occ. eigenvalues --   -1.13791  -1.13777  -1.13621  -1.13503  -1.13500
  Beta  occ. eigenvalues --   -1.13491  -1.13460  -1.13413  -1.13170  -1.12985
  Beta  occ. eigenvalues --   -1.12971  -1.12950  -1.12945  -1.12902  -1.12822
  Beta  occ. eigenvalues --   -1.12739  -1.12702  -1.12637  -1.12588  -1.12563
  Beta  occ. eigenvalues --   -0.18274  -0.13021  -0.12245
  Beta virt. eigenvalues --   -0.06512  -0.05709  -0.05318  -0.04624  -0.02430
  Beta virt. eigenvalues --   -0.02007  -0.01563  -0.01227  -0.00955  -0.00445
  Beta virt. eigenvalues --   -0.00389   0.00176   0.00375   0.00813   0.00851

 Mulliken charges and spin densities:
               1          2
     1  Na  -0.237550   0.456783
     2  Na   0.129718   0.093341
     3  Na  -0.237071   0.448991
     4  Na   0.160338  -0.064556
     5  Na  -0.143037  -0.020256
     6  Na   0.497030   0.077103
     7  Na  -0.169427   0.008594
 Sum of Mulliken charges =  -0.00000   1.00000

 Dipole moment (field-independent basis, Debye):
    X=             -0.3565    Y=              0.1252    Z=              0.0018  Tot=              0.3778
 Quadrupole moment (field-independent basis, Debye-Ang):
   XX=            -54.1911   YY=            -61.1086   ZZ=            -76.4310
   XY=             -0.1866   XZ=             -2.4368   YZ=             -0.7780

 Normal termination of Gaussian 16 at Mon Dec  4 02:10:28 2023.
