 Gaussian 16, Revision B.01,
 Gaussian 16:  ES64L-G16RevB.01 20-Dec-2017

 -------------------------
 #P B3LYP/6-311+g(d) force
 -------------------------

 -----
 DPGEN
 -----
 Symbolic Z-matrix:
 Charge =  0 Multiplicity = 2

                         Standard orientation:
 ---------------------------------------------------------------------
 Center     Atomic      Atomic             Coordinates (Angstroms)
 Number     Number       Type             X           Y           Z
 ---------------------------------------------------------------------
      1         11           0       -0.247937    1.601190    0.251231
      2         11           0        1.583084   -1.613763   -0.887748
      3         11           0        3.033635    1.570747   -1.087827
      4         11           0       -3.474908    1.365279    0.453613
      5         11           0       -1.858741   -0.990302   -1.935529
      6         11           0       -1.184066   -1.573464    1.243228
      7         11           0        2.148932   -0.359686    1.963032
 ---------------------------------------------------------------------

 SCF Done:  E(UB3LYP) =  -1136.13037937     A.U. after   22 cycles

 The electronic state is 2-A.
 Alpha  occ. eigenvalues --  -38.44411 -38.44220 -38.43873 -38.43741 -38.43372
 Alpha  occ. eigenvalues --  -38.43304 -38.43128  -2.20293  -2.20071  -2.19692
 Alpha  occ. eigenvalues --   -2.19563  -2.19272  -2.19208  -2.19028  -1.13972
 Alpha  occ. eigenvalues --   -1.13966  -1.13883  -1.13745  -1.13730  -1.13672
 Alpha  occ. eigenvalues --   -1.13368  -1.13356  -1.13326  -1.13231  -1.13219
 Alpha  occ. eigenvalues --   -1.13188  -1.12984  -1.12933  -1.12902  -1.12892
 Alpha  occ. eigenvalues --   -1.12873  -1.12809  -1.12734  -1.12714  -1.12631
 Alpha  occ. eigenvalues --   -0.18555  -0.13855  -0.11438  -0.11155
 Alpha virt. eigenvalues --   -0.05933  -0.05172  -0.05048  -0.03187  -0.02642
 Alpha virt. eigenvalues --   -0.02440  -0.01934  -0.00921  -0.00880   0.00029
 Alpha virt. eigenvalues --    0.00231   0.00360   0.00396   0.00525   0.00607

  Beta  occ. eigenvalues --  -38.44358 -38.44167 -38.43871 -38.43713 -38.43350
  Beta  occ. eigenvalues --  -38.43285 -38.43116  -2.20197  -2.19973  -2.19689
  Beta  occ. eigenvalues --   -2.19511  -2.19235  -2.19177  -2.19011  -1.13912
  Beta  occ. eigenvalues --   -1.13892  -1.13806  -1.13675  -1.13668  -1.13600
  Beta  occ. eigenvalues --   -1.13365  -1.13348  -1.13325  -1.13187  -1.13184
  Beta  occ. eigenvalues --   -1.13158  -1.12962  -1.12885  -1.12872  -1.12854
  Beta  occ. eigenvalues --   -1.12840  -1.12786  -1.12710  -1.12685  -1.12623
  Beta  occ. eigenvalues --   -0.17837  -0.13645  -0.10907
  Beta virt. eigenvalues --   -0.07605  -0.05767  -0.04930  -0.04473  -0.02922
  Beta virt. eigenvalues --   -0.02158  -0.01899  -0.01663  -0.00821  -0.00407
  Beta virt. eigenvalues --    0.00122   0.00279   0.00408   0.00558   0.00603

 Mulliken charges and spin densities:
               1          2
     1  Na  -0.877777   0.329672
     2  Na   0.065293   0.498747
     3  Na   0.150412  -0.027273
     4  Na   0.468997  -0.169314
     5  Na  -0.068964   0.113354
     6  Na   0.047531   0.185627
     7  Na   0.214508   0.069186
 Sum of Mulliken charges =  -0.00000   1.00000

 Dipole moment (field-independent basis, Debye):
    X=             -0.1434    Y=             -0.3113    Z=              0.0335  Tot=              0.3444
 Quadrupole moment (field-independent basis, Debye-Ang):
   XX=            -52.6212   YY=            -77.1238   ZZ=            -64.3787
   XY=              0.3588   XZ=              0.7666   YZ=             -0.9288

 Normal termination of Gaussian 16 at Wed Nov 29 17:04:50 2023.
