 Gaussian 16, Revision B.01,
 Gaussian 16:  ES64L-G16RevB.01 20-Dec-2017

 -------------------------
 #P B3LYP/6-311+g(d) force
 -------------------------

 -----
 DPGEN
 -----
 Symbolic Z-matrix:
 Charge =  0 Multiplicity = 2

                         Standard orientation:
 ---------------------------------------------------------------------
 Center     Atomic      Atomic             Coordinates (Angstroms)
 Number     Number       Type             X           Y           Z
 ---------------------------------------------------------------------
      1         11           0        0.075511   -1.153374   -1.631264
      2         11           0        3.267491    1.429408   -0.769150
      3         11           0       -3.171281    1.287426    1.080178
      4         11           0       -2.838951   -1.579060   -1.129943
      5         11           0        2.268745   -2.302322    1.061110
      6         11           0        0.121537    2.587551   -0.398776
      7         11           0        0.276947   -0.269629    1.787845
 ---------------------------------------------------------------------

 SCF Done:  E(UB3LYP) =  -1136.12201882     A.U. after   21 cycles

 The electronic state is 2-A.
 Alpha  occ. eigenvalues --  -38.44480 -38.44325 -38.44214 -38.44206 -38.44048
 Alpha  occ. eigenvalues --  -38.43656 -38.43263  -2.20261  -2.20126  -2.20109
 Alpha  occ. eigenvalues --   -2.20045  -2.19938  -2.19512  -2.19076  -1.13931
 Alpha  occ. eigenvalues --   -1.13909  -1.13892  -1.13843  -1.13835  -1.13795
 Alpha  occ. eigenvalues --   -1.13779  -1.13755  -1.13751  -1.13743  -1.13682
 Alpha  occ. eigenvalues --   -1.13651  -1.13594  -1.13558  -1.13527  -1.13197
 Alpha  occ. eigenvalues --   -1.13132  -1.13127  -1.12769  -1.12762  -1.12694
 Alpha  occ. eigenvalues --   -0.17808  -0.13243  -0.12042  -0.11408
 Alpha virt. eigenvalues --   -0.06235  -0.05215  -0.04455  -0.03387  -0.03085
 Alpha virt. eigenvalues --   -0.02556  -0.02119  -0.01339  -0.00701  -0.00010
 Alpha virt. eigenvalues --    0.00013   0.00176   0.00513   0.00589   0.00709

  Beta  occ. eigenvalues --  -38.44457 -38.44297 -38.44170 -38.44152 -38.43994
  Beta  occ. eigenvalues --  -38.43631 -38.43266  -2.20220  -2.20058  -2.20014
  Beta  occ. eigenvalues --   -2.19982  -2.19840  -2.19469  -2.19085  -1.13899
  Beta  occ. eigenvalues --   -1.13880  -1.13866  -1.13776  -1.13754  -1.13741
  Beta  occ. eigenvalues --   -1.13722  -1.13716  -1.13701  -1.13679  -1.13640
  Beta  occ. eigenvalues --   -1.13605  -1.13534  -1.13493  -1.13448  -1.13149
  Beta  occ. eigenvalues --   -1.13106  -1.13099  -1.12779  -1.12765  -1.12684
  Beta  occ. eigenvalues --   -0.17211  -0.12870  -0.11582
  Beta virt. eigenvalues --   -0.07802  -0.06121  -0.04926  -0.04072  -0.03113
  Beta virt. eigenvalues --   -0.02490  -0.02007  -0.01787  -0.01128  -0.00463
  Beta virt. eigenvalues --    0.00015   0.00081   0.00237   0.00655   0.00697

 Mulliken charges and spin densities:
               1          2
     1  Na   0.244142   0.438239
     2  Na  -0.051967   0.085198
     3  Na   0.539467   0.102359
     4  Na  -0.356059   0.031612
     5  Na   0.286464  -0.008175
     6  Na  -0.348728  -0.072711
     7  Na  -0.313318   0.423478
 Sum of Mulliken charges =  -0.00000   1.00000

 Dipole moment (field-independent basis, Debye):
    X=              0.1399    Y=             -0.1592    Z=              0.0342  Tot=              0.2147
 Quadrupole moment (field-independent basis, Debye-Ang):
   XX=            -52.0447   YY=            -72.1247   ZZ=            -71.2691
   XY=             -2.2090   XZ=             -2.2299   YZ=              0.6793

 Normal termination of Gaussian 16 at Sun Dec  3 20:03:50 2023.
