 Gaussian 16, Revision B.01,
 Gaussian 16:  ES64L-G16RevB.01 20-Dec-2017

 -------------------------
 #P B3LYP/6-311+g(d) force
 -------------------------

 -----
 DPGEN
 -----
 Symbolic Z-matrix:
 Charge =  0 Multiplicity = 2

                         Standard orientation:
 ---------------------------------------------------------------------
 Center     Atomic      Atomic             Coordinates (Angstroms)
 Number     Number       Type             X           Y           Z
 ---------------------------------------------------------------------
      1         11           0        2.022749   -2.064211   -0.358668
      2         11           0        0.013373    0.410023   -1.467199
      3         11           0       -0.036220   -0.953161    2.052755
      4         11           0        3.475116    0.786550    0.003645
      5         11           0       -2.257043   -2.440029   -0.477189
      6         11           0       -0.429244    3.296087    0.176998
      7         11           0       -2.788731    0.964741    0.069659
 ---------------------------------------------------------------------

 SCF Done:  E(UB3LYP) =  -1136.13105466     A.U. after   19 cycles

 The electronic state is 2-A.
 Alpha  occ. eigenvalues --  -38.44775 -38.43952 -38.43935 -38.43719 -38.43502
 Alpha  occ. eigenvalues --  -38.43417 -38.43313  -2.20560  -2.19823  -2.19805
 Alpha  occ. eigenvalues --   -2.19525  -2.19319  -2.19278  -2.19254  -1.14231
 Alpha  occ. eigenvalues --   -1.14221  -1.14204  -1.13529  -1.13495  -1.13491
 Alpha  occ. eigenvalues --   -1.13476  -1.13447  -1.13426  -1.13189  -1.13185
 Alpha  occ. eigenvalues --   -1.13166  -1.13008  -1.12977  -1.12964  -1.12953
 Alpha  occ. eigenvalues --   -1.12930  -1.12914  -1.12891  -1.12883  -1.12869
 Alpha  occ. eigenvalues --   -0.18116  -0.13345  -0.12235  -0.10223
 Alpha virt. eigenvalues --   -0.06131  -0.05230  -0.04989  -0.03213  -0.02797
 Alpha virt. eigenvalues --   -0.02113  -0.01875  -0.01289  -0.00765  -0.00510
 Alpha virt. eigenvalues --   -0.00030   0.00308   0.00691   0.00766   0.00817

  Beta  occ. eigenvalues --  -38.44777 -38.43946 -38.43925 -38.43708 -38.43500
  Beta  occ. eigenvalues --  -38.43323 -38.43266  -2.20565  -2.19814  -2.19791
  Beta  occ. eigenvalues --   -2.19506  -2.19317  -2.19170  -2.19103  -1.14237
  Beta  occ. eigenvalues --   -1.14212  -1.14208  -1.13522  -1.13488  -1.13461
  Beta  occ. eigenvalues --   -1.13446  -1.13433  -1.13421  -1.13178  -1.13159
  Beta  occ. eigenvalues --   -1.13150  -1.12997  -1.12966  -1.12962  -1.12889
  Beta  occ. eigenvalues --   -1.12833  -1.12819  -1.12805  -1.12791  -1.12763
  Beta  occ. eigenvalues --   -0.17443  -0.13130  -0.12044
  Beta virt. eigenvalues --   -0.06406  -0.06048  -0.05211  -0.04861  -0.02480
  Beta virt. eigenvalues --   -0.02138  -0.01776  -0.01212  -0.01177  -0.00764
  Beta virt. eigenvalues --   -0.00531   0.00163   0.00361   0.00734   0.00817

 Mulliken charges and spin densities:
               1          2
     1  Na   0.319147  -0.007884
     2  Na   0.100393   0.390232
     3  Na  -0.463973   0.666898
     4  Na  -0.064990  -0.067239
     5  Na   0.108754   0.012351
     6  Na  -0.114024  -0.047803
     7  Na   0.114692   0.053444
 Sum of Mulliken charges =  -0.00000   1.00000

 Dipole moment (field-independent basis, Debye):
    X=              0.4959    Y=              0.1325    Z=              0.0733  Tot=              0.5185
 Quadrupole moment (field-independent basis, Debye-Ang):
   XX=            -55.0306   YY=            -61.4283   ZZ=            -76.6605
   XY=              2.6712   XZ=              0.2856   YZ=              3.1716

 Normal termination of Gaussian 16 at Fri Dec  8 05:17:00 2023.
