 Gaussian 16, Revision B.01,
 Gaussian 16:  ES64L-G16RevB.01 20-Dec-2017

 -------------------------
 #P B3LYP/6-311+g(d) force
 -------------------------

 -----
 DPGEN
 -----
 Symbolic Z-matrix:
 Charge =  0 Multiplicity = 2

                         Standard orientation:
 ---------------------------------------------------------------------
 Center     Atomic      Atomic             Coordinates (Angstroms)
 Number     Number       Type             X           Y           Z
 ---------------------------------------------------------------------
      1         11           0       -0.176947   -2.169833    0.259302
      2         11           0        1.857797   -0.354311    2.046292
      3         11           0        2.801818   -1.010524   -1.317858
      4         11           0        1.623928    2.276033   -0.178869
      5         11           0       -1.296732    2.384001   -0.361886
      6         11           0       -2.032202   -0.838403   -1.990281
      7         11           0       -2.777662   -0.286963    1.543299
 ---------------------------------------------------------------------

 SCF Done:  E(UB3LYP) =  -1136.12625574     A.U. after   19 cycles

 The electronic state is 2-A.
 Alpha  occ. eigenvalues --  -38.44735 -38.44723 -38.44466 -38.44449 -38.43028
 Alpha  occ. eigenvalues --  -38.42964 -38.42960  -2.20544  -2.20523  -2.20302
 Alpha  occ. eigenvalues --   -2.20298  -2.18899  -2.18868  -2.18818  -1.14209
 Alpha  occ. eigenvalues --   -1.14195  -1.14188  -1.14175  -1.14171  -1.14159
 Alpha  occ. eigenvalues --   -1.13983  -1.13979  -1.13943  -1.13942  -1.13912
 Alpha  occ. eigenvalues --   -1.13911  -1.12732  -1.12572  -1.12562  -1.12555
 Alpha  occ. eigenvalues --   -1.12531  -1.12483  -1.12471  -1.12452  -1.12390
 Alpha  occ. eigenvalues --   -0.17968  -0.13391  -0.11876  -0.11183
 Alpha virt. eigenvalues --   -0.06089  -0.05066  -0.04840  -0.03615  -0.03027
 Alpha virt. eigenvalues --   -0.02820  -0.01589  -0.00791  -0.00369   0.00053
 Alpha virt. eigenvalues --    0.00193   0.00213   0.00404   0.00447   0.00631

  Beta  occ. eigenvalues --  -38.44703 -38.44698 -38.44415 -38.44403 -38.43027
  Beta  occ. eigenvalues --  -38.42958 -38.42948  -2.20484  -2.20476  -2.20214
  Beta  occ. eigenvalues --   -2.20206  -2.18898  -2.18846  -2.18816  -1.14163
  Beta  occ. eigenvalues --   -1.14154  -1.14150  -1.14139  -1.14130  -1.14126
  Beta  occ. eigenvalues --   -1.13921  -1.13917  -1.13884  -1.13875  -1.13847
  Beta  occ. eigenvalues --   -1.13845  -1.12735  -1.12548  -1.12547  -1.12532
  Beta  occ. eigenvalues --   -1.12508  -1.12468  -1.12454  -1.12452  -1.12393
  Beta  occ. eigenvalues --   -0.17289  -0.13206  -0.11693
  Beta virt. eigenvalues --   -0.07582  -0.05495  -0.04838  -0.04572  -0.03498
  Beta virt. eigenvalues --   -0.02297  -0.02099  -0.01441  -0.00410  -0.00288
  Beta virt. eigenvalues --    0.00185   0.00250   0.00378   0.00506   0.00565

 Mulliken charges and spin densities:
               1          2
     1  Na   0.501958   0.472430
     2  Na   0.051277   0.139691
     3  Na  -0.062571   0.051816
     4  Na  -0.145137   0.045593
     5  Na  -0.155055   0.059640
     6  Na  -0.086908   0.161142
     7  Na  -0.103564   0.069688
 Sum of Mulliken charges =  -0.00000   1.00000

 Dipole moment (field-independent basis, Debye):
    X=              0.0105    Y=             -0.6193    Z=              0.0065  Tot=              0.6194
 Quadrupole moment (field-independent basis, Debye-Ang):
   XX=            -56.8892   YY=            -76.8363   ZZ=            -62.8720
   XY=             -0.8006   XZ=             -2.1957   YZ=              1.6391

 Normal termination of Gaussian 16 at Fri Dec  8 19:47:21 2023.
