 Gaussian 16, Revision B.01,
 Gaussian 16:  ES64L-G16RevB.01 20-Dec-2017

 -------------------------
 #P B3LYP/6-311+g(d) force
 -------------------------

 -----
 DPGEN
 -----
 Symbolic Z-matrix:
 Charge =  0 Multiplicity = 2

                         Standard orientation:
 ---------------------------------------------------------------------
 Center     Atomic      Atomic             Coordinates (Angstroms)
 Number     Number       Type             X           Y           Z
 ---------------------------------------------------------------------
      1         11           0       -4.085372   -1.393288   -0.408365
      2         11           0        4.249112   -0.588802   -0.426969
      3         11           0       -3.350450    2.421654    0.272160
      4         11           0        2.077124   -2.868301    0.569288
      5         11           0       -1.706637   -3.010853   -0.020687
      6         11           0       -0.424464    3.242761    0.056544
      7         11           0        3.240687    2.196829   -0.041971
 ---------------------------------------------------------------------

 SCF Done:  E(UB3LYP) =  -1136.10582497     A.U. after   20 cycles

 The electronic state is 2-A.
 Alpha  occ. eigenvalues --  -38.44890 -38.44645 -38.44555 -38.44449 -38.44421
 Alpha  occ. eigenvalues --  -38.44402 -38.44277  -2.20727  -2.20456  -2.20370
 Alpha  occ. eigenvalues --   -2.20286  -2.20243  -2.20216  -2.20086  -1.14467
 Alpha  occ. eigenvalues --   -1.14384  -1.14381  -1.14196  -1.14180  -1.14106
 Alpha  occ. eigenvalues --   -1.14084  -1.14028  -1.14018  -1.13927  -1.13918
 Alpha  occ. eigenvalues --   -1.13908  -1.13879  -1.13873  -1.13872  -1.13854
 Alpha  occ. eigenvalues --   -1.13842  -1.13824  -1.13732  -1.13721  -1.13713
 Alpha  occ. eigenvalues --   -0.15890  -0.14418  -0.13527  -0.11005
 Alpha virt. eigenvalues --   -0.07659  -0.04455  -0.04335  -0.03791  -0.03618
 Alpha virt. eigenvalues --   -0.02650  -0.02238  -0.02013  -0.01107  -0.00642
 Alpha virt. eigenvalues --   -0.00384  -0.00178   0.00223   0.00431   0.00632

  Beta  occ. eigenvalues --  -38.44887 -38.44612 -38.44548 -38.44413 -38.44385
  Beta  occ. eigenvalues --  -38.44356 -38.44193  -2.20730  -2.20398  -2.20364
  Beta  occ. eigenvalues --   -2.20208  -2.20167  -2.20160  -2.19931  -1.14439
  Beta  occ. eigenvalues --   -1.14391  -1.14361  -1.14148  -1.14133  -1.14068
  Beta  occ. eigenvalues --   -1.14043  -1.14029  -1.14010  -1.13877  -1.13870
  Beta  occ. eigenvalues --   -1.13852  -1.13839  -1.13830  -1.13818  -1.13803
  Beta  occ. eigenvalues --   -1.13800  -1.13768  -1.13626  -1.13618  -1.13611
  Beta  occ. eigenvalues --   -0.15324  -0.13736  -0.12745
  Beta virt. eigenvalues --   -0.07870  -0.07709  -0.04005  -0.03869  -0.03557
  Beta virt. eigenvalues --   -0.03248  -0.02449  -0.02060  -0.01784  -0.00985
  Beta virt. eigenvalues --   -0.00289  -0.00076   0.00059   0.00354   0.00434

 Mulliken charges and spin densities:
               1          2
     1  Na   0.315021   0.145688
     2  Na  -0.207631   0.027454
     3  Na   0.631159   0.064433
     4  Na  -0.262021   0.388109
     5  Na  -0.018437   0.023556
     6  Na  -0.392590   0.008383
     7  Na  -0.065501   0.342376
 Sum of Mulliken charges =  -0.00000   1.00000

 Dipole moment (field-independent basis, Debye):
    X=             -0.1709    Y=              0.2116    Z=             -0.0414  Tot=              0.2751
 Quadrupole moment (field-independent basis, Debye-Ang):
   XX=            -56.4351   YY=            -71.5883   ZZ=            -73.4147
   XY=             -2.6359   XZ=             -0.7783   YZ=              0.0638

 Normal termination of Gaussian 16 at Sun Dec  3 14:08:12 2023.
