 Gaussian 16, Revision B.01,
 Gaussian 16:  ES64L-G16RevB.01 20-Dec-2017

 -------------------------
 #P B3LYP/6-311+g(d) force
 -------------------------

 -----
 DPGEN
 -----
 Symbolic Z-matrix:
 Charge =  0 Multiplicity = 2

                         Standard orientation:
 ---------------------------------------------------------------------
 Center     Atomic      Atomic             Coordinates (Angstroms)
 Number     Number       Type             X           Y           Z
 ---------------------------------------------------------------------
      1         11           0        0.019165   -0.336263    2.183444
      2         11           0       -1.774780    2.272544    0.012484
      3         11           0       -3.114956   -1.028816    0.031539
      4         11           0        1.673275    2.510739   -0.156093
      5         11           0        0.435045   -2.694884   -0.422637
      6         11           0       -0.281785   -0.002419   -1.666482
      7         11           0        3.044036   -0.720902    0.017745
 ---------------------------------------------------------------------

 SCF Done:  E(UB3LYP) =  -1136.13735255     A.U. after   19 cycles

 The electronic state is 2-A.
 Alpha  occ. eigenvalues --  -38.44129 -38.43939 -38.43917 -38.43521 -38.43304
 Alpha  occ. eigenvalues --  -38.43296 -38.43296  -2.19937  -2.19777  -2.19773
 Alpha  occ. eigenvalues --   -2.19383  -2.19289  -2.19200  -2.19127  -1.13611
 Alpha  occ. eigenvalues --   -1.13595  -1.13582  -1.13449  -1.13443  -1.13430
 Alpha  occ. eigenvalues --   -1.13426  -1.13406  -1.13386  -1.13124  -1.13054
 Alpha  occ. eigenvalues --   -1.13043  -1.13004  -1.12937  -1.12894  -1.12847
 Alpha  occ. eigenvalues --   -1.12831  -1.12805  -1.12794  -1.12785  -1.12767
 Alpha  occ. eigenvalues --   -0.18623  -0.12991  -0.12401  -0.10933
 Alpha virt. eigenvalues --   -0.05708  -0.05129  -0.04541  -0.03252  -0.02901
 Alpha virt. eigenvalues --   -0.02802  -0.01608  -0.01023  -0.00316  -0.00232
 Alpha virt. eigenvalues --   -0.00040   0.00355   0.00786   0.00887   0.00903

  Beta  occ. eigenvalues --  -38.44128 -38.43938 -38.43817 -38.43516 -38.43294
  Beta  occ. eigenvalues --  -38.43291 -38.43231  -2.19937  -2.19775  -2.19590
  Beta  occ. eigenvalues --   -2.19377  -2.19183  -2.19167  -2.19126  -1.13602
  Beta  occ. eigenvalues --   -1.13586  -1.13585  -1.13444  -1.13433  -1.13418
  Beta  occ. eigenvalues --   -1.13311  -1.13277  -1.13255  -1.13103  -1.13028
  Beta  occ. eigenvalues --   -1.13004  -1.12996  -1.12863  -1.12824  -1.12817
  Beta  occ. eigenvalues --   -1.12796  -1.12782  -1.12777  -1.12770  -1.12760
  Beta  occ. eigenvalues --   -0.17885  -0.12791  -0.12168
  Beta virt. eigenvalues --   -0.06967  -0.05658  -0.05140  -0.04489  -0.02461
  Beta virt. eigenvalues --   -0.02144  -0.01698  -0.01514  -0.00966  -0.00363
  Beta virt. eigenvalues --   -0.00280   0.00114   0.00378   0.00848   0.00882

 Mulliken charges and spin densities:
               1          2
     1  Na  -0.637245   0.776900
     2  Na   0.114494  -0.014000
     3  Na   0.194913  -0.052023
     4  Na   0.026881  -0.049859
     5  Na   0.354319  -0.038131
     6  Na  -0.169092   0.378709
     7  Na   0.115730  -0.001596
 Sum of Mulliken charges =  -0.00000   1.00000

 Dipole moment (field-independent basis, Debye):
    X=             -0.1966    Y=             -0.1325    Z=              0.2524  Tot=              0.3463
 Quadrupole moment (field-independent basis, Debye-Ang):
   XX=            -55.7826   YY=            -64.7156   ZZ=            -73.5018
   XY=              0.5608   XZ=             -0.5388   YZ=              0.5418

 Normal termination of Gaussian 16 at Tue Dec  5 21:17:15 2023.
