 Gaussian 16, Revision B.01,
 Gaussian 16:  ES64L-G16RevB.01 20-Dec-2017

 -------------------------
 #P B3LYP/6-311+g(d) force
 -------------------------

 -----
 DPGEN
 -----
 Symbolic Z-matrix:
 Charge =  0 Multiplicity = 2

                         Standard orientation:
 ---------------------------------------------------------------------
 Center     Atomic      Atomic             Coordinates (Angstroms)
 Number     Number       Type             X           Y           Z
 ---------------------------------------------------------------------
      1         11           0        1.689519    2.218257   -0.091580
      2         11           0       -1.554247    2.426503   -0.440887
      3         11           0       -0.276122    0.547937    2.043227
      4         11           0        0.430375   -2.679976    0.081695
      5         11           0       -0.454180   -0.285016   -1.621659
      6         11           0        3.070044   -0.882532   -0.109310
      7         11           0       -2.905389   -1.345173    0.138515
 ---------------------------------------------------------------------

 SCF Done:  E(UB3LYP) =  -1136.13568402     A.U. after   18 cycles

 The electronic state is 2-A.
 Alpha  occ. eigenvalues --  -38.43985 -38.43614 -38.43613 -38.43589 -38.43499
 Alpha  occ. eigenvalues --  -38.43491 -38.43206  -2.19820  -2.19513  -2.19493
 Alpha  occ. eigenvalues --   -2.19451  -2.19395  -2.19377  -2.19220  -1.13512
 Alpha  occ. eigenvalues --   -1.13476  -1.13456  -1.13247  -1.13204  -1.13181
 Alpha  occ. eigenvalues --   -1.13155  -1.13154  -1.13138  -1.13123  -1.13112
 Alpha  occ. eigenvalues --   -1.13104  -1.13100  -1.13044  -1.13036  -1.13030
 Alpha  occ. eigenvalues --   -1.12991  -1.12980  -1.12876  -1.12843  -1.12824
 Alpha  occ. eigenvalues --   -0.18899  -0.12912  -0.12842  -0.10832
 Alpha virt. eigenvalues --   -0.05522  -0.05145  -0.04703  -0.03188  -0.02992
 Alpha virt. eigenvalues --   -0.02573  -0.01450  -0.01109  -0.00238  -0.00146
 Alpha virt. eigenvalues --   -0.00016   0.00351   0.00846   0.00888   0.00937

  Beta  occ. eigenvalues --  -38.43981 -38.43615 -38.43599 -38.43497 -38.43494
  Beta  occ. eigenvalues --  -38.43484 -38.43143  -2.19815  -2.19490  -2.19455
  Beta  occ. eigenvalues --   -2.19388  -2.19370  -2.19322  -2.19105  -1.13503
  Beta  occ. eigenvalues --   -1.13457  -1.13455  -1.13223  -1.13180  -1.13147
  Beta  occ. eigenvalues --   -1.13141  -1.13130  -1.13113  -1.13093  -1.13065
  Beta  occ. eigenvalues --   -1.13029  -1.13017  -1.13012  -1.12993  -1.12990
  Beta  occ. eigenvalues --   -1.12980  -1.12965  -1.12802  -1.12762  -1.12744
  Beta  occ. eigenvalues --   -0.18168  -0.12667  -0.12636
  Beta virt. eigenvalues --   -0.06874  -0.05513  -0.05099  -0.04647  -0.02372
  Beta virt. eigenvalues --   -0.02270  -0.01495  -0.01385  -0.01032  -0.00281
  Beta virt. eigenvalues --   -0.00183   0.00138   0.00386   0.00880   0.00888

 Mulliken charges and spin densities:
               1          2
     1  Na   0.242238   0.057234
     2  Na   0.390649  -0.056804
     3  Na  -0.612000   0.696293
     4  Na   0.190112   0.051972
     5  Na  -0.318119   0.372980
     6  Na  -0.127623  -0.071606
     7  Na   0.234743  -0.050069
 Sum of Mulliken charges =  -0.00000   1.00000

 Dipole moment (field-independent basis, Debye):
    X=             -0.3179    Y=              0.0155    Z=              0.1904  Tot=              0.3709
 Quadrupole moment (field-independent basis, Debye-Ang):
   XX=            -57.4211   YY=            -62.9220   ZZ=            -73.8358
   XY=              0.5723   XZ=             -0.5316   YZ=             -1.6420

 Normal termination of Gaussian 16 at Fri Dec  8 02:34:24 2023.
