 Gaussian 16, Revision B.01,
 Gaussian 16:  ES64L-G16RevB.01 20-Dec-2017

 -------------------------
 #P B3LYP/6-311+g(d) force
 -------------------------

 -----
 DPGEN
 -----
 Symbolic Z-matrix:
 Charge =  0 Multiplicity = 2

                         Standard orientation:
 ---------------------------------------------------------------------
 Center     Atomic      Atomic             Coordinates (Angstroms)
 Number     Number       Type             X           Y           Z
 ---------------------------------------------------------------------
      1         11           0        0.223032   -2.794392    0.552921
      2         11           0        1.660024    2.736921    0.174912
      3         11           0       -0.348162   -0.259524   -1.768083
      4         11           0       -2.925523   -1.087118    0.120678
      5         11           0       -2.156983    1.988899   -0.269261
      6         11           0        3.164379   -0.962455   -0.615790
      7         11           0        0.383233    0.377669    1.804622
 ---------------------------------------------------------------------

 SCF Done:  E(UB3LYP) =  -1136.13568327     A.U. after   20 cycles

 The electronic state is 2-A.
 Alpha  occ. eigenvalues --  -38.44335 -38.43827 -38.43674 -38.43674 -38.43566
 Alpha  occ. eigenvalues --  -38.43284 -38.43242  -2.20117  -2.19696  -2.19548
 Alpha  occ. eigenvalues --   -2.19500  -2.19487  -2.19212  -2.19097  -1.13790
 Alpha  occ. eigenvalues --   -1.13759  -1.13758  -1.13410  -1.13373  -1.13337
 Alpha  occ. eigenvalues --   -1.13264  -1.13213  -1.13206  -1.13172  -1.13154
 Alpha  occ. eigenvalues --   -1.13138  -1.13129  -1.13113  -1.13099  -1.12887
 Alpha  occ. eigenvalues --   -1.12850  -1.12834  -1.12765  -1.12761  -1.12718
 Alpha  occ. eigenvalues --   -0.18507  -0.13039  -0.12391  -0.10685
 Alpha virt. eigenvalues --   -0.05746  -0.05284  -0.04592  -0.03293  -0.02916
 Alpha virt. eigenvalues --   -0.02386  -0.01655  -0.01186  -0.00431  -0.00306
 Alpha virt. eigenvalues --   -0.00009   0.00337   0.00778   0.00831   0.00900

  Beta  occ. eigenvalues --  -38.44315 -38.43824 -38.43672 -38.43666 -38.43501
  Beta  occ. eigenvalues --  -38.43227 -38.43212  -2.20082  -2.19694  -2.19537
  Beta  occ. eigenvalues --   -2.19485  -2.19381  -2.19079  -2.19072  -1.13752
  Beta  occ. eigenvalues --   -1.13739  -1.13736  -1.13406  -1.13370  -1.13315
  Beta  occ. eigenvalues --   -1.13238  -1.13196  -1.13191  -1.13145  -1.13128
  Beta  occ. eigenvalues --   -1.13114  -1.13095  -1.13055  -1.13013  -1.12806
  Beta  occ. eigenvalues --   -1.12773  -1.12744  -1.12739  -1.12711  -1.12692
  Beta  occ. eigenvalues --   -0.17815  -0.12770  -0.12134
  Beta virt. eigenvalues --   -0.06894  -0.05613  -0.05240  -0.04540  -0.02576
  Beta virt. eigenvalues --   -0.02213  -0.01504  -0.01442  -0.01097  -0.00435
  Beta virt. eigenvalues --   -0.00325   0.00115   0.00375   0.00830   0.00854

 Mulliken charges and spin densities:
               1          2
     1  Na   0.136938   0.049414
     2  Na   0.036622  -0.102949
     3  Na  -0.224867   0.531247
     4  Na   0.138814  -0.003953
     5  Na   0.163507  -0.076300
     6  Na  -0.081398   0.080029
     7  Na  -0.169617   0.522512
 Sum of Mulliken charges =  -0.00000   1.00000

 Dipole moment (field-independent basis, Debye):
    X=              0.1264    Y=              0.0409    Z=             -0.1061  Tot=              0.1700
 Quadrupole moment (field-independent basis, Debye-Ang):
   XX=            -55.9669   YY=            -63.1912   ZZ=            -74.2232
   XY=              0.4016   XZ=             -2.0363   YZ=             -1.5517

 Normal termination of Gaussian 16 at Tue Dec  5 09:55:39 2023.
