 Gaussian 16, Revision B.01,
 Gaussian 16:  ES64L-G16RevB.01 20-Dec-2017

 -------------------------
 #P B3LYP/6-311+g(d) force
 -------------------------

 -----
 DPGEN
 -----
 Symbolic Z-matrix:
 Charge =  0 Multiplicity = 2

                         Standard orientation:
 ---------------------------------------------------------------------
 Center     Atomic      Atomic             Coordinates (Angstroms)
 Number     Number       Type             X           Y           Z
 ---------------------------------------------------------------------
      1         11           0       -2.452024   -1.874700    0.034129
      2         11           0       -0.781827    2.099274    0.436846
      3         11           0       -3.938752    0.996163   -0.655642
      4         11           0        2.664318    1.970715   -0.247384
      5         11           0        0.376662   -0.901086    2.330694
      6         11           0        3.755706   -0.911927   -0.491814
      7         11           0        0.375918   -1.378439   -1.406829
 ---------------------------------------------------------------------

 SCF Done:  E(UB3LYP) =  -1136.11903064     A.U. after   22 cycles

 The electronic state is 2-A.
 Alpha  occ. eigenvalues --  -38.44781 -38.44743 -38.44364 -38.44359 -38.43945
 Alpha  occ. eigenvalues --  -38.43818 -38.43106  -2.20598  -2.20577  -2.20187
 Alpha  occ. eigenvalues --   -2.20168  -2.19771  -2.19669  -2.18919  -1.14261
 Alpha  occ. eigenvalues --   -1.14250  -1.14231  -1.14229  -1.14204  -1.14201
 Alpha  occ. eigenvalues --   -1.13875  -1.13846  -1.13837  -1.13834  -1.13819
 Alpha  occ. eigenvalues --   -1.13800  -1.13446  -1.13430  -1.13419  -1.13358
 Alpha  occ. eigenvalues --   -1.13322  -1.13302  -1.12616  -1.12594  -1.12541
 Alpha  occ. eigenvalues --   -0.17711  -0.14108  -0.11333  -0.11201
 Alpha virt. eigenvalues --   -0.06994  -0.05816  -0.03920  -0.03278  -0.03087
 Alpha virt. eigenvalues --   -0.02601  -0.02514  -0.01508  -0.00661  -0.00608
 Alpha virt. eigenvalues --   -0.00000   0.00112   0.00428   0.00623   0.00698

  Beta  occ. eigenvalues --  -38.44710 -38.44675 -38.44363 -38.44325 -38.43940
  Beta  occ. eigenvalues --  -38.43812 -38.43091  -2.20517  -2.20401  -2.20186
  Beta  occ. eigenvalues --   -2.20104  -2.19766  -2.19661  -2.18895  -1.14222
  Beta  occ. eigenvalues --   -1.14181  -1.14164  -1.14114  -1.14098  -1.14062
  Beta  occ. eigenvalues --   -1.13871  -1.13840  -1.13835  -1.13793  -1.13771
  Beta  occ. eigenvalues --   -1.13760  -1.13446  -1.13429  -1.13392  -1.13356
  Beta  occ. eigenvalues --   -1.13315  -1.13273  -1.12604  -1.12564  -1.12519
  Beta  occ. eigenvalues --   -0.17110  -0.13612  -0.11190
  Beta virt. eigenvalues --   -0.07572  -0.06553  -0.05716  -0.03387  -0.03150
  Beta virt. eigenvalues --   -0.02702  -0.02141  -0.01767  -0.01451  -0.00542
  Beta virt. eigenvalues --   -0.00289   0.00097   0.00120   0.00528   0.00715

 Mulliken charges and spin densities:
               1          2
     1  Na   0.383842   0.171384
     2  Na  -0.409432  -0.001386
     3  Na   0.274305   0.174927
     4  Na  -0.125882   0.005109
     5  Na  -0.112704   0.466482
     6  Na   0.408467   0.180996
     7  Na  -0.418596   0.002487
 Sum of Mulliken charges =  -0.00000   1.00000

 Dipole moment (field-independent basis, Debye):
    X=              0.4886    Y=             -0.7662    Z=              0.3383  Tot=              0.9697
 Quadrupole moment (field-independent basis, Debye-Ang):
   XX=            -54.1653   YY=            -75.5236   ZZ=            -68.4292
   XY=             -0.2827   XZ=              1.7917   YZ=             -2.5663

 Normal termination of Gaussian 16 at Thu Dec  7 21:29:18 2023.
