 Gaussian 16, Revision B.01,
 Gaussian 16:  ES64L-G16RevB.01 20-Dec-2017

 -------------------------
 #P B3LYP/6-311+g(d) force
 -------------------------

 -----
 DPGEN
 -----
 Symbolic Z-matrix:
 Charge =  0 Multiplicity = 2

                         Standard orientation:
 ---------------------------------------------------------------------
 Center     Atomic      Atomic             Coordinates (Angstroms)
 Number     Number       Type             X           Y           Z
 ---------------------------------------------------------------------
      1         11           0       -0.925735    2.729907   -1.457415
      2         11           0        1.942881    1.485592    0.738470
      3         11           0       -2.533229   -1.973895   -1.360099
      4         11           0       -1.047363   -1.739278    1.926311
      5         11           0        0.071031   -0.510903   -0.844377
      6         11           0        3.736730   -1.432265   -0.584443
      7         11           0       -1.244316    1.440842    1.581553
 ---------------------------------------------------------------------

 SCF Done:  E(UB3LYP) =  -1136.12402094     A.U. after   19 cycles

 The electronic state is 2-A.
 Alpha  occ. eigenvalues --  -38.44200 -38.44179 -38.43898 -38.43808 -38.43597
 Alpha  occ. eigenvalues --  -38.43397 -38.42858  -2.20076  -2.20016  -2.19736
 Alpha  occ. eigenvalues --   -2.19676  -2.19546  -2.19156  -2.18910  -1.13785
 Alpha  occ. eigenvalues --   -1.13735  -1.13726  -1.13676  -1.13645  -1.13611
 Alpha  occ. eigenvalues --   -1.13424  -1.13405  -1.13399  -1.13364  -1.13352
 Alpha  occ. eigenvalues --   -1.13266  -1.13220  -1.13186  -1.13141  -1.12831
 Alpha  occ. eigenvalues --   -1.12824  -1.12781  -1.12641  -1.12563  -1.12513
 Alpha  occ. eigenvalues --   -0.18479  -0.12735  -0.11814  -0.11743
 Alpha virt. eigenvalues --   -0.05523  -0.05175  -0.04499  -0.03153  -0.03005
 Alpha virt. eigenvalues --   -0.02628  -0.01337  -0.01304  -0.00874   0.00177
 Alpha virt. eigenvalues --    0.00216   0.00370   0.00506   0.00665   0.00845

  Beta  occ. eigenvalues --  -38.44148 -38.44141 -38.43862 -38.43801 -38.43548
  Beta  occ. eigenvalues --  -38.43400 -38.42827  -2.19984  -2.19946  -2.19670
  Beta  occ. eigenvalues --   -2.19665  -2.19461  -2.19162  -2.18858  -1.13717
  Beta  occ. eigenvalues --   -1.13676  -1.13659  -1.13609  -1.13598  -1.13562
  Beta  occ. eigenvalues --   -1.13414  -1.13356  -1.13352  -1.13335  -1.13309
  Beta  occ. eigenvalues --   -1.13256  -1.13170  -1.13129  -1.13061  -1.12833
  Beta  occ. eigenvalues --   -1.12828  -1.12785  -1.12569  -1.12530  -1.12474
  Beta  occ. eigenvalues --   -0.17683  -0.12523  -0.11674
  Beta virt. eigenvalues --   -0.07736  -0.05281  -0.04840  -0.04163  -0.02935
  Beta virt. eigenvalues --   -0.02317  -0.02022  -0.01235  -0.01188  -0.00467
  Beta virt. eigenvalues --    0.00206   0.00312   0.00463   0.00646   0.00774

 Mulliken charges and spin densities:
               1          2
     1  Na  -0.097072   0.175788
     2  Na   0.370324   0.146645
     3  Na  -0.178746   0.087798
     4  Na  -0.050521   0.264574
     5  Na  -0.743217   0.251318
     6  Na   0.267602  -0.098199
     7  Na   0.431631   0.172076
 Sum of Mulliken charges =  -0.00000   1.00000

 Dipole moment (field-independent basis, Debye):
    X=             -0.8529    Y=              0.0955    Z=              0.0845  Tot=              0.8624
 Quadrupole moment (field-independent basis, Debye-Ang):
   XX=            -63.8118   YY=            -64.0193   ZZ=            -64.6395
   XY=              0.6385   XZ=              2.1749   YZ=             -1.3151

 Normal termination of Gaussian 16 at Tue Dec  5 13:33:10 2023.
