 Gaussian 16, Revision B.01,
 Gaussian 16:  ES64L-G16RevB.01 20-Dec-2017

 -------------------------
 #P B3LYP/6-311+g(d) force
 -------------------------

 -----
 DPGEN
 -----
 Symbolic Z-matrix:
 Charge =  0 Multiplicity = 2

                         Standard orientation:
 ---------------------------------------------------------------------
 Center     Atomic      Atomic             Coordinates (Angstroms)
 Number     Number       Type             X           Y           Z
 ---------------------------------------------------------------------
      1         11           0        2.349730    2.038454   -0.733858
      2         11           0       -0.054547    0.281793    2.396027
      3         11           0       -0.371901   -2.715308    0.268265
      4         11           0       -3.300358   -0.605726   -0.915495
      5         11           0       -0.115249   -0.255880   -0.916302
      6         11           0        3.164150   -1.181136   -0.276498
      7         11           0       -1.671825    2.437802    0.177861
 ---------------------------------------------------------------------

 SCF Done:  E(UB3LYP) =  -1136.12624478     A.U. after   20 cycles

 The electronic state is 2-A.
 Alpha  occ. eigenvalues --  -38.44254 -38.44218 -38.44194 -38.43722 -38.43341
 Alpha  occ. eigenvalues --  -38.43275 -38.42937  -2.20085  -2.20083  -2.20006
 Alpha  occ. eigenvalues --   -2.19543  -2.19179  -2.19177  -2.19057  -1.13770
 Alpha  occ. eigenvalues --   -1.13747  -1.13725  -1.13704  -1.13704  -1.13685
 Alpha  occ. eigenvalues --   -1.13684  -1.13670  -1.13640  -1.13235  -1.13199
 Alpha  occ. eigenvalues --   -1.13172  -1.13162  -1.12880  -1.12850  -1.12815
 Alpha  occ. eigenvalues --   -1.12804  -1.12755  -1.12720  -1.12642  -1.12595
 Alpha  occ. eigenvalues --   -0.18418  -0.13229  -0.11975  -0.11055
 Alpha virt. eigenvalues --   -0.05778  -0.05243  -0.04253  -0.03126  -0.02917
 Alpha virt. eigenvalues --   -0.02556  -0.01881  -0.01060  -0.00461  -0.00213
 Alpha virt. eigenvalues --   -0.00060   0.00288   0.00732   0.00853   0.00877

  Beta  occ. eigenvalues --  -38.44219 -38.44191 -38.44101 -38.43708 -38.43337
  Beta  occ. eigenvalues --  -38.43269 -38.42919  -2.20019  -2.20002  -2.19868
  Beta  occ. eigenvalues --   -2.19518  -2.19175  -2.19168  -2.19029  -1.13719
  Beta  occ. eigenvalues --   -1.13682  -1.13675  -1.13669  -1.13659  -1.13631
  Beta  occ. eigenvalues --   -1.13603  -1.13559  -1.13527  -1.13215  -1.13183
  Beta  occ. eigenvalues --   -1.13160  -1.13141  -1.12879  -1.12828  -1.12796
  Beta  occ. eigenvalues --   -1.12787  -1.12747  -1.12675  -1.12623  -1.12582
  Beta  occ. eigenvalues --   -0.17744  -0.12848  -0.11788
  Beta virt. eigenvalues --   -0.07216  -0.05579  -0.05081  -0.04192  -0.02578
  Beta virt. eigenvalues --   -0.02119  -0.01783  -0.01595  -0.01026  -0.00373
  Beta virt. eigenvalues --   -0.00166   0.00087   0.00350   0.00831   0.00861

 Mulliken charges and spin densities:
               1          2
     1  Na   0.286273   0.136589
     2  Na  -0.295727   0.557522
     3  Na   0.167660   0.302702
     4  Na   0.469568   0.195742
     5  Na  -1.129409  -0.438737
     6  Na   0.317356   0.069180
     7  Na   0.184278   0.177002
 Sum of Mulliken charges =  -0.00000   1.00000

 Dipole moment (field-independent basis, Debye):
    X=              0.0651    Y=              0.0061    Z=              0.4248  Tot=              0.4298
 Quadrupole moment (field-independent basis, Debye-Ang):
   XX=            -54.7224   YY=            -65.5178   ZZ=            -71.8482
   XY=             -0.9403   XZ=              1.1811   YZ=             -1.0655

 Normal termination of Gaussian 16 at Thu Dec  7 04:01:08 2023.
