 Gaussian 16, Revision B.01,
 Gaussian 16:  ES64L-G16RevB.01 20-Dec-2017

 -------------------------
 #P B3LYP/6-311+g(d) force
 -------------------------

 -----
 DPGEN
 -----
 Symbolic Z-matrix:
 Charge =  0 Multiplicity = 2

                         Standard orientation:
 ---------------------------------------------------------------------
 Center     Atomic      Atomic             Coordinates (Angstroms)
 Number     Number       Type             X           Y           Z
 ---------------------------------------------------------------------
      1         11           0        0.174856   -0.210203    1.721478
      2         11           0        2.251615    1.920836   -0.012499
      3         11           0        2.785927   -1.259625   -0.137883
      4         11           0       -3.167446   -0.529468    0.089728
      5         11           0       -0.311002    0.265183   -1.685828
      6         11           0       -0.429296   -2.989870   -0.109901
      7         11           0       -1.304654    2.803146    0.134905
 ---------------------------------------------------------------------

 SCF Done:  E(UB3LYP) =  -1136.13967656     A.U. after   20 cycles

 The electronic state is 2-A.
 Alpha  occ. eigenvalues --  -38.44245 -38.43715 -38.43712 -38.43605 -38.43602
 Alpha  occ. eigenvalues --  -38.42962 -38.42945  -2.20052  -2.19575  -2.19546
 Alpha  occ. eigenvalues --   -2.19476  -2.19440  -2.18923  -2.18907  -1.13731
 Alpha  occ. eigenvalues --   -1.13713  -1.13687  -1.13284  -1.13240  -1.13237
 Alpha  occ. eigenvalues --   -1.13225  -1.13210  -1.13181  -1.13141  -1.13138
 Alpha  occ. eigenvalues --   -1.13121  -1.13109  -1.13093  -1.13067  -1.12636
 Alpha  occ. eigenvalues --   -1.12574  -1.12545  -1.12540  -1.12531  -1.12526
 Alpha  occ. eigenvalues --   -0.18727  -0.13026  -0.12633  -0.10260
 Alpha virt. eigenvalues --   -0.05722  -0.05183  -0.04992  -0.03004  -0.02796
 Alpha virt. eigenvalues --   -0.02081  -0.01556  -0.01283  -0.00517  -0.00478
 Alpha virt. eigenvalues --    0.00032   0.00365   0.00805   0.00865   0.00884

  Beta  occ. eigenvalues --  -38.44242 -38.43710 -38.43707 -38.43600 -38.43595
  Beta  occ. eigenvalues --  -38.42885 -38.42873  -2.20050  -2.19569  -2.19541
  Beta  occ. eigenvalues --   -2.19468  -2.19434  -2.18782  -2.18776  -1.13718
  Beta  occ. eigenvalues --   -1.13702  -1.13689  -1.13282  -1.13230  -1.13228
  Beta  occ. eigenvalues --   -1.13204  -1.13187  -1.13181  -1.13137  -1.13116
  Beta  occ. eigenvalues --   -1.13103  -1.13093  -1.13082  -1.13068  -1.12543
  Beta  occ. eigenvalues --   -1.12479  -1.12444  -1.12440  -1.12435  -1.12430
  Beta  occ. eigenvalues --   -0.18008  -0.12790  -0.12392
  Beta virt. eigenvalues --   -0.06389  -0.05719  -0.05170  -0.04952  -0.02222
  Beta virt. eigenvalues --   -0.02029  -0.01473  -0.01208  -0.01076  -0.00570
  Beta virt. eigenvalues --   -0.00539   0.00167   0.00392   0.00819   0.00871

 Mulliken charges and spin densities:
               1          2
     1  Na  -0.305781   0.741341
     2  Na   0.223077  -0.050399
     3  Na   0.140861  -0.038020
     4  Na   0.052524  -0.130124
     5  Na  -0.288974   0.706110
     6  Na   0.077294  -0.112103
     7  Na   0.100998  -0.116806
 Sum of Mulliken charges =  -0.00000   1.00000

 Dipole moment (field-independent basis, Debye):
    X=             -0.2989    Y=             -0.0242    Z=              0.0212  Tot=              0.3006
 Quadrupole moment (field-independent basis, Debye-Ang):
   XX=            -55.5433   YY=            -59.1948   ZZ=            -76.8480
   XY=             -0.1672   XZ=             -1.1614   YZ=              1.1661

 Normal termination of Gaussian 16 at Thu Dec  7 21:10:24 2023.
