 Gaussian 16, Revision B.01,
 Gaussian 16:  ES64L-G16RevB.01 20-Dec-2017

 -------------------------
 #P B3LYP/6-311+g(d) force
 -------------------------

 -----
 DPGEN
 -----
 Symbolic Z-matrix:
 Charge =  0 Multiplicity = 2

                         Standard orientation:
 ---------------------------------------------------------------------
 Center     Atomic      Atomic             Coordinates (Angstroms)
 Number     Number       Type             X           Y           Z
 ---------------------------------------------------------------------
      1         11           0        0.766222    1.654735    1.253169
      2         11           0        3.869426    0.500940   -0.950934
      3         11           0        1.754999   -1.774740    0.683219
      4         11           0        0.066421   -0.417769   -1.696416
      5         11           0       -2.176863    2.122579   -0.155083
      6         11           0       -3.167083   -1.088166   -1.100027
      7         11           0       -1.113122   -0.997578    1.966072
 ---------------------------------------------------------------------

 SCF Done:  E(UB3LYP) =  -1136.12536537     A.U. after   31 cycles

 The electronic state is 2-A.
 Alpha  occ. eigenvalues --  -38.44833 -38.44363 -38.44300 -38.43831 -38.43743
 Alpha  occ. eigenvalues --  -38.43270 -38.42497  -2.20613  -2.20219  -2.20209
 Alpha  occ. eigenvalues --   -2.19733  -2.19614  -2.19102  -2.18396  -1.14284
 Alpha  occ. eigenvalues --   -1.14269  -1.14230  -1.13934  -1.13909  -1.13854
 Alpha  occ. eigenvalues --   -1.13839  -1.13828  -1.13827  -1.13423  -1.13359
 Alpha  occ. eigenvalues --   -1.13350  -1.13339  -1.13301  -1.13204  -1.12768
 Alpha  occ. eigenvalues --   -1.12758  -1.12747  -1.12099  -1.12058  -1.12012
 Alpha  occ. eigenvalues --   -0.18584  -0.13651  -0.11997  -0.10928
 Alpha virt. eigenvalues --   -0.06536  -0.05163  -0.04262  -0.03324  -0.02919
 Alpha virt. eigenvalues --   -0.02477  -0.02242  -0.01079  -0.00729  -0.00157
 Alpha virt. eigenvalues --    0.00154   0.00255   0.00433   0.00714   0.00792

  Beta  occ. eigenvalues --  -38.44808 -38.44310 -38.44254 -38.43770 -38.43736
  Beta  occ. eigenvalues --  -38.43268 -38.42481  -2.20565  -2.20129  -2.20123
  Beta  occ. eigenvalues --   -2.19624  -2.19604  -2.19101  -2.18369  -1.14249
  Beta  occ. eigenvalues --   -1.14235  -1.14200  -1.13878  -1.13835  -1.13797
  Beta  occ. eigenvalues --   -1.13790  -1.13758  -1.13741  -1.13343  -1.13317
  Beta  occ. eigenvalues --   -1.13286  -1.13279  -1.13268  -1.13201  -1.12765
  Beta  occ. eigenvalues --   -1.12752  -1.12745  -1.12084  -1.12015  -1.11995
  Beta  occ. eigenvalues --   -0.17828  -0.13403  -0.10735
  Beta virt. eigenvalues --   -0.08049  -0.06249  -0.04619  -0.04137  -0.02880
  Beta virt. eigenvalues --   -0.02400  -0.02050  -0.01962  -0.00635  -0.00599
  Beta virt. eigenvalues --    0.00003   0.00197   0.00400   0.00485   0.00752

 Mulliken charges and spin densities:
               1          2
     1  Na  -0.482164   0.317049
     2  Na   0.350932   0.038366
     3  Na   0.259247  -0.119470
     4  Na  -0.660047   0.488211
     5  Na   0.040747  -0.006871
     6  Na   0.298780  -0.124815
     7  Na   0.192505   0.407529
 Sum of Mulliken charges =  -0.00000   1.00000

 Dipole moment (field-independent basis, Debye):
    X=              0.5358    Y=              0.2664    Z=              0.2142  Tot=              0.6356
 Quadrupole moment (field-independent basis, Debye-Ang):
   XX=            -51.9667   YY=            -66.6824   ZZ=            -76.1686
   XY=              0.9013   XZ=             -2.4923   YZ=             -6.9370

 Normal termination of Gaussian 16 at Tue Dec  5 12:38:55 2023.
