 Gaussian 16, Revision B.01,
 Gaussian 16:  ES64L-G16RevB.01 20-Dec-2017

 -------------------------
 #P B3LYP/6-311+g(d) force
 -------------------------

 -----
 DPGEN
 -----
 Symbolic Z-matrix:
 Charge =  0 Multiplicity = 2

                         Standard orientation:
 ---------------------------------------------------------------------
 Center     Atomic      Atomic             Coordinates (Angstroms)
 Number     Number       Type             X           Y           Z
 ---------------------------------------------------------------------
      1         11           0        2.977056   -1.410928   -0.671675
      2         11           0        6.099719   -0.444291   -0.384191
      3         11           0        3.134854    1.876583   -0.442759
      4         11           0       -0.432677    1.544002    0.764879
      5         11           0       -0.361976   -1.513424    1.537975
      6         11           0       -4.693711    0.393518    0.597009
      7         11           0       -6.723265   -0.445460   -1.401239
 ---------------------------------------------------------------------

 SCF Done:  E(UB3LYP) =  -1136.11238418     A.U. after   19 cycles

 The electronic state is 2-A.
 Alpha  occ. eigenvalues --  -38.45033 -38.44981 -38.44467 -38.44183 -38.44070
 Alpha  occ. eigenvalues --  -38.43673 -38.43642  -2.20823  -2.20811  -2.20304
 Alpha  occ. eigenvalues --   -2.19990  -2.19882  -2.19478  -2.19446  -1.14520
 Alpha  occ. eigenvalues --   -1.14509  -1.14491  -1.14479  -1.14459  -1.14376
 Alpha  occ. eigenvalues --   -1.13988  -1.13965  -1.13880  -1.13703  -1.13665
 Alpha  occ. eigenvalues --   -1.13629  -1.13535  -1.13515  -1.13496  -1.13282
 Alpha  occ. eigenvalues --   -1.13134  -1.13130  -1.13097  -1.13087  -1.12993
 Alpha  occ. eigenvalues --   -0.16576  -0.13782  -0.12172  -0.10869
 Alpha virt. eigenvalues --   -0.07003  -0.05317  -0.04674  -0.03641  -0.02882
 Alpha virt. eigenvalues --   -0.02619  -0.02107  -0.01964  -0.01114  -0.00842
 Alpha virt. eigenvalues --   -0.00252  -0.00203  -0.00020   0.00276   0.00419

  Beta  occ. eigenvalues --  -38.45022 -38.44950 -38.44386 -38.44169 -38.44027
  Beta  occ. eigenvalues --  -38.43680 -38.43640  -2.20804  -2.20757  -2.20155
  Beta  occ. eigenvalues --   -2.19967  -2.19800  -2.19489  -2.19442  -1.14494
  Beta  occ. eigenvalues --   -1.14476  -1.14461  -1.14448  -1.14437  -1.14340
  Beta  occ. eigenvalues --   -1.13890  -1.13866  -1.13762  -1.13678  -1.13653
  Beta  occ. eigenvalues --   -1.13594  -1.13479  -1.13456  -1.13446  -1.13287
  Beta  occ. eigenvalues --   -1.13139  -1.13137  -1.13096  -1.13086  -1.12998
  Beta  occ. eigenvalues --   -0.15882  -0.13757  -0.12039
  Beta virt. eigenvalues --   -0.07010  -0.06799  -0.04925  -0.04253  -0.03477
  Beta virt. eigenvalues --   -0.02565  -0.02123  -0.01944  -0.01820  -0.00862
  Beta virt. eigenvalues --   -0.00582  -0.00129  -0.00007   0.00327   0.00435

 Mulliken charges and spin densities:
               1          2
     1  Na  -0.506221   0.292743
     2  Na   0.555866   0.003146
     3  Na   0.012895   0.252524
     4  Na  -0.116283   0.188997
     5  Na   0.110620   0.241423
     6  Na  -0.579622   0.031441
     7  Na   0.522744  -0.010274
 Sum of Mulliken charges =  -0.00000   1.00000

 Dipole moment (field-independent basis, Debye):
    X=              2.6382    Y=             -0.4027    Z=             -0.1881  Tot=              2.6754
 Quadrupole moment (field-independent basis, Debye-Ang):
   XX=            -54.2256   YY=            -71.1169   ZZ=            -68.8308
   XY=              1.6788   XZ=              2.5754   YZ=              1.8599

 Normal termination of Gaussian 16 at Wed Nov 29 00:22:47 2023.
