 Gaussian 16, Revision B.01,
 Gaussian 16:  ES64L-G16RevB.01 20-Dec-2017

 -------------------------
 #P B3LYP/6-311+g(d) force
 -------------------------

 -----
 DPGEN
 -----
 Symbolic Z-matrix:
 Charge =  0 Multiplicity = 2

                         Standard orientation:
 ---------------------------------------------------------------------
 Center     Atomic      Atomic             Coordinates (Angstroms)
 Number     Number       Type             X           Y           Z
 ---------------------------------------------------------------------
      1         11           0       -0.502490    0.318355    2.208090
      2         11           0       -2.687524    1.495551   -0.773118
      3         11           0        0.739894    1.955792   -0.846237
      4         11           0       -3.376756   -1.324493    0.485328
      5         11           0       -0.441109   -1.263847   -1.144669
      6         11           0        2.588423   -1.877961   -0.487573
      7         11           0        3.679562    0.696603    0.558179
 ---------------------------------------------------------------------

 SCF Done:  E(UB3LYP) =  -1136.11587996     A.U. after   37 cycles

 The electronic state is 2-A.
 Alpha  occ. eigenvalues --  -38.45478 -38.44940 -38.44441 -38.44410 -38.43670
 Alpha  occ. eigenvalues --  -38.43650 -38.42597  -2.21308  -2.20751  -2.20287
 Alpha  occ. eigenvalues --   -2.20279  -2.19582  -2.19541  -2.18463  -1.15006
 Alpha  occ. eigenvalues --   -1.14964  -1.14926  -1.14433  -1.14384  -1.14358
 Alpha  occ. eigenvalues --   -1.14040  -1.13958  -1.13941  -1.13928  -1.13908
 Alpha  occ. eigenvalues --   -1.13872  -1.13320  -1.13250  -1.13229  -1.13202
 Alpha  occ. eigenvalues --   -1.13175  -1.13142  -1.12169  -1.12122  -1.12094
 Alpha  occ. eigenvalues --   -0.18484  -0.14422  -0.11133  -0.11015
 Alpha virt. eigenvalues --   -0.07468  -0.05545  -0.04295  -0.03226  -0.02928
 Alpha virt. eigenvalues --   -0.02524  -0.02326  -0.01406  -0.00723  -0.00280
 Alpha virt. eigenvalues --    0.00055   0.00150   0.00291   0.00572   0.00720

  Beta  occ. eigenvalues --  -38.45468 -38.44861 -38.44453 -38.44384 -38.43664
  Beta  occ. eigenvalues --  -38.43586 -38.42590  -2.21287  -2.20604  -2.20308
  Beta  occ. eigenvalues --   -2.20237  -2.19534  -2.19468  -2.18453  -1.14999
  Beta  occ. eigenvalues --   -1.14943  -1.14914  -1.14331  -1.14286  -1.14249
  Beta  occ. eigenvalues --   -1.14045  -1.13964  -1.13925  -1.13897  -1.13887
  Beta  occ. eigenvalues --   -1.13861  -1.13268  -1.13205  -1.13174  -1.13168
  Beta  occ. eigenvalues --   -1.13128  -1.13081  -1.12161  -1.12106  -1.12075
  Beta  occ. eigenvalues --   -0.17795  -0.14364  -0.10821
  Beta virt. eigenvalues --   -0.07359  -0.07026  -0.05485  -0.03723  -0.02957
  Beta virt. eigenvalues --   -0.02724  -0.01940  -0.01514  -0.01205  -0.00452
  Beta virt. eigenvalues --   -0.00320   0.00042   0.00201   0.00481   0.00660

 Mulliken charges and spin densities:
               1          2
     1  Na  -0.579820   0.515577
     2  Na   0.292188   0.080430
     3  Na  -0.328925  -0.092084
     4  Na   0.893545  -0.040591
     5  Na  -0.620345   0.534299
     6  Na  -0.185397  -0.208977
     7  Na   0.528754   0.211346
 Sum of Mulliken charges =  -0.00000   1.00000

 Dipole moment (field-independent basis, Debye):
    X=             -0.1013    Y=              0.4841    Z=              0.6289  Tot=              0.8001
 Quadrupole moment (field-independent basis, Debye-Ang):
   XX=            -46.6826   YY=            -76.5942   ZZ=            -72.1737
   XY=              1.1750   XZ=              2.1086   YZ=             -0.8822

 Normal termination of Gaussian 16 at Thu Dec  7 18:16:13 2023.
