 Gaussian 16, Revision B.01,
 Gaussian 16:  ES64L-G16RevB.01 20-Dec-2017

 -------------------------
 #P B3LYP/6-311+g(d) force
 -------------------------

 -----
 DPGEN
 -----
 Symbolic Z-matrix:
 Charge =  0 Multiplicity = 2

                         Standard orientation:
 ---------------------------------------------------------------------
 Center     Atomic      Atomic             Coordinates (Angstroms)
 Number     Number       Type             X           Y           Z
 ---------------------------------------------------------------------
      1         11           0       -0.588450    2.957770   -0.487834
      2         11           0       -0.084598   -0.124322   -1.462513
      3         11           0        2.453636   -1.931226   -0.092554
      4         11           0        2.900850    1.316463   -0.054462
      5         11           0       -0.373176    0.468373    2.377081
      6         11           0       -3.223904    0.041740   -0.260823
      7         11           0       -1.084359   -2.728799   -0.018895
 ---------------------------------------------------------------------

 SCF Done:  E(UB3LYP) =  -1136.13512155     A.U. after   18 cycles

 The electronic state is 2-A.
 Alpha  occ. eigenvalues --  -38.44352 -38.44060 -38.43972 -38.43580 -38.43553
 Alpha  occ. eigenvalues --  -38.43431 -38.43080  -2.20168  -2.19871  -2.19794
 Alpha  occ. eigenvalues --   -2.19418  -2.19370  -2.19284  -2.19082  -1.13849
 Alpha  occ. eigenvalues --   -1.13827  -1.13801  -1.13550  -1.13542  -1.13508
 Alpha  occ. eigenvalues --   -1.13438  -1.13418  -1.13414  -1.13100  -1.13078
 Alpha  occ. eigenvalues --   -1.13076  -1.13060  -1.13026  -1.13014  -1.12995
 Alpha  occ. eigenvalues --   -1.12941  -1.12902  -1.12762  -1.12714  -1.12703
 Alpha  occ. eigenvalues --   -0.18253  -0.12969  -0.12340  -0.10773
 Alpha virt. eigenvalues --   -0.05885  -0.05112  -0.04758  -0.03100  -0.02998
 Alpha virt. eigenvalues --   -0.02646  -0.01642  -0.01111  -0.00580  -0.00445
 Alpha virt. eigenvalues --   -0.00049   0.00332   0.00766   0.00826   0.00882

  Beta  occ. eigenvalues --  -38.44348 -38.44060 -38.43858 -38.43579 -38.43543
  Beta  occ. eigenvalues --  -38.43428 -38.43033  -2.20162  -2.19872  -2.19583
  Beta  occ. eigenvalues --   -2.19419  -2.19356  -2.19281  -2.18998  -1.13838
  Beta  occ. eigenvalues --   -1.13810  -1.13800  -1.13553  -1.13527  -1.13512
  Beta  occ. eigenvalues --   -1.13296  -1.13272  -1.13266  -1.13097  -1.13069
  Beta  occ. eigenvalues --   -1.13064  -1.13057  -1.13006  -1.13002  -1.12988
  Beta  occ. eigenvalues --   -1.12921  -1.12904  -1.12702  -1.12655  -1.12641
  Beta  occ. eigenvalues --   -0.17580  -0.12797  -0.12129
  Beta virt. eigenvalues --   -0.06747  -0.05857  -0.05125  -0.04668  -0.02377
  Beta virt. eigenvalues --   -0.02168  -0.01607  -0.01559  -0.01044  -0.00630
  Beta virt. eigenvalues --   -0.00484   0.00146   0.00380   0.00819   0.00836

 Mulliken charges and spin densities:
               1          2
     1  Na   0.148897   0.000267
     2  Na  -0.176151   0.087023
     3  Na   0.099778   0.021924
     4  Na   0.145437   0.009136
     5  Na  -0.716977   0.781945
     6  Na   0.295388   0.023284
     7  Na   0.203628   0.076421
 Sum of Mulliken charges =  -0.00000   1.00000

 Dipole moment (field-independent basis, Debye):
    X=             -0.1983    Y=              0.1330    Z=              0.1429  Tot=              0.2783
 Quadrupole moment (field-independent basis, Debye-Ang):
   XX=            -56.0293   YY=            -62.8366   ZZ=            -74.9361
   XY=              0.2411   XZ=              0.7397   YZ=             -1.1391

 Normal termination of Gaussian 16 at Fri Dec  8 03:22:05 2023.
