 Gaussian 16, Revision B.01,
 Gaussian 16:  ES64L-G16RevB.01 20-Dec-2017

 -------------------------
 #P B3LYP/6-311+g(d) force
 -------------------------

 -----
 DPGEN
 -----
 Symbolic Z-matrix:
 Charge =  0 Multiplicity = 2

                         Standard orientation:
 ---------------------------------------------------------------------
 Center     Atomic      Atomic             Coordinates (Angstroms)
 Number     Number       Type             X           Y           Z
 ---------------------------------------------------------------------
      1         11           0       -0.109605   -0.180359   -1.391988
      2         11           0        0.033231   -0.009125    1.821999
      3         11           0       -0.891586    2.772637   -0.262631
      4         11           0       -3.121548    0.201570    0.080093
      5         11           0        2.571804   -1.724676   -0.108948
      6         11           0        2.660913    1.657535   -0.019829
      7         11           0       -1.143208   -2.717583   -0.118697
 ---------------------------------------------------------------------

 SCF Done:  E(UB3LYP) =  -1136.13716980     A.U. after   19 cycles

 The electronic state is 2-A.
 Alpha  occ. eigenvalues --  -38.44110 -38.43932 -38.43922 -38.43447 -38.43289
 Alpha  occ. eigenvalues --  -38.42966 -38.42703  -2.19967  -2.19778  -2.19754
 Alpha  occ. eigenvalues --   -2.19328  -2.19153  -2.18923  -2.18781  -1.13643
 Alpha  occ. eigenvalues --   -1.13630  -1.13608  -1.13476  -1.13448  -1.13428
 Alpha  occ. eigenvalues --   -1.13422  -1.13407  -1.13371  -1.13072  -1.12981
 Alpha  occ. eigenvalues --   -1.12941  -1.12856  -1.12813  -1.12781  -1.12650
 Alpha  occ. eigenvalues --   -1.12534  -1.12528  -1.12457  -1.12409  -1.12387
 Alpha  occ. eigenvalues --   -0.18979  -0.13269  -0.12535  -0.10218
 Alpha virt. eigenvalues --   -0.05711  -0.05379  -0.04702  -0.03000  -0.02596
 Alpha virt. eigenvalues --   -0.01981  -0.01692  -0.01247  -0.00445  -0.00420
 Alpha virt. eigenvalues --    0.00044   0.00350   0.00789   0.00858   0.00882

  Beta  occ. eigenvalues --  -38.44105 -38.43927 -38.43919 -38.43439 -38.43281
  Beta  occ. eigenvalues --  -38.42876 -38.42644  -2.19962  -2.19772  -2.19752
  Beta  occ. eigenvalues --   -2.19319  -2.19142  -2.18758  -2.18677  -1.13638
  Beta  occ. eigenvalues --   -1.13611  -1.13599  -1.13475  -1.13430  -1.13418
  Beta  occ. eigenvalues --   -1.13407  -1.13398  -1.13372  -1.13060  -1.12949
  Beta  occ. eigenvalues --   -1.12938  -1.12845  -1.12782  -1.12777  -1.12544
  Beta  occ. eigenvalues --   -1.12418  -1.12408  -1.12369  -1.12333  -1.12312
  Beta  occ. eigenvalues --   -0.18266  -0.13028  -0.12265
  Beta virt. eigenvalues --   -0.06320  -0.05682  -0.05384  -0.04681  -0.02215
  Beta virt. eigenvalues --   -0.01841  -0.01608  -0.01185  -0.00959  -0.00502
  Beta virt. eigenvalues --   -0.00465   0.00185   0.00386   0.00835   0.00856

 Mulliken charges and spin densities:
               1          2
     1  Na  -0.679097   0.416900
     2  Na  -0.408473   0.770479
     3  Na   0.127999  -0.039679
     4  Na   0.312748   0.015012
     5  Na   0.206201  -0.063169
     6  Na   0.115876  -0.040654
     7  Na   0.324745  -0.058888
 Sum of Mulliken charges =  -0.00000   1.00000

 Dipole moment (field-independent basis, Debye):
    X=              0.0683    Y=             -0.0373    Z=              0.1711  Tot=              0.1880
 Quadrupole moment (field-independent basis, Debye-Ang):
   XX=            -53.0016   YY=            -60.4498   ZZ=            -77.3341
   XY=              0.1444   XZ=             -0.4276   YZ=             -0.3565

 Normal termination of Gaussian 16 at Thu Dec  7 22:59:59 2023.
