 Gaussian 16, Revision B.01,
 Gaussian 16:  ES64L-G16RevB.01 20-Dec-2017

 -------------------------
 #P B3LYP/6-311+g(d) force
 -------------------------

 -----
 DPGEN
 -----
 Symbolic Z-matrix:
 Charge =  0 Multiplicity = 2

                         Standard orientation:
 ---------------------------------------------------------------------
 Center     Atomic      Atomic             Coordinates (Angstroms)
 Number     Number       Type             X           Y           Z
 ---------------------------------------------------------------------
      1         11           0       -2.008318   -1.991377   -1.155869
      2         11           0       -4.671538   -1.634613    0.180003
      3         11           0       -2.988438    0.724382    1.346468
      4         11           0       -1.348352    3.460968   -0.617185
      5         11           0        0.099510    0.665563   -0.202106
      6         11           0        4.237960   -1.356347    0.518419
      7         11           0        6.679176    0.131425   -0.069730
 ---------------------------------------------------------------------

 SCF Done:  E(UB3LYP) =  -1136.11141643     A.U. after   19 cycles

 The electronic state is 2-A.
 Alpha  occ. eigenvalues --  -38.44619 -38.44250 -38.44136 -38.44111 -38.44007
 Alpha  occ. eigenvalues --  -38.43804 -38.43692  -2.20494  -2.20056  -2.19986
 Alpha  occ. eigenvalues --   -2.19953  -2.19814  -2.19678  -2.19579  -1.14190
 Alpha  occ. eigenvalues --   -1.14157  -1.14105  -1.13748  -1.13737  -1.13715
 Alpha  occ. eigenvalues --   -1.13688  -1.13678  -1.13639  -1.13632  -1.13593
 Alpha  occ. eigenvalues --   -1.13591  -1.13461  -1.13455  -1.13396  -1.13363
 Alpha  occ. eigenvalues --   -1.13334  -1.13283  -1.13239  -1.13217  -1.13206
 Alpha  occ. eigenvalues --   -0.17127  -0.13444  -0.12540  -0.10946
 Alpha virt. eigenvalues --   -0.06500  -0.05371  -0.04227  -0.03737  -0.02928
 Alpha virt. eigenvalues --   -0.02520  -0.02115  -0.01791  -0.01266  -0.00668
 Alpha virt. eigenvalues --   -0.00383  -0.00223   0.00388   0.00451   0.00687

  Beta  occ. eigenvalues --  -38.44566 -38.44239 -38.44121 -38.44058 -38.44011
  Beta  occ. eigenvalues --  -38.43763 -38.43675  -2.20397  -2.20036  -2.19924
  Beta  occ. eigenvalues --   -2.19888  -2.19823  -2.19605  -2.19549  -1.14117
  Beta  occ. eigenvalues --   -1.14089  -1.14029  -1.13735  -1.13722  -1.13702
  Beta  occ. eigenvalues --   -1.13670  -1.13608  -1.13574  -1.13574  -1.13572
  Beta  occ. eigenvalues --   -1.13561  -1.13468  -1.13460  -1.13387  -1.13318
  Beta  occ. eigenvalues --   -1.13286  -1.13208  -1.13206  -1.13194  -1.13178
  Beta  occ. eigenvalues --   -0.16389  -0.13270  -0.12422
  Beta virt. eigenvalues --   -0.07150  -0.06169  -0.05117  -0.03914  -0.03377
  Beta virt. eigenvalues --   -0.02540  -0.02241  -0.02015  -0.01478  -0.00827
  Beta virt. eigenvalues --   -0.00610  -0.00151  -0.00078   0.00517   0.00537

 Mulliken charges and spin densities:
               1          2
     1  Na   0.468169   0.164506
     2  Na   0.096526   0.154189
     3  Na   0.181606   0.331811
     4  Na   0.942919   0.127238
     5  Na  -1.586407   0.214227
     6  Na  -0.368246  -0.053300
     7  Na   0.265433   0.061330
 Sum of Mulliken charges =  -0.00000   1.00000

 Dipole moment (field-independent basis, Debye):
    X=             -0.5055    Y=              0.7301    Z=             -0.3868  Tot=              0.9686
 Quadrupole moment (field-independent basis, Debye-Ang):
   XX=            -62.4554   YY=            -64.3905   ZZ=            -69.8211
   XY=              4.7671   XZ=             -0.4048   YZ=             -2.7096

 Normal termination of Gaussian 16 at Wed Nov 29 02:30:00 2023.
