 Gaussian 16, Revision B.01,
 Gaussian 16:  ES64L-G16RevB.01 20-Dec-2017

 -------------------------
 #P B3LYP/6-311+g(d) force
 -------------------------

 -----
 DPGEN
 -----
 Symbolic Z-matrix:
 Charge =  0 Multiplicity = 2

                         Standard orientation:
 ---------------------------------------------------------------------
 Center     Atomic      Atomic             Coordinates (Angstroms)
 Number     Number       Type             X           Y           Z
 ---------------------------------------------------------------------
      1         11           0        3.188877   -0.464940   -1.646195
      2         11           0       -0.189173   -0.553934   -0.881569
      3         11           0        1.763606   -1.569263    1.573859
      4         11           0        2.248170    1.573818    0.623721
      5         11           0       -1.518576    2.604860   -0.025226
      6         11           0       -3.301003   -0.970671   -1.483692
      7         11           0       -2.191900   -0.619870    1.839103
 ---------------------------------------------------------------------

 SCF Done:  E(UB3LYP) =  -1136.11906349     A.U. after   29 cycles

 The electronic state is 2-A.
 Alpha  occ. eigenvalues --  -38.45014 -38.44886 -38.44532 -38.44053 -38.43788
 Alpha  occ. eigenvalues --  -38.43391 -38.42343  -2.20828  -2.20739  -2.20358
 Alpha  occ. eigenvalues --   -2.19919  -2.19656  -2.19380  -2.18136  -1.14513
 Alpha  occ. eigenvalues --   -1.14467  -1.14460  -1.14404  -1.14401  -1.14345
 Alpha  occ. eigenvalues --   -1.14048  -1.13986  -1.13979  -1.13615  -1.13587
 Alpha  occ. eigenvalues --   -1.13515  -1.13348  -1.13329  -1.13259  -1.13111
 Alpha  occ. eigenvalues --   -1.13025  -1.13004  -1.11822  -1.11804  -1.11766
 Alpha  occ. eigenvalues --   -0.18265  -0.14294  -0.11323  -0.10463
 Alpha virt. eigenvalues --   -0.06193  -0.06118  -0.04829  -0.03231  -0.02417
 Alpha virt. eigenvalues --   -0.02299  -0.02109  -0.01373  -0.00628  -0.00295
 Alpha virt. eigenvalues --    0.00076   0.00219   0.00284   0.00355   0.00534

  Beta  occ. eigenvalues --  -38.44986 -38.44844 -38.44496 -38.44000 -38.43784
  Beta  occ. eigenvalues --  -38.43367 -38.42346  -2.20778  -2.20658  -2.20290
  Beta  occ. eigenvalues --   -2.19823  -2.19650  -2.19341  -2.18141  -1.14478
  Beta  occ. eigenvalues --   -1.14428  -1.14416  -1.14346  -1.14343  -1.14294
  Beta  occ. eigenvalues --   -1.13994  -1.13945  -1.13934  -1.13551  -1.13522
  Beta  occ. eigenvalues --   -1.13435  -1.13328  -1.13316  -1.13261  -1.13038
  Beta  occ. eigenvalues --   -1.13002  -1.12984  -1.11821  -1.11807  -1.11771
  Beta  occ. eigenvalues --   -0.17595  -0.14033  -0.10323
  Beta virt. eigenvalues --   -0.07629  -0.05985  -0.05334  -0.04696  -0.02885
  Beta virt. eigenvalues --   -0.02173  -0.01819  -0.01708  -0.00857  -0.00491
  Beta virt. eigenvalues --   -0.00075   0.00215   0.00287   0.00384   0.00489

 Mulliken charges and spin densities:
               1          2
     1  Na   1.186546   0.056607
     2  Na  -2.614299   0.267034
     3  Na  -0.042768   0.363527
     4  Na   0.317272   0.236966
     5  Na  -0.258560  -0.065469
     6  Na   1.053564  -0.021655
     7  Na   0.358246   0.162989
 Sum of Mulliken charges =  -0.00000   1.00000

 Dipole moment (field-independent basis, Debye):
    X=              0.1779    Y=             -0.6679    Z=              0.0389  Tot=              0.6923
 Quadrupole moment (field-independent basis, Debye-Ang):
   XX=            -48.9700   YY=            -80.8678   ZZ=            -63.2123
   XY=              0.1953   XZ=             -1.7475   YZ=             -0.4723

 Normal termination of Gaussian 16 at Tue Dec  5 17:46:03 2023.
