 Gaussian 16, Revision B.01,
 Gaussian 16:  ES64L-G16RevB.01 20-Dec-2017

 -------------------------
 #P B3LYP/6-311+g(d) force
 -------------------------

 -----
 DPGEN
 -----
 Symbolic Z-matrix:
 Charge =  0 Multiplicity = 2

                         Standard orientation:
 ---------------------------------------------------------------------
 Center     Atomic      Atomic             Coordinates (Angstroms)
 Number     Number       Type             X           Y           Z
 ---------------------------------------------------------------------
      1         11           0       -0.604161   -0.880138    1.954186
      2         11           0        0.823523    2.280633    0.650170
      3         11           0        3.911498    0.595684   -0.794457
      4         11           0       -3.528230   -1.467729   -0.590097
      5         11           0        2.492445   -1.962559    0.461941
      6         11           0       -0.325070   -0.431234   -1.692915
      7         11           0       -2.770005    1.865343    0.011173
 ---------------------------------------------------------------------

 SCF Done:  E(UB3LYP) =  -1136.12125759     A.U. after   24 cycles

 The electronic state is 2-A.
 Alpha  occ. eigenvalues --  -38.45620 -38.44772 -38.44287 -38.44066 -38.44066
 Alpha  occ. eigenvalues --  -38.43875 -38.42508  -2.21420  -2.20581  -2.20094
 Alpha  occ. eigenvalues --   -2.19920  -2.19875  -2.19699  -2.18321  -1.15122
 Alpha  occ. eigenvalues --   -1.15074  -1.15038  -1.14255  -1.14228  -1.14204
 Alpha  occ. eigenvalues --   -1.13783  -1.13754  -1.13724  -1.13591  -1.13549
 Alpha  occ. eigenvalues --   -1.13542  -1.13531  -1.13528  -1.13509  -1.13365
 Alpha  occ. eigenvalues --   -1.13358  -1.13355  -1.12011  -1.12001  -1.11940
 Alpha  occ. eigenvalues --   -0.17854  -0.14057  -0.11078  -0.10902
 Alpha virt. eigenvalues --   -0.07075  -0.05768  -0.04279  -0.03098  -0.02991
 Alpha virt. eigenvalues --   -0.02669  -0.02316  -0.01426  -0.00806  -0.00533
 Alpha virt. eigenvalues --   -0.00028   0.00112   0.00323   0.00537   0.00637

  Beta  occ. eigenvalues --  -38.45603 -38.44731 -38.44283 -38.44053 -38.43965
  Beta  occ. eigenvalues --  -38.43864 -38.42502  -2.21389  -2.20505  -2.20088
  Beta  occ. eigenvalues --   -2.19852  -2.19735  -2.19684  -2.18312  -1.15090
  Beta  occ. eigenvalues --   -1.15055  -1.15013  -1.14206  -1.14174  -1.14153
  Beta  occ. eigenvalues --   -1.13777  -1.13752  -1.13709  -1.13528  -1.13503
  Beta  occ. eigenvalues --   -1.13499  -1.13467  -1.13417  -1.13395  -1.13360
  Beta  occ. eigenvalues --   -1.13351  -1.13307  -1.12008  -1.11979  -1.11932
  Beta  occ. eigenvalues --   -0.17221  -0.13666  -0.10784
  Beta virt. eigenvalues --   -0.07325  -0.06799  -0.05678  -0.03787  -0.02942
  Beta virt. eigenvalues --   -0.02629  -0.02028  -0.01675  -0.01350  -0.00630
  Beta virt. eigenvalues --   -0.00338   0.00054   0.00146   0.00463   0.00631

 Mulliken charges and spin densities:
               1          2
     1  Na  -0.026616   0.525736
     2  Na  -0.358583  -0.083862
     3  Na   0.280047   0.286026
     4  Na   0.321725   0.044376
     5  Na   0.006280  -0.013377
     6  Na  -0.269956   0.212567
     7  Na   0.047103   0.028533
 Sum of Mulliken charges =  -0.00000   1.00000

 Dipole moment (field-independent basis, Debye):
    X=             -0.3141    Y=             -0.1592    Z=             -0.2753  Tot=              0.4470
 Quadrupole moment (field-independent basis, Debye-Ang):
   XX=            -51.5236   YY=            -75.7747   ZZ=            -69.6401
   XY=              0.0071   XZ=             -2.1753   YZ=             -1.5485

 Normal termination of Gaussian 16 at Thu Dec  7 11:32:58 2023.
