 Gaussian 16, Revision B.01,
 Gaussian 16:  ES64L-G16RevB.01 20-Dec-2017

 -------------------------
 #P B3LYP/6-311+g(d) force
 -------------------------

 -----
 DPGEN
 -----
 Symbolic Z-matrix:
 Charge =  0 Multiplicity = 2

                         Standard orientation:
 ---------------------------------------------------------------------
 Center     Atomic      Atomic             Coordinates (Angstroms)
 Number     Number       Type             X           Y           Z
 ---------------------------------------------------------------------
      1         11           0       -2.662098    2.577983   -0.248773
      2         11           0       -5.064769   -0.003763   -0.547051
      3         11           0       -2.293625   -1.943858    0.476719
      4         11           0        0.610206   -1.889209   -0.860414
      5         11           0        0.284718    0.750920    1.004094
      6         11           0        3.258304   -0.131919    1.199580
      7         11           0        5.867263    0.639846   -1.024155
 ---------------------------------------------------------------------

 SCF Done:  E(UB3LYP) =  -1136.11170820     A.U. after   22 cycles

 The electronic state is 2-A.
 Alpha  occ. eigenvalues --  -38.44501 -38.44346 -38.44333 -38.44279 -38.44272
 Alpha  occ. eigenvalues --  -38.44135 -38.44131  -2.20405  -2.20187  -2.20116
 Alpha  occ. eigenvalues --   -2.20061  -2.20055  -2.19974  -2.19958  -1.14094
 Alpha  occ. eigenvalues --   -1.14086  -1.14027  -1.13863  -1.13852  -1.13816
 Alpha  occ. eigenvalues --   -1.13769  -1.13767  -1.13738  -1.13733  -1.13730
 Alpha  occ. eigenvalues --   -1.13726  -1.13715  -1.13711  -1.13656  -1.13654
 Alpha  occ. eigenvalues --   -1.13653  -1.13625  -1.13622  -1.13579  -1.13572
 Alpha  occ. eigenvalues --   -0.17159  -0.13972  -0.11715  -0.11338
 Alpha virt. eigenvalues --   -0.06869  -0.06022  -0.04238  -0.03545  -0.02928
 Alpha virt. eigenvalues --   -0.02670  -0.01981  -0.01676  -0.01105  -0.00514
 Alpha virt. eigenvalues --   -0.00297  -0.00224   0.00076   0.00349   0.00584

  Beta  occ. eigenvalues --  -38.44442 -38.44332 -38.44283 -38.44267 -38.44229
  Beta  occ. eigenvalues --  -38.44151 -38.44097  -2.20296  -2.20186  -2.20038
  Beta  occ. eigenvalues --   -2.19998  -2.19991  -2.19978  -2.19911  -1.14029
  Beta  occ. eigenvalues --   -1.14017  -1.13950  -1.13863  -1.13847  -1.13802
  Beta  occ. eigenvalues --   -1.13718  -1.13704  -1.13690  -1.13688  -1.13686
  Beta  occ. eigenvalues --   -1.13677  -1.13670  -1.13667  -1.13655  -1.13643
  Beta  occ. eigenvalues --   -1.13610  -1.13604  -1.13585  -1.13575  -1.13530
  Beta  occ. eigenvalues --   -0.16687  -0.13631  -0.11256
  Beta virt. eigenvalues --   -0.07959  -0.06204  -0.05754  -0.03980  -0.03217
  Beta virt. eigenvalues --   -0.02637  -0.02402  -0.01618  -0.01466  -0.00864
  Beta virt. eigenvalues --   -0.00277  -0.00162  -0.00036   0.00205   0.00480

 Mulliken charges and spin densities:
               1          2
     1  Na   0.659323  -0.085174
     2  Na  -0.199685   0.012535
     3  Na   0.365287   0.369335
     4  Na   0.002562  -0.077830
     5  Na  -0.753446   0.369298
     6  Na  -0.084693   0.072226
     7  Na   0.010652   0.339610
 Sum of Mulliken charges =  -0.00000   1.00000

 Dipole moment (field-independent basis, Debye):
    X=             -0.4766    Y=             -0.5551    Z=             -0.5484  Tot=              0.9143
 Quadrupole moment (field-independent basis, Debye-Ang):
   XX=            -66.9248   YY=            -71.2003   ZZ=            -65.6231
   XY=              0.3553   XZ=             -2.8456   YZ=             -0.9228

 Normal termination of Gaussian 16 at Tue Nov 28 19:09:23 2023.
