 Gaussian 16, Revision B.01,
 Gaussian 16:  ES64L-G16RevB.01 20-Dec-2017

 -------------------------
 #P B3LYP/6-311+g(d) force
 -------------------------

 -----
 DPGEN
 -----
 Symbolic Z-matrix:
 Charge =  0 Multiplicity = 2

                         Standard orientation:
 ---------------------------------------------------------------------
 Center     Atomic      Atomic             Coordinates (Angstroms)
 Number     Number       Type             X           Y           Z
 ---------------------------------------------------------------------
      1         11           0        0.732678   -2.612464    1.280632
      2         11           0        1.059177   -1.618917   -1.849899
      3         11           0        1.041930    0.306221    2.279305
      4         11           0        3.395894    0.980649   -0.973555
      5         11           0        0.151065    3.037241    0.135399
      6         11           0       -1.736726   -0.312968   -0.728236
      7         11           0       -4.644019    0.220237   -0.143646
 ---------------------------------------------------------------------

 SCF Done:  E(UB3LYP) =  -1136.11396249     A.U. after   25 cycles

 The electronic state is 2-A.
 Alpha  occ. eigenvalues --  -38.45338 -38.44566 -38.44405 -38.44099 -38.44038
 Alpha  occ. eigenvalues --  -38.43726 -38.43087  -2.21103  -2.20427  -2.20185
 Alpha  occ. eigenvalues --   -2.19905  -2.19857  -2.19596  -2.18968  -1.14775
 Alpha  occ. eigenvalues --   -1.14756  -1.14711  -1.14106  -1.14082  -1.14031
 Alpha  occ. eigenvalues --   -1.13887  -1.13838  -1.13828  -1.13596  -1.13542
 Alpha  occ. eigenvalues --   -1.13536  -1.13534  -1.13529  -1.13476  -1.13285
 Alpha  occ. eigenvalues --   -1.13234  -1.13208  -1.12669  -1.12622  -1.12588
 Alpha  occ. eigenvalues --   -0.17642  -0.12566  -0.12087  -0.11865
 Alpha virt. eigenvalues --   -0.07109  -0.04624  -0.04124  -0.03448  -0.03298
 Alpha virt. eigenvalues --   -0.03041  -0.02379  -0.00922  -0.00600  -0.00517
 Alpha virt. eigenvalues --   -0.00095   0.00005   0.00321   0.00620   0.00836

  Beta  occ. eigenvalues --  -38.45288 -38.44480 -38.44425 -38.44098 -38.43989
  Beta  occ. eigenvalues --  -38.43689 -38.43077  -2.21011  -2.20270  -2.20222
  Beta  occ. eigenvalues --   -2.19856  -2.19814  -2.19532  -2.18950  -1.14707
  Beta  occ. eigenvalues --   -1.14691  -1.14647  -1.13997  -1.13974  -1.13912
  Beta  occ. eigenvalues --   -1.13911  -1.13862  -1.13853  -1.13535  -1.13532
  Beta  occ. eigenvalues --   -1.13526  -1.13488  -1.13477  -1.13455  -1.13223
  Beta  occ. eigenvalues --   -1.13193  -1.13157  -1.12655  -1.12605  -1.12580
  Beta  occ. eigenvalues --   -0.16854  -0.12466  -0.11807
  Beta virt. eigenvalues --   -0.07957  -0.06775  -0.04493  -0.03635  -0.03130
  Beta virt. eigenvalues --   -0.02594  -0.02580  -0.02015  -0.00871  -0.00506
  Beta virt. eigenvalues --   -0.00338  -0.00010   0.00142   0.00379   0.00677

 Mulliken charges and spin densities:
               1          2
     1  Na   0.035152  -0.171239
     2  Na   3.095474   0.446790
     3  Na   0.143910   0.535255
     4  Na  -0.504731   0.121409
     5  Na   0.521621  -0.024531
     6  Na  -2.496926   0.142397
     7  Na  -0.794499  -0.050082
 Sum of Mulliken charges =  -0.00000   1.00000

 Dipole moment (field-independent basis, Debye):
    X=              0.6324    Y=              0.1609    Z=              0.2601  Tot=              0.7025
 Quadrupole moment (field-independent basis, Debye-Ang):
   XX=            -56.5850   YY=            -69.5351   ZZ=            -68.6557
   XY=             -1.5072   XZ=             -3.4072   YZ=             -1.6612

 Normal termination of Gaussian 16 at Sun Dec  3 18:54:26 2023.
