 Gaussian 16, Revision B.01,
 Gaussian 16:  ES64L-G16RevB.01 20-Dec-2017

 -------------------------
 #P B3LYP/6-311+g(d) force
 -------------------------

 -----
 DPGEN
 -----
 Symbolic Z-matrix:
 Charge =  0 Multiplicity = 2

                         Standard orientation:
 ---------------------------------------------------------------------
 Center     Atomic      Atomic             Coordinates (Angstroms)
 Number     Number       Type             X           Y           Z
 ---------------------------------------------------------------------
      1         11           0       -2.980238   -0.488028    0.061302
      2         11           0       -0.660909   -2.666164   -0.288430
      3         11           0        2.620262   -1.411718   -0.177108
      4         11           0        2.193885    1.886405    0.328016
      5         11           0        0.285297    0.274649   -1.658008
      6         11           0       -0.057652   -0.272542    1.964694
      7         11           0       -1.400646    2.677398   -0.230467
 ---------------------------------------------------------------------

 SCF Done:  E(UB3LYP) =  -1136.13952931     A.U. after   19 cycles

 The electronic state is 2-A.
 Alpha  occ. eigenvalues --  -38.43759 -38.43669 -38.43583 -38.43479 -38.43444
 Alpha  occ. eigenvalues --  -38.43176 -38.43092  -2.19620  -2.19550  -2.19468
 Alpha  occ. eigenvalues --   -2.19409  -2.19282  -2.19107  -2.19084  -1.13306
 Alpha  occ. eigenvalues --   -1.13291  -1.13265  -1.13261  -1.13221  -1.13189
 Alpha  occ. eigenvalues --   -1.13157  -1.13126  -1.13091  -1.13079  -1.13038
 Alpha  occ. eigenvalues --   -1.13021  -1.12986  -1.12936  -1.12913  -1.12802
 Alpha  occ. eigenvalues --   -1.12766  -1.12743  -1.12722  -1.12718  -1.12700
 Alpha  occ. eigenvalues --   -0.19061  -0.13128  -0.12588  -0.10875
 Alpha virt. eigenvalues --   -0.05342  -0.05172  -0.04648  -0.03257  -0.02911
 Alpha virt. eigenvalues --   -0.02542  -0.01342  -0.01088  -0.00253  -0.00121
 Alpha virt. eigenvalues --    0.00007   0.00371   0.00848   0.00915   0.00936

  Beta  occ. eigenvalues --  -38.43756 -38.43660 -38.43576 -38.43440 -38.43390
  Beta  occ. eigenvalues --  -38.43166 -38.43025  -2.19618  -2.19536  -2.19459
  Beta  occ. eigenvalues --   -2.19278  -2.19244  -2.19071  -2.18984  -1.13307
  Beta  occ. eigenvalues --   -1.13276  -1.13256  -1.13252  -1.13185  -1.13179
  Beta  occ. eigenvalues --   -1.13142  -1.13102  -1.13081  -1.12978  -1.12970
  Beta  occ. eigenvalues --   -1.12929  -1.12917  -1.12913  -1.12902  -1.12768
  Beta  occ. eigenvalues --   -1.12715  -1.12701  -1.12689  -1.12641  -1.12625
  Beta  occ. eigenvalues --   -0.18317  -0.12884  -0.12328
  Beta virt. eigenvalues --   -0.06930  -0.05313  -0.05166  -0.04614  -0.02433
  Beta virt. eigenvalues --   -0.02148  -0.01475  -0.01258  -0.01014  -0.00286
  Beta virt. eigenvalues --   -0.00177   0.00134   0.00393   0.00903   0.00910

 Mulliken charges and spin densities:
               1          2
     1  Na   0.093059  -0.048757
     2  Na   0.197292  -0.038900
     3  Na   0.297976  -0.036628
     4  Na   0.167146  -0.002304
     5  Na  -0.349348   0.524989
     6  Na  -0.482215   0.693530
     7  Na   0.076090  -0.091930
 Sum of Mulliken charges =  -0.00000   1.00000

 Dipole moment (field-independent basis, Debye):
    X=              0.0407    Y=              0.0929    Z=              0.1696  Tot=              0.1976
 Quadrupole moment (field-independent basis, Debye-Ang):
   XX=            -57.6315   YY=            -62.4365   ZZ=            -73.6513
   XY=             -0.3415   XZ=              0.5859   YZ=              1.2425

 Normal termination of Gaussian 16 at Thu Dec  7 11:46:14 2023.
