 Gaussian 16, Revision B.01,
 Gaussian 16:  ES64L-G16RevB.01 20-Dec-2017

 -------------------------
 #P B3LYP/6-311+g(d) force
 -------------------------

 -----
 DPGEN
 -----
 Symbolic Z-matrix:
 Charge =  0 Multiplicity = 2

                         Standard orientation:
 ---------------------------------------------------------------------
 Center     Atomic      Atomic             Coordinates (Angstroms)
 Number     Number       Type             X           Y           Z
 ---------------------------------------------------------------------
      1         11           0       -2.729060    0.503408   -0.947074
      2         11           0       -3.879827   -2.481259   -0.210485
      3         11           0        2.771668   -1.082796    0.204895
      4         11           0       -1.806513    3.468118   -0.066677
      5         11           0        5.656937   -0.349400   -0.736195
      6         11           0       -0.808311   -1.893477    0.823772
      7         11           0        0.795105    1.835407    0.931764
 ---------------------------------------------------------------------

 SCF Done:  E(UB3LYP) =  -1136.12550954     A.U. after   21 cycles

 The electronic state is 2-A.
 Alpha  occ. eigenvalues --  -38.44606 -38.44329 -38.44168 -38.44130 -38.44095
 Alpha  occ. eigenvalues --  -38.43449 -38.43122  -2.20414  -2.20195  -2.19996
 Alpha  occ. eigenvalues --   -2.19974  -2.19931  -2.19295  -2.18963  -1.14101
 Alpha  occ. eigenvalues --   -1.14080  -1.14040  -1.13887  -1.13876  -1.13828
 Alpha  occ. eigenvalues --   -1.13659  -1.13654  -1.13647  -1.13628  -1.13621
 Alpha  occ. eigenvalues --   -1.13617  -1.13582  -1.13579  -1.13516  -1.12964
 Alpha  occ. eigenvalues --   -1.12942  -1.12940  -1.12640  -1.12639  -1.12626
 Alpha  occ. eigenvalues --   -0.16978  -0.13958  -0.12837  -0.11052
 Alpha virt. eigenvalues --   -0.06044  -0.05287  -0.04587  -0.03968  -0.02491
 Alpha virt. eigenvalues --   -0.02325  -0.01867  -0.01754  -0.01076  -0.00836
 Alpha virt. eigenvalues --   -0.00255   0.00127   0.00191   0.00425   0.00720

  Beta  occ. eigenvalues --  -38.44588 -38.44301 -38.44087 -38.44084 -38.44070
  Beta  occ. eigenvalues --  -38.43441 -38.43117  -2.20383  -2.20147  -2.19911
  Beta  occ. eigenvalues --   -2.19898  -2.19813  -2.19281  -2.18964  -1.14081
  Beta  occ. eigenvalues --   -1.14055  -1.14018  -1.13852  -1.13839  -1.13790
  Beta  occ. eigenvalues --   -1.13611  -1.13607  -1.13595  -1.13568  -1.13556
  Beta  occ. eigenvalues --   -1.13527  -1.13495  -1.13493  -1.13468  -1.12947
  Beta  occ. eigenvalues --   -1.12934  -1.12932  -1.12651  -1.12650  -1.12550
  Beta  occ. eigenvalues --   -0.16430  -0.13261  -0.12590
  Beta virt. eigenvalues --   -0.07590  -0.05796  -0.04905  -0.04167  -0.03726
  Beta virt. eigenvalues --   -0.02213  -0.02187  -0.01682  -0.01251  -0.00895
  Beta virt. eigenvalues --   -0.00516   0.00070   0.00247   0.00375   0.00545

 Mulliken charges and spin densities:
               1          2
     1  Na  -0.818185   0.258690
     2  Na   1.282701   0.050869
     3  Na  -1.060795   0.579575
     4  Na   0.736501   0.039812
     5  Na   0.343952   0.342292
     6  Na  -0.074945  -0.268783
     7  Na  -0.409229  -0.002454
 Sum of Mulliken charges =  -0.00000   1.00000

 Dipole moment (field-independent basis, Debye):
    X=             -1.2379    Y=              0.0880    Z=              0.1180  Tot=              1.2467
 Quadrupole moment (field-independent basis, Debye-Ang):
   XX=            -62.5022   YY=            -63.0339   ZZ=            -70.6556
   XY=              6.3276   XZ=              0.2343   YZ=              0.3229

 Normal termination of Gaussian 16 at Wed Nov 29 00:49:05 2023.
