 Gaussian 16, Revision B.01,
 Gaussian 16:  ES64L-G16RevB.01 20-Dec-2017

 -------------------------
 #P B3LYP/6-311+g(d) force
 -------------------------

 -----
 DPGEN
 -----
 Symbolic Z-matrix:
 Charge =  0 Multiplicity = 2

                         Standard orientation:
 ---------------------------------------------------------------------
 Center     Atomic      Atomic             Coordinates (Angstroms)
 Number     Number       Type             X           Y           Z
 ---------------------------------------------------------------------
      1         11           0        1.704227   -2.395563   -0.438278
      2         11           0       -2.736651    1.920545   -0.207429
      3         11           0        3.288593    0.163958    0.171757
      4         11           0       -0.136061    0.378763   -1.543498
      5         11           0       -2.497834   -2.238599   -0.077333
      6         11           0        1.003568    2.834017    0.320517
      7         11           0       -0.625842   -0.663122    1.774264
 ---------------------------------------------------------------------

 SCF Done:  E(UB3LYP) =  -1136.13052022     A.U. after   20 cycles

 The electronic state is 2-A.
 Alpha  occ. eigenvalues --  -38.44527 -38.44306 -38.44052 -38.43667 -38.43629
 Alpha  occ. eigenvalues --  -38.43330 -38.43095  -2.20322  -2.20121  -2.19893
 Alpha  occ. eigenvalues --   -2.19528  -2.19453  -2.19238  -2.19047  -1.14006
 Alpha  occ. eigenvalues --   -1.13978  -1.13949  -1.13835  -1.13768  -1.13751
 Alpha  occ. eigenvalues --   -1.13609  -1.13548  -1.13536  -1.13196  -1.13187
 Alpha  occ. eigenvalues --   -1.13153  -1.13150  -1.13114  -1.13076  -1.12915
 Alpha  occ. eigenvalues --   -1.12871  -1.12855  -1.12737  -1.12681  -1.12668
 Alpha  occ. eigenvalues --   -0.18276  -0.13221  -0.12488  -0.10082
 Alpha virt. eigenvalues --   -0.06066  -0.05705  -0.04623  -0.03106  -0.02815
 Alpha virt. eigenvalues --   -0.01973  -0.01806  -0.01543  -0.00669  -0.00483
 Alpha virt. eigenvalues --    0.00003   0.00308   0.00725   0.00753   0.00867

  Beta  occ. eigenvalues --  -38.44516 -38.44303 -38.44049 -38.43651 -38.43616
  Beta  occ. eigenvalues --  -38.43261 -38.43037  -2.20305  -2.20120  -2.19891
  Beta  occ. eigenvalues --   -2.19501  -2.19432  -2.19111  -2.18941  -1.13982
  Beta  occ. eigenvalues --   -1.13960  -1.13942  -1.13823  -1.13756  -1.13751
  Beta  occ. eigenvalues --   -1.13606  -1.13541  -1.13525  -1.13179  -1.13153
  Beta  occ. eigenvalues --   -1.13135  -1.13130  -1.13090  -1.13058  -1.12828
  Beta  occ. eigenvalues --   -1.12779  -1.12768  -1.12658  -1.12608  -1.12585
  Beta  occ. eigenvalues --   -0.17640  -0.12958  -0.12225
  Beta virt. eigenvalues --   -0.06438  -0.05946  -0.05584  -0.04561  -0.02401
  Beta virt. eigenvalues --   -0.02117  -0.01711  -0.01494  -0.01048  -0.00691
  Beta virt. eigenvalues --   -0.00464   0.00156   0.00367   0.00749   0.00805

 Mulliken charges and spin densities:
               1          2
     1  Na   0.251752   0.048839
     2  Na   0.078963  -0.076534
     3  Na  -0.089194   0.005920
     4  Na  -0.098395   0.424136
     5  Na   0.221833  -0.149769
     6  Na   0.010342   0.073214
     7  Na  -0.375302   0.674195
 Sum of Mulliken charges =  -0.00000   1.00000

 Dipole moment (field-independent basis, Debye):
    X=             -0.5588    Y=              0.0416    Z=              0.0013  Tot=              0.5603
 Quadrupole moment (field-independent basis, Debye-Ang):
   XX=            -53.8434   YY=            -61.7710   ZZ=            -76.9418
   XY=             -0.0024   XZ=              1.5028   YZ=              2.6197

 Normal termination of Gaussian 16 at Sun Dec  3 20:42:31 2023.
