 Gaussian 16, Revision B.01,
 Gaussian 16:  ES64L-G16RevB.01 20-Dec-2017

 -------------------------
 #P B3LYP/6-311+g(d) force
 -------------------------

 -----
 DPGEN
 -----
 Symbolic Z-matrix:
 Charge =  0 Multiplicity = 2

                         Standard orientation:
 ---------------------------------------------------------------------
 Center     Atomic      Atomic             Coordinates (Angstroms)
 Number     Number       Type             X           Y           Z
 ---------------------------------------------------------------------
      1         11           0       -2.998582   -0.879949    0.584069
      2         11           0        4.629851   -1.407190   -0.795218
      3         11           0       -0.686189    2.380119   -0.718869
      4         11           0        6.426551    0.300307    1.104676
      5         11           0        1.000687   -0.124422   -0.574742
      6         11           0       -3.793319    3.147746    0.315278
      7         11           0       -4.578999   -3.416613    0.084806
 ---------------------------------------------------------------------

 SCF Done:  E(UB3LYP) =  -1136.10736906     A.U. after   20 cycles

 The electronic state is 2-A.
 Alpha  occ. eigenvalues --  -38.45431 -38.45417 -38.44869 -38.44816 -38.44075
 Alpha  occ. eigenvalues --  -38.42910 -38.42732  -2.21224  -2.21219  -2.20709
 Alpha  occ. eigenvalues --   -2.20603  -2.19916  -2.18731  -2.18532  -1.14881
 Alpha  occ. eigenvalues --   -1.14868  -1.14863  -1.14857  -1.14847  -1.14836
 Alpha  occ. eigenvalues --   -1.14397  -1.14348  -1.14316  -1.14269  -1.14264
 Alpha  occ. eigenvalues --   -1.14254  -1.13610  -1.13580  -1.13558  -1.12443
 Alpha  occ. eigenvalues --   -1.12408  -1.12395  -1.12181  -1.12180  -1.12147
 Alpha  occ. eigenvalues --   -0.16145  -0.14330  -0.11891  -0.11622
 Alpha virt. eigenvalues --   -0.06854  -0.05338  -0.04311  -0.03621  -0.03282
 Alpha virt. eigenvalues --   -0.02590  -0.02042  -0.01634  -0.01537  -0.00907
 Alpha virt. eigenvalues --   -0.00672  -0.00306   0.00015   0.00322   0.00439

  Beta  occ. eigenvalues --  -38.45384 -38.45312 -38.44827 -38.44785 -38.44075
  Beta  occ. eigenvalues --  -38.42907 -38.42736  -2.21135  -2.21024  -2.20627
  Beta  occ. eigenvalues --   -2.20552  -2.19927  -2.18726  -2.18539  -1.14823
  Beta  occ. eigenvalues --   -1.14807  -1.14803  -1.14725  -1.14713  -1.14707
  Beta  occ. eigenvalues --   -1.14298  -1.14289  -1.14277  -1.14252  -1.14241
  Beta  occ. eigenvalues --   -1.14208  -1.13597  -1.13587  -1.13537  -1.12445
  Beta  occ. eigenvalues --   -1.12395  -1.12392  -1.12187  -1.12185  -1.12151
  Beta  occ. eigenvalues --   -0.15349  -0.13797  -0.11496
  Beta virt. eigenvalues --   -0.08383  -0.06288  -0.05186  -0.03895  -0.03259
  Beta virt. eigenvalues --   -0.03000  -0.02275  -0.01682  -0.01588  -0.01149
  Beta virt. eigenvalues --   -0.00818  -0.00297  -0.00124   0.00194   0.00405

 Mulliken charges and spin densities:
               1          2
     1  Na  -0.454815   0.088504
     2  Na  -0.280964   0.028131
     3  Na   0.901388   0.232680
     4  Na   0.131529   0.207479
     5  Na  -0.682718   0.193449
     6  Na   0.237735   0.272048
     7  Na   0.147844  -0.022289
 Sum of Mulliken charges =  -0.00000   1.00000

 Dipole moment (field-independent basis, Debye):
    X=              2.5326    Y=              1.6475    Z=              0.1219  Tot=              3.0238
 Quadrupole moment (field-independent basis, Debye-Ang):
   XX=            -56.9602   YY=            -64.7539   ZZ=            -70.7187
   XY=             -4.7461   XZ=              4.2311   YZ=              5.6316

 Normal termination of Gaussian 16 at Sun Dec  3 19:50:25 2023.
