 Gaussian 16, Revision B.01,
 Gaussian 16:  ES64L-G16RevB.01 20-Dec-2017

 -------------------------
 #P B3LYP/6-311+g(d) force
 -------------------------

 -----
 DPGEN
 -----
 Symbolic Z-matrix:
 Charge =  0 Multiplicity = 2

                         Standard orientation:
 ---------------------------------------------------------------------
 Center     Atomic      Atomic             Coordinates (Angstroms)
 Number     Number       Type             X           Y           Z
 ---------------------------------------------------------------------
      1         11           0       -2.884825    0.503545   -0.957598
      2         11           0       -1.546718   -2.229487    0.406225
      3         11           0       -1.061732    1.581525    1.692264
      4         11           0        2.708949   -1.001073   -0.872816
      5         11           0        1.590466    2.108301   -0.530297
      6         11           0       -0.155673   -0.226831   -1.671863
      7         11           0        1.349534   -0.735980    1.934087
 ---------------------------------------------------------------------

 SCF Done:  E(UB3LYP) =  -1136.12482880     A.U. after   24 cycles

 The electronic state is 2-A.
 Alpha  occ. eigenvalues --  -38.44380 -38.44146 -38.43776 -38.43699 -38.43365
 Alpha  occ. eigenvalues --  -38.43329 -38.43191  -2.20294  -2.20055  -2.19776
 Alpha  occ. eigenvalues --   -2.19690  -2.19231  -2.19223  -2.19068  -1.13978
 Alpha  occ. eigenvalues --   -1.13952  -1.13896  -1.13870  -1.13697  -1.13647
 Alpha  occ. eigenvalues --   -1.13512  -1.13416  -1.13409  -1.13350  -1.13308
 Alpha  occ. eigenvalues --   -1.13290  -1.12928  -1.12911  -1.12892  -1.12866
 Alpha  occ. eigenvalues --   -1.12851  -1.12837  -1.12757  -1.12708  -1.12689
 Alpha  occ. eigenvalues --   -0.19241  -0.13546  -0.12409  -0.11397
 Alpha virt. eigenvalues --   -0.05423  -0.04742  -0.04499  -0.03630  -0.03213
 Alpha virt. eigenvalues --   -0.02991  -0.01342  -0.00666  -0.00489   0.00329
 Alpha virt. eigenvalues --    0.00383   0.00488   0.00669   0.00759   0.00916

  Beta  occ. eigenvalues --  -38.44304 -38.44130 -38.43764 -38.43638 -38.43355
  Beta  occ. eigenvalues --  -38.43312 -38.43155  -2.20155  -2.20026  -2.19676
  Beta  occ. eigenvalues --   -2.19663  -2.19214  -2.19196  -2.19004  -1.13868
  Beta  occ. eigenvalues --   -1.13867  -1.13828  -1.13796  -1.13676  -1.13632
  Beta  occ. eigenvalues --   -1.13460  -1.13352  -1.13333  -1.13326  -1.13276
  Beta  occ. eigenvalues --   -1.13254  -1.12907  -1.12895  -1.12863  -1.12840
  Beta  occ. eigenvalues --   -1.12837  -1.12815  -1.12702  -1.12662  -1.12645
  Beta  occ. eigenvalues --   -0.18431  -0.13316  -0.11195
  Beta virt. eigenvalues --   -0.08269  -0.05302  -0.04528  -0.03974  -0.03129
  Beta virt. eigenvalues --   -0.02553  -0.02257  -0.01285  -0.00562  -0.00212
  Beta virt. eigenvalues --    0.00385   0.00447   0.00629   0.00667   0.00907

 Mulliken charges and spin densities:
               1          2
     1  Na   0.572376   0.017683
     2  Na  -0.604571   0.153138
     3  Na  -0.075490   0.172617
     4  Na   0.450757  -0.002568
     5  Na  -0.591890   0.132700
     6  Na   0.174044   0.122308
     7  Na   0.074774   0.404121
 Sum of Mulliken charges =  -0.00000   1.00000

 Dipole moment (field-independent basis, Debye):
    X=              0.0148    Y=             -0.0497    Z=              0.1373  Tot=              0.1467
 Quadrupole moment (field-independent basis, Debye-Ang):
   XX=            -57.8184   YY=            -73.0810   ZZ=            -65.0678
   XY=             -0.6733   XZ=             -0.4327   YZ=             -3.2176

 Normal termination of Gaussian 16 at Thu Dec  7 05:32:39 2023.
