 Gaussian 16, Revision B.01,
 Gaussian 16:  ES64L-G16RevB.01 20-Dec-2017

 -------------------------
 #P B3LYP/6-311+g(d) force
 -------------------------

 -----
 DPGEN
 -----
 Symbolic Z-matrix:
 Charge =  0 Multiplicity = 2

                         Standard orientation:
 ---------------------------------------------------------------------
 Center     Atomic      Atomic             Coordinates (Angstroms)
 Number     Number       Type             X           Y           Z
 ---------------------------------------------------------------------
      1         11           0        1.413188    1.365911   -1.501324
      2         11           0        0.886775    0.607212    2.074919
      3         11           0        3.680094   -0.535643    0.163574
      4         11           0        0.447103   -2.040406   -0.680019
      5         11           0       -1.647115    2.464858    0.069664
      6         11           0       -2.446129   -1.150038    1.759990
      7         11           0       -2.333916   -0.711894   -1.886804
 ---------------------------------------------------------------------

 SCF Done:  E(UB3LYP) =  -1136.13024826     A.U. after   22 cycles

 The electronic state is 2-A.
 Alpha  occ. eigenvalues --  -38.44854 -38.44365 -38.44298 -38.44105 -38.43938
 Alpha  occ. eigenvalues --  -38.42939 -38.42795  -2.20645  -2.20213  -2.20115
 Alpha  occ. eigenvalues --   -2.19939  -2.19760  -2.18785  -2.18597  -1.14319
 Alpha  occ. eigenvalues --   -1.14283  -1.14262  -1.13897  -1.13870  -1.13841
 Alpha  occ. eigenvalues --   -1.13787  -1.13762  -1.13743  -1.13626  -1.13582
 Alpha  occ. eigenvalues --   -1.13556  -1.13440  -1.13402  -1.13392  -1.12494
 Alpha  occ. eigenvalues --   -1.12472  -1.12383  -1.12273  -1.12249  -1.12247
 Alpha  occ. eigenvalues --   -0.17994  -0.13337  -0.11829  -0.11067
 Alpha virt. eigenvalues --   -0.05927  -0.05498  -0.04512  -0.03329  -0.03073
 Alpha virt. eigenvalues --   -0.02912  -0.01849  -0.01035  -0.00549  -0.00167
 Alpha virt. eigenvalues --    0.00148   0.00313   0.00378   0.00667   0.00714

  Beta  occ. eigenvalues --  -38.44801 -38.44322 -38.44297 -38.44056 -38.43910
  Beta  occ. eigenvalues --  -38.42931 -38.42788  -2.20547  -2.20133  -2.20115
  Beta  occ. eigenvalues --   -2.19851  -2.19710  -2.18773  -2.18587  -1.14242
  Beta  occ. eigenvalues --   -1.14221  -1.14192  -1.13845  -1.13819  -1.13794
  Beta  occ. eigenvalues --   -1.13773  -1.13760  -1.13728  -1.13568  -1.13510
  Beta  occ. eigenvalues --   -1.13493  -1.13401  -1.13372  -1.13350  -1.12483
  Beta  occ. eigenvalues --   -1.12441  -1.12380  -1.12259  -1.12245  -1.12231
  Beta  occ. eigenvalues --   -0.17245  -0.13145  -0.10887
  Beta virt. eigenvalues --   -0.07982  -0.05767  -0.04757  -0.04443  -0.03020
  Beta virt. eigenvalues --   -0.02463  -0.02259  -0.01743  -0.00582  -0.00471
  Beta virt. eigenvalues --    0.00004   0.00317   0.00348   0.00377   0.00765

 Mulliken charges and spin densities:
               1          2
     1  Na  -0.064498   0.202771
     2  Na  -0.288667   0.402587
     3  Na   0.482581  -0.031386
     4  Na  -0.333901   0.128600
     5  Na  -0.072586   0.017800
     6  Na   0.126834   0.136818
     7  Na   0.150238   0.142812
 Sum of Mulliken charges =  -0.00000   1.00000

 Dipole moment (field-independent basis, Debye):
    X=              0.4321    Y=             -0.1556    Z=              0.2502  Tot=              0.5230
 Quadrupole moment (field-independent basis, Debye-Ang):
   XX=            -52.8278   YY=            -77.4338   ZZ=            -64.7399
   XY=             -0.2288   XZ=             -0.2086   YZ=             -5.3763

 Normal termination of Gaussian 16 at Mon Dec  4 02:23:17 2023.
