 Gaussian 16, Revision B.01,
 Gaussian 16:  ES64L-G16RevB.01 20-Dec-2017

 -------------------------
 #P B3LYP/6-311+g(d) force
 -------------------------

 -----
 DPGEN
 -----
 Symbolic Z-matrix:
 Charge =  0 Multiplicity = 2

                         Standard orientation:
 ---------------------------------------------------------------------
 Center     Atomic      Atomic             Coordinates (Angstroms)
 Number     Number       Type             X           Y           Z
 ---------------------------------------------------------------------
      1         11           0       -0.046411   -0.477528   -1.573266
      2         11           0        1.149075   -1.346843    1.867292
      3         11           0        3.919271   -1.609780   -0.530283
      4         11           0        3.670904    1.731497   -0.624993
      5         11           0       -0.079481    2.187958    0.975016
      6         11           0       -2.803634   -0.388250    0.522434
      7         11           0       -5.809723   -0.097054   -0.636200
 ---------------------------------------------------------------------

 SCF Done:  E(UB3LYP) =  -1136.10816408     A.U. after   28 cycles

 The electronic state is 2-A.
 Alpha  occ. eigenvalues --  -38.47608 -38.45365 -38.44645 -38.43997 -38.43462
 Alpha  occ. eigenvalues --  -38.43104 -38.42926  -2.23362  -2.21170  -2.20446
 Alpha  occ. eigenvalues --   -2.19802  -2.19268  -2.18956  -2.18709  -1.17057
 Alpha  occ. eigenvalues --   -1.16995  -1.16992  -1.14844  -1.14815  -1.14773
 Alpha  occ. eigenvalues --   -1.14114  -1.14082  -1.14066  -1.13477  -1.13466
 Alpha  occ. eigenvalues --   -1.13422  -1.12944  -1.12923  -1.12920  -1.12670
 Alpha  occ. eigenvalues --   -1.12650  -1.12568  -1.12368  -1.12365  -1.12340
 Alpha  occ. eigenvalues --   -0.17594  -0.13556  -0.11623  -0.10785
 Alpha virt. eigenvalues --   -0.07889  -0.05252  -0.04978  -0.03360  -0.03130
 Alpha virt. eigenvalues --   -0.02658  -0.02352  -0.01720  -0.01387  -0.00750
 Alpha virt. eigenvalues --   -0.00388  -0.00057   0.00182   0.00335   0.00528

  Beta  occ. eigenvalues --  -38.47603 -38.45295 -38.44575 -38.43971 -38.43457
  Beta  occ. eigenvalues --  -38.43104 -38.42918  -2.23355  -2.21042  -2.20316
  Beta  occ. eigenvalues --   -2.19753  -2.19262  -2.18957  -2.18693  -1.17026
  Beta  occ. eigenvalues --   -1.16996  -1.16993  -1.14749  -1.14731  -1.14681
  Beta  occ. eigenvalues --   -1.14025  -1.13998  -1.13969  -1.13445  -1.13426
  Beta  occ. eigenvalues --   -1.13386  -1.12942  -1.12922  -1.12894  -1.12670
  Beta  occ. eigenvalues --   -1.12646  -1.12568  -1.12357  -1.12354  -1.12331
  Beta  occ. eigenvalues --   -0.16960  -0.13270  -0.10687
  Beta virt. eigenvalues --   -0.07866  -0.07654  -0.04786  -0.04528  -0.03116
  Beta virt. eigenvalues --   -0.02834  -0.02157  -0.01933  -0.01523  -0.01098
  Beta virt. eigenvalues --   -0.00700  -0.00282   0.00154   0.00206   0.00504

 Mulliken charges and spin densities:
               1          2
     1  Na   0.026038   0.128733
     2  Na   0.217667   0.353209
     3  Na   0.273452   0.034326
     4  Na  -0.111519   0.324291
     5  Na   0.016909   0.130011
     6  Na  -0.758356   0.036753
     7  Na   0.335809  -0.007322
 Sum of Mulliken charges =  -0.00000   1.00000

 Dipole moment (field-independent basis, Debye):
    X=              1.8001    Y=              0.2506    Z=              0.0674  Tot=              1.8187
 Quadrupole moment (field-independent basis, Debye-Ang):
   XX=            -82.4915   YY=            -69.3933   ZZ=            -62.6759
   XY=             -1.7121   XZ=              2.0237   YZ=              0.5385

 Normal termination of Gaussian 16 at Fri Dec  8 19:55:00 2023.
