 Gaussian 16, Revision B.01,
 Gaussian 16:  ES64L-G16RevB.01 20-Dec-2017

 -------------------------
 #P B3LYP/6-311+g(d) force
 -------------------------

 -----
 DPGEN
 -----
 Symbolic Z-matrix:
 Charge =  0 Multiplicity = 2

                         Standard orientation:
 ---------------------------------------------------------------------
 Center     Atomic      Atomic             Coordinates (Angstroms)
 Number     Number       Type             X           Y           Z
 ---------------------------------------------------------------------
      1         11           0        0.130411    0.433107    1.852006
      2         11           0       -2.004572    2.129162    0.068777
      3         11           0        1.978319    2.021361   -0.209225
      4         11           0        3.013814   -1.180478   -0.015506
      5         11           0        0.001129    0.109132   -1.800326
      6         11           0        0.086493   -2.274744    0.210590
      7         11           0       -3.205594   -1.237539   -0.106317
 ---------------------------------------------------------------------

 SCF Done:  E(UB3LYP) =  -1136.13149555     A.U. after   19 cycles

 The electronic state is 2-A.
 Alpha  occ. eigenvalues --  -38.44401 -38.44167 -38.43678 -38.43511 -38.43506
 Alpha  occ. eigenvalues --  -38.43398 -38.42726  -2.20196  -2.20032  -2.19530
 Alpha  occ. eigenvalues --   -2.19488  -2.19413  -2.19377  -2.18687  -1.13865
 Alpha  occ. eigenvalues --   -1.13858  -1.13839  -1.13718  -1.13683  -1.13682
 Alpha  occ. eigenvalues --   -1.13246  -1.13224  -1.13199  -1.13179  -1.13145
 Alpha  occ. eigenvalues --   -1.13130  -1.13087  -1.13059  -1.13035  -1.13023
 Alpha  occ. eigenvalues --   -1.12978  -1.12966  -1.12390  -1.12354  -1.12290
 Alpha  occ. eigenvalues --   -0.19148  -0.13412  -0.12107  -0.10893
 Alpha virt. eigenvalues --   -0.06057  -0.05432  -0.03763  -0.03311  -0.02729
 Alpha virt. eigenvalues --   -0.02531  -0.01953  -0.01243  -0.00182  -0.00053
 Alpha virt. eigenvalues --    0.00107   0.00313   0.00716   0.00845   0.00963

  Beta  occ. eigenvalues --  -38.44404 -38.44165 -38.43673 -38.43500 -38.43427
  Beta  occ. eigenvalues --  -38.43311 -38.42711  -2.20203  -2.20032  -2.19524
  Beta  occ. eigenvalues --   -2.19397  -2.19343  -2.19219  -2.18665  -1.13866
  Beta  occ. eigenvalues --   -1.13855  -1.13844  -1.13720  -1.13686  -1.13657
  Beta  occ. eigenvalues --   -1.13228  -1.13186  -1.13156  -1.13141  -1.13085
  Beta  occ. eigenvalues --   -1.13076  -1.13018  -1.12993  -1.12959  -1.12952
  Beta  occ. eigenvalues --   -1.12878  -1.12863  -1.12379  -1.12298  -1.12279
  Beta  occ. eigenvalues --   -0.18385  -0.13191  -0.11831
  Beta virt. eigenvalues --   -0.06922  -0.05999  -0.05440  -0.03768  -0.02535
  Beta virt. eigenvalues --   -0.01922  -0.01863  -0.01439  -0.01204  -0.00247
  Beta virt. eigenvalues --    0.00079   0.00100   0.00330   0.00766   0.00832

 Mulliken charges and spin densities:
               1          2
     1  Na  -0.518129   0.655734
     2  Na   0.277814  -0.137872
     3  Na   0.512641  -0.076479
     4  Na   0.121955  -0.038987
     5  Na  -0.662504   0.688878
     6  Na   0.332902  -0.010038
     7  Na  -0.064679  -0.081236
 Sum of Mulliken charges =  -0.00000   1.00000

 Dipole moment (field-independent basis, Debye):
    X=             -0.1918    Y=              0.1427    Z=             -0.0412  Tot=              0.2426
 Quadrupole moment (field-independent basis, Debye-Ang):
   XX=            -50.1950   YY=            -68.5255   ZZ=            -73.7659
   XY=             -0.0863   XZ=             -0.0828   YZ=             -0.4180

 Normal termination of Gaussian 16 at Sat Dec  9 06:48:34 2023.
