 Gaussian 16, Revision B.01,
 Gaussian 16:  ES64L-G16RevB.01 20-Dec-2017

 -------------------------
 #P B3LYP/6-311+g(d) force
 -------------------------

 -----
 DPGEN
 -----
 Symbolic Z-matrix:
 Charge =  0 Multiplicity = 2

                         Standard orientation:
 ---------------------------------------------------------------------
 Center     Atomic      Atomic             Coordinates (Angstroms)
 Number     Number       Type             X           Y           Z
 ---------------------------------------------------------------------
      1         11           0        2.847491   -1.653538   -1.033799
      2         11           0       -2.669831    0.902134    0.738606
      3         11           0       -0.832576    3.651623   -0.595928
      4         11           0        1.526040    2.016717   -0.226664
      5         11           0       -0.454066   -1.865418   -1.395155
      6         11           0       -3.166422   -2.471751    0.469430
      7         11           0        2.749365   -0.579766    2.043509
 ---------------------------------------------------------------------

 SCF Done:  E(UB3LYP) =  -1136.12248528     A.U. after   20 cycles

 The electronic state is 2-A.
 Alpha  occ. eigenvalues --  -38.44848 -38.44503 -38.43999 -38.43931 -38.43856
 Alpha  occ. eigenvalues --  -38.43828 -38.43589  -2.20631  -2.20349  -2.19842
 Alpha  occ. eigenvalues --   -2.19741  -2.19692  -2.19665  -2.19448  -1.14327
 Alpha  occ. eigenvalues --   -1.14307  -1.14238  -1.14058  -1.14024  -1.14003
 Alpha  occ. eigenvalues --   -1.13528  -1.13523  -1.13489  -1.13421  -1.13401
 Alpha  occ. eigenvalues --   -1.13385  -1.13338  -1.13335  -1.13327  -1.13326
 Alpha  occ. eigenvalues --   -1.13296  -1.13259  -1.13135  -1.13078  -1.13068
 Alpha  occ. eigenvalues --   -0.16905  -0.13660  -0.13113  -0.10422
 Alpha virt. eigenvalues --   -0.06333  -0.05122  -0.05094  -0.03647  -0.02961
 Alpha virt. eigenvalues --   -0.02182  -0.01778  -0.01551  -0.00941  -0.00471
 Alpha virt. eigenvalues --   -0.00178   0.00163   0.00323   0.00522   0.00690

  Beta  occ. eigenvalues --  -38.44832 -38.44494 -38.43980 -38.43926 -38.43775
  Beta  occ. eigenvalues --  -38.43772 -38.43581  -2.20602  -2.20335  -2.19813
  Beta  occ. eigenvalues --   -2.19734  -2.19565  -2.19540  -2.19435  -1.14306
  Beta  occ. eigenvalues --   -1.14288  -1.14213  -1.14042  -1.13999  -1.13996
  Beta  occ. eigenvalues --   -1.13511  -1.13485  -1.13442  -1.13409  -1.13396
  Beta  occ. eigenvalues --   -1.13373  -1.13271  -1.13264  -1.13233  -1.13222
  Beta  occ. eigenvalues --   -1.13204  -1.13177  -1.13123  -1.13069  -1.13061
  Beta  occ. eigenvalues --   -0.16417  -0.13238  -0.12832
  Beta virt. eigenvalues --   -0.06846  -0.06216  -0.04966  -0.04639  -0.03296
  Beta virt. eigenvalues --   -0.02512  -0.01769  -0.01553  -0.01411  -0.00863
  Beta virt. eigenvalues --   -0.00319   0.00142   0.00417   0.00477   0.00702

 Mulliken charges and spin densities:
               1          2
     1  Na   0.593091   0.019627
     2  Na  -0.384062   0.142044
     3  Na   0.535258  -0.066287
     4  Na  -0.763418   0.199766
     5  Na  -0.792634   0.252719
     6  Na   0.715261   0.025841
     7  Na   0.096504   0.426290
 Sum of Mulliken charges =  -0.00000   1.00000

 Dipole moment (field-independent basis, Debye):
    X=             -0.5579    Y=             -0.0651    Z=              0.1967  Tot=              0.5951
 Quadrupole moment (field-independent basis, Debye-Ang):
   XX=            -63.2327   YY=            -63.5470   ZZ=            -71.6312
   XY=             -1.0325   XZ=             -3.5589   YZ=             -2.3227

 Normal termination of Gaussian 16 at Mon Dec  4 00:05:32 2023.
