 Gaussian 16, Revision B.01,
 Gaussian 16:  ES64L-G16RevB.01 20-Dec-2017

 -------------------------
 #P B3LYP/6-311+g(d) force
 -------------------------

 -----
 DPGEN
 -----
 Symbolic Z-matrix:
 Charge =  0 Multiplicity = 2

                         Standard orientation:
 ---------------------------------------------------------------------
 Center     Atomic      Atomic             Coordinates (Angstroms)
 Number     Number       Type             X           Y           Z
 ---------------------------------------------------------------------
      1         11           0        2.780497   -1.974306   -0.323277
      2         11           0       -0.134878   -0.452423   -1.393336
      3         11           0       -0.272841   -0.145966    2.119552
      4         11           0       -2.763151    0.799978   -0.428211
      5         11           0        2.600778    1.502946    0.089518
      6         11           0       -1.834040   -2.601309    0.103568
      7         11           0       -0.376364    2.871081   -0.167814
 ---------------------------------------------------------------------

 SCF Done:  E(UB3LYP) =  -1136.13345780     A.U. after   20 cycles

 The electronic state is 2-A.
 Alpha  occ. eigenvalues --  -38.44094 -38.43966 -38.43871 -38.43806 -38.43664
 Alpha  occ. eigenvalues --  -38.43065 -38.43057  -2.19883  -2.19813  -2.19723
 Alpha  occ. eigenvalues --   -2.19706  -2.19542  -2.19078  -2.18951  -1.13558
 Alpha  occ. eigenvalues --   -1.13535  -1.13529  -1.13521  -1.13471  -1.13456
 Alpha  occ. eigenvalues --   -1.13441  -1.13388  -1.13376  -1.13373  -1.13339
 Alpha  occ. eigenvalues --   -1.13336  -1.13208  -1.13167  -1.13151  -1.12764
 Alpha  occ. eigenvalues --   -1.12718  -1.12705  -1.12617  -1.12612  -1.12595
 Alpha  occ. eigenvalues --   -0.18693  -0.13124  -0.12483  -0.10670
 Alpha virt. eigenvalues --   -0.05854  -0.05258  -0.04654  -0.03090  -0.02787
 Alpha virt. eigenvalues --   -0.02494  -0.01553  -0.01343  -0.00520  -0.00251
 Alpha virt. eigenvalues --   -0.00016   0.00325   0.00786   0.00841   0.00881

  Beta  occ. eigenvalues --  -38.44089 -38.43960 -38.43869 -38.43788 -38.43560
  Beta  occ. eigenvalues --  -38.43060 -38.43009  -2.19876  -2.19807  -2.19705
  Beta  occ. eigenvalues --   -2.19695  -2.19350  -2.18993  -2.18947  -1.13543
  Beta  occ. eigenvalues --   -1.13531  -1.13524  -1.13515  -1.13449  -1.13440
  Beta  occ. eigenvalues --   -1.13425  -1.13389  -1.13359  -1.13346  -1.13337
  Beta  occ. eigenvalues --   -1.13309  -1.13081  -1.13036  -1.13011  -1.12701
  Beta  occ. eigenvalues --   -1.12663  -1.12636  -1.12618  -1.12606  -1.12566
  Beta  occ. eigenvalues --   -0.17981  -0.12901  -0.12236
  Beta virt. eigenvalues --   -0.06747  -0.05803  -0.05171  -0.04632  -0.02354
  Beta virt. eigenvalues --   -0.02068  -0.01522  -0.01382  -0.01237  -0.00553
  Beta virt. eigenvalues --   -0.00281   0.00148   0.00371   0.00795   0.00887

 Mulliken charges and spin densities:
               1          2
     1  Na   0.139351   0.003377
     2  Na  -0.504055   0.043950
     3  Na  -0.534764   0.678552
     4  Na   0.597992   0.168254
     5  Na   0.101858   0.028299
     6  Na   0.248767   0.039715
     7  Na  -0.049150   0.037854
 Sum of Mulliken charges =  -0.00000   1.00000

 Dipole moment (field-independent basis, Debye):
    X=              0.0629    Y=             -0.4648    Z=              0.2487  Tot=              0.5309
 Quadrupole moment (field-independent basis, Debye-Ang):
   XX=            -57.5586   YY=            -60.5927   ZZ=            -75.1670
   XY=              0.6198   XZ=              0.4638   YZ=             -0.3735

 Normal termination of Gaussian 16 at Thu Dec  7 19:48:33 2023.
