 Gaussian 16, Revision B.01,
 Gaussian 16:  ES64L-G16RevB.01 20-Dec-2017

 -------------------------
 #P B3LYP/6-311+g(d) force
 -------------------------

 -----
 DPGEN
 -----
 Symbolic Z-matrix:
 Charge =  0 Multiplicity = 2

                         Standard orientation:
 ---------------------------------------------------------------------
 Center     Atomic      Atomic             Coordinates (Angstroms)
 Number     Number       Type             X           Y           Z
 ---------------------------------------------------------------------
      1         11           0       -0.272039    0.009531    1.574932
      2         11           0        2.075756    3.258713    0.467330
      3         11           0        2.190780    0.094394   -1.292609
      4         11           0       -4.162514    0.309100    0.368975
      5         11           0        2.170629   -2.843432    0.855070
      6         11           0       -0.888914   -1.923223   -1.014675
      7         11           0       -1.113699    1.094919   -0.959024
 ---------------------------------------------------------------------

 SCF Done:  E(UB3LYP) =  -1136.12207236     A.U. after   24 cycles

 The electronic state is 2-A.
 Alpha  occ. eigenvalues --  -38.44894 -38.44396 -38.43786 -38.43761 -38.43597
 Alpha  occ. eigenvalues --  -38.43564 -38.43449  -2.20661  -2.20308  -2.19700
 Alpha  occ. eigenvalues --   -2.19619  -2.19452  -2.19394  -2.19325  -1.14340
 Alpha  occ. eigenvalues --   -1.14324  -1.14278  -1.14122  -1.13931  -1.13883
 Alpha  occ. eigenvalues --   -1.13481  -1.13360  -1.13323  -1.13291  -1.13274
 Alpha  occ. eigenvalues --   -1.13217  -1.13184  -1.13094  -1.13064  -1.13052
 Alpha  occ. eigenvalues --   -1.13014  -1.13000  -1.12994  -1.12987  -1.12948
 Alpha  occ. eigenvalues --   -0.18374  -0.12989  -0.11914  -0.10442
 Alpha virt. eigenvalues --   -0.06607  -0.05217  -0.04420  -0.02988  -0.02577
 Alpha virt. eigenvalues --   -0.02365  -0.02069  -0.01407  -0.00878  -0.00242
 Alpha virt. eigenvalues --    0.00131   0.00251   0.00508   0.00670   0.00745

  Beta  occ. eigenvalues --  -38.44890 -38.44346 -38.43746 -38.43734 -38.43574
  Beta  occ. eigenvalues --  -38.43562 -38.43412  -2.20652  -2.20216  -2.19632
  Beta  occ. eigenvalues --   -2.19573  -2.19393  -2.19352  -2.19321  -1.14335
  Beta  occ. eigenvalues --   -1.14311  -1.14274  -1.14053  -1.13864  -1.13816
  Beta  occ. eigenvalues --   -1.13430  -1.13287  -1.13278  -1.13241  -1.13235
  Beta  occ. eigenvalues --   -1.13189  -1.13147  -1.13036  -1.13013  -1.13003
  Beta  occ. eigenvalues --   -1.12997  -1.12989  -1.12986  -1.12953  -1.12944
  Beta  occ. eigenvalues --   -0.17602  -0.12811  -0.11734
  Beta virt. eigenvalues --   -0.06680  -0.06361  -0.05069  -0.04214  -0.02579
  Beta virt. eigenvalues --   -0.02270  -0.02091  -0.01406  -0.01132  -0.00528
  Beta virt. eigenvalues --   -0.00180   0.00152   0.00340   0.00632   0.00710

 Mulliken charges and spin densities:
               1          2
     1  Na  -0.439761   0.885452
     2  Na  -0.054767  -0.167797
     3  Na   0.202351   0.189051
     4  Na   0.304851  -0.016452
     5  Na  -0.049804  -0.070004
     6  Na  -0.037367  -0.029690
     7  Na   0.074496   0.209440
 Sum of Mulliken charges =  -0.00000   1.00000

 Dipole moment (field-independent basis, Debye):
    X=             -0.8189    Y=             -0.2280    Z=             -0.0051  Tot=              0.8501
 Quadrupole moment (field-independent basis, Debye-Ang):
   XX=            -51.1814   YY=            -65.3505   ZZ=            -73.0545
   XY=             -0.4229   XZ=             -0.9045   YZ=              1.1112

 Normal termination of Gaussian 16 at Tue Dec  5 20:15:21 2023.
