 Gaussian 16, Revision B.01,
 Gaussian 16:  ES64L-G16RevB.01 20-Dec-2017

 -------------------------
 #P B3LYP/6-311+g(d) force
 -------------------------

 -----
 DPGEN
 -----
 Symbolic Z-matrix:
 Charge =  0 Multiplicity = 2

                         Standard orientation:
 ---------------------------------------------------------------------
 Center     Atomic      Atomic             Coordinates (Angstroms)
 Number     Number       Type             X           Y           Z
 ---------------------------------------------------------------------
      1         11           0        3.536970    1.119230    1.209336
      2         11           0        2.480431   -1.779071   -1.145943
      3         11           0        0.242846   -0.668769    1.475628
      4         11           0       -2.946757   -0.969820    1.535260
      5         11           0       -2.621225    1.757201   -0.535192
      6         11           0        0.551504    1.692190   -1.019437
      7         11           0       -1.243770   -1.150963   -1.519652
 ---------------------------------------------------------------------

 SCF Done:  E(UB3LYP) =  -1136.12523694     A.U. after   25 cycles

 The electronic state is 2-A.
 Alpha  occ. eigenvalues --  -38.44942 -38.44820 -38.44363 -38.43592 -38.43354
 Alpha  occ. eigenvalues --  -38.43311 -38.42554  -2.20731  -2.20620  -2.20281
 Alpha  occ. eigenvalues --   -2.19496  -2.19230  -2.19183  -2.18445  -1.14395
 Alpha  occ. eigenvalues --   -1.14376  -1.14343  -1.14282  -1.14277  -1.14240
 Alpha  occ. eigenvalues --   -1.13992  -1.13915  -1.13893  -1.13212  -1.13169
 Alpha  occ. eigenvalues --   -1.13122  -1.12906  -1.12898  -1.12887  -1.12845
 Alpha  occ. eigenvalues --   -1.12813  -1.12803  -1.12166  -1.12125  -1.12039
 Alpha  occ. eigenvalues --   -0.18486  -0.13999  -0.11604  -0.10892
 Alpha virt. eigenvalues --   -0.06415  -0.05570  -0.04542  -0.03191  -0.02575
 Alpha virt. eigenvalues --   -0.02332  -0.02254  -0.01354  -0.00753  -0.00055
 Alpha virt. eigenvalues --    0.00148   0.00343   0.00402   0.00459   0.00619

  Beta  occ. eigenvalues --  -38.44887 -38.44773 -38.44312 -38.43575 -38.43355
  Beta  occ. eigenvalues --  -38.43291 -38.42549  -2.20629  -2.20535  -2.20190
  Beta  occ. eigenvalues --   -2.19468  -2.19232  -2.19145  -2.18440  -1.14320
  Beta  occ. eigenvalues --   -1.14305  -1.14279  -1.14224  -1.14211  -1.14173
  Beta  occ. eigenvalues --   -1.13933  -1.13835  -1.13825  -1.13190  -1.13129
  Beta  occ. eigenvalues --   -1.13104  -1.12909  -1.12898  -1.12876  -1.12813
  Beta  occ. eigenvalues --   -1.12794  -1.12783  -1.12167  -1.12097  -1.12037
  Beta  occ. eigenvalues --   -0.17857  -0.13621  -0.10728
  Beta virt. eigenvalues --   -0.07792  -0.06193  -0.05047  -0.04283  -0.02883
  Beta virt. eigenvalues --   -0.02265  -0.01917  -0.01692  -0.00897  -0.00591
  Beta virt. eigenvalues --    0.00113   0.00200   0.00416   0.00491   0.00564

 Mulliken charges and spin densities:
               1          2
     1  Na   0.555095   0.112442
     2  Na   0.067241   0.167788
     3  Na  -0.770569   0.274845
     4  Na   0.353773   0.100951
     5  Na   0.042880  -0.059350
     6  Na  -0.396183   0.116916
     7  Na   0.147763   0.286408
 Sum of Mulliken charges =  -0.00000   1.00000

 Dipole moment (field-independent basis, Debye):
    X=              0.9118    Y=             -0.2938    Z=             -0.1444  Tot=              0.9688
 Quadrupole moment (field-independent basis, Debye-Ang):
   XX=            -48.3592   YY=            -74.6383   ZZ=            -70.4384
   XY=             -0.8078   XZ=              0.2814   YZ=              8.0356

 Normal termination of Gaussian 16 at Tue Dec  5 15:47:14 2023.
