 Gaussian 16, Revision B.01,
 Gaussian 16:  ES64L-G16RevB.01 20-Dec-2017

 -------------------------
 #P B3LYP/6-311+g(d) force
 -------------------------

 -----
 DPGEN
 -----
 Symbolic Z-matrix:
 Charge =  0 Multiplicity = 2

                         Standard orientation:
 ---------------------------------------------------------------------
 Center     Atomic      Atomic             Coordinates (Angstroms)
 Number     Number       Type             X           Y           Z
 ---------------------------------------------------------------------
      1         11           0       -0.167713    2.011872   -0.038375
      2         11           0        5.458501   -0.918442   -0.087434
      3         11           0        3.713107    1.407639    0.432716
      4         11           0       -3.407952    1.701400   -0.496677
      5         11           0       -1.665028   -1.917778   -0.323798
      6         11           0       -5.199712   -0.870056    0.621363
      7         11           0        1.268796   -1.414635   -0.107795
 ---------------------------------------------------------------------

 SCF Done:  E(UB3LYP) =  -1136.11550318     A.U. after   23 cycles

 The electronic state is 2-A.
 Alpha  occ. eigenvalues --  -38.44566 -38.44500 -38.44477 -38.43993 -38.43952
 Alpha  occ. eigenvalues --  -38.43922 -38.43385  -2.20412  -2.20367  -2.20309
 Alpha  occ. eigenvalues --   -2.19832  -2.19826  -2.19740  -2.19182  -1.14121
 Alpha  occ. eigenvalues --   -1.14075  -1.14062  -1.14040  -1.14031  -1.13990
 Alpha  occ. eigenvalues --   -1.13985  -1.13976  -1.13932  -1.13498  -1.13496
 Alpha  occ. eigenvalues --   -1.13491  -1.13470  -1.13458  -1.13420  -1.13404
 Alpha  occ. eigenvalues --   -1.13389  -1.13382  -1.12846  -1.12845  -1.12820
 Alpha  occ. eigenvalues --   -0.16930  -0.14384  -0.12243  -0.11302
 Alpha virt. eigenvalues --   -0.06778  -0.05077  -0.04151  -0.03800  -0.03489
 Alpha virt. eigenvalues --   -0.02552  -0.01875  -0.01497  -0.00930  -0.00643
 Alpha virt. eigenvalues --   -0.00090  -0.00030   0.00094   0.00477   0.00745

  Beta  occ. eigenvalues --  -38.44558 -38.44441 -38.44425 -38.43933 -38.43928
  Beta  occ. eigenvalues --  -38.43910 -38.43375  -2.20395  -2.20247  -2.20233
  Beta  occ. eigenvalues --   -2.19762  -2.19755  -2.19708  -2.19163  -1.14108
  Beta  occ. eigenvalues --   -1.14062  -1.14034  -1.13962  -1.13945  -1.13943
  Beta  occ. eigenvalues --   -1.13938  -1.13880  -1.13867  -1.13450  -1.13420
  Beta  occ. eigenvalues --   -1.13416  -1.13412  -1.13411  -1.13403  -1.13395
  Beta  occ. eigenvalues --   -1.13380  -1.13341  -1.12833  -1.12827  -1.12809
  Beta  occ. eigenvalues --   -0.16245  -0.14192  -0.11126
  Beta virt. eigenvalues --   -0.08230  -0.06213  -0.04815  -0.03935  -0.03530
  Beta virt. eigenvalues --   -0.02758  -0.02418  -0.01688  -0.01207  -0.00646
  Beta virt. eigenvalues --   -0.00411   0.00121   0.00152   0.00253   0.00488

 Mulliken charges and spin densities:
               1          2
     1  Na  -0.235365   0.521601
     2  Na   0.565938  -0.077302
     3  Na   0.004251   0.113898
     4  Na   0.012195  -0.103089
     5  Na  -0.121799   0.323893
     6  Na   0.391452  -0.026312
     7  Na  -0.616671   0.247312
 Sum of Mulliken charges =  -0.00000   1.00000

 Dipole moment (field-independent basis, Debye):
    X=              0.5823    Y=             -0.0520    Z=              0.0073  Tot=              0.5846
 Quadrupole moment (field-independent basis, Debye-Ang):
   XX=            -68.7006   YY=            -61.9923   ZZ=            -71.9813
   XY=             -1.2593   XZ=             -1.1160   YZ=              0.2535

 Normal termination of Gaussian 16 at Mon Dec  4 02:44:45 2023.
