 Gaussian 16, Revision B.01,
 Gaussian 16:  ES64L-G16RevB.01 20-Dec-2017

 -------------------------
 #P B3LYP/6-311+g(d) force
 -------------------------

 -----
 DPGEN
 -----
 Symbolic Z-matrix:
 Charge =  0 Multiplicity = 2

                         Standard orientation:
 ---------------------------------------------------------------------
 Center     Atomic      Atomic             Coordinates (Angstroms)
 Number     Number       Type             X           Y           Z
 ---------------------------------------------------------------------
      1         11           0        2.759024    0.655051   -0.118113
      2         11           0        0.127818    0.221641    1.767905
      3         11           0       -2.903652    1.001179   -0.170672
      4         11           0       -2.254392   -2.074187    0.152562
      5         11           0        1.847289   -2.421577    0.090354
      6         11           0        0.305133    2.993310   -0.075647
      7         11           0        0.118781   -0.375417   -1.646389
 ---------------------------------------------------------------------

 SCF Done:  E(UB3LYP) =  -1136.13716632     A.U. after   19 cycles

 The electronic state is 2-A.
 Alpha  occ. eigenvalues --  -38.44026 -38.43812 -38.43735 -38.43555 -38.43205
 Alpha  occ. eigenvalues --  -38.43055 -38.43036  -2.19873  -2.19673  -2.19664
 Alpha  occ. eigenvalues --   -2.19435  -2.19059  -2.19034  -2.19025  -1.13573
 Alpha  occ. eigenvalues --   -1.13539  -1.13515  -1.13387  -1.13345  -1.13329
 Alpha  occ. eigenvalues --   -1.13320  -1.13312  -1.13294  -1.13124  -1.13086
 Alpha  occ. eigenvalues --   -1.13066  -1.12770  -1.12735  -1.12717  -1.12702
 Alpha  occ. eigenvalues --   -1.12683  -1.12660  -1.12649  -1.12645  -1.12623
 Alpha  occ. eigenvalues --   -0.19026  -0.13410  -0.12472  -0.10478
 Alpha virt. eigenvalues --   -0.05496  -0.05324  -0.04782  -0.03219  -0.02722
 Alpha virt. eigenvalues --   -0.02173  -0.01464  -0.01195  -0.00414  -0.00277
 Alpha virt. eigenvalues --    0.00034   0.00368   0.00826   0.00876   0.00893

  Beta  occ. eigenvalues --  -38.44023 -38.43808 -38.43724 -38.43549 -38.43202
  Beta  occ. eigenvalues --  -38.42973 -38.42966  -2.19869  -2.19660  -2.19658
  Beta  occ. eigenvalues --   -2.19428  -2.19055  -2.18906  -2.18877  -1.13573
  Beta  occ. eigenvalues --   -1.13519  -1.13511  -1.13380  -1.13324  -1.13311
  Beta  occ. eigenvalues --   -1.13301  -1.13292  -1.13290  -1.13115  -1.13069
  Beta  occ. eigenvalues --   -1.13051  -1.12744  -1.12705  -1.12694  -1.12651
  Beta  occ. eigenvalues --   -1.12589  -1.12565  -1.12556  -1.12541  -1.12521
  Beta  occ. eigenvalues --   -0.18292  -0.13157  -0.12233
  Beta virt. eigenvalues --   -0.06565  -0.05459  -0.05319  -0.04762  -0.02395
  Beta virt. eigenvalues --   -0.01972  -0.01382  -0.01158  -0.01120  -0.00468
  Beta virt. eigenvalues --   -0.00321   0.00170   0.00391   0.00854   0.00892

 Mulliken charges and spin densities:
               1          2
     1  Na   0.383768   0.023480
     2  Na  -0.396959   0.714791
     3  Na   0.014152  -0.068481
     4  Na   0.083366  -0.090635
     5  Na   0.223717  -0.077519
     6  Na   0.025232  -0.087025
     7  Na  -0.333275   0.585388
 Sum of Mulliken charges =  -0.00000   1.00000

 Dipole moment (field-independent basis, Debye):
    X=             -0.2220    Y=             -0.1219    Z=              0.0398  Tot=              0.2564
 Quadrupole moment (field-independent basis, Debye-Ang):
   XX=            -56.7229   YY=            -60.1865   ZZ=            -75.8569
   XY=             -0.6217   XZ=              0.0543   YZ=             -1.5639

 Normal termination of Gaussian 16 at Thu Dec  7 20:34:02 2023.
