 Gaussian 16, Revision B.01,
 Gaussian 16:  ES64L-G16RevB.01 20-Dec-2017

 -------------------------
 #P B3LYP/6-311+g(d) force
 -------------------------

 -----
 DPGEN
 -----
 Symbolic Z-matrix:
 Charge =  0 Multiplicity = 2

                         Standard orientation:
 ---------------------------------------------------------------------
 Center     Atomic      Atomic             Coordinates (Angstroms)
 Number     Number       Type             X           Y           Z
 ---------------------------------------------------------------------
      1         11           0       -2.417150    3.868549    0.868538
      2         11           0        1.244639    2.410235   -0.644167
      3         11           0       -0.656102   -2.814238    1.153077
      4         11           0       -3.140376   -2.938270   -0.921948
      5         11           0        2.631716   -1.408150    0.561203
      6         11           0       -2.680297    0.706914   -0.569880
      7         11           0        5.017569    0.174961   -0.446823
 ---------------------------------------------------------------------

 SCF Done:  E(UB3LYP) =  -1136.11263253     A.U. after   23 cycles

 The electronic state is 2-A.
 Alpha  occ. eigenvalues --  -38.47021 -38.44872 -38.44750 -38.44123 -38.43690
 Alpha  occ. eigenvalues --  -38.43309 -38.43260  -2.22702  -2.20630  -2.20523
 Alpha  occ. eigenvalues --   -2.19942  -2.19537  -2.19128  -2.19089  -1.16416
 Alpha  occ. eigenvalues --   -1.16401  -1.16274  -1.14308  -1.14299  -1.14251
 Alpha  occ. eigenvalues --   -1.14233  -1.14216  -1.14099  -1.13660  -1.13586
 Alpha  occ. eigenvalues --   -1.13556  -1.13211  -1.13210  -1.13150  -1.12828
 Alpha  occ. eigenvalues --   -1.12787  -1.12768  -1.12756  -1.12749  -1.12677
 Alpha  occ. eigenvalues --   -0.15899  -0.13709  -0.13083  -0.10021
 Alpha virt. eigenvalues --   -0.07278  -0.05854  -0.04129  -0.03647  -0.02975
 Alpha virt. eigenvalues --   -0.02704  -0.02085  -0.01648  -0.01361  -0.00778
 Alpha virt. eigenvalues --   -0.00403  -0.00120   0.00206   0.00383   0.00480

  Beta  occ. eigenvalues --  -38.47019 -38.44863 -38.44730 -38.44088 -38.43653
  Beta  occ. eigenvalues --  -38.43279 -38.43214  -2.22699  -2.20612  -2.20489
  Beta  occ. eigenvalues --   -2.19876  -2.19474  -2.19072  -2.19007  -1.16415
  Beta  occ. eigenvalues --   -1.16399  -1.16267  -1.14296  -1.14287  -1.14238
  Beta  occ. eigenvalues --   -1.14213  -1.14194  -1.14060  -1.13617  -1.13540
  Beta  occ. eigenvalues --   -1.13509  -1.13174  -1.13170  -1.13064  -1.12788
  Beta  occ. eigenvalues --   -1.12748  -1.12720  -1.12704  -1.12693  -1.12602
  Beta  occ. eigenvalues --   -0.15475  -0.13329  -0.12701
  Beta virt. eigenvalues --   -0.07222  -0.06382  -0.05647  -0.03760  -0.03364
  Beta virt. eigenvalues --   -0.02832  -0.02405  -0.01859  -0.01507  -0.01080
  Beta virt. eigenvalues --   -0.00491  -0.00163   0.00120   0.00296   0.00458

 Mulliken charges and spin densities:
               1          2
     1  Na   0.683838   0.081891
     2  Na   0.090707   0.026343
     3  Na  -0.170594  -0.101245
     4  Na   0.259327   0.070464
     5  Na  -1.212786   0.298955
     6  Na  -0.919351   0.159203
     7  Na   1.268858   0.464388
 Sum of Mulliken charges =  -0.00000   1.00000

 Dipole moment (field-independent basis, Debye):
    X=              0.0517    Y=              2.2515    Z=             -0.2334  Tot=              2.2642
 Quadrupole moment (field-independent basis, Debye-Ang):
   XX=            -63.7766   YY=            -61.4088   ZZ=            -71.6347
   XY=             -1.5903   XZ=             -3.3137   YZ=              2.5565

 Normal termination of Gaussian 16 at Mon Dec  4 00:57:24 2023.
