 Gaussian 16, Revision B.01,
 Gaussian 16:  ES64L-G16RevB.01 20-Dec-2017

 -------------------------
 #P B3LYP/6-311+g(d) force
 -------------------------

 -----
 DPGEN
 -----
 Symbolic Z-matrix:
 Charge =  0 Multiplicity = 2

                         Standard orientation:
 ---------------------------------------------------------------------
 Center     Atomic      Atomic             Coordinates (Angstroms)
 Number     Number       Type             X           Y           Z
 ---------------------------------------------------------------------
      1         11           0        1.612382   -1.978111    1.813511
      2         11           0        1.248689    0.823119   -0.931987
      3         11           0       -1.945660    1.334073    0.494636
      4         11           0       -1.393182   -1.806350   -0.361431
      5         11           0       -4.389634   -0.775113   -0.481503
      6         11           0        0.936282    3.541354    0.440388
      7         11           0        3.931124   -1.138972   -0.973616
 ---------------------------------------------------------------------

 SCF Done:  E(UB3LYP) =  -1136.12359077     A.U. after   20 cycles

 The electronic state is 2-A.
 Alpha  occ. eigenvalues --  -38.44265 -38.44224 -38.44053 -38.43928 -38.43604
 Alpha  occ. eigenvalues --  -38.43585 -38.43542  -2.20139  -2.20092  -2.19845
 Alpha  occ. eigenvalues --   -2.19784  -2.19502  -2.19428  -2.19368  -1.13878
 Alpha  occ. eigenvalues --   -1.13827  -1.13794  -1.13780  -1.13762  -1.13668
 Alpha  occ. eigenvalues --   -1.13515  -1.13494  -1.13466  -1.13439  -1.13424
 Alpha  occ. eigenvalues --   -1.13398  -1.13272  -1.13192  -1.13158  -1.13079
 Alpha  occ. eigenvalues --   -1.13069  -1.13037  -1.13015  -1.12995  -1.12967
 Alpha  occ. eigenvalues --   -0.17465  -0.13944  -0.12401  -0.10249
 Alpha virt. eigenvalues --   -0.06478  -0.05582  -0.04107  -0.03707  -0.02753
 Alpha virt. eigenvalues --   -0.02511  -0.01755  -0.01372  -0.00797  -0.00520
 Alpha virt. eigenvalues --   -0.00260  -0.00115   0.00402   0.00608   0.00687

  Beta  occ. eigenvalues --  -38.44249 -38.44219 -38.44008 -38.43890 -38.43610
  Beta  occ. eigenvalues --  -38.43568 -38.43468  -2.20115  -2.20084  -2.19764
  Beta  occ. eigenvalues --   -2.19711  -2.19477  -2.19438  -2.19230  -1.13868
  Beta  occ. eigenvalues --   -1.13816  -1.13785  -1.13759  -1.13717  -1.13658
  Beta  occ. eigenvalues --   -1.13461  -1.13425  -1.13409  -1.13388  -1.13373
  Beta  occ. eigenvalues --   -1.13355  -1.13268  -1.13152  -1.13132  -1.13085
  Beta  occ. eigenvalues --   -1.13069  -1.13015  -1.12922  -1.12912  -1.12882
  Beta  occ. eigenvalues --   -0.17027  -0.13393  -0.12142
  Beta virt. eigenvalues --   -0.06663  -0.06274  -0.05437  -0.03758  -0.03362
  Beta virt. eigenvalues --   -0.02405  -0.02248  -0.01599  -0.01047  -0.00402
  Beta virt. eigenvalues --   -0.00211  -0.00119   0.00071   0.00561   0.00689

 Mulliken charges and spin densities:
               1          2
     1  Na   0.008056   0.200673
     2  Na  -0.301123   0.195777
     3  Na  -0.269583   0.071701
     4  Na  -0.365340   0.021486
     5  Na   0.497283   0.230831
     6  Na   0.441139   0.000572
     7  Na  -0.010433   0.278960
 Sum of Mulliken charges =  -0.00000   1.00000

 Dipole moment (field-independent basis, Debye):
    X=             -0.8956    Y=              0.0655    Z=              0.8567  Tot=              1.2412
 Quadrupole moment (field-independent basis, Debye-Ang):
   XX=            -62.8206   YY=            -66.1248   ZZ=            -68.4463
   XY=              0.5002   XZ=              3.4639   YZ=              3.1709

 Normal termination of Gaussian 16 at Wed Nov 29 01:55:49 2023.
