 Gaussian 16, Revision B.01,
 Gaussian 16:  ES64L-G16RevB.01 20-Dec-2017

 -------------------------
 #P B3LYP/6-311+g(d) force
 -------------------------

 -----
 DPGEN
 -----
 Symbolic Z-matrix:
 Charge =  0 Multiplicity = 2

                         Standard orientation:
 ---------------------------------------------------------------------
 Center     Atomic      Atomic             Coordinates (Angstroms)
 Number     Number       Type             X           Y           Z
 ---------------------------------------------------------------------
      1         11           0        2.836473   -1.741027    0.021744
      2         11           0       -0.762712    2.930197    0.386570
      3         11           0       -3.097551   -0.204926    0.149452
      4         11           0        0.358095   -0.391065    1.998241
      5         11           0       -1.118698   -2.787019   -0.509566
      6         11           0       -0.460325    0.504185   -1.480262
      7         11           0        2.244718    1.689655   -0.566179
 ---------------------------------------------------------------------

 SCF Done:  E(UB3LYP) =  -1136.13480951     A.U. after   19 cycles

 The electronic state is 2-A.
 Alpha  occ. eigenvalues --  -38.43960 -38.43852 -38.43835 -38.43601 -38.43554
 Alpha  occ. eigenvalues --  -38.43476 -38.43103  -2.19814  -2.19680  -2.19631
 Alpha  occ. eigenvalues --   -2.19490  -2.19424  -2.19352  -2.19128  -1.13520
 Alpha  occ. eigenvalues --   -1.13474  -1.13454  -1.13358  -1.13335  -1.13308
 Alpha  occ. eigenvalues --   -1.13300  -1.13293  -1.13279  -1.13236  -1.13164
 Alpha  occ. eigenvalues --   -1.13133  -1.13101  -1.13071  -1.13037  -1.13022
 Alpha  occ. eigenvalues --   -1.12981  -1.12965  -1.12792  -1.12769  -1.12733
 Alpha  occ. eigenvalues --   -0.18569  -0.13050  -0.12555  -0.10562
 Alpha virt. eigenvalues --   -0.05546  -0.05102  -0.05010  -0.03108  -0.03070
 Alpha virt. eigenvalues --   -0.02307  -0.01416  -0.01256  -0.00503  -0.00313
 Alpha virt. eigenvalues --    0.00013   0.00351   0.00823   0.00835   0.00876

  Beta  occ. eigenvalues --  -38.43957 -38.43840 -38.43835 -38.43583 -38.43545
  Beta  occ. eigenvalues --  -38.43389 -38.43053  -2.19811  -2.19661  -2.19635
  Beta  occ. eigenvalues --   -2.19459  -2.19411  -2.19192  -2.19037  -1.13515
  Beta  occ. eigenvalues --   -1.13472  -1.13434  -1.13337  -1.13317  -1.13301
  Beta  occ. eigenvalues --   -1.13291  -1.13286  -1.13280  -1.13210  -1.13139
  Beta  occ. eigenvalues --   -1.13109  -1.13083  -1.13046  -1.13020  -1.12917
  Beta  occ. eigenvalues --   -1.12872  -1.12847  -1.12727  -1.12701  -1.12668
  Beta  occ. eigenvalues --   -0.17865  -0.12788  -0.12357
  Beta virt. eigenvalues --   -0.06705  -0.05512  -0.05063  -0.04894  -0.02381
  Beta virt. eigenvalues --   -0.02329  -0.01387  -0.01300  -0.01149  -0.00496
  Beta virt. eigenvalues --   -0.00331   0.00152   0.00395   0.00836   0.00871

 Mulliken charges and spin densities:
               1          2
     1  Na   0.024354  -0.078036
     2  Na   0.096799   0.117697
     3  Na   0.206651   0.067032
     4  Na  -0.497043   0.719481
     5  Na  -0.010274  -0.051197
     6  Na  -0.040421   0.221246
     7  Na   0.219934   0.003777
 Sum of Mulliken charges =  -0.00000   1.00000

 Dipole moment (field-independent basis, Debye):
    X=             -0.1555    Y=             -0.1757    Z=              0.1750  Tot=              0.2927
 Quadrupole moment (field-independent basis, Debye-Ang):
   XX=            -58.2409   YY=            -60.1215   ZZ=            -74.8403
   XY=             -1.0241   XZ=             -2.0935   YZ=              2.1682

 Normal termination of Gaussian 16 at Thu Dec  7 20:32:21 2023.
