 Gaussian 16, Revision B.01,
 Gaussian 16:  ES64L-G16RevB.01 20-Dec-2017

 -------------------------
 #P B3LYP/6-311+g(d) force
 -------------------------

 -----
 DPGEN
 -----
 Symbolic Z-matrix:
 Charge =  0 Multiplicity = 2

                         Standard orientation:
 ---------------------------------------------------------------------
 Center     Atomic      Atomic             Coordinates (Angstroms)
 Number     Number       Type             X           Y           Z
 ---------------------------------------------------------------------
      1         11           0       -1.560271   -2.492846   -0.140430
      2         11           0        0.194887   -0.149400    2.086971
      3         11           0       -2.791959    0.455398   -0.179213
      4         11           0       -0.739217    2.743854    0.269399
      5         11           0        2.910017    1.187742   -0.411502
      6         11           0       -0.157639    0.119877   -1.631409
      7         11           0        2.144183   -1.864625    0.006184
 ---------------------------------------------------------------------

 SCF Done:  E(UB3LYP) =  -1136.13523596     A.U. after   19 cycles

 The electronic state is 2-A.
 Alpha  occ. eigenvalues --  -38.43986 -38.43738 -38.43701 -38.43605 -38.43291
 Alpha  occ. eigenvalues --  -38.43137 -38.43122  -2.19827  -2.19656  -2.19643
 Alpha  occ. eigenvalues --   -2.19493  -2.19320  -2.19014  -2.19011  -1.13519
 Alpha  occ. eigenvalues --   -1.13490  -1.13463  -1.13413  -1.13319  -1.13313
 Alpha  occ. eigenvalues --   -1.13301  -1.13278  -1.13258  -1.13166  -1.13154
 Alpha  occ. eigenvalues --   -1.13113  -1.12995  -1.12952  -1.12943  -1.12692
 Alpha  occ. eigenvalues --   -1.12681  -1.12675  -1.12662  -1.12646  -1.12642
 Alpha  occ. eigenvalues --   -0.19111  -0.13415  -0.12328  -0.11078
 Alpha virt. eigenvalues --   -0.05449  -0.05093  -0.04443  -0.03444  -0.02873
 Alpha virt. eigenvalues --   -0.02718  -0.01418  -0.00995  -0.00169  -0.00055
 Alpha virt. eigenvalues --    0.00008   0.00369   0.00823   0.00912   0.00947

  Beta  occ. eigenvalues --  -38.43977 -38.43693 -38.43639 -38.43598 -38.43228
  Beta  occ. eigenvalues --  -38.43133 -38.43115  -2.19813  -2.19645  -2.19486
  Beta  occ. eigenvalues --   -2.19461  -2.19207  -2.19011  -2.19002  -1.13511
  Beta  occ. eigenvalues --   -1.13469  -1.13450  -1.13396  -1.13309  -1.13267
  Beta  occ. eigenvalues --   -1.13217  -1.13167  -1.13145  -1.13131  -1.13117
  Beta  occ. eigenvalues --   -1.13094  -1.12921  -1.12878  -1.12858  -1.12690
  Beta  occ. eigenvalues --   -1.12677  -1.12662  -1.12640  -1.12630  -1.12626
  Beta  occ. eigenvalues --   -0.18367  -0.13141  -0.12083
  Beta virt. eigenvalues --   -0.07125  -0.05396  -0.05077  -0.04425  -0.02609
  Beta virt. eigenvalues --   -0.02101  -0.01644  -0.01318  -0.00932  -0.00200
  Beta virt. eigenvalues --   -0.00084   0.00121   0.00390   0.00890   0.00920

 Mulliken charges and spin densities:
               1          2
     1  Na   0.147644  -0.043683
     2  Na  -0.576712   0.673631
     3  Na   0.383055   0.047653
     4  Na   0.143287   0.015786
     5  Na   0.076691  -0.029379
     6  Na  -0.410073   0.347867
     7  Na   0.236109  -0.011876
 Sum of Mulliken charges =  -0.00000   1.00000

 Dipole moment (field-independent basis, Debye):
    X=              0.3261    Y=              0.0301    Z=              0.1827  Tot=              0.3750
 Quadrupole moment (field-independent basis, Debye-Ang):
   XX=            -58.2364   YY=            -63.7197   ZZ=            -72.7109
   XY=              0.8550   XZ=             -0.7192   YZ=              0.3624

 Normal termination of Gaussian 16 at Thu Dec  7 06:32:42 2023.
