 Gaussian 16, Revision B.01,
 Gaussian 16:  ES64L-G16RevB.01 20-Dec-2017

 -------------------------
 #P B3LYP/6-311+g(d) force
 -------------------------

 -----
 DPGEN
 -----
 Symbolic Z-matrix:
 Charge =  0 Multiplicity = 2

                         Standard orientation:
 ---------------------------------------------------------------------
 Center     Atomic      Atomic             Coordinates (Angstroms)
 Number     Number       Type             X           Y           Z
 ---------------------------------------------------------------------
      1         11           0       -2.905035    1.759022    0.080491
      2         11           0        0.675761   -2.566888    0.052737
      3         11           0        3.418006   -0.245945   -0.162152
      4         11           0       -2.663116   -1.695890   -0.025958
      5         11           0        0.302446    0.048947    1.875108
      6         11           0        1.224975    2.580061    0.015366
      7         11           0       -0.053037    0.120694   -1.835593
 ---------------------------------------------------------------------

 SCF Done:  E(UB3LYP) =  -1136.13460675     A.U. after   19 cycles

 The electronic state is 2-A.
 Alpha  occ. eigenvalues --  -38.44845 -38.44274 -38.43920 -38.43476 -38.43433
 Alpha  occ. eigenvalues --  -38.43369 -38.42767  -2.20642  -2.20049  -2.19745
 Alpha  occ. eigenvalues --   -2.19393  -2.19360  -2.19223  -2.18663  -1.14313
 Alpha  occ. eigenvalues --   -1.14296  -1.14285  -1.13724  -1.13715  -1.13689
 Alpha  occ. eigenvalues --   -1.13418  -1.13406  -1.13388  -1.13095  -1.13049
 Alpha  occ. eigenvalues --   -1.13041  -1.13030  -1.13000  -1.12964  -1.12891
 Alpha  occ. eigenvalues --   -1.12886  -1.12833  -1.12360  -1.12332  -1.12278
 Alpha  occ. eigenvalues --   -0.18517  -0.13209  -0.12059  -0.10588
 Alpha virt. eigenvalues --   -0.06323  -0.05347  -0.04170  -0.03230  -0.02700
 Alpha virt. eigenvalues --   -0.02471  -0.02080  -0.01189  -0.00481  -0.00220
 Alpha virt. eigenvalues --   -0.00055   0.00310   0.00718   0.00819   0.00834

  Beta  occ. eigenvalues --  -38.44842 -38.44276 -38.43919 -38.43398 -38.43361
  Beta  occ. eigenvalues --  -38.43348 -38.42757  -2.20639  -2.20054  -2.19746
  Beta  occ. eigenvalues --   -2.19251  -2.19212  -2.19204  -2.18651  -1.14298
  Beta  occ. eigenvalues --   -1.14289  -1.14286  -1.13722  -1.13712  -1.13694
  Beta  occ. eigenvalues --   -1.13409  -1.13398  -1.13392  -1.13008  -1.12960
  Beta  occ. eigenvalues --   -1.12943  -1.12927  -1.12896  -1.12860  -1.12855
  Beta  occ. eigenvalues --   -1.12831  -1.12829  -1.12353  -1.12287  -1.12275
  Beta  occ. eigenvalues --   -0.17770  -0.13025  -0.11802
  Beta virt. eigenvalues --   -0.06682  -0.06260  -0.05360  -0.04158  -0.02489
  Beta virt. eigenvalues --   -0.01986  -0.01905  -0.01405  -0.01138  -0.00540
  Beta virt. eigenvalues --   -0.00257   0.00094   0.00332   0.00778   0.00816

 Mulliken charges and spin densities:
               1          2
     1  Na   0.018822  -0.131900
     2  Na   0.142607  -0.084624
     3  Na   0.224047  -0.035169
     4  Na   0.057579  -0.079671
     5  Na  -0.248852   0.772045
     6  Na   0.056622  -0.182099
     7  Na  -0.250826   0.741419
 Sum of Mulliken charges =  -0.00000   1.00000

 Dipole moment (field-independent basis, Debye):
    X=              0.1846    Y=              0.1656    Z=             -0.0393  Tot=              0.2511
 Quadrupole moment (field-independent basis, Debye-Ang):
   XX=            -50.4652   YY=            -66.4498   ZZ=            -75.2494
   XY=             -0.4473   XZ=             -0.9389   YZ=              0.2957

 Normal termination of Gaussian 16 at Fri Dec  8 01:11:54 2023.
