 Gaussian 16, Revision B.01,
 Gaussian 16:  ES64L-G16RevB.01 20-Dec-2017

 -------------------------
 #P B3LYP/6-311+g(d) force
 -------------------------

 -----
 DPGEN
 -----
 Symbolic Z-matrix:
 Charge =  0 Multiplicity = 2

                         Standard orientation:
 ---------------------------------------------------------------------
 Center     Atomic      Atomic             Coordinates (Angstroms)
 Number     Number       Type             X           Y           Z
 ---------------------------------------------------------------------
      1         11           0        0.232734    0.016538    1.896385
      2         11           0        2.419638   -0.690451    0.393603
      3         11           0       -3.884357   -0.001712    0.000559
      4         11           0       -1.125452    0.691854   -0.393839
      5         11           0       -0.028866   -1.815516   -0.133394
      6         11           0        1.062351   -0.016115   -1.895602
      7         11           0        1.323951    1.815402    0.132287
 ---------------------------------------------------------------------

 SCF Done:  E(UB3LYP) =  -1136.03455116     A.U. after   46 cycles

 The electronic state is 2-A.
 Alpha  occ. eigenvalues --  -38.45866 -38.45504 -38.45346 -38.44868 -38.43791
 Alpha  occ. eigenvalues --  -38.43159 -38.43126  -2.21780  -2.21662  -2.21634
 Alpha  occ. eigenvalues --   -2.21139  -2.20152  -2.19410  -2.19384  -1.15696
 Alpha  occ. eigenvalues --   -1.15504  -1.15488  -1.15412  -1.15390  -1.15370
 Alpha  occ. eigenvalues --   -1.15302  -1.15282  -1.15226  -1.14784  -1.14750
 Alpha  occ. eigenvalues --   -1.14705  -1.13950  -1.13814  -1.13773  -1.13100
 Alpha  occ. eigenvalues --   -1.13053  -1.13050  -1.12997  -1.12949  -1.12897
 Alpha  occ. eigenvalues --   -0.22001  -0.13976  -0.12949  -0.11733
 Alpha virt. eigenvalues --   -0.07123  -0.03902  -0.03816  -0.03249  -0.02737
 Alpha virt. eigenvalues --   -0.02461  -0.02139  -0.00456  -0.00291   0.00122
 Alpha virt. eigenvalues --    0.00381   0.00458   0.00661   0.00878   0.01146

  Beta  occ. eigenvalues --  -38.45882 -38.45394 -38.45238 -38.44837 -38.43760
  Beta  occ. eigenvalues --  -38.43137 -38.43104  -2.21693  -2.21585  -2.21440
  Beta  occ. eigenvalues --   -2.21090  -2.20105  -2.19380  -2.19353  -1.15592
  Beta  occ. eigenvalues --   -1.15425  -1.15386  -1.15337  -1.15320  -1.15303
  Beta  occ. eigenvalues --   -1.15244  -1.15239  -1.15084  -1.14739  -1.14724
  Beta  occ. eigenvalues --   -1.14591  -1.13935  -1.13783  -1.13667  -1.13092
  Beta  occ. eigenvalues --   -1.13042  -1.12953  -1.12936  -1.12897  -1.12876
  Beta  occ. eigenvalues --   -0.21045  -0.13804  -0.11312
  Beta virt. eigenvalues --   -0.08507  -0.06960  -0.03380  -0.03258  -0.03038
  Beta virt. eigenvalues --   -0.02159  -0.01821  -0.01775  -0.00278  -0.00179
  Beta virt. eigenvalues --    0.00168   0.00448   0.00654   0.00664   0.00932

 Mulliken charges and spin densities:
               1          2
     1  Na  -0.778795   0.334639
     2  Na   0.846458   0.224439
     3  Na   0.583531  -0.112100
     4  Na   0.851943   0.512793
     5  Na  -0.125834   0.029187
     6  Na  -0.861748  -0.031651
     7  Na  -0.515556   0.042692
 Sum of Mulliken charges =  -0.00000   1.00000

 Dipole moment (field-independent basis, Debye):
    X=             -1.2121    Y=             -0.2371    Z=              0.1030  Tot=              1.2393
 Quadrupole moment (field-independent basis, Debye-Ang):
   XX=            -48.5402   YY=            -79.4202   ZZ=            -65.2537
   XY=              1.0112   XZ=             -0.5720   YZ=              0.9628

 Normal termination of Gaussian 16 at Fri Dec  8 18:43:46 2023.
