 Gaussian 16, Revision B.01,
 Gaussian 16:  ES64L-G16RevB.01 20-Dec-2017

 -------------------------
 #P B3LYP/6-311+g(d) force
 -------------------------

 -----
 DPGEN
 -----
 Symbolic Z-matrix:
 Charge =  0 Multiplicity = 2

                         Standard orientation:
 ---------------------------------------------------------------------
 Center     Atomic      Atomic             Coordinates (Angstroms)
 Number     Number       Type             X           Y           Z
 ---------------------------------------------------------------------
      1         11           0        1.262840   -0.039437    1.922073
      2         11           0       -3.404302    0.133084   -0.932516
      3         11           0        3.134887    1.633869   -0.515580
      4         11           0       -1.729404   -1.697314    1.075638
      5         11           0        2.093041   -2.133587   -0.495239
      6         11           0       -1.394972    2.211299    0.731960
      7         11           0        0.037910   -0.107915   -1.786336
 ---------------------------------------------------------------------

 SCF Done:  E(UB3LYP) =  -1136.12694561     A.U. after   23 cycles

 The electronic state is 2-A.
 Alpha  occ. eigenvalues --  -38.44434 -38.44291 -38.44119 -38.43785 -38.43623
 Alpha  occ. eigenvalues --  -38.43595 -38.43520  -2.20298  -2.20069  -2.20024
 Alpha  occ. eigenvalues --   -2.19689  -2.19480  -2.19415  -2.19376  -1.13974
 Alpha  occ. eigenvalues --   -1.13955  -1.13935  -1.13752  -1.13721  -1.13714
 Alpha  occ. eigenvalues --   -1.13705  -1.13684  -1.13636  -1.13373  -1.13346
 Alpha  occ. eigenvalues --   -1.13298  -1.13158  -1.13145  -1.13100  -1.13093
 Alpha  occ. eigenvalues --   -1.13085  -1.13071  -1.13040  -1.13034  -1.12980
 Alpha  occ. eigenvalues --   -0.18457  -0.13849  -0.11457  -0.11016
 Alpha virt. eigenvalues --   -0.06309  -0.05339  -0.04662  -0.03147  -0.02799
 Alpha virt. eigenvalues --   -0.02727  -0.01993  -0.01009  -0.00703  -0.00038
 Alpha virt. eigenvalues --    0.00172   0.00290   0.00374   0.00590   0.00745

  Beta  occ. eigenvalues --  -38.44421 -38.44289 -38.44057 -38.43715 -38.43598
  Beta  occ. eigenvalues --  -38.43582 -38.43513  -2.20273  -2.20066  -2.19910
  Beta  occ. eigenvalues --   -2.19562  -2.19437  -2.19392  -2.19364  -1.13959
  Beta  occ. eigenvalues --   -1.13927  -1.13921  -1.13744  -1.13715  -1.13708
  Beta  occ. eigenvalues --   -1.13633  -1.13599  -1.13555  -1.13286  -1.13258
  Beta  occ. eigenvalues --   -1.13203  -1.13124  -1.13095  -1.13082  -1.13072
  Beta  occ. eigenvalues --   -1.13050  -1.13048  -1.13028  -1.13021  -1.12968
  Beta  occ. eigenvalues --   -0.17697  -0.13660  -0.10803
  Beta virt. eigenvalues --   -0.07524  -0.06177  -0.05271  -0.04022  -0.02935
  Beta virt. eigenvalues --   -0.02118  -0.01985  -0.01767  -0.00914  -0.00436
  Beta virt. eigenvalues --    0.00034   0.00171   0.00311   0.00514   0.00714

 Mulliken charges and spin densities:
               1          2
     1  Na   0.072452   0.456404
     2  Na   0.474679   0.037629
     3  Na   0.009209  -0.078770
     4  Na  -0.169079   0.114004
     5  Na   0.259101  -0.018649
     6  Na  -0.290383   0.022403
     7  Na  -0.355978   0.466979
 Sum of Mulliken charges =  -0.00000   1.00000

 Dipole moment (field-independent basis, Debye):
    X=             -0.1568    Y=             -0.0235    Z=             -0.2976  Tot=              0.3372
 Quadrupole moment (field-independent basis, Debye-Ang):
   XX=            -51.7730   YY=            -74.0521   ZZ=            -68.7119
   XY=              0.0737   XZ=              0.3038   YZ=             -0.6423

 Normal termination of Gaussian 16 at Tue Dec  5 10:26:25 2023.
