 Gaussian 16, Revision B.01,
 Gaussian 16:  ES64L-G16RevB.01 20-Dec-2017

 -------------------------
 #P B3LYP/6-311+g(d) force
 -------------------------

 -----
 DPGEN
 -----
 Symbolic Z-matrix:
 Charge =  0 Multiplicity = 2

                         Standard orientation:
 ---------------------------------------------------------------------
 Center     Atomic      Atomic             Coordinates (Angstroms)
 Number     Number       Type             X           Y           Z
 ---------------------------------------------------------------------
      1         11           0        0.054098    1.416072   -1.359316
      2         11           0       -2.580116    2.297055    0.342070
      3         11           0        3.249281    1.629319   -0.191899
      4         11           0        2.737593   -1.449801    0.534973
      5         11           0       -0.248100   -2.268308   -1.291298
      6         11           0       -0.112395   -0.359406    1.970707
      7         11           0       -3.100361   -1.264932   -0.005238
 ---------------------------------------------------------------------

 SCF Done:  E(UB3LYP) =  -1136.12607489     A.U. after   21 cycles

 The electronic state is 2-A.
 Alpha  occ. eigenvalues --  -38.44893 -38.44590 -38.44168 -38.44144 -38.43779
 Alpha  occ. eigenvalues --  -38.43464 -38.43011  -2.20701  -2.20397  -2.20021
 Alpha  occ. eigenvalues --   -2.19998  -2.19589  -2.19332  -2.18872  -1.14381
 Alpha  occ. eigenvalues --   -1.14367  -1.14336  -1.14077  -1.14058  -1.14047
 Alpha  occ. eigenvalues --   -1.13720  -1.13680  -1.13653  -1.13646  -1.13636
 Alpha  occ. eigenvalues --   -1.13614  -1.13279  -1.13250  -1.13229  -1.13013
 Alpha  occ. eigenvalues --   -1.12984  -1.12955  -1.12543  -1.12522  -1.12500
 Alpha  occ. eigenvalues --   -0.18091  -0.13685  -0.11802  -0.10734
 Alpha virt. eigenvalues --   -0.06647  -0.05868  -0.03755  -0.03605  -0.02991
 Alpha virt. eigenvalues --   -0.02359  -0.02196  -0.01466  -0.00591  -0.00196
 Alpha virt. eigenvalues --    0.00057   0.00226   0.00428   0.00616   0.00700

  Beta  occ. eigenvalues --  -38.44889 -38.44588 -38.44130 -38.44090 -38.43777
  Beta  occ. eigenvalues --  -38.43424 -38.42967  -2.20699  -2.20396  -2.19975
  Beta  occ. eigenvalues --   -2.19878  -2.19588  -2.19258  -2.18793  -1.14370
  Beta  occ. eigenvalues --   -1.14359  -1.14330  -1.14079  -1.14049  -1.14040
  Beta  occ. eigenvalues --   -1.13665  -1.13629  -1.13619  -1.13594  -1.13555
  Beta  occ. eigenvalues --   -1.13522  -1.13276  -1.13247  -1.13221  -1.12963
  Beta  occ. eigenvalues --   -1.12922  -1.12904  -1.12488  -1.12468  -1.12437
  Beta  occ. eigenvalues --   -0.17414  -0.13480  -0.11553
  Beta virt. eigenvalues --   -0.06968  -0.06564  -0.05717  -0.03541  -0.02942
  Beta virt. eigenvalues --   -0.02430  -0.02096  -0.01473  -0.01333  -0.00611
  Beta virt. eigenvalues --   -0.00009   0.00114   0.00285   0.00539   0.00683

 Mulliken charges and spin densities:
               1          2
     1  Na  -0.388886   0.268979
     2  Na   0.200121   0.014220
     3  Na   0.035678  -0.061087
     4  Na   0.300802   0.227890
     5  Na  -0.126643   0.110111
     6  Na  -0.193144   0.395123
     7  Na   0.172072   0.044764
 Sum of Mulliken charges =  -0.00000   1.00000

 Dipole moment (field-independent basis, Debye):
    X=             -0.0591    Y=              0.0209    Z=              0.3303  Tot=              0.3362
 Quadrupole moment (field-independent basis, Debye-Ang):
   XX=            -49.9781   YY=            -70.3625   ZZ=            -74.0572
   XY=              0.6163   XZ=             -0.7316   YZ=              1.4343

 Normal termination of Gaussian 16 at Thu Dec  7 10:53:35 2023.
