 Gaussian 16, Revision B.01,
 Gaussian 16:  ES64L-G16RevB.01 20-Dec-2017

 -------------------------
 #P B3LYP/6-311+g(d) force
 -------------------------

 -----
 DPGEN
 -----
 Symbolic Z-matrix:
 Charge =  0 Multiplicity = 2

                         Standard orientation:
 ---------------------------------------------------------------------
 Center     Atomic      Atomic             Coordinates (Angstroms)
 Number     Number       Type             X           Y           Z
 ---------------------------------------------------------------------
      1         11           0        0.177528   -0.297634   -1.384232
      2         11           0       -0.313056   -0.369447    2.062342
      3         11           0       -1.906132   -2.776918   -0.226060
      4         11           0        2.754276    1.571840   -0.382499
      5         11           0       -0.432746    2.940565    0.314376
      6         11           0       -3.051545    0.936163   -0.466090
      7         11           0        2.771675   -2.004569    0.082163
 ---------------------------------------------------------------------

 SCF Done:  E(UB3LYP) =  -1136.13374011     A.U. after   19 cycles

 The electronic state is 2-A.
 Alpha  occ. eigenvalues --  -38.44517 -38.44276 -38.44093 -38.43968 -38.43371
 Alpha  occ. eigenvalues --  -38.43172 -38.43115  -2.20298  -2.20086  -2.19882
 Alpha  occ. eigenvalues --   -2.19790  -2.19234  -2.19071  -2.19009  -1.13975
 Alpha  occ. eigenvalues --   -1.13955  -1.13937  -1.13765  -1.13747  -1.13717
 Alpha  occ. eigenvalues --   -1.13560  -1.13538  -1.13520  -1.13482  -1.13449
 Alpha  occ. eigenvalues --   -1.13417  -1.12915  -1.12855  -1.12846  -1.12773
 Alpha  occ. eigenvalues --   -1.12715  -1.12697  -1.12673  -1.12670  -1.12660
 Alpha  occ. eigenvalues --   -0.18102  -0.13003  -0.12288  -0.10269
 Alpha virt. eigenvalues --   -0.06186  -0.05392  -0.04770  -0.03001  -0.02775
 Alpha virt. eigenvalues --   -0.02255  -0.01796  -0.01507  -0.00762  -0.00497
 Alpha virt. eigenvalues --   -0.00011   0.00310   0.00694   0.00766   0.00815

  Beta  occ. eigenvalues --  -38.44517 -38.44263 -38.44090 -38.43961 -38.43270
  Beta  occ. eigenvalues --  -38.43167 -38.43073  -2.20300  -2.20066  -2.19877
  Beta  occ. eigenvalues --   -2.19780  -2.19047  -2.19003  -2.18996  -1.13970
  Beta  occ. eigenvalues --   -1.13955  -1.13935  -1.13746  -1.13722  -1.13705
  Beta  occ. eigenvalues --   -1.13550  -1.13531  -1.13513  -1.13469  -1.13433
  Beta  occ. eigenvalues --   -1.13412  -1.12795  -1.12726  -1.12713  -1.12705
  Beta  occ. eigenvalues --   -1.12676  -1.12662  -1.12653  -1.12640  -1.12638
  Beta  occ. eigenvalues --   -0.17426  -0.12765  -0.12101
  Beta virt. eigenvalues --   -0.06417  -0.06184  -0.05279  -0.04718  -0.02330
  Beta virt. eigenvalues --   -0.02052  -0.01709  -0.01473  -0.01202  -0.00785
  Beta virt. eigenvalues --   -0.00499   0.00151   0.00369   0.00703   0.00837

 Mulliken charges and spin densities:
               1          2
     1  Na  -0.137227   0.131256
     2  Na  -0.368711   0.734916
     3  Na   0.061468  -0.022321
     4  Na   0.153116   0.048542
     5  Na   0.060548   0.057619
     6  Na   0.119529   0.071217
     7  Na   0.111276  -0.021229
 Sum of Mulliken charges =  -0.00000   1.00000

 Dipole moment (field-independent basis, Debye):
    X=              0.1395    Y=             -0.4933    Z=              0.0318  Tot=              0.5136
 Quadrupole moment (field-independent basis, Debye-Ang):
   XX=            -54.8180   YY=            -59.9161   ZZ=            -76.9655
   XY=             -0.4062   XZ=              1.1189   YZ=             -0.0378

 Normal termination of Gaussian 16 at Fri Dec  8 01:09:54 2023.
