 Gaussian 16, Revision B.01,
 Gaussian 16:  ES64L-G16RevB.01 20-Dec-2017

 -------------------------
 #P B3LYP/6-311+g(d) force
 -------------------------

 -----
 DPGEN
 -----
 Symbolic Z-matrix:
 Charge =  0 Multiplicity = 2

                         Standard orientation:
 ---------------------------------------------------------------------
 Center     Atomic      Atomic             Coordinates (Angstroms)
 Number     Number       Type             X           Y           Z
 ---------------------------------------------------------------------
      1         11           0        3.166339    0.424762   -0.447839
      2         11           0       -3.647432    0.800495   -0.287293
      3         11           0        0.272818   -0.001179    2.192743
      4         11           0        0.167116    0.229092   -1.295598
      5         11           0       -1.992886   -1.876066   -0.082901
      6         11           0        0.549827    3.028290    0.063538
      7         11           0        1.484218   -2.605394   -0.142650
 ---------------------------------------------------------------------

 SCF Done:  E(UB3LYP) =  -1136.13010255     A.U. after   20 cycles

 The electronic state is 2-A.
 Alpha  occ. eigenvalues --  -38.44551 -38.44482 -38.43646 -38.43479 -38.43378
 Alpha  occ. eigenvalues --  -38.43273 -38.43073  -2.20339  -2.20337  -2.19519
 Alpha  occ. eigenvalues --   -2.19310  -2.19302  -2.19270  -2.18937  -1.14045
 Alpha  occ. eigenvalues --   -1.14021  -1.13997  -1.13990  -1.13967  -1.13946
 Alpha  occ. eigenvalues --   -1.13189  -1.13148  -1.13124  -1.13083  -1.13031
 Alpha  occ. eigenvalues --   -1.12973  -1.12956  -1.12932  -1.12930  -1.12916
 Alpha  occ. eigenvalues --   -1.12895  -1.12883  -1.12611  -1.12594  -1.12578
 Alpha  occ. eigenvalues --   -0.18529  -0.13286  -0.12127  -0.10637
 Alpha virt. eigenvalues --   -0.06357  -0.04759  -0.04697  -0.03051  -0.02640
 Alpha virt. eigenvalues --   -0.02509  -0.02068  -0.01158  -0.00678  -0.00201
 Alpha virt. eigenvalues --   -0.00065   0.00263   0.00761   0.00780   0.00872

  Beta  occ. eigenvalues --  -38.44546 -38.44462 -38.43533 -38.43476 -38.43373
  Beta  occ. eigenvalues --  -38.43239 -38.43068  -2.20331  -2.20303  -2.19311
  Beta  occ. eigenvalues --   -2.19304  -2.19263  -2.19244  -2.18933  -1.14018
  Beta  occ. eigenvalues --   -1.14015  -1.13985  -1.13963  -1.13956  -1.13922
  Beta  occ. eigenvalues --   -1.13072  -1.13055  -1.13007  -1.12998  -1.12974
  Beta  occ. eigenvalues --   -1.12941  -1.12932  -1.12922  -1.12917  -1.12878
  Beta  occ. eigenvalues --   -1.12869  -1.12861  -1.12607  -1.12591  -1.12554
  Beta  occ. eigenvalues --   -0.17834  -0.13018  -0.11927
  Beta virt. eigenvalues --   -0.06758  -0.06176  -0.04738  -0.04659  -0.02395
  Beta virt. eigenvalues --   -0.02000  -0.01880  -0.01417  -0.01115  -0.00662
  Beta virt. eigenvalues --   -0.00213   0.00112   0.00323   0.00772   0.00840

 Mulliken charges and spin densities:
               1          2
     1  Na   0.504006   0.112466
     2  Na   0.086128   0.024135
     3  Na  -0.488422   0.651738
     4  Na  -0.650027   0.009652
     5  Na   0.224067   0.084400
     6  Na   0.051370   0.034991
     7  Na   0.272877   0.082618
 Sum of Mulliken charges =  -0.00000   1.00000

 Dipole moment (field-independent basis, Debye):
    X=              0.0592    Y=              0.3695    Z=              0.2739  Tot=              0.4638
 Quadrupole moment (field-independent basis, Debye-Ang):
   XX=            -54.0124   YY=            -63.7285   ZZ=            -74.9855
   XY=             -1.9955   XZ=             -0.0654   YZ=              0.2109

 Normal termination of Gaussian 16 at Fri Dec  8 00:02:00 2023.
