 Gaussian 16, Revision B.01,
 Gaussian 16:  ES64L-G16RevB.01 20-Dec-2017

 -------------------------
 #P B3LYP/6-311+g(d) force
 -------------------------

 -----
 DPGEN
 -----
 Symbolic Z-matrix:
 Charge =  0 Multiplicity = 2

                         Standard orientation:
 ---------------------------------------------------------------------
 Center     Atomic      Atomic             Coordinates (Angstroms)
 Number     Number       Type             X           Y           Z
 ---------------------------------------------------------------------
      1         11           0        2.384834    1.958872   -0.447390
      2         11           0       -2.916206    2.056792    1.438119
      3         11           0        1.671067   -1.978586    0.297286
      4         11           0       -1.663777   -3.130952   -0.797658
      5         11           0       -3.985853   -0.954721   -0.052266
      6         11           0       -0.043549    2.982367   -1.136255
      7         11           0        4.553484   -0.933771    0.698165
 ---------------------------------------------------------------------

 SCF Done:  E(UB3LYP) =  -1136.11003638     A.U. after   21 cycles

 The electronic state is 2-A.
 Alpha  occ. eigenvalues --  -38.44899 -38.44768 -38.44722 -38.44473 -38.44224
 Alpha  occ. eigenvalues --  -38.43736 -38.43721  -2.20678  -2.20548  -2.20522
 Alpha  occ. eigenvalues --   -2.20352  -2.20062  -2.19601  -2.19534  -1.14336
 Alpha  occ. eigenvalues --   -1.14324  -1.14297  -1.14229  -1.14219  -1.14208
 Alpha  occ. eigenvalues --   -1.14206  -1.14196  -1.14194  -1.14178  -1.13988
 Alpha  occ. eigenvalues --   -1.13959  -1.13713  -1.13701  -1.13678  -1.13264
 Alpha  occ. eigenvalues --   -1.13217  -1.13195  -1.13183  -1.13176  -1.13176
 Alpha  occ. eigenvalues --   -0.16140  -0.14124  -0.13136  -0.11002
 Alpha virt. eigenvalues --   -0.06916  -0.04839  -0.04405  -0.03691  -0.03436
 Alpha virt. eigenvalues --   -0.02512  -0.01936  -0.01346  -0.01263  -0.00954
 Alpha virt. eigenvalues --   -0.00440  -0.00041   0.00002   0.00591   0.00675

  Beta  occ. eigenvalues --  -38.44824 -38.44770 -38.44716 -38.44439 -38.44178
  Beta  occ. eigenvalues --  -38.43712 -38.43671  -2.20557  -2.20539  -2.20517
  Beta  occ. eigenvalues --   -2.20295  -2.19975  -2.19562  -2.19440  -1.14245
  Beta  occ. eigenvalues --   -1.14240  -1.14238  -1.14220  -1.14208  -1.14202
  Beta  occ. eigenvalues --   -1.14194  -1.14158  -1.14150  -1.14133  -1.13953
  Beta  occ. eigenvalues --   -1.13919  -1.13653  -1.13641  -1.13624  -1.13223
  Beta  occ. eigenvalues --   -1.13195  -1.13162  -1.13121  -1.13119  -1.13109
  Beta  occ. eigenvalues --   -0.15672  -0.13460  -0.12430
  Beta virt. eigenvalues --   -0.07780  -0.06834  -0.04532  -0.04034  -0.03342
  Beta virt. eigenvalues --   -0.03082  -0.02323  -0.01641  -0.01163  -0.00945
  Beta virt. eigenvalues --   -0.00752  -0.00183   0.00140   0.00241   0.00628

 Mulliken charges and spin densities:
               1          2
     1  Na   0.195712   0.114857
     2  Na   0.205720   0.343173
     3  Na  -1.329680   0.165037
     4  Na   0.830145   0.077071
     5  Na  -0.428247   0.018805
     6  Na  -0.607985   0.006456
     7  Na   1.134334   0.274601
 Sum of Mulliken charges =  -0.00000   1.00000

 Dipole moment (field-independent basis, Debye):
    X=              0.3905    Y=              0.0028    Z=              0.3527  Tot=              0.5262
 Quadrupole moment (field-independent basis, Debye-Ang):
   XX=            -57.1210   YY=            -71.6434   ZZ=            -70.6550
   XY=              0.3523   XZ=              2.2206   YZ=              1.9957

 Normal termination of Gaussian 16 at Sun Dec  3 23:30:44 2023.
