 Gaussian 16, Revision B.01,
 Gaussian 16:  ES64L-G16RevB.01 20-Dec-2017

 -------------------------
 #P B3LYP/6-311+g(d) force
 -------------------------

 -----
 DPGEN
 -----
 Symbolic Z-matrix:
 Charge =  0 Multiplicity = 2

                         Standard orientation:
 ---------------------------------------------------------------------
 Center     Atomic      Atomic             Coordinates (Angstroms)
 Number     Number       Type             X           Y           Z
 ---------------------------------------------------------------------
      1         11           0        0.111389    0.062695    2.010797
      2         11           0        0.194552   -1.647444   -1.300651
      3         11           0        0.157014    3.489758    0.371509
      4         11           0        2.833633   -2.347069    0.520075
      5         11           0       -1.969548    0.913218   -0.891007
      6         11           0       -3.609059   -1.576985    0.277703
      7         11           0        2.282019    1.105826   -0.988425
 ---------------------------------------------------------------------

 SCF Done:  E(UB3LYP) =  -1136.13173416     A.U. after   19 cycles

 The electronic state is 2-A.
 Alpha  occ. eigenvalues --  -38.44289 -38.44152 -38.44006 -38.43983 -38.43601
 Alpha  occ. eigenvalues --  -38.43480 -38.43352  -2.20070  -2.19985  -2.19819
 Alpha  occ. eigenvalues --   -2.19809  -2.19489  -2.19369  -2.19161  -1.13756
 Alpha  occ. eigenvalues --   -1.13727  -1.13707  -1.13678  -1.13656  -1.13590
 Alpha  occ. eigenvalues --   -1.13498  -1.13494  -1.13463  -1.13452  -1.13445
 Alpha  occ. eigenvalues --   -1.13427  -1.13207  -1.13154  -1.13096  -1.13050
 Alpha  occ. eigenvalues --   -1.13042  -1.12971  -1.12833  -1.12819  -1.12801
 Alpha  occ. eigenvalues --   -0.17978  -0.12953  -0.12310  -0.10539
 Alpha virt. eigenvalues --   -0.06028  -0.05526  -0.04492  -0.03288  -0.02847
 Alpha virt. eigenvalues --   -0.02486  -0.01857  -0.01523  -0.00628  -0.00308
 Alpha virt. eigenvalues --    0.00169   0.00270   0.00677   0.00712   0.00771

  Beta  occ. eigenvalues --  -38.44294 -38.44123 -38.44002 -38.43892 -38.43564
  Beta  occ. eigenvalues --  -38.43463 -38.43352  -2.20081  -2.19932  -2.19804
  Beta  occ. eigenvalues --   -2.19650  -2.19425  -2.19341  -2.19163  -1.13765
  Beta  occ. eigenvalues --   -1.13727  -1.13715  -1.13637  -1.13606  -1.13557
  Beta  occ. eigenvalues --   -1.13492  -1.13447  -1.13441  -1.13383  -1.13330
  Beta  occ. eigenvalues --   -1.13306  -1.13165  -1.13088  -1.13062  -1.13023
  Beta  occ. eigenvalues --   -1.12997  -1.12957  -1.12836  -1.12807  -1.12803
  Beta  occ. eigenvalues --   -0.17234  -0.12810  -0.12177
  Beta virt. eigenvalues --   -0.06657  -0.05854  -0.05397  -0.04465  -0.02669
  Beta virt. eigenvalues --   -0.02289  -0.01793  -0.01464  -0.01392  -0.00585
  Beta virt. eigenvalues --   -0.00133   0.00229   0.00322   0.00716   0.00786

 Mulliken charges and spin densities:
               1          2
     1  Na  -0.557558   0.778465
     2  Na   0.006612   0.258306
     3  Na   0.455049  -0.051944
     4  Na   0.164662  -0.117564
     5  Na  -0.097779   0.178603
     6  Na   0.144252  -0.154592
     7  Na  -0.115238   0.108725
 Sum of Mulliken charges =  -0.00000   1.00000

 Dipole moment (field-independent basis, Debye):
    X=              0.0763    Y=             -0.4085    Z=              0.2124  Tot=              0.4667
 Quadrupole moment (field-independent basis, Debye-Ang):
   XX=            -56.8691   YY=            -61.3213   ZZ=            -74.0433
   XY=              0.4709   XZ=             -0.9478   YZ=             -1.5602

 Normal termination of Gaussian 16 at Thu Dec  7 18:11:38 2023.
