 Gaussian 16, Revision B.01,
 Gaussian 16:  ES64L-G16RevB.01 20-Dec-2017

 -------------------------
 #P B3LYP/6-311+g(d) force
 -------------------------

 -----
 DPGEN
 -----
 Symbolic Z-matrix:
 Charge =  0 Multiplicity = 2

                         Standard orientation:
 ---------------------------------------------------------------------
 Center     Atomic      Atomic             Coordinates (Angstroms)
 Number     Number       Type             X           Y           Z
 ---------------------------------------------------------------------
      1         11           0       -1.633298   -2.452560   -0.297513
      2         11           0        0.177977    0.106804   -1.679563
      3         11           0        1.774246   -2.179368    0.147056
      4         11           0        2.970254    0.923249   -0.087383
      5         11           0       -0.194039    2.881354    0.055648
      6         11           0       -2.847980    0.831714   -0.108650
      7         11           0       -0.247159   -0.111193    1.970404
 ---------------------------------------------------------------------

 SCF Done:  E(UB3LYP) =  -1136.14146464     A.U. after   18 cycles

 The electronic state is 2-A.
 Alpha  occ. eigenvalues --  -38.43726 -38.43674 -38.43420 -38.43392 -38.43389
 Alpha  occ. eigenvalues --  -38.43351 -38.43092  -2.19573  -2.19545  -2.19348
 Alpha  occ. eigenvalues --   -2.19287  -2.19257  -2.19218  -2.19094  -1.13262
 Alpha  occ. eigenvalues --   -1.13234  -1.13228  -1.13216  -1.13215  -1.13189
 Alpha  occ. eigenvalues --   -1.13037  -1.12998  -1.12977  -1.12973  -1.12952
 Alpha  occ. eigenvalues --   -1.12935  -1.12924  -1.12912  -1.12894  -1.12881
 Alpha  occ. eigenvalues --   -1.12869  -1.12845  -1.12765  -1.12716  -1.12708
 Alpha  occ. eigenvalues --   -0.19016  -0.13027  -0.12657  -0.10825
 Alpha virt. eigenvalues --   -0.05348  -0.05034  -0.04811  -0.03155  -0.02964
 Alpha virt. eigenvalues --   -0.02532  -0.01350  -0.01096  -0.00241  -0.00181
 Alpha virt. eigenvalues --    0.00003   0.00374   0.00857   0.00921   0.00934

  Beta  occ. eigenvalues --  -38.43724 -38.43668 -38.43385 -38.43384 -38.43343
  Beta  occ. eigenvalues --  -38.43329 -38.43023  -2.19572  -2.19539  -2.19278
  Beta  occ. eigenvalues --   -2.19252  -2.19207  -2.19180  -2.18969  -1.13258
  Beta  occ. eigenvalues --   -1.13225  -1.13222  -1.13212  -1.13192  -1.13178
  Beta  occ. eigenvalues --   -1.12990  -1.12952  -1.12928  -1.12925  -1.12908
  Beta  occ. eigenvalues --   -1.12894  -1.12880  -1.12876  -1.12859  -1.12843
  Beta  occ. eigenvalues --   -1.12838  -1.12826  -1.12683  -1.12630  -1.12616
  Beta  occ. eigenvalues --   -0.18270  -0.12779  -0.12405
  Beta virt. eigenvalues --   -0.06885  -0.05332  -0.05041  -0.04768  -0.02336
  Beta virt. eigenvalues --   -0.02170  -0.01465  -0.01269  -0.01026  -0.00296
  Beta virt. eigenvalues --   -0.00235   0.00132   0.00389   0.00898   0.00912

 Mulliken charges and spin densities:
               1          2
     1  Na   0.154707  -0.046277
     2  Na  -0.351424   0.577735
     3  Na   0.235580  -0.020801
     4  Na   0.121561  -0.088383
     5  Na   0.122027  -0.099284
     6  Na   0.194942  -0.057889
     7  Na  -0.477393   0.734898
 Sum of Mulliken charges =  -0.00000   1.00000

 Dipole moment (field-independent basis, Debye):
    X=              0.0030    Y=              0.0908    Z=              0.1117  Tot=              0.1440
 Quadrupole moment (field-independent basis, Debye-Ang):
   XX=            -57.9286   YY=            -61.6533   ZZ=            -73.9137
   XY=              0.5505   XZ=              0.9349   YZ=              0.5132

 Normal termination of Gaussian 16 at Thu Dec  7 13:28:01 2023.
