 Gaussian 16, Revision B.01,
 Gaussian 16:  ES64L-G16RevB.01 20-Dec-2017

 -------------------------
 #P B3LYP/6-311+g(d) force
 -------------------------

 -----
 DPGEN
 -----
 Symbolic Z-matrix:
 Charge =  0 Multiplicity = 2

                         Standard orientation:
 ---------------------------------------------------------------------
 Center     Atomic      Atomic             Coordinates (Angstroms)
 Number     Number       Type             X           Y           Z
 ---------------------------------------------------------------------
      1         11           0        1.745277    2.568053   -0.870122
      2         11           0        3.329507   -1.539501   -0.171381
      3         11           0        1.750568    0.404498    2.058644
      4         11           0       -4.121125    0.434319   -0.130659
      5         11           0       -2.313006   -2.051809    0.356667
      6         11           0       -1.232661    1.530998    0.087764
      7         11           0        0.841440   -1.346559   -1.330914
 ---------------------------------------------------------------------

 SCF Done:  E(UB3LYP) =  -1136.11335057     A.U. after   24 cycles

 The electronic state is 2-A.
 Alpha  occ. eigenvalues --  -38.45404 -38.45002 -38.44603 -38.43689 -38.43606
 Alpha  occ. eigenvalues --  -38.43280 -38.43234  -2.21257  -2.20819  -2.20483
 Alpha  occ. eigenvalues --   -2.19550  -2.19426  -2.19179  -2.19156  -1.14941
 Alpha  occ. eigenvalues --   -1.14923  -1.14893  -1.14492  -1.14481  -1.14447
 Alpha  occ. eigenvalues --   -1.14287  -1.14111  -1.14099  -1.13222  -1.13190
 Alpha  occ. eigenvalues --   -1.13155  -1.13102  -1.13072  -1.13063  -1.12879
 Alpha  occ. eigenvalues --   -1.12857  -1.12846  -1.12795  -1.12789  -1.12743
 Alpha  occ. eigenvalues --   -0.17948  -0.14565  -0.11695  -0.10231
 Alpha virt. eigenvalues --   -0.07187  -0.05851  -0.03893  -0.03458  -0.03062
 Alpha virt. eigenvalues --   -0.02413  -0.01976  -0.01527  -0.00831  -0.00293
 Alpha virt. eigenvalues --   -0.00153   0.00079   0.00292   0.00574   0.00709

  Beta  occ. eigenvalues --  -38.45398 -38.45000 -38.44594 -38.43602 -38.43585
  Beta  occ. eigenvalues --  -38.43272 -38.43187  -2.21246  -2.20818  -2.20472
  Beta  occ. eigenvalues --   -2.19390  -2.19386  -2.19168  -2.19069  -1.14935
  Beta  occ. eigenvalues --   -1.14917  -1.14882  -1.14494  -1.14473  -1.14441
  Beta  occ. eigenvalues --   -1.14271  -1.14098  -1.14072  -1.13111  -1.13086
  Beta  occ. eigenvalues --   -1.13071  -1.13052  -1.13040  -1.13018  -1.12876
  Beta  occ. eigenvalues --   -1.12827  -1.12792  -1.12783  -1.12728  -1.12677
  Beta  occ. eigenvalues --   -0.17412  -0.14241  -0.11461
  Beta virt. eigenvalues --   -0.07051  -0.06447  -0.05774  -0.03627  -0.03114
  Beta virt. eigenvalues --   -0.02747  -0.01942  -0.01536  -0.01045  -0.00759
  Beta virt. eigenvalues --   -0.00087   0.00064   0.00090   0.00493   0.00601

 Mulliken charges and spin densities:
               1          2
     1  Na  -0.061964  -0.005707
     2  Na   0.181204  -0.093475
     3  Na   0.013282   0.525669
     4  Na   0.562680  -0.033619
     5  Na   0.126946   0.025126
     6  Na  -0.679348   0.182238
     7  Na  -0.142801   0.399769
 Sum of Mulliken charges =  -0.00000   1.00000

 Dipole moment (field-independent basis, Debye):
    X=             -1.4298    Y=             -0.0214    Z=             -0.2505  Tot=              1.4517
 Quadrupole moment (field-independent basis, Debye-Ang):
   XX=            -48.3988   YY=            -71.9575   ZZ=            -74.7023
   XY=              1.3205   XZ=             -2.5594   YZ=             -3.5575

 Normal termination of Gaussian 16 at Wed Dec  6 00:56:23 2023.
