 Gaussian 16, Revision B.01,
 Gaussian 16:  ES64L-G16RevB.01 20-Dec-2017

 -------------------------
 #P B3LYP/6-311+g(d) force
 -------------------------

 -----
 DPGEN
 -----
 Symbolic Z-matrix:
 Charge =  0 Multiplicity = 2

                         Standard orientation:
 ---------------------------------------------------------------------
 Center     Atomic      Atomic             Coordinates (Angstroms)
 Number     Number       Type             X           Y           Z
 ---------------------------------------------------------------------
      1         11           0        2.358128   -3.133742   -0.379256
      2         11           0        0.660369   -0.643610   -0.822962
      3         11           0       -2.054102   -1.409622    0.822811
      4         11           0       -4.981659   -0.455428   -0.347020
      5         11           0        3.817622    0.129651    0.873281
      6         11           0       -1.804859    2.334982    0.430595
      7         11           0        2.004502    3.177770   -0.577449
 ---------------------------------------------------------------------

 SCF Done:  E(UB3LYP) =  -1136.11734105     A.U. after   21 cycles

 The electronic state is 2-A.
 Alpha  occ. eigenvalues --  -38.45026 -38.44379 -38.44344 -38.44269 -38.44035
 Alpha  occ. eigenvalues --  -38.43730 -38.43664  -2.20773  -2.20210  -2.20139
 Alpha  occ. eigenvalues --   -2.20078  -2.19852  -2.19580  -2.19472  -1.14471
 Alpha  occ. eigenvalues --   -1.14435  -1.14372  -1.13912  -1.13897  -1.13833
 Alpha  occ. eigenvalues --   -1.13811  -1.13800  -1.13782  -1.13749  -1.13731
 Alpha  occ. eigenvalues --   -1.13704  -1.13498  -1.13492  -1.13456  -1.13275
 Alpha  occ. eigenvalues --   -1.13230  -1.13189  -1.13164  -1.13131  -1.13116
 Alpha  occ. eigenvalues --   -0.16808  -0.13997  -0.12015  -0.10313
 Alpha virt. eigenvalues --   -0.06402  -0.06003  -0.04789  -0.03257  -0.02947
 Alpha virt. eigenvalues --   -0.02344  -0.01820  -0.01722  -0.00959  -0.00710
 Alpha virt. eigenvalues --   -0.00442  -0.00085   0.00411   0.00452   0.00535

  Beta  occ. eigenvalues --  -38.45005 -38.44373 -38.44274 -38.44274 -38.43945
  Beta  occ. eigenvalues --  -38.43742 -38.43631  -2.20735  -2.20206  -2.20089
  Beta  occ. eigenvalues --   -2.20008  -2.19683  -2.19523  -2.19497  -1.14446
  Beta  occ. eigenvalues --   -1.14404  -1.14349  -1.13902  -1.13872  -1.13821
  Beta  occ. eigenvalues --   -1.13804  -1.13743  -1.13719  -1.13707  -1.13695
  Beta  occ. eigenvalues --   -1.13651  -1.13383  -1.13376  -1.13348  -1.13235
  Beta  occ. eigenvalues --   -1.13185  -1.13181  -1.13154  -1.13143  -1.13118
  Beta  occ. eigenvalues --   -0.16285  -0.13362  -0.11811
  Beta virt. eigenvalues --   -0.06925  -0.06206  -0.05460  -0.04731  -0.02777
  Beta virt. eigenvalues --   -0.02644  -0.01979  -0.01635  -0.01518  -0.00870
  Beta virt. eigenvalues --   -0.00437   0.00002   0.00157   0.00499   0.00502

 Mulliken charges and spin densities:
               1          2
     1  Na   0.426876   0.030283
     2  Na  -0.863345   0.093122
     3  Na   0.020841   0.058400
     4  Na   0.155455   0.423140
     5  Na   0.080003   0.420219
     6  Na   0.067467   0.019846
     7  Na   0.112703  -0.045010
 Sum of Mulliken charges =  -0.00000   1.00000

 Dipole moment (field-independent basis, Debye):
    X=              0.0897    Y=             -0.2644    Z=              0.2513  Tot=              0.3756
 Quadrupole moment (field-independent basis, Debye-Ang):
   XX=            -69.3067   YY=            -62.6641   ZZ=            -68.6695
   XY=             -7.4459   XZ=              1.0533   YZ=             -1.1069

 Normal termination of Gaussian 16 at Sun Dec  3 18:55:07 2023.
