 Gaussian 16, Revision B.01,
 Gaussian 16:  ES64L-G16RevB.01 20-Dec-2017

 -------------------------
 #P B3LYP/6-311+g(d) force
 -------------------------

 -----
 DPGEN
 -----
 Symbolic Z-matrix:
 Charge =  0 Multiplicity = 2

                         Standard orientation:
 ---------------------------------------------------------------------
 Center     Atomic      Atomic             Coordinates (Angstroms)
 Number     Number       Type             X           Y           Z
 ---------------------------------------------------------------------
      1         11           0       -1.070031    2.652349   -0.171814
      2         11           0       -0.008499    0.252477   -1.869190
      3         11           0        2.097389    2.090724    0.576926
      4         11           0       -3.249743   -0.274731   -0.021420
      5         11           0        2.989940   -1.221273   -0.225725
      6         11           0       -0.439848   -0.802614    2.140579
      7         11           0       -0.319207   -2.696933   -0.429356
 ---------------------------------------------------------------------

 SCF Done:  E(UB3LYP) =  -1136.13556279     A.U. after   18 cycles

 The electronic state is 2-A.
 Alpha  occ. eigenvalues --  -38.44219 -38.44041 -38.43979 -38.43630 -38.43544
 Alpha  occ. eigenvalues --  -38.43442 -38.43255  -2.20019  -2.19900  -2.19776
 Alpha  occ. eigenvalues --   -2.19564  -2.19374  -2.19318  -2.19123  -1.13699
 Alpha  occ. eigenvalues --   -1.13675  -1.13663  -1.13575  -1.13538  -1.13507
 Alpha  occ. eigenvalues --   -1.13450  -1.13439  -1.13421  -1.13255  -1.13241
 Alpha  occ. eigenvalues --   -1.13171  -1.13050  -1.13032  -1.13021  -1.13000
 Alpha  occ. eigenvalues --   -1.12997  -1.12918  -1.12812  -1.12777  -1.12738
 Alpha  occ. eigenvalues --   -0.18354  -0.12748  -0.12540  -0.11035
 Alpha virt. eigenvalues --   -0.05810  -0.04951  -0.04613  -0.03405  -0.03159
 Alpha virt. eigenvalues --   -0.02808  -0.01598  -0.00912  -0.00293  -0.00231
 Alpha virt. eigenvalues --   -0.00064   0.00373   0.00779   0.00824   0.00867

  Beta  occ. eigenvalues --  -38.44218 -38.43979 -38.43958 -38.43556 -38.43532
  Beta  occ. eigenvalues --  -38.43429 -38.43251  -2.20020  -2.19778  -2.19745
  Beta  occ. eigenvalues --   -2.19429  -2.19354  -2.19300  -2.19119  -1.13687
  Beta  occ. eigenvalues --   -1.13674  -1.13659  -1.13474  -1.13445  -1.13433
  Beta  occ. eigenvalues --   -1.13430  -1.13423  -1.13396  -1.13164  -1.13150
  Beta  occ. eigenvalues --   -1.13077  -1.13035  -1.13010  -1.13005  -1.12988
  Beta  occ. eigenvalues --   -1.12948  -1.12908  -1.12798  -1.12758  -1.12738
  Beta  occ. eigenvalues --   -0.17620  -0.12547  -0.12303
  Beta virt. eigenvalues --   -0.07170  -0.05776  -0.04892  -0.04457  -0.02668
  Beta virt. eigenvalues --   -0.02424  -0.01802  -0.01529  -0.00842  -0.00334
  Beta virt. eigenvalues --   -0.00233   0.00085   0.00400   0.00860   0.00881

 Mulliken charges and spin densities:
               1          2
     1  Na   0.130749  -0.000688
     2  Na  -0.040816   0.477258
     3  Na  -0.081732   0.057926
     4  Na   0.192971  -0.089119
     5  Na   0.035757  -0.044143
     6  Na  -0.531081   0.704328
     7  Na   0.294153  -0.105562
 Sum of Mulliken charges =  -0.00000   1.00000

 Dipole moment (field-independent basis, Debye):
    X=             -0.1767    Y=             -0.2192    Z=              0.1511  Tot=              0.3195
 Quadrupole moment (field-independent basis, Debye-Ang):
   XX=            -57.2275   YY=            -66.0592   ZZ=            -71.7641
   XY=             -0.5228   XZ=              0.8075   YZ=              1.8986

 Normal termination of Gaussian 16 at Sun Dec  3 17:38:34 2023.
