 Gaussian 16, Revision B.01,
 Gaussian 16:  ES64L-G16RevB.01 20-Dec-2017

 -------------------------
 #P B3LYP/6-311+g(d) force
 -------------------------

 -----
 DPGEN
 -----
 Symbolic Z-matrix:
 Charge =  0 Multiplicity = 2

                         Standard orientation:
 ---------------------------------------------------------------------
 Center     Atomic      Atomic             Coordinates (Angstroms)
 Number     Number       Type             X           Y           Z
 ---------------------------------------------------------------------
      1         11           0       -0.127005   -0.853993   -1.329773
      2         11           0       -0.838207    2.019602    0.510176
      3         11           0       -3.966853    0.115356   -1.000798
      4         11           0       -1.965634   -1.221700    1.295817
      5         11           0        1.297914   -0.496304    1.678172
      6         11           0        2.507631    1.824844   -0.384574
      7         11           0        3.092154   -1.387805   -0.769020
 ---------------------------------------------------------------------

 SCF Done:  E(UB3LYP) =  -1136.12332286     A.U. after   25 cycles

 The electronic state is 2-A.
 Alpha  occ. eigenvalues --  -38.45045 -38.44512 -38.43995 -38.43839 -38.43485
 Alpha  occ. eigenvalues --  -38.43376 -38.42301  -2.20851  -2.20419  -2.19919
 Alpha  occ. eigenvalues --   -2.19834  -2.19369  -2.19277  -2.18182  -1.14520
 Alpha  occ. eigenvalues --   -1.14492  -1.14467  -1.14161  -1.14082  -1.14032
 Alpha  occ. eigenvalues --   -1.13630  -1.13565  -1.13545  -1.13516  -1.13497
 Alpha  occ. eigenvalues --   -1.13430  -1.13053  -1.13043  -1.12999  -1.12943
 Alpha  occ. eigenvalues --   -1.12919  -1.12893  -1.11895  -1.11862  -1.11781
 Alpha  occ. eigenvalues --   -0.18996  -0.14474  -0.11398  -0.10806
 Alpha virt. eigenvalues --   -0.06934  -0.05057  -0.04628  -0.03043  -0.02790
 Alpha virt. eigenvalues --   -0.02329  -0.02096  -0.01079  -0.00813  -0.00137
 Alpha virt. eigenvalues --    0.00085   0.00339   0.00368   0.00675   0.00782

  Beta  occ. eigenvalues --  -38.44998 -38.44502 -38.43950 -38.43775 -38.43468
  Beta  occ. eigenvalues --  -38.43365 -38.42295  -2.20761  -2.20404  -2.19844
  Beta  occ. eigenvalues --   -2.19723  -2.19338  -2.19258  -2.18173  -1.14459
  Beta  occ. eigenvalues --   -1.14429  -1.14409  -1.14130  -1.14068  -1.14023
  Beta  occ. eigenvalues --   -1.13567  -1.13505  -1.13473  -1.13445  -1.13392
  Beta  occ. eigenvalues --   -1.13353  -1.13035  -1.13016  -1.12974  -1.12926
  Beta  occ. eigenvalues --   -1.12908  -1.12871  -1.11893  -1.11829  -1.11780
  Beta  occ. eigenvalues --   -0.18292  -0.14102  -0.10679
  Beta virt. eigenvalues --   -0.07502  -0.06648  -0.04760  -0.04237  -0.02837
  Beta virt. eigenvalues --   -0.02550  -0.01627  -0.01559  -0.00773  -0.00618
  Beta virt. eigenvalues --    0.00001   0.00152   0.00409   0.00460   0.00722

 Mulliken charges and spin densities:
               1          2
     1  Na  -1.001874   0.222533
     2  Na  -0.632031   0.077209
     3  Na   0.675303   0.246970
     4  Na   0.198382   0.045051
     5  Na   0.067100   0.130659
     6  Na  -0.183930   0.090979
     7  Na   0.877050   0.186598
 Sum of Mulliken charges =  -0.00000   1.00000

 Dipole moment (field-independent basis, Debye):
    X=             -0.7332    Y=             -0.0349    Z=             -0.0770  Tot=              0.7380
 Quadrupole moment (field-independent basis, Debye-Ang):
   XX=            -49.0210   YY=            -78.5221   ZZ=            -66.9735
   XY=             -0.0062   XZ=              0.8046   YZ=             -3.7653

 Normal termination of Gaussian 16 at Tue Dec  5 16:34:37 2023.
