 Gaussian 16, Revision B.01,
 Gaussian 16:  ES64L-G16RevB.01 20-Dec-2017

 -------------------------
 #P B3LYP/6-311+g(d) force
 -------------------------

 -----
 DPGEN
 -----
 Symbolic Z-matrix:
 Charge =  0 Multiplicity = 2

                         Standard orientation:
 ---------------------------------------------------------------------
 Center     Atomic      Atomic             Coordinates (Angstroms)
 Number     Number       Type             X           Y           Z
 ---------------------------------------------------------------------
      1         11           0       -0.345918   -0.408724   -1.581903
      2         11           0        0.645803    0.454523    1.934702
      3         11           0       -2.800691   -1.350740    0.209971
      4         11           0        3.055135   -0.676893   -0.707345
      5         11           0       -2.261013    2.188946   -0.323307
      6         11           0        1.376979    2.738150    0.064156
      7         11           0        0.329704   -2.945262    0.403726
 ---------------------------------------------------------------------

 SCF Done:  E(UB3LYP) =  -1136.13644883     A.U. after   19 cycles

 The electronic state is 2-A.
 Alpha  occ. eigenvalues --  -38.43886 -38.43809 -38.43808 -38.43791 -38.43625
 Alpha  occ. eigenvalues --  -38.43520 -38.43192  -2.19700  -2.19652  -2.19651
 Alpha  occ. eigenvalues --   -2.19600  -2.19473  -2.19419  -2.19155  -1.13413
 Alpha  occ. eigenvalues --   -1.13376  -1.13359  -1.13349  -1.13337  -1.13313
 Alpha  occ. eigenvalues --   -1.13303  -1.13289  -1.13284  -1.13273  -1.13253
 Alpha  occ. eigenvalues --   -1.13223  -1.13162  -1.13140  -1.13096  -1.13072
 Alpha  occ. eigenvalues --   -1.13041  -1.13027  -1.12839  -1.12795  -1.12771
 Alpha  occ. eigenvalues --   -0.18373  -0.12891  -0.12666  -0.10527
 Alpha virt. eigenvalues --   -0.05449  -0.05299  -0.05025  -0.03210  -0.02987
 Alpha virt. eigenvalues --   -0.02272  -0.01443  -0.01240  -0.00566  -0.00431
 Alpha virt. eigenvalues --   -0.00002   0.00351   0.00820   0.00832   0.00862

  Beta  occ. eigenvalues --  -38.43861 -38.43805 -38.43804 -38.43785 -38.43615
  Beta  occ. eigenvalues --  -38.43442 -38.43139  -2.19657  -2.19647  -2.19646
  Beta  occ. eigenvalues --   -2.19592  -2.19457  -2.19276  -2.19059  -1.13389
  Beta  occ. eigenvalues --   -1.13355  -1.13333  -1.13319  -1.13307  -1.13306
  Beta  occ. eigenvalues --   -1.13288  -1.13278  -1.13272  -1.13261  -1.13248
  Beta  occ. eigenvalues --   -1.13218  -1.13152  -1.13112  -1.13080  -1.12980
  Beta  occ. eigenvalues --   -1.12941  -1.12929  -1.12770  -1.12730  -1.12697
  Beta  occ. eigenvalues --   -0.17708  -0.12644  -0.12401
  Beta virt. eigenvalues --   -0.06755  -0.05377  -0.05271  -0.04876  -0.02488
  Beta virt. eigenvalues --   -0.02297  -0.01385  -0.01267  -0.01144  -0.00574
  Beta virt. eigenvalues --   -0.00456   0.00140   0.00401   0.00838   0.00863

 Mulliken charges and spin densities:
               1          2
     1  Na  -0.037064   0.431496
     2  Na  -0.281981   0.584454
     3  Na   0.010362  -0.006349
     4  Na   0.024027   0.053588
     5  Na  -0.019657  -0.088521
     6  Na   0.191093  -0.049064
     7  Na   0.113221   0.074396
 Sum of Mulliken charges =  -0.00000   1.00000

 Dipole moment (field-independent basis, Debye):
    X=             -0.0199    Y=              0.0240    Z=              0.0773  Tot=              0.0834
 Quadrupole moment (field-independent basis, Debye-Ang):
   XX=            -58.4448   YY=            -60.2841   ZZ=            -74.6816
   XY=             -0.1602   XZ=             -2.1865   YZ=             -2.1782

 Normal termination of Gaussian 16 at Thu Dec  7 23:01:01 2023.
