 Gaussian 16, Revision B.01,
 Gaussian 16:  ES64L-G16RevB.01 20-Dec-2017

 -------------------------
 #P B3LYP/6-311+g(d) force
 -------------------------

 -----
 DPGEN
 -----
 Symbolic Z-matrix:
 Charge =  0 Multiplicity = 2

                         Standard orientation:
 ---------------------------------------------------------------------
 Center     Atomic      Atomic             Coordinates (Angstroms)
 Number     Number       Type             X           Y           Z
 ---------------------------------------------------------------------
      1         11           0        0.026977   -0.039821    1.832813
      2         11           0       -0.050415   -0.424439   -1.599796
      3         11           0        0.087676    3.006294    0.082272
      4         11           0       -2.792493    1.113696   -0.177096
      5         11           0        3.083702    1.017372   -0.282723
      6         11           0       -2.396779   -2.079299    0.012404
      7         11           0        2.041331   -2.593802    0.132126
 ---------------------------------------------------------------------

 SCF Done:  E(UB3LYP) =  -1136.13673628     A.U. after   19 cycles

 The electronic state is 2-A.
 Alpha  occ. eigenvalues --  -38.44412 -38.44049 -38.43985 -38.43795 -38.43176
 Alpha  occ. eigenvalues --  -38.43146 -38.43108  -2.20204  -2.19841  -2.19837
 Alpha  occ. eigenvalues --   -2.19672  -2.19095  -2.19024  -2.19010  -1.13883
 Alpha  occ. eigenvalues --   -1.13861  -1.13838  -1.13534  -1.13517  -1.13505
 Alpha  occ. eigenvalues --   -1.13501  -1.13481  -1.13478  -1.13346  -1.13328
 Alpha  occ. eigenvalues --   -1.13302  -1.12807  -1.12730  -1.12715  -1.12708
 Alpha  occ. eigenvalues --   -1.12686  -1.12673  -1.12656  -1.12642  -1.12627
 Alpha  occ. eigenvalues --   -0.18492  -0.13184  -0.12333  -0.10247
 Alpha virt. eigenvalues --   -0.05927  -0.05488  -0.04740  -0.03112  -0.02656
 Alpha virt. eigenvalues --   -0.02149  -0.01716  -0.01384  -0.00663  -0.00470
 Alpha virt. eigenvalues --    0.00018   0.00340   0.00756   0.00771   0.00867

  Beta  occ. eigenvalues --  -38.44405 -38.44046 -38.43980 -38.43788 -38.43173
  Beta  occ. eigenvalues --  -38.43086 -38.43020  -2.20194  -2.19840  -2.19832
  Beta  occ. eigenvalues --   -2.19663  -2.19008  -2.18985  -2.18863  -1.13860
  Beta  occ. eigenvalues --   -1.13853  -1.13835  -1.13533  -1.13507  -1.13494
  Beta  occ. eigenvalues --   -1.13493  -1.13479  -1.13458  -1.13339  -1.13308
  Beta  occ. eigenvalues --   -1.13288  -1.12727  -1.12685  -1.12663  -1.12653
  Beta  occ. eigenvalues --   -1.12643  -1.12631  -1.12592  -1.12530  -1.12516
  Beta  occ. eigenvalues --   -0.17782  -0.12943  -0.12111
  Beta virt. eigenvalues --   -0.06408  -0.05896  -0.05433  -0.04723  -0.02343
  Beta virt. eigenvalues --   -0.01940  -0.01608  -0.01332  -0.01121  -0.00721
  Beta virt. eigenvalues --   -0.00502   0.00162   0.00377   0.00767   0.00820

 Mulliken charges and spin densities:
               1          2
     1  Na  -0.315664   0.750173
     2  Na  -0.239144   0.478822
     3  Na   0.012162  -0.046994
     4  Na   0.182017   0.034327
     5  Na   0.008159  -0.035437
     6  Na   0.324630  -0.060927
     7  Na   0.027839  -0.119964
 Sum of Mulliken charges =  -0.00000   1.00000

 Dipole moment (field-independent basis, Debye):
    X=              0.2442    Y=             -0.3319    Z=              0.0251  Tot=              0.4128
 Quadrupole moment (field-independent basis, Debye-Ang):
   XX=            -54.3520   YY=            -60.3824   ZZ=            -77.0442
   XY=              0.2882   XZ=             -0.2563   YZ=             -0.9724

 Normal termination of Gaussian 16 at Mon Dec  4 03:05:35 2023.
