 Gaussian 16, Revision B.01,
 Gaussian 16:  ES64L-G16RevB.01 20-Dec-2017

 -------------------------
 #P B3LYP/6-311+g(d) force
 -------------------------

 -----
 DPGEN
 -----
 Symbolic Z-matrix:
 Charge =  0 Multiplicity = 2

                         Standard orientation:
 ---------------------------------------------------------------------
 Center     Atomic      Atomic             Coordinates (Angstroms)
 Number     Number       Type             X           Y           Z
 ---------------------------------------------------------------------
      1         11           0       -0.134719   -0.407696    2.139370
      2         11           0        0.250147    0.238170   -1.555290
      3         11           0        2.533440    1.711593   -0.249462
      4         11           0       -3.306757    0.224706   -0.215909
      5         11           0       -0.568898    2.700157    0.271132
      6         11           0       -0.947492   -2.415551   -0.511623
      7         11           0        2.174279   -2.051381    0.121782
 ---------------------------------------------------------------------

 SCF Done:  E(UB3LYP) =  -1136.13538006     A.U. after   19 cycles

 The electronic state is 2-A.
 Alpha  occ. eigenvalues --  -38.43854 -38.43792 -38.43627 -38.43493 -38.43479
 Alpha  occ. eigenvalues --  -38.43318 -38.43188  -2.19680  -2.19650  -2.19505
 Alpha  occ. eigenvalues --   -2.19369  -2.19358  -2.19251  -2.19235  -1.13347
 Alpha  occ. eigenvalues --   -1.13321  -1.13315  -1.13310  -1.13301  -1.13289
 Alpha  occ. eigenvalues --   -1.13273  -1.13163  -1.13133  -1.13092  -1.13072
 Alpha  occ. eigenvalues --   -1.13029  -1.13023  -1.13016  -1.13005  -1.12959
 Alpha  occ. eigenvalues --   -1.12903  -1.12877  -1.12841  -1.12824  -1.12821
 Alpha  occ. eigenvalues --   -0.18928  -0.12890  -0.12663  -0.11000
 Alpha virt. eigenvalues --   -0.05404  -0.04991  -0.04682  -0.03199  -0.03008
 Alpha virt. eigenvalues --   -0.02708  -0.01463  -0.01073  -0.00186  -0.00082
 Alpha virt. eigenvalues --    0.00007   0.00343   0.00836   0.00907   0.00927

  Beta  occ. eigenvalues --  -38.43854 -38.43692 -38.43622 -38.43487 -38.43472
  Beta  occ. eigenvalues --  -38.43301 -38.43128  -2.19652  -2.19501  -2.19494
  Beta  occ. eigenvalues --   -2.19363  -2.19348  -2.19222  -2.19130  -1.13317
  Beta  occ. eigenvalues --   -1.13305  -1.13298  -1.13257  -1.13228  -1.13186
  Beta  occ. eigenvalues --   -1.13164  -1.13150  -1.13124  -1.13079  -1.13061
  Beta  occ. eigenvalues --   -1.13015  -1.12994  -1.12992  -1.12974  -1.12956
  Beta  occ. eigenvalues --   -1.12860  -1.12824  -1.12812  -1.12758  -1.12753
  Beta  occ. eigenvalues --   -0.18188  -0.12640  -0.12446
  Beta virt. eigenvalues --   -0.07019  -0.05368  -0.04974  -0.04630  -0.02388
  Beta virt. eigenvalues --   -0.02268  -0.01621  -0.01394  -0.01008  -0.00190
  Beta virt. eigenvalues --   -0.00098   0.00125   0.00370   0.00900   0.00901

 Mulliken charges and spin densities:
               1          2
     1  Na  -0.623916   0.702569
     2  Na  -0.340204   0.295111
     3  Na   0.292394  -0.010735
     4  Na  -0.026718  -0.065754
     5  Na   0.110877   0.030139
     6  Na   0.294696   0.013229
     7  Na   0.292870   0.035441
 Sum of Mulliken charges =  -0.00000   1.00000

 Dipole moment (field-independent basis, Debye):
    X=             -0.0087    Y=              0.0658    Z=              0.2953  Tot=              0.3027
 Quadrupole moment (field-independent basis, Debye-Ang):
   XX=            -57.1461   YY=            -63.5700   ZZ=            -73.1095
   XY=             -0.6927   XZ=              0.6988   YZ=              1.1142

 Normal termination of Gaussian 16 at Tue Dec  5 22:35:46 2023.
