 Gaussian 16, Revision B.01,
 Gaussian 16:  ES64L-G16RevB.01 20-Dec-2017

 -------------------------
 #P B3LYP/6-311+g(d) force
 -------------------------

 -----
 DPGEN
 -----
 Symbolic Z-matrix:
 Charge =  0 Multiplicity = 2

                         Standard orientation:
 ---------------------------------------------------------------------
 Center     Atomic      Atomic             Coordinates (Angstroms)
 Number     Number       Type             X           Y           Z
 ---------------------------------------------------------------------
      1         11           0        2.544765   -1.461681   -0.582670
      2         11           0       -0.319198    0.026055    1.836684
      3         11           0       -0.568650   -2.745439    0.299661
      4         11           0       -3.146240   -0.542268   -0.270203
      5         11           0        0.034585    0.062883   -1.476071
      6         11           0        2.541101    1.522116    0.454749
      7         11           0       -1.086364    3.138335   -0.262150
 ---------------------------------------------------------------------

 SCF Done:  E(UB3LYP) =  -1136.13419752     A.U. after   21 cycles

 The electronic state is 2-A.
 Alpha  occ. eigenvalues --  -38.44296 -38.43896 -38.43882 -38.43365 -38.43333
 Alpha  occ. eigenvalues --  -38.43249 -38.42914  -2.20118  -2.19755  -2.19660
 Alpha  occ. eigenvalues --   -2.19277  -2.19239  -2.19201  -2.18947  -1.13799
 Alpha  occ. eigenvalues --   -1.13778  -1.13749  -1.13448  -1.13421  -1.13389
 Alpha  occ. eigenvalues --   -1.13343  -1.13312  -1.13301  -1.13016  -1.12989
 Alpha  occ. eigenvalues --   -1.12924  -1.12911  -1.12899  -1.12877  -1.12848
 Alpha  occ. eigenvalues --   -1.12811  -1.12793  -1.12635  -1.12569  -1.12557
 Alpha  occ. eigenvalues --   -0.18863  -0.13100  -0.12443  -0.10560
 Alpha virt. eigenvalues --   -0.05837  -0.05105  -0.04613  -0.03157  -0.02792
 Alpha virt. eigenvalues --   -0.02215  -0.01594  -0.01325  -0.00366  -0.00259
 Alpha virt. eigenvalues --    0.00061   0.00349   0.00800   0.00848   0.00906

  Beta  occ. eigenvalues --  -38.44290 -38.43885 -38.43881 -38.43350 -38.43322
  Beta  occ. eigenvalues --  -38.43163 -38.42855  -2.20110  -2.19738  -2.19661
  Beta  occ. eigenvalues --   -2.19252  -2.19222  -2.19045  -2.18841  -1.13785
  Beta  occ. eigenvalues --   -1.13768  -1.13742  -1.13440  -1.13383  -1.13382
  Beta  occ. eigenvalues --   -1.13333  -1.13313  -1.13298  -1.12989  -1.12952
  Beta  occ. eigenvalues --   -1.12906  -1.12877  -1.12866  -1.12836  -1.12786
  Beta  occ. eigenvalues --   -1.12702  -1.12688  -1.12556  -1.12493  -1.12479
  Beta  occ. eigenvalues --   -0.18149  -0.12846  -0.12184
  Beta virt. eigenvalues --   -0.06673  -0.05811  -0.05046  -0.04571  -0.02390
  Beta virt. eigenvalues --   -0.02083  -0.01504  -0.01321  -0.01143  -0.00347
  Beta virt. eigenvalues --   -0.00281   0.00164   0.00382   0.00804   0.00888

 Mulliken charges and spin densities:
               1          2
     1  Na   0.270737   0.068067
     2  Na  -0.146953   0.538450
     3  Na   0.321797   0.092267
     4  Na  -0.065572  -0.072599
     5  Na  -0.263636   0.405918
     6  Na   0.072667   0.043252
     7  Na  -0.189039  -0.075355
 Sum of Mulliken charges =  -0.00000   1.00000

 Dipole moment (field-independent basis, Debye):
    X=             -0.4003    Y=              0.2178    Z=              0.1196  Tot=              0.4711
 Quadrupole moment (field-independent basis, Debye-Ang):
   XX=            -56.1021   YY=            -60.2223   ZZ=            -75.4448
   XY=              0.3289   XZ=              0.9814   YZ=              0.4048

 Normal termination of Gaussian 16 at Tue Dec  5 11:51:59 2023.
