 Gaussian 16, Revision B.01,
 Gaussian 16:  ES64L-G16RevB.01 20-Dec-2017

 -------------------------
 #P B3LYP/6-311+g(d) force
 -------------------------

 -----
 DPGEN
 -----
 Symbolic Z-matrix:
 Charge =  0 Multiplicity = 2

                         Standard orientation:
 ---------------------------------------------------------------------
 Center     Atomic      Atomic             Coordinates (Angstroms)
 Number     Number       Type             X           Y           Z
 ---------------------------------------------------------------------
      1         11           0        4.433817   -1.009431   -0.298411
      2         11           0       -3.155061    3.018767   -0.451530
      3         11           0       -0.126452    2.554183    0.282846
      4         11           0        1.329427   -2.775273   -0.619883
      5         11           0       -2.142081   -2.899500    0.870421
      6         11           0        3.779081    2.073805    0.445036
      7         11           0       -4.118730   -0.962552   -0.228478
 ---------------------------------------------------------------------

 SCF Done:  E(UB3LYP) =  -1136.10757268     A.U. after   22 cycles

 The electronic state is 2-A.
 Alpha  occ. eigenvalues --  -38.45057 -38.44941 -38.44833 -38.44403 -38.44138
 Alpha  occ. eigenvalues --  -38.44062 -38.44059  -2.20838  -2.20759  -2.20603
 Alpha  occ. eigenvalues --   -2.20187  -2.19952  -2.19876  -2.19865  -1.14516
 Alpha  occ. eigenvalues --   -1.14510  -1.14494  -1.14465  -1.14404  -1.14372
 Alpha  occ. eigenvalues --   -1.14282  -1.14272  -1.14251  -1.13845  -1.13838
 Alpha  occ. eigenvalues --   -1.13796  -1.13597  -1.13592  -1.13583  -1.13559
 Alpha  occ. eigenvalues --   -1.13531  -1.13520  -1.13517  -1.13514  -1.13503
 Alpha  occ. eigenvalues --   -0.15687  -0.14146  -0.13183  -0.10816
 Alpha virt. eigenvalues --   -0.07577  -0.04784  -0.04440  -0.03666  -0.03497
 Alpha virt. eigenvalues --   -0.02537  -0.02450  -0.01732  -0.01060  -0.00678
 Alpha virt. eigenvalues --   -0.00630  -0.00287   0.00152   0.00435   0.00546

  Beta  occ. eigenvalues --  -38.45060 -38.44893 -38.44825 -38.44321 -38.44072
  Beta  occ. eigenvalues --  -38.44057 -38.44038  -2.20850  -2.20671  -2.20593
  Beta  occ. eigenvalues --   -2.20036  -2.19878  -2.19827  -2.19821  -1.14531
  Beta  occ. eigenvalues --   -1.14519  -1.14460  -1.14402  -1.14346  -1.14308
  Beta  occ. eigenvalues --   -1.14278  -1.14269  -1.14223  -1.13743  -1.13736
  Beta  occ. eigenvalues --   -1.13695  -1.13549  -1.13536  -1.13512  -1.13511
  Beta  occ. eigenvalues --   -1.13500  -1.13497  -1.13488  -1.13485  -1.13475
  Beta  occ. eigenvalues --   -0.15168  -0.13478  -0.12532
  Beta virt. eigenvalues --   -0.07631  -0.07552  -0.04465  -0.03987  -0.03460
  Beta virt. eigenvalues --   -0.03066  -0.02404  -0.02187  -0.01517  -0.00883
  Beta virt. eigenvalues --   -0.00448  -0.00294  -0.00098   0.00246   0.00520

 Mulliken charges and spin densities:
               1          2
     1  Na   0.195966  -0.040176
     2  Na   1.187334   0.004010
     3  Na  -1.071470   0.117884
     4  Na  -0.278355   0.407237
     5  Na  -0.185966  -0.015861
     6  Na   0.105856   0.311192
     7  Na   0.046635   0.215715
 Sum of Mulliken charges =  -0.00000   1.00000

 Dipole moment (field-independent basis, Debye):
    X=             -0.2597    Y=              0.1170    Z=             -0.1146  Tot=              0.3070
 Quadrupole moment (field-independent basis, Debye-Ang):
   XX=            -55.4125   YY=            -72.4608   ZZ=            -72.4038
   XY=             -4.9784   XZ=              2.2356   YZ=             -0.7633

 Normal termination of Gaussian 16 at Mon Dec  4 03:32:10 2023.
