 Gaussian 16, Revision B.01,
 Gaussian 16:  ES64L-G16RevB.01 20-Dec-2017

 -------------------------
 #P B3LYP/6-311+g(d) force
 -------------------------

 -----
 DPGEN
 -----
 Symbolic Z-matrix:
 Charge =  0 Multiplicity = 2

                         Standard orientation:
 ---------------------------------------------------------------------
 Center     Atomic      Atomic             Coordinates (Angstroms)
 Number     Number       Type             X           Y           Z
 ---------------------------------------------------------------------
      1         11           0       -3.753066    0.616539    0.896162
      2         11           0       -0.836984    0.109524   -0.270016
      3         11           0       -0.279737    3.139253   -1.375812
      4         11           0        2.740265    1.960718    0.493775
      5         11           0        0.610490   -1.202193    2.628547
      6         11           0        2.610529   -1.729355   -0.755001
      7         11           0       -1.091497   -2.894485   -1.617656
 ---------------------------------------------------------------------

 SCF Done:  E(UB3LYP) =  -1136.11470463     A.U. after   21 cycles

 The electronic state is 2-A.
 Alpha  occ. eigenvalues --  -38.44935 -38.44719 -38.44616 -38.44381 -38.44108
 Alpha  occ. eigenvalues --  -38.43951 -38.42457  -2.20724  -2.20483  -2.20363
 Alpha  occ. eigenvalues --   -2.20169  -2.19856  -2.19733  -2.18421  -1.14386
 Alpha  occ. eigenvalues --   -1.14351  -1.14325  -1.14152  -1.14134  -1.14120
 Alpha  occ. eigenvalues --   -1.14051  -1.14021  -1.13999  -1.13844  -1.13809
 Alpha  occ. eigenvalues --   -1.13778  -1.13545  -1.13516  -1.13492  -1.13427
 Alpha  occ. eigenvalues --   -1.13388  -1.13343  -1.12149  -1.12074  -1.12062
 Alpha  occ. eigenvalues --   -0.16967  -0.12217  -0.12125  -0.11068
 Alpha virt. eigenvalues --   -0.06461  -0.05474  -0.04679  -0.03224  -0.02912
 Alpha virt. eigenvalues --   -0.02495  -0.01880  -0.01289  -0.00879  -0.00350
 Alpha virt. eigenvalues --   -0.00151   0.00157   0.00228   0.00401   0.00684

  Beta  occ. eigenvalues --  -38.44834 -38.44706 -38.44619 -38.44324 -38.44114
  Beta  occ. eigenvalues --  -38.43935 -38.42446  -2.20535  -2.20458  -2.20371
  Beta  occ. eigenvalues --   -2.20064  -2.19868  -2.19703  -2.18406  -1.14255
  Beta  occ. eigenvalues --   -1.14223  -1.14194  -1.14135  -1.14115  -1.14103
  Beta  occ. eigenvalues --   -1.14052  -1.14026  -1.13996  -1.13771  -1.13738
  Beta  occ. eigenvalues --   -1.13705  -1.13551  -1.13525  -1.13496  -1.13405
  Beta  occ. eigenvalues --   -1.13368  -1.13324  -1.12096  -1.12070  -1.12056
  Beta  occ. eigenvalues --   -0.16361  -0.12080  -0.11723
  Beta virt. eigenvalues --   -0.07490  -0.06032  -0.05363  -0.04314  -0.02753
  Beta virt. eigenvalues --   -0.02561  -0.01850  -0.01743  -0.01090  -0.00610
  Beta virt. eigenvalues --   -0.00298  -0.00017   0.00301   0.00317   0.00506

 Mulliken charges and spin densities:
               1          2
     1  Na   0.241463   0.126569
     2  Na  -1.434943   0.291607
     3  Na   0.477356  -0.097571
     4  Na   0.021876   0.032085
     5  Na   0.035588   0.480948
     6  Na   0.538500  -0.102277
     7  Na   0.120161   0.268638
 Sum of Mulliken charges =  -0.00000   1.00000

 Dipole moment (field-independent basis, Debye):
    X=             -0.0548    Y=             -0.3602    Z=              0.2835  Tot=              0.4617
 Quadrupole moment (field-independent basis, Debye-Ang):
   XX=            -57.5943   YY=            -65.7711   ZZ=            -68.0553
   XY=             -0.8351   XZ=             -0.8637   YZ=              0.5564

 Normal termination of Gaussian 16 at Tue Dec  5 19:33:14 2023.
