 Gaussian 16, Revision B.01,
 Gaussian 16:  ES64L-G16RevB.01 20-Dec-2017

 -------------------------
 #P B3LYP/6-311+g(d) force
 -------------------------

 -----
 DPGEN
 -----
 Symbolic Z-matrix:
 Charge =  0 Multiplicity = 2

                         Standard orientation:
 ---------------------------------------------------------------------
 Center     Atomic      Atomic             Coordinates (Angstroms)
 Number     Number       Type             X           Y           Z
 ---------------------------------------------------------------------
      1         11           0        0.362558   -2.708764   -0.958628
      2         11           0        3.357153   -0.760236    1.231022
      3         11           0       -2.916535   -1.975584   -0.266852
      4         11           0       -0.218205    0.331552    2.534619
      5         11           0        2.762368    0.788125   -1.837498
      6         11           0       -3.300278    1.269132   -0.317345
      7         11           0       -0.047060    3.055775   -0.385318
 ---------------------------------------------------------------------

 SCF Done:  E(UB3LYP) =  -1136.11512621     A.U. after   21 cycles

 The electronic state is 2-A.
 Alpha  occ. eigenvalues --  -38.45157 -38.45125 -38.44636 -38.44544 -38.44424
 Alpha  occ. eigenvalues --  -38.43868 -38.43528  -2.20912  -2.20893  -2.20413
 Alpha  occ. eigenvalues --   -2.20323  -2.20169  -2.19620  -2.19334  -1.14581
 Alpha  occ. eigenvalues --   -1.14573  -1.14559  -1.14540  -1.14538  -1.14499
 Alpha  occ. eigenvalues --   -1.14093  -1.14084  -1.14046  -1.13990  -1.13966
 Alpha  occ. eigenvalues --   -1.13947  -1.13856  -1.13845  -1.13790  -1.13303
 Alpha  occ. eigenvalues --   -1.13289  -1.13253  -1.13008  -1.12993  -1.12984
 Alpha  occ. eigenvalues --   -0.16556  -0.13323  -0.11803  -0.11226
 Alpha virt. eigenvalues --   -0.06861  -0.05744  -0.04875  -0.03468  -0.03108
 Alpha virt. eigenvalues --   -0.02884  -0.01934  -0.01242  -0.00783  -0.00579
 Alpha virt. eigenvalues --   -0.00441  -0.00112   0.00218   0.00372   0.00521

  Beta  occ. eigenvalues --  -38.45146 -38.45020 -38.44635 -38.44491 -38.44418
  Beta  occ. eigenvalues --  -38.43863 -38.43528  -2.20895  -2.20700  -2.20412
  Beta  occ. eigenvalues --   -2.20224  -2.20158  -2.19611  -2.19334  -1.14572
  Beta  occ. eigenvalues --   -1.14554  -1.14532  -1.14412  -1.14408  -1.14357
  Beta  occ. eigenvalues --   -1.14089  -1.14083  -1.14046  -1.13922  -1.13901
  Beta  occ. eigenvalues --   -1.13877  -1.13845  -1.13836  -1.13785  -1.13292
  Beta  occ. eigenvalues --   -1.13282  -1.13243  -1.13006  -1.12992  -1.12984
  Beta  occ. eigenvalues --   -0.15961  -0.13127  -0.11678
  Beta virt. eigenvalues --   -0.07406  -0.06740  -0.05400  -0.04417  -0.03221
  Beta virt. eigenvalues --   -0.02403  -0.02262  -0.01878  -0.01151  -0.00703
  Beta virt. eigenvalues --   -0.00540  -0.00183   0.00237   0.00396   0.00422

 Mulliken charges and spin densities:
               1          2
     1  Na  -0.141740   0.024195
     2  Na   0.289332  -0.052836
     3  Na   0.095501  -0.008678
     4  Na  -0.249819   0.671541
     5  Na  -0.061673   0.370329
     6  Na   0.096201  -0.035149
     7  Na  -0.027803   0.030598
 Sum of Mulliken charges =  -0.00000   1.00000

 Dipole moment (field-independent basis, Debye):
    X=              0.4558    Y=             -0.0371    Z=              0.1782  Tot=              0.4908
 Quadrupole moment (field-independent basis, Debye-Ang):
   XX=            -57.1747   YY=            -72.7711   ZZ=            -69.7736
   XY=             -2.7720   XZ=              0.3940   YZ=             -1.4724

 Normal termination of Gaussian 16 at Sun Dec  3 23:01:55 2023.
