 Gaussian 16, Revision B.01,
 Gaussian 16:  ES64L-G16RevB.01 20-Dec-2017

 -------------------------
 #P B3LYP/6-311+g(d) force
 -------------------------

 -----
 DPGEN
 -----
 Symbolic Z-matrix:
 Charge =  0 Multiplicity = 2

                         Standard orientation:
 ---------------------------------------------------------------------
 Center     Atomic      Atomic             Coordinates (Angstroms)
 Number     Number       Type             X           Y           Z
 ---------------------------------------------------------------------
      1         11           0       -0.213545    1.466238    1.318834
      2         11           0        1.093412    3.932221   -0.434292
      3         11           0        2.813082    0.499927   -0.548892
      4         11           0        4.104949   -2.370896   -0.190174
      5         11           0        1.153742   -2.030659    0.398353
      6         11           0       -2.783949   -0.753455   -0.216488
      7         11           0       -6.167691   -0.743377   -0.327340
 ---------------------------------------------------------------------

 SCF Done:  E(UB3LYP) =  -1136.12075276     A.U. after   20 cycles

 The electronic state is 2-A.
 Alpha  occ. eigenvalues --  -38.44754 -38.44498 -38.44416 -38.44158 -38.43992
 Alpha  occ. eigenvalues --  -38.43795 -38.43051  -2.20637  -2.20383  -2.20318
 Alpha  occ. eigenvalues --   -2.19994  -2.19792  -2.19590  -2.18828  -1.14371
 Alpha  occ. eigenvalues --   -1.14331  -1.14258  -1.14114  -1.14020  -1.14011
 Alpha  occ. eigenvalues --   -1.13998  -1.13979  -1.13856  -1.13690  -1.13667
 Alpha  occ. eigenvalues --   -1.13618  -1.13451  -1.13449  -1.13407  -1.13229
 Alpha  occ. eigenvalues --   -1.13229  -1.13209  -1.12525  -1.12520  -1.12463
 Alpha  occ. eigenvalues --   -0.17376  -0.13670  -0.12723  -0.10787
 Alpha virt. eigenvalues --   -0.06041  -0.05450  -0.05165  -0.03628  -0.02496
 Alpha virt. eigenvalues --   -0.02242  -0.02169  -0.01593  -0.01284  -0.00752
 Alpha virt. eigenvalues --   -0.00500   0.00028   0.00206   0.00436   0.00589

  Beta  occ. eigenvalues --  -38.44736 -38.44480 -38.44382 -38.44138 -38.43971
  Beta  occ. eigenvalues --  -38.43707 -38.43060  -2.20605  -2.20350  -2.20257
  Beta  occ. eigenvalues --   -2.19959  -2.19751  -2.19426  -2.18853  -1.14336
  Beta  occ. eigenvalues --   -1.14312  -1.14230  -1.14085  -1.13997  -1.13982
  Beta  occ. eigenvalues --   -1.13959  -1.13941  -1.13802  -1.13668  -1.13644
  Beta  occ. eigenvalues --   -1.13576  -1.13423  -1.13419  -1.13381  -1.13117
  Beta  occ. eigenvalues --   -1.13117  -1.13103  -1.12550  -1.12545  -1.12425
  Beta  occ. eigenvalues --   -0.16858  -0.13400  -0.11995
  Beta virt. eigenvalues --   -0.07476  -0.05903  -0.05107  -0.04618  -0.03375
  Beta virt. eigenvalues --   -0.02363  -0.02147  -0.01892  -0.01143  -0.00974
  Beta virt. eigenvalues --   -0.00460  -0.00167   0.00160   0.00381   0.00541

 Mulliken charges and spin densities:
               1          2
     1  Na  -0.209027   0.111444
     2  Na   0.485799   0.048632
     3  Na  -0.917044   0.199768
     4  Na   1.498983   0.213314
     5  Na  -0.449541  -0.037282
     6  Na  -0.307512   0.063894
     7  Na  -0.101659   0.400229
 Sum of Mulliken charges =  -0.00000   1.00000

 Dipole moment (field-independent basis, Debye):
    X=              2.4238    Y=             -0.1015    Z=              0.0919  Tot=              2.4276
 Quadrupole moment (field-independent basis, Debye-Ang):
   XX=            -64.9339   YY=            -61.3652   ZZ=            -70.2473
   XY=             -7.9628   XZ=             -1.3145   YZ=             -0.9995

 Normal termination of Gaussian 16 at Tue Nov 28 22:18:01 2023.
