 Gaussian 16, Revision B.01,
 Gaussian 16:  ES64L-G16RevB.01 20-Dec-2017

 -------------------------
 #P B3LYP/6-311+g(d) force
 -------------------------

 -----
 DPGEN
 -----
 Symbolic Z-matrix:
 Charge =  0 Multiplicity = 2

                         Standard orientation:
 ---------------------------------------------------------------------
 Center     Atomic      Atomic             Coordinates (Angstroms)
 Number     Number       Type             X           Y           Z
 ---------------------------------------------------------------------
      1         11           0        0.633359    1.810046   -0.409086
      2         11           0       -2.497273    3.301267    0.268133
      3         11           0       -2.644756    0.341018   -0.458671
      4         11           0       -3.210786   -2.858541    0.713072
      5         11           0       -0.316689   -2.132300   -1.064458
      6         11           0        2.518323   -0.230922    1.193351
      7         11           0        5.517822   -0.230569   -0.242342
 ---------------------------------------------------------------------

 SCF Done:  E(UB3LYP) =  -1136.12168588     A.U. after   18 cycles

 The electronic state is 2-A.
 Alpha  occ. eigenvalues --  -38.44531 -38.44232 -38.44145 -38.44041 -38.43782
 Alpha  occ. eigenvalues --  -38.43578 -38.43419  -2.20341  -2.20034  -2.19951
 Alpha  occ. eigenvalues --   -2.19892  -2.19610  -2.19490  -2.19265  -1.14041
 Alpha  occ. eigenvalues --   -1.14009  -1.13941  -1.13702  -1.13694  -1.13650
 Alpha  occ. eigenvalues --   -1.13602  -1.13590  -1.13587  -1.13573  -1.13566
 Alpha  occ. eigenvalues --   -1.13502  -1.13293  -1.13265  -1.13250  -1.13213
 Alpha  occ. eigenvalues --   -1.13171  -1.13145  -1.12911  -1.12908  -1.12872
 Alpha  occ. eigenvalues --   -0.17025  -0.13754  -0.12622  -0.10477
 Alpha virt. eigenvalues --   -0.06305  -0.05188  -0.04966  -0.03456  -0.03016
 Alpha virt. eigenvalues --   -0.02452  -0.01499  -0.01182  -0.00986  -0.00716
 Alpha virt. eigenvalues --   -0.00691  -0.00001   0.00350   0.00459   0.00556

  Beta  occ. eigenvalues --  -38.44509 -38.44208 -38.44043 -38.44014 -38.43788
  Beta  occ. eigenvalues --  -38.43562 -38.43401  -2.20300  -2.19990  -2.19844
  Beta  occ. eigenvalues --   -2.19760  -2.19627  -2.19464  -2.19232  -1.14015
  Beta  occ. eigenvalues --   -1.13982  -1.13901  -1.13670  -1.13661  -1.13624
  Beta  occ. eigenvalues --   -1.13571  -1.13524  -1.13476  -1.13462  -1.13457
  Beta  occ. eigenvalues --   -1.13450  -1.13305  -1.13280  -1.13213  -1.13185
  Beta  occ. eigenvalues --   -1.13142  -1.13123  -1.12888  -1.12880  -1.12855
  Beta  occ. eigenvalues --   -0.16518  -0.13083  -0.12438
  Beta virt. eigenvalues --   -0.07107  -0.05813  -0.04894  -0.04774  -0.03062
  Beta virt. eigenvalues --   -0.02733  -0.02315  -0.01332  -0.00949  -0.00735
  Beta virt. eigenvalues --   -0.00418  -0.00250   0.00220   0.00484   0.00586

 Mulliken charges and spin densities:
               1          2
     1  Na  -0.670779  -0.078757
     2  Na   0.705586   0.107214
     3  Na  -0.601675   0.334119
     4  Na   0.402085   0.109216
     5  Na  -0.055668   0.067879
     6  Na   0.196517  -0.056333
     7  Na   0.023934   0.516663
 Sum of Mulliken charges =  -0.00000   1.00000

 Dipole moment (field-independent basis, Debye):
    X=             -0.6708    Y=             -0.5337    Z=              0.0172  Tot=              0.8574
 Quadrupole moment (field-independent basis, Debye-Ang):
   XX=            -73.0264   YY=            -62.8777   ZZ=            -66.2389
   XY=              2.0832   XZ=             -5.9053   YZ=             -0.4395

 Normal termination of Gaussian 16 at Wed Nov 29 01:39:20 2023.
