 Gaussian 16, Revision B.01,
 Gaussian 16:  ES64L-G16RevB.01 20-Dec-2017

 -------------------------
 #P B3LYP/6-311+g(d) force
 -------------------------

 -----
 DPGEN
 -----
 Symbolic Z-matrix:
 Charge =  0 Multiplicity = 2

                         Standard orientation:
 ---------------------------------------------------------------------
 Center     Atomic      Atomic             Coordinates (Angstroms)
 Number     Number       Type             X           Y           Z
 ---------------------------------------------------------------------
      1         11           0       -2.788952   -1.438754   -0.003481
      2         11           0        3.068730   -0.270401   -0.554115
      3         11           0       -0.115047   -0.197364   -1.763985
      4         11           0        0.179976    0.083646    1.969049
      5         11           0       -2.137258    2.037007   -0.270990
      6         11           0        1.146498    2.540473    0.302522
      7         11           0        0.646054   -2.754608    0.321000
 ---------------------------------------------------------------------

 SCF Done:  E(UB3LYP) =  -1136.14006198     A.U. after   17 cycles

 The electronic state is 2-A.
 Alpha  occ. eigenvalues --  -38.43795 -38.43783 -38.43604 -38.43476 -38.43379
 Alpha  occ. eigenvalues --  -38.43372 -38.43173  -2.19626  -2.19617  -2.19542
 Alpha  occ. eigenvalues --   -2.19335  -2.19334  -2.19245  -2.19069  -1.13310
 Alpha  occ. eigenvalues --   -1.13299  -1.13284  -1.13276  -1.13268  -1.13256
 Alpha  occ. eigenvalues --   -1.13227  -1.13199  -1.13151  -1.13053  -1.13017
 Alpha  occ. eigenvalues --   -1.12994  -1.12974  -1.12967  -1.12941  -1.12924
 Alpha  occ. eigenvalues --   -1.12896  -1.12858  -1.12757  -1.12718  -1.12687
 Alpha  occ. eigenvalues --   -0.18845  -0.12878  -0.12593  -0.11042
 Alpha virt. eigenvalues --   -0.05404  -0.05019  -0.04625  -0.03199  -0.03108
 Alpha virt. eigenvalues --   -0.02699  -0.01433  -0.01042  -0.00238  -0.00136
 Alpha virt. eigenvalues --    0.00025   0.00365   0.00849   0.00908   0.00932

  Beta  occ. eigenvalues --  -38.43794 -38.43769 -38.43513 -38.43472 -38.43369
  Beta  occ. eigenvalues --  -38.43303 -38.43164  -2.19619  -2.19602  -2.19376
  Beta  occ. eigenvalues --   -2.19329  -2.19230  -2.19209  -2.19056  -1.13292
  Beta  occ. eigenvalues --   -1.13282  -1.13282  -1.13256  -1.13252  -1.13249
  Beta  occ. eigenvalues --   -1.13118  -1.13083  -1.13042  -1.13026  -1.12981
  Beta  occ. eigenvalues --   -1.12965  -1.12948  -1.12907  -1.12890  -1.12857
  Beta  occ. eigenvalues --   -1.12854  -1.12843  -1.12736  -1.12692  -1.12679
  Beta  occ. eigenvalues --   -0.18108  -0.12617  -0.12331
  Beta virt. eigenvalues --   -0.07122  -0.05371  -0.04997  -0.04578  -0.02450
  Beta virt. eigenvalues --   -0.02294  -0.01655  -0.01323  -0.00974  -0.00253
  Beta virt. eigenvalues --   -0.00165   0.00120   0.00386   0.00883   0.00921

 Mulliken charges and spin densities:
               1          2
     1  Na   0.008518  -0.105372
     2  Na   0.081194   0.011791
     3  Na  -0.233031   0.582532
     4  Na  -0.264135   0.623178
     5  Na   0.046609  -0.083960
     6  Na   0.247064   0.012993
     7  Na   0.113782  -0.041163
 Sum of Mulliken charges =  -0.00000   1.00000

 Dipole moment (field-independent basis, Debye):
    X=             -0.0760    Y=             -0.1655    Z=              0.0045  Tot=              0.1822
 Quadrupole moment (field-independent basis, Debye-Ang):
   XX=            -57.7331   YY=            -63.3562   ZZ=            -72.8226
   XY=              0.1477   XZ=             -0.9319   YZ=             -0.7349

 Normal termination of Gaussian 16 at Fri Dec  8 04:01:40 2023.
