 Gaussian 16, Revision B.01,
 Gaussian 16:  ES64L-G16RevB.01 20-Dec-2017

 -------------------------
 #P B3LYP/6-311+g(d) force
 -------------------------

 -----
 DPGEN
 -----
 Symbolic Z-matrix:
 Charge =  0 Multiplicity = 2

                         Standard orientation:
 ---------------------------------------------------------------------
 Center     Atomic      Atomic             Coordinates (Angstroms)
 Number     Number       Type             X           Y           Z
 ---------------------------------------------------------------------
      1         11           0       -3.749154   -0.253249   -0.538111
      2         11           0        1.198140    2.834650   -0.695885
      3         11           0       -1.380646    1.323697    0.899836
      4         11           0       -0.467724   -2.138107    1.218604
      5         11           0        2.561038   -1.790284   -1.118809
      6         11           0       -0.254001   -0.433859   -1.280102
      7         11           0        2.092348    0.457152    1.514468
 ---------------------------------------------------------------------

 SCF Done:  E(UB3LYP) =  -1136.12990548     A.U. after   19 cycles

 The electronic state is 2-A.
 Alpha  occ. eigenvalues --  -38.44430 -38.43760 -38.43742 -38.43688 -38.43197
 Alpha  occ. eigenvalues --  -38.43122 -38.43012  -2.20244  -2.19640  -2.19625
 Alpha  occ. eigenvalues --   -2.19539  -2.19247  -2.19093  -2.18855  -1.13927
 Alpha  occ. eigenvalues --   -1.13901  -1.13869  -1.13401  -1.13315  -1.13294
 Alpha  occ. eigenvalues --   -1.13288  -1.13253  -1.13245  -1.13214  -1.13177
 Alpha  occ. eigenvalues --   -1.13146  -1.13032  -1.12894  -1.12838  -1.12765
 Alpha  occ. eigenvalues --   -1.12744  -1.12685  -1.12517  -1.12506  -1.12494
 Alpha  occ. eigenvalues --   -0.18763  -0.13229  -0.11991  -0.10867
 Alpha virt. eigenvalues --   -0.06116  -0.04690  -0.04326  -0.03219  -0.02803
 Alpha virt. eigenvalues --   -0.02213  -0.02022  -0.00981  -0.00699   0.00146
 Alpha virt. eigenvalues --    0.00262   0.00293   0.00496   0.00823   0.00865

  Beta  occ. eigenvalues --  -38.44426 -38.43719 -38.43704 -38.43655 -38.43152
  Beta  occ. eigenvalues --  -38.43104 -38.43005  -2.20236  -2.19567  -2.19559
  Beta  occ. eigenvalues --   -2.19481  -2.19169  -2.19064  -2.18842  -1.13923
  Beta  occ. eigenvalues --   -1.13889  -1.13864  -1.13356  -1.13259  -1.13238
  Beta  occ. eigenvalues --   -1.13217  -1.13204  -1.13193  -1.13168  -1.13139
  Beta  occ. eigenvalues --   -1.13104  -1.12979  -1.12835  -1.12786  -1.12730
  Beta  occ. eigenvalues --   -1.12688  -1.12669  -1.12502  -1.12499  -1.12480
  Beta  occ. eigenvalues --   -0.18018  -0.13015  -0.11798
  Beta virt. eigenvalues --   -0.06935  -0.05977  -0.04572  -0.04104  -0.02758
  Beta virt. eigenvalues --   -0.02271  -0.01908  -0.01293  -0.00905  -0.00304
  Beta virt. eigenvalues --    0.00158   0.00312   0.00345   0.00614   0.00850

 Mulliken charges and spin densities:
               1          2
     1  Na   0.523076  -0.087988
     2  Na   0.058199  -0.051572
     3  Na  -0.045194   0.268775
     4  Na  -0.213501   0.250998
     5  Na   0.002466   0.011076
     6  Na  -0.458938   0.352183
     7  Na   0.133892   0.256528
 Sum of Mulliken charges =  -0.00000   1.00000

 Dipole moment (field-independent basis, Debye):
    X=             -0.3721    Y=             -0.3045    Z=              0.1386  Tot=              0.5004
 Quadrupole moment (field-independent basis, Debye-Ang):
   XX=            -52.1619   YY=            -68.5358   ZZ=            -70.0690
   XY=              0.9894   XZ=              0.6589   YZ=             -1.5513

 Normal termination of Gaussian 16 at Wed Dec  6 00:37:47 2023.
