 Gaussian 16, Revision B.01,
 Gaussian 16:  ES64L-G16RevB.01 20-Dec-2017

 -------------------------
 #P B3LYP/6-311+g(d) force
 -------------------------

 -----
 DPGEN
 -----
 Symbolic Z-matrix:
 Charge =  0 Multiplicity = 2

                         Standard orientation:
 ---------------------------------------------------------------------
 Center     Atomic      Atomic             Coordinates (Angstroms)
 Number     Number       Type             X           Y           Z
 ---------------------------------------------------------------------
      1         11           0        3.005553    0.289362   -0.056152
      2         11           0       -0.037220   -0.207750    1.749529
      3         11           0       -2.574724    1.428767   -0.173504
      4         11           0        0.717407    2.737776    0.194982
      5         11           0        0.111775    0.018764   -1.681615
      6         11           0        1.125174   -2.644155   -0.069909
      7         11           0       -2.347966   -1.622763    0.036668
 ---------------------------------------------------------------------

 SCF Done:  E(UB3LYP) =  -1136.13859995     A.U. after   19 cycles

 The electronic state is 2-A.
 Alpha  occ. eigenvalues --  -38.43918 -38.43611 -38.43571 -38.43269 -38.43193
 Alpha  occ. eigenvalues --  -38.43041 -38.42989  -2.19793  -2.19512  -2.19492
 Alpha  occ. eigenvalues --   -2.19163  -2.19077  -2.19053  -2.19016  -1.13476
 Alpha  occ. eigenvalues --   -1.13456  -1.13430  -1.13297  -1.13181  -1.13173
 Alpha  occ. eigenvalues --   -1.13147  -1.13139  -1.13065  -1.12880  -1.12846
 Alpha  occ. eigenvalues --   -1.12792  -1.12783  -1.12752  -1.12726  -1.12707
 Alpha  occ. eigenvalues --   -1.12677  -1.12665  -1.12652  -1.12633  -1.12622
 Alpha  occ. eigenvalues --   -0.19379  -0.13346  -0.12633  -0.10709
 Alpha virt. eigenvalues --   -0.05505  -0.05005  -0.04659  -0.03194  -0.02811
 Alpha virt. eigenvalues --   -0.02285  -0.01449  -0.01054  -0.00153  -0.00134
 Alpha virt. eigenvalues --    0.00035   0.00372   0.00852   0.00938   0.00950

  Beta  occ. eigenvalues --  -38.43913 -38.43605 -38.43563 -38.43263 -38.43186
  Beta  occ. eigenvalues --  -38.42959 -38.42913  -2.19787  -2.19504  -2.19483
  Beta  occ. eigenvalues --   -2.19155  -2.19068  -2.18903  -2.18879  -1.13470
  Beta  occ. eigenvalues --   -1.13434  -1.13426  -1.13296  -1.13169  -1.13152
  Beta  occ. eigenvalues --   -1.13132  -1.13104  -1.13063  -1.12868  -1.12805
  Beta  occ. eigenvalues --   -1.12781  -1.12770  -1.12714  -1.12706  -1.12645
  Beta  occ. eigenvalues --   -1.12583  -1.12560  -1.12551  -1.12533  -1.12529
  Beta  occ. eigenvalues --   -0.18640  -0.13069  -0.12358
  Beta virt. eigenvalues --   -0.06765  -0.05489  -0.05007  -0.04653  -0.02351
  Beta virt. eigenvalues --   -0.02010  -0.01365  -0.01234  -0.00994  -0.00201
  Beta virt. eigenvalues --   -0.00195   0.00155   0.00392   0.00894   0.00931

 Mulliken charges and spin densities:
               1          2
     1  Na   0.139880  -0.086635
     2  Na  -0.442571   0.717746
     3  Na   0.121868  -0.036244
     4  Na   0.089346  -0.072884
     5  Na  -0.435510   0.653998
     6  Na   0.203109  -0.123708
     7  Na   0.323878  -0.052273
 Sum of Mulliken charges =  -0.00000   1.00000

 Dipole moment (field-independent basis, Debye):
    X=              0.1541    Y=             -0.0089    Z=              0.0169  Tot=              0.1553
 Quadrupole moment (field-independent basis, Debye-Ang):
   XX=            -56.2977   YY=            -61.8729   ZZ=            -74.7941
   XY=             -0.2754   XZ=              0.3134   YZ=              0.4616

 Normal termination of Gaussian 16 at Tue Dec  5 23:37:14 2023.
