 Gaussian 16, Revision B.01,
 Gaussian 16:  ES64L-G16RevB.01 20-Dec-2017

 -------------------------
 #P B3LYP/6-311+g(d) force
 -------------------------

 -----
 DPGEN
 -----
 Symbolic Z-matrix:
 Charge =  0 Multiplicity = 2

                         Standard orientation:
 ---------------------------------------------------------------------
 Center     Atomic      Atomic             Coordinates (Angstroms)
 Number     Number       Type             X           Y           Z
 ---------------------------------------------------------------------
      1         11           0        1.597813   -1.782625   -0.823480
      2         11           0       -1.819642    2.135338   -0.205241
      3         11           0       -3.736664   -0.395242    0.936161
      4         11           0       -1.330748   -1.063708   -1.577617
      5         11           0        3.678871    0.265043    1.301247
      6         11           0        1.833779    1.484702   -1.148989
      7         11           0       -0.223409   -0.643507    1.517920
 ---------------------------------------------------------------------

 SCF Done:  E(UB3LYP) =  -1136.12283951     A.U. after   25 cycles

 The electronic state is 2-A.
 Alpha  occ. eigenvalues --  -38.44921 -38.44752 -38.44189 -38.43987 -38.43623
 Alpha  occ. eigenvalues --  -38.42878 -38.42606  -2.20752  -2.20653  -2.20008
 Alpha  occ. eigenvalues --   -2.19851  -2.19471  -2.18820  -2.18563  -1.14424
 Alpha  occ. eigenvalues --   -1.14397  -1.14385  -1.14358  -1.14301  -1.14268
 Alpha  occ. eigenvalues --   -1.13678  -1.13665  -1.13650  -1.13521  -1.13517
 Alpha  occ. eigenvalues --   -1.13467  -1.13152  -1.13145  -1.13087  -1.12532
 Alpha  occ. eigenvalues --   -1.12467  -1.12462  -1.12248  -1.12236  -1.12155
 Alpha  occ. eigenvalues --   -0.18680  -0.14329  -0.11391  -0.10812
 Alpha virt. eigenvalues --   -0.06782  -0.05288  -0.04688  -0.03148  -0.02751
 Alpha virt. eigenvalues --   -0.02375  -0.02214  -0.01251  -0.00641  -0.00173
 Alpha virt. eigenvalues --    0.00115   0.00220   0.00408   0.00645   0.00712

  Beta  occ. eigenvalues --  -38.44897 -38.44717 -38.44168 -38.43952 -38.43593
  Beta  occ. eigenvalues --  -38.42853 -38.42599  -2.20708  -2.20589  -2.19967
  Beta  occ. eigenvalues --   -2.19789  -2.19418  -2.18776  -2.18552  -1.14388
  Beta  occ. eigenvalues --   -1.14365  -1.14360  -1.14306  -1.14260  -1.14215
  Beta  occ. eigenvalues --   -1.13654  -1.13637  -1.13616  -1.13483  -1.13470
  Beta  occ. eigenvalues --   -1.13407  -1.13118  -1.13104  -1.13033  -1.12508
  Beta  occ. eigenvalues --   -1.12438  -1.12407  -1.12245  -1.12210  -1.12141
  Beta  occ. eigenvalues --   -0.17969  -0.14126  -0.10615
  Beta virt. eigenvalues --   -0.07598  -0.06517  -0.04661  -0.04586  -0.02843
  Beta virt. eigenvalues --   -0.02470  -0.01865  -0.01566  -0.00846  -0.00563
  Beta virt. eigenvalues --   -0.00091   0.00145   0.00321   0.00436   0.00759

 Mulliken charges and spin densities:
               1          2
     1  Na   0.397238   0.100270
     2  Na  -0.254834   0.113205
     3  Na   0.823496   0.097265
     4  Na  -0.173653   0.287956
     5  Na   0.413368   0.066365
     6  Na  -0.466979   0.079899
     7  Na  -0.738636   0.255040
 Sum of Mulliken charges =  -0.00000   1.00000

 Dipole moment (field-independent basis, Debye):
    X=             -0.6639    Y=             -0.4472    Z=              0.4191  Tot=              0.9035
 Quadrupole moment (field-independent basis, Debye-Ang):
   XX=            -51.2499   YY=            -77.0667   ZZ=            -67.5312
   XY=              0.5840   XZ=              0.1837   YZ=             -3.7015

 Normal termination of Gaussian 16 at Tue Dec  5 11:25:42 2023.
