 Gaussian 16, Revision B.01,
 Gaussian 16:  ES64L-G16RevB.01 20-Dec-2017

 -------------------------
 #P B3LYP/6-311+g(d) force
 -------------------------

 -----
 DPGEN
 -----
 Symbolic Z-matrix:
 Charge =  0 Multiplicity = 2

                         Standard orientation:
 ---------------------------------------------------------------------
 Center     Atomic      Atomic             Coordinates (Angstroms)
 Number     Number       Type             X           Y           Z
 ---------------------------------------------------------------------
      1         11           0        0.425406    3.291218   -0.102185
      2         11           0       -0.377474   -3.235325    0.000003
      3         11           0        3.008667   -1.957167    0.592757
      4         11           0        3.059831    1.269609   -0.511916
      5         11           0       -3.445275   -1.413411   -0.502703
      6         11           0       -2.694203    2.036766    0.705710
      7         11           0        0.023049    0.008312   -0.181667
 ---------------------------------------------------------------------

 SCF Done:  E(UB3LYP) =  -1136.12894516     A.U. after   24 cycles

 The electronic state is 2-A.
 Alpha  occ. eigenvalues --  -38.44449 -38.44128 -38.43986 -38.43743 -38.43659
 Alpha  occ. eigenvalues --  -38.43565 -38.43308  -2.20264  -2.19931  -2.19844
 Alpha  occ. eigenvalues --   -2.19690  -2.19538  -2.19401  -2.19154  -1.13973
 Alpha  occ. eigenvalues --   -1.13948  -1.13871  -1.13603  -1.13573  -1.13563
 Alpha  occ. eigenvalues --   -1.13549  -1.13520  -1.13483  -1.13420  -1.13346
 Alpha  occ. eigenvalues --   -1.13329  -1.13197  -1.13183  -1.13174  -1.13061
 Alpha  occ. eigenvalues --   -1.13040  -1.13027  -1.12811  -1.12793  -1.12784
 Alpha  occ. eigenvalues --   -0.17489  -0.13712  -0.13533  -0.09586
 Alpha virt. eigenvalues --   -0.06702  -0.05554  -0.04274  -0.03432  -0.02691
 Alpha virt. eigenvalues --   -0.02278  -0.01797  -0.01406  -0.01352  -0.00343
 Alpha virt. eigenvalues --   -0.00061   0.00296   0.00545   0.00668   0.00692

  Beta  occ. eigenvalues --  -38.44441 -38.44090 -38.43972 -38.43754 -38.43621
  Beta  occ. eigenvalues --  -38.43518 -38.43247  -2.20255  -2.19864  -2.19827
  Beta  occ. eigenvalues --   -2.19708  -2.19471  -2.19315  -2.19042  -1.13975
  Beta  occ. eigenvalues --   -1.13947  -1.13820  -1.13558  -1.13548  -1.13525
  Beta  occ. eigenvalues --   -1.13516  -1.13508  -1.13423  -1.13412  -1.13361
  Beta  occ. eigenvalues --   -1.13348  -1.13154  -1.13147  -1.13109  -1.13002
  Beta  occ. eigenvalues --   -1.12979  -1.12971  -1.12734  -1.12721  -1.12706
  Beta  occ. eigenvalues --   -0.17205  -0.13121  -0.12791
  Beta virt. eigenvalues --   -0.06770  -0.06374  -0.05266  -0.04146  -0.02804
  Beta virt. eigenvalues --   -0.02141  -0.02049  -0.01681  -0.01254  -0.01080
  Beta virt. eigenvalues --   -0.00145   0.00230   0.00476   0.00570   0.00749

 Mulliken charges and spin densities:
               1          2
     1  Na   1.228872   0.078474
     2  Na   1.254674   0.127544
     3  Na   0.552493   0.260273
     4  Na   0.999516   0.189101
     5  Na   0.768668   0.229007
     6  Na   0.567194   0.310568
     7  Na  -5.371418  -0.194967
 Sum of Mulliken charges =  -0.00000   1.00000

 Dipole moment (field-independent basis, Debye):
    X=              0.0041    Y=             -0.1820    Z=             -0.0126  Tot=              0.1825
 Quadrupole moment (field-independent basis, Debye-Ang):
   XX=            -58.8321   YY=            -64.2757   ZZ=            -72.8270
   XY=              1.1090   XZ=              0.5127   YZ=             -0.4448

 Normal termination of Gaussian 16 at Wed Nov 29 17:07:44 2023.
