 Gaussian 16, Revision B.01,
 Gaussian 16:  ES64L-G16RevB.01 20-Dec-2017

 -------------------------
 #P B3LYP/6-311+g(d) force
 -------------------------

 -----
 DPGEN
 -----
 Symbolic Z-matrix:
 Charge =  0 Multiplicity = 2

                         Standard orientation:
 ---------------------------------------------------------------------
 Center     Atomic      Atomic             Coordinates (Angstroms)
 Number     Number       Type             X           Y           Z
 ---------------------------------------------------------------------
      1         11           0       -0.442614    0.307124    1.360114
      2         11           0       -6.063625   -0.079209    0.103459
      3         11           0       -3.124985    1.227168   -0.882183
      4         11           0       -1.272799   -1.742993   -0.278149
      5         11           0        2.444140   -1.486595    0.034336
      6         11           0        3.091030    2.028940    0.067180
      7         11           0        5.368852   -0.254435   -0.404756
 ---------------------------------------------------------------------

 SCF Done:  E(UB3LYP) =  -1136.11251405     A.U. after   21 cycles

 The electronic state is 2-A.
 Alpha  occ. eigenvalues --  -38.44480 -38.44327 -38.44170 -38.44158 -38.44079
 Alpha  occ. eigenvalues --  -38.43908 -38.43898  -2.20387  -2.20143  -2.20072
 Alpha  occ. eigenvalues --   -2.20001  -2.19836  -2.19770  -2.19754  -1.14285
 Alpha  occ. eigenvalues --   -1.14035  -1.13969  -1.13832  -1.13805  -1.13769
 Alpha  occ. eigenvalues --   -1.13702  -1.13689  -1.13670  -1.13659  -1.13656
 Alpha  occ. eigenvalues --   -1.13634  -1.13504  -1.13502  -1.13472  -1.13466
 Alpha  occ. eigenvalues --   -1.13465  -1.13444  -1.13404  -1.13386  -1.13317
 Alpha  occ. eigenvalues --   -0.17214  -0.14612  -0.11639  -0.10423
 Alpha virt. eigenvalues --   -0.06493  -0.05691  -0.05210  -0.03287  -0.02799
 Alpha virt. eigenvalues --   -0.02361  -0.02265  -0.01434  -0.00821  -0.00714
 Alpha virt. eigenvalues --   -0.00173  -0.00070   0.00120   0.00278   0.00655

  Beta  occ. eigenvalues --  -38.44461 -38.44323 -38.44135 -38.44112 -38.44079
  Beta  occ. eigenvalues --  -38.43895 -38.43855  -2.20352  -2.20135  -2.20033
  Beta  occ. eigenvalues --   -2.19892  -2.19837  -2.19731  -2.19692  -1.14262
  Beta  occ. eigenvalues --   -1.14012  -1.13933  -1.13824  -1.13801  -1.13759
  Beta  occ. eigenvalues --   -1.13672  -1.13661  -1.13613  -1.13597  -1.13589
  Beta  occ. eigenvalues --   -1.13554  -1.13505  -1.13503  -1.13466  -1.13435
  Beta  occ. eigenvalues --   -1.13417  -1.13388  -1.13377  -1.13357  -1.13270
  Beta  occ. eigenvalues --   -0.16671  -0.14378  -0.11502
  Beta virt. eigenvalues --   -0.06908  -0.06203  -0.05064  -0.04953  -0.03115
  Beta virt. eigenvalues --   -0.02434  -0.02156  -0.01679  -0.01393  -0.00616
  Beta virt. eigenvalues --   -0.00441  -0.00013   0.00122   0.00347   0.00416

 Mulliken charges and spin densities:
               1          2
     1  Na  -0.300813   0.501955
     2  Na   0.173224   0.017259
     3  Na  -0.089548  -0.087812
     4  Na   0.255315   0.075405
     5  Na  -0.606144   0.222489
     6  Na  -0.160322   0.184566
     7  Na   0.728287   0.086137
 Sum of Mulliken charges =  -0.00000   1.00000

 Dipole moment (field-independent basis, Debye):
    X=              0.2744    Y=             -0.2632    Z=             -0.0066  Tot=              0.3803
 Quadrupole moment (field-independent basis, Debye-Ang):
   XX=            -60.9361   YY=            -70.4740   ZZ=            -69.2751
   XY=              4.7870   XZ=             -3.7121   YZ=             -1.1695

 Normal termination of Gaussian 16 at Wed Nov 29 02:16:51 2023.
