 Gaussian 16, Revision B.01,
 Gaussian 16:  ES64L-G16RevB.01 20-Dec-2017

 -------------------------
 #P B3LYP/6-311+g(d) force
 -------------------------

 -----
 DPGEN
 -----
 Symbolic Z-matrix:
 Charge =  0 Multiplicity = 2

                         Standard orientation:
 ---------------------------------------------------------------------
 Center     Atomic      Atomic             Coordinates (Angstroms)
 Number     Number       Type             X           Y           Z
 ---------------------------------------------------------------------
      1         11           0        1.660361    2.562904    0.047572
      2         11           0        3.109623   -0.869866    0.515260
      3         11           0       -1.056932   -0.342312    1.946114
      4         11           0        0.380522    0.269565   -1.803621
      5         11           0       -1.907228    2.336395    0.048139
      6         11           0        0.487765   -2.574213   -0.272325
      7         11           0       -2.674110   -1.382473   -0.481140
 ---------------------------------------------------------------------

 SCF Done:  E(UB3LYP) =  -1136.13555501     A.U. after   19 cycles

 The electronic state is 2-A.
 Alpha  occ. eigenvalues --  -38.43893 -38.43850 -38.43805 -38.43784 -38.43686
 Alpha  occ. eigenvalues --  -38.43372 -38.43183  -2.19726  -2.19711  -2.19627
 Alpha  occ. eigenvalues --   -2.19615  -2.19593  -2.19315  -2.19099  -1.13467
 Alpha  occ. eigenvalues --   -1.13391  -1.13382  -1.13370  -1.13364  -1.13353
 Alpha  occ. eigenvalues --   -1.13337  -1.13316  -1.13290  -1.13283  -1.13263
 Alpha  occ. eigenvalues --   -1.13235  -1.13225  -1.13207  -1.13198  -1.13006
 Alpha  occ. eigenvalues --   -1.12959  -1.12930  -1.12774  -1.12759  -1.12720
 Alpha  occ. eigenvalues --   -0.18571  -0.12985  -0.12666  -0.10757
 Alpha virt. eigenvalues --   -0.05547  -0.05313  -0.04668  -0.03408  -0.03066
 Alpha virt. eigenvalues --   -0.02474  -0.01340  -0.01099  -0.00442  -0.00174
 Alpha virt. eigenvalues --   -0.00038   0.00375   0.00819   0.00864   0.00918

  Beta  occ. eigenvalues --  -38.43882 -38.43840 -38.43804 -38.43779 -38.43616
  Beta  occ. eigenvalues --  -38.43300 -38.43171  -2.19712  -2.19690  -2.19627
  Beta  occ. eigenvalues --   -2.19609  -2.19463  -2.19184  -2.19082  -1.13443
  Beta  occ. eigenvalues --   -1.13380  -1.13358  -1.13348  -1.13344  -1.13339
  Beta  occ. eigenvalues --   -1.13326  -1.13300  -1.13278  -1.13266  -1.13261
  Beta  occ. eigenvalues --   -1.13224  -1.13154  -1.13124  -1.13112  -1.12925
  Beta  occ. eigenvalues --   -1.12867  -1.12835  -1.12759  -1.12719  -1.12703
  Beta  occ. eigenvalues --   -0.17852  -0.12766  -0.12428
  Beta virt. eigenvalues --   -0.06936  -0.05524  -0.05150  -0.04589  -0.02707
  Beta virt. eigenvalues --   -0.02320  -0.01508  -0.01247  -0.01032  -0.00454
  Beta virt. eigenvalues --   -0.00203   0.00124   0.00413   0.00852   0.00903

 Mulliken charges and spin densities:
               1          2
     1  Na   0.008700  -0.052208
     2  Na  -0.191311   0.034474
     3  Na  -0.437994   0.650333
     4  Na  -0.039579   0.440875
     5  Na   0.017296  -0.131786
     6  Na   0.203259   0.098811
     7  Na   0.439630  -0.040500
 Sum of Mulliken charges =  -0.00000   1.00000

 Dipole moment (field-independent basis, Debye):
    X=             -0.0995    Y=              0.2626    Z=              0.1204  Tot=              0.3056
 Quadrupole moment (field-independent basis, Debye-Ang):
   XX=            -58.1290   YY=            -63.8469   ZZ=            -72.7719
   XY=              0.6467   XZ=              3.1409   YZ=              1.0962

 Normal termination of Gaussian 16 at Wed Dec  6 01:00:32 2023.
