 Gaussian 16, Revision B.01,
 Gaussian 16:  ES64L-G16RevB.01 20-Dec-2017

 -------------------------
 #P B3LYP/6-311+g(d) force
 -------------------------

 -----
 DPGEN
 -----
 Symbolic Z-matrix:
 Charge =  0 Multiplicity = 2

                         Standard orientation:
 ---------------------------------------------------------------------
 Center     Atomic      Atomic             Coordinates (Angstroms)
 Number     Number       Type             X           Y           Z
 ---------------------------------------------------------------------
      1         11           0       -1.217725    2.384832    0.614441
      2         11           0        1.699968   -2.169907    0.092924
      3         11           0       -0.605457   -0.925779    2.175083
      4         11           0       -1.186855   -1.473240   -1.871949
      5         11           0       -3.973559    0.058144   -0.029653
      6         11           0        3.752661    0.567171    0.481279
      7         11           0        1.530967    1.558778   -1.462126
 ---------------------------------------------------------------------

 SCF Done:  E(UB3LYP) =  -1136.11872633     A.U. after   23 cycles

 The electronic state is 2-A.
 Alpha  occ. eigenvalues --  -38.45729 -38.45235 -38.44186 -38.43895 -38.43780
 Alpha  occ. eigenvalues --  -38.43583 -38.42922  -2.21474  -2.21039  -2.20007
 Alpha  occ. eigenvalues --   -2.19707  -2.19571  -2.19421  -2.18766  -1.15150
 Alpha  occ. eigenvalues --   -1.15136  -1.15111  -1.14722  -1.14691  -1.14682
 Alpha  occ. eigenvalues --   -1.13681  -1.13640  -1.13624  -1.13376  -1.13341
 Alpha  occ. eigenvalues --   -1.13332  -1.13259  -1.13245  -1.13190  -1.13089
 Alpha  occ. eigenvalues --   -1.13082  -1.13053  -1.12452  -1.12436  -1.12407
 Alpha  occ. eigenvalues --   -0.17505  -0.13547  -0.11394  -0.11127
 Alpha virt. eigenvalues --   -0.07376  -0.04994  -0.04192  -0.03502  -0.03278
 Alpha virt. eigenvalues --   -0.02798  -0.02416  -0.01032  -0.00697  -0.00248
 Alpha virt. eigenvalues --   -0.00029   0.00047   0.00148   0.00735   0.00791

  Beta  occ. eigenvalues --  -38.45732 -38.45237 -38.44109 -38.43822 -38.43764
  Beta  occ. eigenvalues --  -38.43563 -38.42920  -2.21482  -2.21044  -2.19864
  Beta  occ. eigenvalues --   -2.19571  -2.19542  -2.19383  -2.18767  -1.15151
  Beta  occ. eigenvalues --   -1.15133  -1.15114  -1.14722  -1.14696  -1.14682
  Beta  occ. eigenvalues --   -1.13585  -1.13543  -1.13520  -1.13281  -1.13249
  Beta  occ. eigenvalues --   -1.13241  -1.13238  -1.13210  -1.13173  -1.13062
  Beta  occ. eigenvalues --   -1.13056  -1.13023  -1.12452  -1.12413  -1.12409
  Beta  occ. eigenvalues --   -0.16831  -0.13389  -0.11165
  Beta virt. eigenvalues --   -0.07340  -0.07220  -0.04842  -0.03683  -0.03119
  Beta virt. eigenvalues --   -0.02914  -0.02231  -0.01891  -0.00972  -0.00452
  Beta virt. eigenvalues --   -0.00171   0.00014   0.00107   0.00302   0.00801

 Mulliken charges and spin densities:
               1          2
     1  Na  -0.237457   0.129962
     2  Na  -0.153305   0.169850
     3  Na  -0.033165   0.358650
     4  Na  -0.202606   0.396456
     5  Na   0.329289  -0.087526
     6  Na   0.377549  -0.081568
     7  Na  -0.080305   0.114176
 Sum of Mulliken charges =  -0.00000   1.00000

 Dipole moment (field-independent basis, Debye):
    X=             -0.5123    Y=              0.0290    Z=              0.4600  Tot=              0.6891
 Quadrupole moment (field-independent basis, Debye-Ang):
   XX=            -46.6354   YY=            -77.7886   ZZ=            -70.2725
   XY=             -0.0233   XZ=              2.2015   YZ=              1.3711

 Normal termination of Gaussian 16 at Sun Dec  3 17:07:00 2023.
