 Gaussian 16, Revision B.01,
 Gaussian 16:  ES64L-G16RevB.01 20-Dec-2017

 -------------------------
 #P B3LYP/6-311+g(d) force
 -------------------------

 -----
 DPGEN
 -----
 Symbolic Z-matrix:
 Charge =  0 Multiplicity = 2

                         Standard orientation:
 ---------------------------------------------------------------------
 Center     Atomic      Atomic             Coordinates (Angstroms)
 Number     Number       Type             X           Y           Z
 ---------------------------------------------------------------------
      1         11           0       -1.058010    0.291830    1.798283
      2         11           0        1.990823   -1.083396    2.240630
      3         11           0        3.504663   -0.355618   -1.229454
      4         11           0        1.050488    1.942448    0.070895
      5         11           0       -2.523872    2.125994   -0.391160
      6         11           0        0.176581   -0.644379   -2.148986
      7         11           0       -3.140673   -2.276879   -0.340209
 ---------------------------------------------------------------------

 SCF Done:  E(UB3LYP) =  -1136.12174919     A.U. after   25 cycles

 The electronic state is 2-A.
 Alpha  occ. eigenvalues --  -38.44795 -38.44714 -38.44332 -38.43953 -38.43841
 Alpha  occ. eigenvalues --  -38.43527 -38.42949  -2.20615  -2.20477  -2.20225
 Alpha  occ. eigenvalues --   -2.19754  -2.19652  -2.19312  -2.18859  -1.14288
 Alpha  occ. eigenvalues --   -1.14271  -1.14231  -1.14133  -1.14119  -1.14087
 Alpha  occ. eigenvalues --   -1.13945  -1.13866  -1.13836  -1.13434  -1.13400
 Alpha  occ. eigenvalues --   -1.13396  -1.13328  -1.13289  -1.13273  -1.13015
 Alpha  occ. eigenvalues --   -1.13007  -1.12915  -1.12566  -1.12536  -1.12470
 Alpha  occ. eigenvalues --   -0.17777  -0.13286  -0.11792  -0.11289
 Alpha virt. eigenvalues --   -0.05994  -0.05542  -0.04815  -0.03272  -0.02871
 Alpha virt. eigenvalues --   -0.02652  -0.01958  -0.01288  -0.00863  -0.00074
 Alpha virt. eigenvalues --    0.00114   0.00200   0.00309   0.00437   0.00503

  Beta  occ. eigenvalues --  -38.44759 -38.44634 -38.44299 -38.43953 -38.43795
  Beta  occ. eigenvalues --  -38.43535 -38.42938  -2.20549  -2.20329  -2.20165
  Beta  occ. eigenvalues --   -2.19754  -2.19566  -2.19331  -2.18843  -1.14250
  Beta  occ. eigenvalues --   -1.14216  -1.14180  -1.14028  -1.14018  -1.13991
  Beta  occ. eigenvalues --   -1.13909  -1.13823  -1.13778  -1.13432  -1.13400
  Beta  occ. eigenvalues --   -1.13396  -1.13264  -1.13233  -1.13216  -1.13030
  Beta  occ. eigenvalues --   -1.13007  -1.12927  -1.12557  -1.12487  -1.12466
  Beta  occ. eigenvalues --   -0.17182  -0.12939  -0.10945
  Beta virt. eigenvalues --   -0.08092  -0.05892  -0.04968  -0.04474  -0.03087
  Beta virt. eigenvalues --   -0.02408  -0.02114  -0.01803  -0.00790  -0.00722
  Beta virt. eigenvalues --    0.00140   0.00221   0.00298   0.00355   0.00531

 Mulliken charges and spin densities:
               1          2
     1  Na  -0.055575   0.375299
     2  Na  -0.098532   0.096176
     3  Na   0.436415  -0.046147
     4  Na  -0.088176   0.225894
     5  Na   0.431063   0.145115
     6  Na  -0.652140  -0.047126
     7  Na   0.026945   0.250791
 Sum of Mulliken charges =  -0.00000   1.00000

 Dipole moment (field-independent basis, Debye):
    X=             -0.0484    Y=              0.3650    Z=             -0.1053  Tot=              0.3829
 Quadrupole moment (field-independent basis, Debye-Ang):
   XX=            -54.1753   YY=            -63.9392   ZZ=            -77.4497
   XY=             -2.4841   XZ=              0.6039   YZ=             -4.7947

 Normal termination of Gaussian 16 at Tue Nov 28 22:36:54 2023.
