 Gaussian 16, Revision B.01,
 Gaussian 16:  ES64L-G16RevB.01 20-Dec-2017

 -------------------------
 #P B3LYP/6-311+g(d) force
 -------------------------

 -----
 DPGEN
 -----
 Symbolic Z-matrix:
 Charge =  0 Multiplicity = 2

                         Standard orientation:
 ---------------------------------------------------------------------
 Center     Atomic      Atomic             Coordinates (Angstroms)
 Number     Number       Type             X           Y           Z
 ---------------------------------------------------------------------
      1         11           0       -3.272757    2.658450    0.199664
      2         11           0        0.516818    1.636659    0.093832
      3         11           0        4.420730    1.505255   -0.260451
      4         11           0        2.613621   -1.201261    0.314973
      5         11           0       -0.631302   -1.939263    1.954654
      6         11           0       -0.352347   -1.919471   -1.841910
      7         11           0       -3.294762   -0.740369   -0.460763
 ---------------------------------------------------------------------

 SCF Done:  E(UB3LYP) =  -1136.11932535     A.U. after   23 cycles

 The electronic state is 2-A.
 Alpha  occ. eigenvalues --  -38.45395 -38.44695 -38.44601 -38.44302 -38.43780
 Alpha  occ. eigenvalues --  -38.43655 -38.43601  -2.21148  -2.20479  -2.20409
 Alpha  occ. eigenvalues --   -2.20149  -2.19596  -2.19483  -2.19371  -1.14867
 Alpha  occ. eigenvalues --   -1.14837  -1.14732  -1.14158  -1.14139  -1.14105
 Alpha  occ. eigenvalues --   -1.14099  -1.14071  -1.14032  -1.13840  -1.13835
 Alpha  occ. eigenvalues --   -1.13751  -1.13253  -1.13250  -1.13210  -1.13157
 Alpha  occ. eigenvalues --   -1.13132  -1.13093  -1.13040  -1.13035  -1.13012
 Alpha  occ. eigenvalues --   -0.17292  -0.13764  -0.11876  -0.10340
 Alpha virt. eigenvalues --   -0.07169  -0.06073  -0.04342  -0.03307  -0.02794
 Alpha virt. eigenvalues --   -0.02465  -0.02137  -0.01998  -0.01180  -0.00560
 Alpha virt. eigenvalues --   -0.00209   0.00012   0.00164   0.00450   0.00708

  Beta  occ. eigenvalues --  -38.45384 -38.44685 -38.44579 -38.44293 -38.43712
  Beta  occ. eigenvalues --  -38.43601 -38.43596  -2.21129  -2.20460  -2.20372
  Beta  occ. eigenvalues --   -2.20136  -2.19470  -2.19375  -2.19371  -1.14846
  Beta  occ. eigenvalues --   -1.14821  -1.14719  -1.14146  -1.14125  -1.14094
  Beta  occ. eigenvalues --   -1.14062  -1.14050  -1.13997  -1.13837  -1.13812
  Beta  occ. eigenvalues --   -1.13732  -1.13164  -1.13155  -1.13128  -1.13084
  Beta  occ. eigenvalues --   -1.13052  -1.13039  -1.13033  -1.13017  -1.13011
  Beta  occ. eigenvalues --   -0.16761  -0.13534  -0.11613
  Beta virt. eigenvalues --   -0.07042  -0.06498  -0.06012  -0.04068  -0.02832
  Beta virt. eigenvalues --   -0.02664  -0.02065  -0.01915  -0.01355  -0.01086
  Beta virt. eigenvalues --   -0.00322  -0.00022   0.00117   0.00349   0.00498

 Mulliken charges and spin densities:
               1          2
     1  Na   0.575575  -0.128387
     2  Na  -1.295523   0.067570
     3  Na   0.647225   0.065431
     4  Na   0.002092   0.206131
     5  Na   0.032240   0.331081
     6  Na   0.099231   0.245175
     7  Na  -0.060841   0.212999
 Sum of Mulliken charges =  -0.00000   1.00000

 Dipole moment (field-independent basis, Debye):
    X=              0.9958    Y=              0.1392    Z=              0.1861  Tot=              1.0226
 Quadrupole moment (field-independent basis, Debye-Ang):
   XX=            -53.1134   YY=            -68.7925   ZZ=            -74.8405
   XY=              2.6123   XZ=             -3.0892   YZ=             -1.6228

 Normal termination of Gaussian 16 at Sun Dec  3 19:03:22 2023.
