 Gaussian 16, Revision B.01,
 Gaussian 16:  ES64L-G16RevB.01 20-Dec-2017

 -------------------------
 #P B3LYP/6-311+g(d) force
 -------------------------

 -----
 DPGEN
 -----
 Symbolic Z-matrix:
 Charge =  0 Multiplicity = 2

                         Standard orientation:
 ---------------------------------------------------------------------
 Center     Atomic      Atomic             Coordinates (Angstroms)
 Number     Number       Type             X           Y           Z
 ---------------------------------------------------------------------
      1         11           0       -0.601786    3.716222    0.755522
      2         11           0       -2.384903    1.471172   -0.348349
      3         11           0        1.684186    2.147218   -0.531027
      4         11           0        4.579775   -0.411374   -0.337760
      5         11           0       -4.401721   -1.956312   -0.396597
      6         11           0        2.109238   -3.067154    0.376384
      7         11           0       -0.984789   -1.899771    0.481827
 ---------------------------------------------------------------------

 SCF Done:  E(UB3LYP) =  -1136.11826128     A.U. after   20 cycles

 The electronic state is 2-A.
 Alpha  occ. eigenvalues --  -38.45175 -38.45101 -38.44392 -38.44010 -38.43909
 Alpha  occ. eigenvalues --  -38.43819 -38.43624  -2.20994  -2.20903  -2.20274
 Alpha  occ. eigenvalues --   -2.19799  -2.19681  -2.19643  -2.19434  -1.14705
 Alpha  occ. eigenvalues --   -1.14686  -1.14612  -1.14606  -1.14577  -1.14529
 Alpha  occ. eigenvalues --   -1.13946  -1.13910  -1.13898  -1.13461  -1.13457
 Alpha  occ. eigenvalues --   -1.13408  -1.13349  -1.13335  -1.13332  -1.13324
 Alpha  occ. eigenvalues --   -1.13314  -1.13265  -1.13096  -1.13087  -1.13050
 Alpha  occ. eigenvalues --   -0.16572  -0.13715  -0.13305  -0.10403
 Alpha virt. eigenvalues --   -0.06622  -0.05864  -0.04527  -0.03401  -0.02714
 Alpha virt. eigenvalues --   -0.02355  -0.02238  -0.01880  -0.01430  -0.00690
 Alpha virt. eigenvalues --   -0.00273   0.00037   0.00340   0.00553   0.00632

  Beta  occ. eigenvalues --  -38.45170 -38.45084 -38.44385 -38.43957 -38.43864
  Beta  occ. eigenvalues --  -38.43788 -38.43576  -2.20987  -2.20873  -2.20261
  Beta  occ. eigenvalues --   -2.19700  -2.19597  -2.19592  -2.19349  -1.14698
  Beta  occ. eigenvalues --   -1.14683  -1.14595  -1.14590  -1.14559  -1.14489
  Beta  occ. eigenvalues --   -1.13934  -1.13900  -1.13890  -1.13393  -1.13389
  Beta  occ. eigenvalues --   -1.13344  -1.13306  -1.13302  -1.13292  -1.13264
  Beta  occ. eigenvalues --   -1.13255  -1.13188  -1.13041  -1.13023  -1.12981
  Beta  occ. eigenvalues --   -0.16336  -0.13121  -0.12677
  Beta virt. eigenvalues --   -0.06964  -0.06517  -0.05626  -0.04309  -0.03028
  Beta virt. eigenvalues --   -0.02321  -0.02125  -0.02040  -0.01677  -0.01160
  Beta virt. eigenvalues --   -0.00346  -0.00010   0.00300   0.00446   0.00607

 Mulliken charges and spin densities:
               1          2
     1  Na   0.737558   0.032030
     2  Na  -0.269888   0.097274
     3  Na  -0.527494   0.124065
     4  Na  -0.002188   0.212815
     5  Na   0.706657   0.301015
     6  Na   0.224795   0.014236
     7  Na  -0.869441   0.218564
 Sum of Mulliken charges =  -0.00000   1.00000

 Dipole moment (field-independent basis, Debye):
    X=             -0.9789    Y=              1.3409    Z=              0.1465  Tot=              1.6667
 Quadrupole moment (field-independent basis, Debye-Ang):
   XX=            -64.3128   YY=            -61.5861   ZZ=            -72.0056
   XY=             -3.1839   XZ=              0.8791   YZ=              2.4035

 Normal termination of Gaussian 16 at Mon Dec  4 05:09:11 2023.
