 Gaussian 16, Revision B.01,
 Gaussian 16:  ES64L-G16RevB.01 20-Dec-2017

 -------------------------
 #P B3LYP/6-311+g(d) force
 -------------------------

 -----
 DPGEN
 -----
 Symbolic Z-matrix:
 Charge =  0 Multiplicity = 2

                         Standard orientation:
 ---------------------------------------------------------------------
 Center     Atomic      Atomic             Coordinates (Angstroms)
 Number     Number       Type             X           Y           Z
 ---------------------------------------------------------------------
      1         11           0        2.490661   -1.723537   -0.031156
      2         11           0       -1.266901   -2.500005   -0.151701
      3         11           0        0.080022   -0.147597    1.962608
      4         11           0       -3.253356    0.201827    0.036935
      5         11           0        0.114992    0.062787   -1.809089
      6         11           0       -0.791164    2.632789   -0.022389
      7         11           0        2.625747    1.473736    0.014791
 ---------------------------------------------------------------------

 SCF Done:  E(UB3LYP) =  -1136.13909189     A.U. after   19 cycles

 The electronic state is 2-A.
 Alpha  occ. eigenvalues --  -38.44346 -38.43793 -38.43721 -38.43558 -38.43356
 Alpha  occ. eigenvalues --  -38.43145 -38.42915  -2.20169  -2.19669  -2.19588
 Alpha  occ. eigenvalues --   -2.19477  -2.19322  -2.19013  -2.18790  -1.13836
 Alpha  occ. eigenvalues --   -1.13827  -1.13820  -1.13388  -1.13336  -1.13318
 Alpha  occ. eigenvalues --   -1.13254  -1.13245  -1.13206  -1.13149  -1.13107
 Alpha  occ. eigenvalues --   -1.13091  -1.13002  -1.12968  -1.12939  -1.12692
 Alpha  occ. eigenvalues --   -1.12681  -1.12637  -1.12477  -1.12456  -1.12413
 Alpha  occ. eigenvalues --   -0.18912  -0.13348  -0.12200  -0.10889
 Alpha virt. eigenvalues --   -0.05895  -0.05132  -0.04242  -0.03368  -0.02798
 Alpha virt. eigenvalues --   -0.02643  -0.01705  -0.00998  -0.00252  -0.00144
 Alpha virt. eigenvalues --   -0.00032   0.00364   0.00776   0.00913   0.00930

  Beta  occ. eigenvalues --  -38.44346 -38.43787 -38.43716 -38.43470 -38.43278
  Beta  occ. eigenvalues --  -38.43138 -38.42909  -2.20172  -2.19663  -2.19582
  Beta  occ. eigenvalues --   -2.19315  -2.19179  -2.19005  -2.18783  -1.13833
  Beta  occ. eigenvalues --   -1.13824  -1.13819  -1.13388  -1.13318  -1.13300
  Beta  occ. eigenvalues --   -1.13242  -1.13219  -1.13207  -1.13045  -1.12992
  Beta  occ. eigenvalues --   -1.12975  -1.12908  -1.12865  -1.12837  -1.12685
  Beta  occ. eigenvalues --   -1.12646  -1.12637  -1.12472  -1.12424  -1.12413
  Beta  occ. eigenvalues --   -0.18153  -0.13124  -0.11939
  Beta virt. eigenvalues --   -0.06953  -0.05843  -0.05154  -0.04229  -0.02551
  Beta virt. eigenvalues --   -0.01991  -0.01613  -0.01569  -0.00943  -0.00308
  Beta virt. eigenvalues --   -0.00202   0.00108   0.00379   0.00838   0.00898

 Mulliken charges and spin densities:
               1          2
     1  Na   0.255134  -0.076492
     2  Na   0.168525  -0.119703
     3  Na  -0.490225   0.756392
     4  Na   0.030256  -0.074533
     5  Na  -0.339512   0.669467
     6  Na   0.136709  -0.109792
     7  Na   0.239112  -0.045338
 Sum of Mulliken charges =  -0.00000   1.00000

 Dipole moment (field-independent basis, Debye):
    X=             -0.0756    Y=             -0.0448    Z=              0.0951  Tot=              0.1294
 Quadrupole moment (field-independent basis, Debye-Ang):
   XX=            -53.9416   YY=            -66.1427   ZZ=            -73.5502
   XY=             -0.2225   XZ=             -0.0413   YZ=              0.5114

 Normal termination of Gaussian 16 at Tue Dec  5 20:47:17 2023.
