 Gaussian 16, Revision B.01,
 Gaussian 16:  ES64L-G16RevB.01 20-Dec-2017

 -------------------------
 #P B3LYP/6-311+g(d) force
 -------------------------

 -----
 DPGEN
 -----
 Symbolic Z-matrix:
 Charge =  0 Multiplicity = 2

                         Standard orientation:
 ---------------------------------------------------------------------
 Center     Atomic      Atomic             Coordinates (Angstroms)
 Number     Number       Type             X           Y           Z
 ---------------------------------------------------------------------
      1         11           0        0.939087   -1.416931    0.331922
      2         11           0        5.607014   -0.646285   -0.464681
      3         11           0        2.922646    1.091051   -0.328534
      4         11           0       -0.449717    1.710614   -0.355510
      5         11           0       -2.658268   -0.918325   -0.673118
      6         11           0       -0.892781    0.235462    2.065837
      7         11           0       -5.467980   -0.055587   -0.575915
 ---------------------------------------------------------------------

 SCF Done:  E(UB3LYP) =  -1136.10681419     A.U. after   23 cycles

 The electronic state is 2-A.
 Alpha  occ. eigenvalues --  -38.45715 -38.44739 -38.44279 -38.44101 -38.43568
 Alpha  occ. eigenvalues --  -38.43561 -38.43492  -2.21664  -2.20675  -2.20258
 Alpha  occ. eigenvalues --   -2.19878  -2.19455  -2.19415  -2.19371  -1.15394
 Alpha  occ. eigenvalues --   -1.15342  -1.15274  -1.14358  -1.14329  -1.14278
 Alpha  occ. eigenvalues --   -1.13943  -1.13883  -1.13853  -1.13553  -1.13539
 Alpha  occ. eigenvalues --   -1.13522  -1.13231  -1.13150  -1.13125  -1.13086
 Alpha  occ. eigenvalues --   -1.13073  -1.13058  -1.13012  -1.13007  -1.12918
 Alpha  occ. eigenvalues --   -0.18822  -0.13960  -0.11599  -0.11183
 Alpha virt. eigenvalues --   -0.07208  -0.06161  -0.04078  -0.02939  -0.02894
 Alpha virt. eigenvalues --   -0.02401  -0.02035  -0.01922  -0.01237  -0.00756
 Alpha virt. eigenvalues --   -0.00270   0.00246   0.00315   0.00445   0.00599

  Beta  occ. eigenvalues --  -38.45694 -38.44677 -38.44202 -38.44101 -38.43564
  Beta  occ. eigenvalues --  -38.43546 -38.43481  -2.21632  -2.20565  -2.20115
  Beta  occ. eigenvalues --   -2.19878  -2.19417  -2.19400  -2.19376  -1.15369
  Beta  occ. eigenvalues --   -1.15291  -1.15240  -1.14282  -1.14247  -1.14187
  Beta  occ. eigenvalues --   -1.13847  -1.13783  -1.13746  -1.13553  -1.13539
  Beta  occ. eigenvalues --   -1.13520  -1.13227  -1.13130  -1.13100  -1.13068
  Beta  occ. eigenvalues --   -1.13062  -1.13014  -1.13010  -1.13007  -1.12907
  Beta  occ. eigenvalues --   -0.18064  -0.13788  -0.11556
  Beta virt. eigenvalues --   -0.07028  -0.06968  -0.05957  -0.03634  -0.02909
  Beta virt. eigenvalues --   -0.02289  -0.02251  -0.01657  -0.01552  -0.00697
  Beta virt. eigenvalues --   -0.00596  -0.00177   0.00381   0.00524   0.00571

 Mulliken charges and spin densities:
               1          2
     1  Na  -0.482878   0.409792
     2  Na   0.555131   0.031426
     3  Na  -0.285987  -0.047419
     4  Na  -0.357323   0.465923
     5  Na  -0.685756  -0.123171
     6  Na   0.598916   0.226539
     7  Na   0.657897   0.036910
 Sum of Mulliken charges =  -0.00000   1.00000

 Dipole moment (field-independent basis, Debye):
    X=              0.2688    Y=              0.0960    Z=              1.3266  Tot=              1.3570
 Quadrupole moment (field-independent basis, Debye-Ang):
   XX=            -65.4764   YY=            -72.0762   ZZ=            -66.4555
   XY=             -6.3608   XZ=             -3.9277   YZ=              2.9722

 Normal termination of Gaussian 16 at Tue Nov 28 19:52:07 2023.
