 Gaussian 16, Revision B.01,
 Gaussian 16:  ES64L-G16RevB.01 20-Dec-2017

 -------------------------
 #P B3LYP/6-311+g(d) force
 -------------------------

 -----
 DPGEN
 -----
 Symbolic Z-matrix:
 Charge =  0 Multiplicity = 2

                         Standard orientation:
 ---------------------------------------------------------------------
 Center     Atomic      Atomic             Coordinates (Angstroms)
 Number     Number       Type             X           Y           Z
 ---------------------------------------------------------------------
      1         11           0        0.981537    2.112894   -0.232869
      2         11           0        0.454982   -0.371469    1.946181
      3         11           0        1.831436   -1.301590   -1.364512
      4         11           0       -1.244720   -2.055148   -0.606797
      5         11           0       -4.280303    0.018759    1.020883
      6         11           0       -2.010613    1.403640   -1.387679
      7         11           0        4.267679    0.192914    0.624794
 ---------------------------------------------------------------------

 SCF Done:  E(UB3LYP) =  -1136.11246067     A.U. after   30 cycles

 The electronic state is 2-A.
 Alpha  occ. eigenvalues --  -38.46891 -38.45162 -38.44852 -38.43809 -38.43583
 Alpha  occ. eigenvalues --  -38.42963 -38.42424  -2.22673  -2.20945  -2.20630
 Alpha  occ. eigenvalues --   -2.19677  -2.19418  -2.18829  -2.18288  -1.16381
 Alpha  occ. eigenvalues --   -1.16314  -1.16291  -1.14623  -1.14595  -1.14556
 Alpha  occ. eigenvalues --   -1.14287  -1.14271  -1.14245  -1.13362  -1.13328
 Alpha  occ. eigenvalues --   -1.13313  -1.13100  -1.13080  -1.13057  -1.12540
 Alpha  occ. eigenvalues --   -1.12501  -1.12425  -1.11975  -1.11969  -1.11906
 Alpha  occ. eigenvalues --   -0.17943  -0.13898  -0.11002  -0.10867
 Alpha virt. eigenvalues --   -0.07979  -0.05204  -0.04351  -0.03327  -0.03076
 Alpha virt. eigenvalues --   -0.02353  -0.02241  -0.01784  -0.01081  -0.00375
 Alpha virt. eigenvalues --   -0.00222   0.00136   0.00236   0.00630   0.00646

  Beta  occ. eigenvalues --  -38.46883 -38.45128 -38.44779 -38.43789 -38.43558
  Beta  occ. eigenvalues --  -38.42935 -38.42417  -2.22658  -2.20882  -2.20493
  Beta  occ. eigenvalues --   -2.19642  -2.19378  -2.18782  -2.18279  -1.16365
  Beta  occ. eigenvalues --   -1.16307  -1.16279  -1.14580  -1.14550  -1.14515
  Beta  occ. eigenvalues --   -1.14193  -1.14177  -1.14155  -1.13325  -1.13303
  Beta  occ. eigenvalues --   -1.13285  -1.13065  -1.13052  -1.13008  -1.12513
  Beta  occ. eigenvalues --   -1.12458  -1.12379  -1.11972  -1.11950  -1.11893
  Beta  occ. eigenvalues --   -0.17434  -0.13392  -0.10623
  Beta virt. eigenvalues --   -0.07729  -0.07508  -0.04531  -0.04280  -0.03000
  Beta virt. eigenvalues --   -0.02900  -0.02015  -0.01845  -0.01244  -0.00871
  Beta virt. eigenvalues --   -0.00205  -0.00093   0.00266   0.00290   0.00747

 Mulliken charges and spin densities:
               1          2
     1  Na  -0.337575   0.134950
     2  Na  -0.013195  -0.048775
     3  Na  -0.161406   0.164140
     4  Na  -0.081037   0.140122
     5  Na   0.085277   0.477352
     6  Na  -0.011446  -0.104302
     7  Na   0.519381   0.236514
 Sum of Mulliken charges =  -0.00000   1.00000

 Dipole moment (field-independent basis, Debye):
    X=              0.9714    Y=             -0.3029    Z=              0.8090  Tot=              1.2999
 Quadrupole moment (field-independent basis, Debye-Ang):
   XX=            -51.9246   YY=            -83.1238   ZZ=            -63.0269
   XY=             -0.0357   XZ=             -1.1620   YZ=             -0.3683

 Normal termination of Gaussian 16 at Fri Dec  8 18:41:53 2023.
