 Gaussian 16, Revision B.01,
 Gaussian 16:  ES64L-G16RevB.01 20-Dec-2017

 -------------------------
 #P B3LYP/6-311+g(d) force
 -------------------------

 -----
 DPGEN
 -----
 Symbolic Z-matrix:
 Charge =  0 Multiplicity = 2

                         Standard orientation:
 ---------------------------------------------------------------------
 Center     Atomic      Atomic             Coordinates (Angstroms)
 Number     Number       Type             X           Y           Z
 ---------------------------------------------------------------------
      1         11           0        2.106136    1.379510   -0.516907
      2         11           0        5.614969    0.371583    0.583095
      3         11           0        3.491982   -1.998617   -0.179163
      4         11           0        0.185805   -0.999740   -0.354020
      5         11           0       -1.265481    2.093605   -0.041078
      6         11           0       -3.273250   -0.274213    0.540719
      7         11           0       -6.860162   -0.572127   -0.032646
 ---------------------------------------------------------------------

 SCF Done:  E(UB3LYP) =  -1136.11493965     A.U. after   23 cycles

 The electronic state is 2-A.
 Alpha  occ. eigenvalues --  -38.44885 -38.44491 -38.44337 -38.44317 -38.44265
 Alpha  occ. eigenvalues --  -38.44053 -38.43837  -2.20760  -2.20363  -2.20133
 Alpha  occ. eigenvalues --   -2.20119  -2.20046  -2.19983  -2.19669  -1.14497
 Alpha  occ. eigenvalues --   -1.14444  -1.14338  -1.14049  -1.14020  -1.13985
 Alpha  occ. eigenvalues --   -1.13827  -1.13795  -1.13785  -1.13779  -1.13770
 Alpha  occ. eigenvalues --   -1.13732  -1.13732  -1.13701  -1.13692  -1.13682
 Alpha  occ. eigenvalues --   -1.13645  -1.13559  -1.13370  -1.13342  -1.13252
 Alpha  occ. eigenvalues --   -0.17689  -0.14509  -0.11535  -0.11184
 Alpha virt. eigenvalues --   -0.07282  -0.05621  -0.04406  -0.03829  -0.02936
 Alpha virt. eigenvalues --   -0.02566  -0.02364  -0.01483  -0.00855  -0.00757
 Alpha virt. eigenvalues --   -0.00451  -0.00133   0.00011   0.00275   0.00606

  Beta  occ. eigenvalues --  -38.44844 -38.44462 -38.44385 -38.44263 -38.44227
  Beta  occ. eigenvalues --  -38.43990 -38.43818  -2.20689  -2.20311  -2.20137
  Beta  occ. eigenvalues --   -2.20055  -2.20031  -2.19872  -2.19631  -1.14427
  Beta  occ. eigenvalues --   -1.14398  -1.14279  -1.14002  -1.13987  -1.13945
  Beta  occ. eigenvalues --   -1.13795  -1.13794  -1.13763  -1.13751  -1.13751
  Beta  occ. eigenvalues --   -1.13731  -1.13711  -1.13694  -1.13631  -1.13600
  Beta  occ. eigenvalues --   -1.13574  -1.13458  -1.13335  -1.13314  -1.13247
  Beta  occ. eigenvalues --   -0.16907  -0.14167  -0.11644
  Beta virt. eigenvalues --   -0.07276  -0.07149  -0.04938  -0.04179  -0.03638
  Beta virt. eigenvalues --   -0.02414  -0.02277  -0.01858  -0.01435  -0.00799
  Beta virt. eigenvalues --   -0.00567  -0.00130   0.00041   0.00196   0.00437

 Mulliken charges and spin densities:
               1          2
     1  Na  -0.014936   0.125535
     2  Na   0.091552   0.256140
     3  Na   0.950621   0.013315
     4  Na  -1.251151   0.616346
     5  Na   0.302465   0.297994
     6  Na  -0.470562  -0.058438
     7  Na   0.392012  -0.250893
 Sum of Mulliken charges =  -0.00000   1.00000

 Dipole moment (field-independent basis, Debye):
    X=              1.2308    Y=              0.4662    Z=             -0.0944  Tot=              1.3195
 Quadrupole moment (field-independent basis, Debye-Ang):
   XX=            -60.2759   YY=            -67.0508   ZZ=            -72.3740
   XY=             -2.5004   XZ=              2.7051   YZ=             -0.1478

 Normal termination of Gaussian 16 at Tue Nov 28 23:39:36 2023.
