 Gaussian 16, Revision B.01,
 Gaussian 16:  ES64L-G16RevB.01 20-Dec-2017

 -------------------------
 #P B3LYP/6-311+g(d) force
 -------------------------

 -----
 DPGEN
 -----
 Symbolic Z-matrix:
 Charge =  0 Multiplicity = 2

                         Standard orientation:
 ---------------------------------------------------------------------
 Center     Atomic      Atomic             Coordinates (Angstroms)
 Number     Number       Type             X           Y           Z
 ---------------------------------------------------------------------
      1         11           0       -1.582037    1.245241   -1.163602
      2         11           0        1.815303    0.388788   -1.307423
      3         11           0       -0.132453   -0.054691    2.076556
      4         11           0       -0.506022   -1.707672   -1.325312
      5         11           0       -3.978060   -0.932458    0.603345
      6         11           0        1.120663    3.164152    0.516090
      7         11           0        3.262607   -2.103360    0.600347
 ---------------------------------------------------------------------

 SCF Done:  E(UB3LYP) =  -1136.12573918     A.U. after   21 cycles

 The electronic state is 2-A.
 Alpha  occ. eigenvalues --  -38.44960 -38.44603 -38.44097 -38.43923 -38.43713
 Alpha  occ. eigenvalues --  -38.43323 -38.42942  -2.20760  -2.20357  -2.19985
 Alpha  occ. eigenvalues --   -2.19689  -2.19608  -2.19258  -2.18755  -1.14438
 Alpha  occ. eigenvalues --   -1.14391  -1.14373  -1.14033  -1.14022  -1.13977
 Alpha  occ. eigenvalues --   -1.13744  -1.13635  -1.13579  -1.13369  -1.13350
 Alpha  occ. eigenvalues --   -1.13325  -1.13316  -1.13270  -1.13185  -1.12983
 Alpha  occ. eigenvalues --   -1.12917  -1.12846  -1.12430  -1.12413  -1.12389
 Alpha  occ. eigenvalues --   -0.18150  -0.12789  -0.11672  -0.11370
 Alpha virt. eigenvalues --   -0.06472  -0.05012  -0.04277  -0.03227  -0.02995
 Alpha virt. eigenvalues --   -0.02779  -0.02050  -0.01342  -0.00746  -0.00097
 Alpha virt. eigenvalues --    0.00188   0.00249   0.00452   0.00633   0.00717

  Beta  occ. eigenvalues --  -38.44881 -38.44596 -38.44051 -38.43916 -38.43682
  Beta  occ. eigenvalues --  -38.43294 -38.42941  -2.20614  -2.20343  -2.19906
  Beta  occ. eigenvalues --   -2.19676  -2.19556  -2.19210  -2.18752  -1.14340
  Beta  occ. eigenvalues --   -1.14286  -1.14266  -1.14024  -1.14005  -1.13969
  Beta  occ. eigenvalues --   -1.13679  -1.13558  -1.13531  -1.13362  -1.13334
  Beta  occ. eigenvalues --   -1.13309  -1.13282  -1.13209  -1.13156  -1.12938
  Beta  occ. eigenvalues --   -1.12867  -1.12816  -1.12430  -1.12400  -1.12389
  Beta  occ. eigenvalues --   -0.17307  -0.12650  -0.11516
  Beta virt. eigenvalues --   -0.07460  -0.06171  -0.04850  -0.04093  -0.02827
  Beta virt. eigenvalues --   -0.02300  -0.02027  -0.01895  -0.01163  -0.00443
  Beta virt. eigenvalues --   -0.00109   0.00211   0.00337   0.00579   0.00711

 Mulliken charges and spin densities:
               1          2
     1  Na   0.056772   0.154737
     2  Na   0.592549   0.394058
     3  Na  -0.518081   0.826991
     4  Na  -0.153104  -0.013960
     5  Na   0.174348  -0.013423
     6  Na   0.008109  -0.214444
     7  Na  -0.160592  -0.133958
 Sum of Mulliken charges =  -0.00000   1.00000

 Dipole moment (field-independent basis, Debye):
    X=             -0.6544    Y=             -0.3051    Z=              0.4775  Tot=              0.8657
 Quadrupole moment (field-independent basis, Debye-Ang):
   XX=            -55.8785   YY=            -68.5325   ZZ=            -69.1157
   XY=              1.0839   XZ=              0.2279   YZ=             -1.1791

 Normal termination of Gaussian 16 at Fri Dec  8 01:34:30 2023.
