 Gaussian 16, Revision B.01,
 Gaussian 16:  ES64L-G16RevB.01 20-Dec-2017

 -------------------------
 #P B3LYP/6-311+g(d) force
 -------------------------

 -----
 DPGEN
 -----
 Symbolic Z-matrix:
 Charge =  0 Multiplicity = 2

                         Standard orientation:
 ---------------------------------------------------------------------
 Center     Atomic      Atomic             Coordinates (Angstroms)
 Number     Number       Type             X           Y           Z
 ---------------------------------------------------------------------
      1         11           0       -4.007236   -0.054617   -0.475149
      2         11           0        0.222709    0.568606   -1.482215
      3         11           0        1.347178   -1.042549    1.746094
      4         11           0        2.817693    1.751807   -0.061577
      5         11           0       -1.260500   -1.939248    0.134758
      6         11           0        2.462161   -1.283024   -0.831917
      7         11           0       -1.582004    1.999025    0.970006
 ---------------------------------------------------------------------

 SCF Done:  E(UB3LYP) =  -1136.11528403     A.U. after   25 cycles

 The electronic state is 2-A.
 Alpha  occ. eigenvalues --  -38.45542 -38.44196 -38.43997 -38.43912 -38.43874
 Alpha  occ. eigenvalues --  -38.43234 -38.42921  -2.21327  -2.20211  -2.19870
 Alpha  occ. eigenvalues --   -2.19811  -2.19782  -2.19207  -2.18813  -1.14996
 Alpha  occ. eigenvalues --   -1.14992  -1.14955  -1.13986  -1.13953  -1.13801
 Alpha  occ. eigenvalues --   -1.13572  -1.13535  -1.13523  -1.13471  -1.13465
 Alpha  occ. eigenvalues --   -1.13440  -1.13424  -1.13420  -1.13395  -1.12884
 Alpha  occ. eigenvalues --   -1.12864  -1.12786  -1.12521  -1.12493  -1.12410
 Alpha  occ. eigenvalues --   -0.18939  -0.14285  -0.11364  -0.10689
 Alpha virt. eigenvalues --   -0.07152  -0.05385  -0.04022  -0.03209  -0.02715
 Alpha virt. eigenvalues --   -0.02422  -0.02077  -0.01201  -0.00543  -0.00230
 Alpha virt. eigenvalues --    0.00131   0.00212   0.00421   0.00729   0.00767

  Beta  occ. eigenvalues --  -38.45539 -38.44168 -38.43965 -38.43912 -38.43824
  Beta  occ. eigenvalues --  -38.43172 -38.42912  -2.21322  -2.20166  -2.19787
  Beta  occ. eigenvalues --   -2.19782  -2.19753  -2.19092  -2.18801  -1.14994
  Beta  occ. eigenvalues --   -1.14981  -1.14953  -1.13959  -1.13876  -1.13777
  Beta  occ. eigenvalues --   -1.13517  -1.13495  -1.13473  -1.13446  -1.13420
  Beta  occ. eigenvalues --   -1.13403  -1.13394  -1.13381  -1.13366  -1.12804
  Beta  occ. eigenvalues --   -1.12791  -1.12701  -1.12516  -1.12450  -1.12406
  Beta  occ. eigenvalues --   -0.18232  -0.14077  -0.11131
  Beta virt. eigenvalues --   -0.07036  -0.06766  -0.05245  -0.03552  -0.03027
  Beta virt. eigenvalues --   -0.02531  -0.01849  -0.01313  -0.01010  -0.00301
  Beta virt. eigenvalues --   -0.00072   0.00157   0.00240   0.00593   0.00770

 Mulliken charges and spin densities:
               1          2
     1  Na   0.424437  -0.000329
     2  Na  -0.075779   0.297357
     3  Na   0.021291   0.600002
     4  Na  -0.095120   0.058302
     5  Na  -0.473792  -0.034230
     6  Na   0.613271  -0.057013
     7  Na  -0.414307   0.135911
 Sum of Mulliken charges =  -0.00000   1.00000

 Dipole moment (field-independent basis, Debye):
    X=             -1.0365    Y=              0.2148    Z=              0.0016  Tot=              1.0585
 Quadrupole moment (field-independent basis, Debye-Ang):
   XX=            -45.0052   YY=            -74.5264   ZZ=            -72.6824
   XY=              0.4020   XZ=              1.7586   YZ=              2.9282

 Normal termination of Gaussian 16 at Tue Dec  5 23:40:06 2023.
