 Gaussian 16, Revision B.01,
 Gaussian 16:  ES64L-G16RevB.01 20-Dec-2017

 -------------------------
 #P B3LYP/6-311+g(d) force
 -------------------------

 -----
 DPGEN
 -----
 Symbolic Z-matrix:
 Charge =  0 Multiplicity = 2

                         Standard orientation:
 ---------------------------------------------------------------------
 Center     Atomic      Atomic             Coordinates (Angstroms)
 Number     Number       Type             X           Y           Z
 ---------------------------------------------------------------------
      1         11           0        3.362284    0.629636   -0.760081
      2         11           0        1.843528   -2.058234    0.565272
      3         11           0       -2.777340    1.651964   -0.222115
      4         11           0       -2.034782   -2.485720   -0.576818
      5         11           0        0.359048    2.794859    0.335109
      6         11           0       -0.338035   -0.218543   -1.620685
      7         11           0       -0.414704   -0.313961    2.279319
 ---------------------------------------------------------------------

 SCF Done:  E(UB3LYP) =  -1136.13275100     A.U. after   19 cycles

 The electronic state is 2-A.
 Alpha  occ. eigenvalues --  -38.44222 -38.44096 -38.43755 -38.43719 -38.43719
 Alpha  occ. eigenvalues --  -38.43526 -38.43487  -2.20080  -2.19914  -2.19566
 Alpha  occ. eigenvalues --   -2.19552  -2.19549  -2.19477  -2.19306  -1.13748
 Alpha  occ. eigenvalues --   -1.13702  -1.13695  -1.13603  -1.13572  -1.13548
 Alpha  occ. eigenvalues --   -1.13344  -1.13262  -1.13253  -1.13223  -1.13212
 Alpha  occ. eigenvalues --   -1.13195  -1.13192  -1.13170  -1.13153  -1.13139
 Alpha  occ. eigenvalues --   -1.13098  -1.13065  -1.12985  -1.12979  -1.12930
 Alpha  occ. eigenvalues --   -0.18175  -0.12803  -0.12270  -0.11243
 Alpha virt. eigenvalues --   -0.05563  -0.05267  -0.04564  -0.03316  -0.03091
 Alpha virt. eigenvalues --   -0.02939  -0.01503  -0.01223  -0.00485  -0.00105
 Alpha virt. eigenvalues --   -0.00040   0.00347   0.00751   0.00825   0.00845

  Beta  occ. eigenvalues --  -38.44115 -38.44095 -38.43742 -38.43709 -38.43707
  Beta  occ. eigenvalues --  -38.43484 -38.43474  -2.19914  -2.19884  -2.19546
  Beta  occ. eigenvalues --   -2.19533  -2.19528  -2.19383  -2.19302  -1.13617
  Beta  occ. eigenvalues --   -1.13596  -1.13575  -1.13563  -1.13551  -1.13545
  Beta  occ. eigenvalues --   -1.13311  -1.13251  -1.13218  -1.13203  -1.13190
  Beta  occ. eigenvalues --   -1.13179  -1.13176  -1.13153  -1.13139  -1.13078
  Beta  occ. eigenvalues --   -1.13038  -1.13007  -1.12977  -1.12964  -1.12927
  Beta  occ. eigenvalues --   -0.17465  -0.12570  -0.12024
  Beta virt. eigenvalues --   -0.07332  -0.05541  -0.05116  -0.04433  -0.02626
  Beta virt. eigenvalues --   -0.02403  -0.01947  -0.01417  -0.01166  -0.00398
  Beta virt. eigenvalues --   -0.00117   0.00081   0.00386   0.00830   0.00860

 Mulliken charges and spin densities:
               1          2
     1  Na  -0.011743   0.012697
     2  Na   0.081618   0.110767
     3  Na   0.037278  -0.050453
     4  Na   0.046414  -0.050026
     5  Na  -0.112181   0.107541
     6  Na   0.056203   0.375858
     7  Na  -0.097588   0.493617
 Sum of Mulliken charges =  -0.00000   1.00000

 Dipole moment (field-independent basis, Debye):
    X=             -0.4281    Y=              0.0223    Z=              0.1876  Tot=              0.4679
 Quadrupole moment (field-independent basis, Debye-Ang):
   XX=            -58.1211   YY=            -64.9505   ZZ=            -71.8246
   XY=              0.4648   XZ=             -0.8231   YZ=             -0.3953

 Normal termination of Gaussian 16 at Tue Dec  5 11:49:08 2023.
