 Gaussian 16, Revision B.01,
 Gaussian 16:  ES64L-G16RevB.01 20-Dec-2017

 -------------------------
 #P B3LYP/6-311+g(d) force
 -------------------------

 -----
 DPGEN
 -----
 Symbolic Z-matrix:
 Charge =  0 Multiplicity = 2

                         Standard orientation:
 ---------------------------------------------------------------------
 Center     Atomic      Atomic             Coordinates (Angstroms)
 Number     Number       Type             X           Y           Z
 ---------------------------------------------------------------------
      1         11           0        1.017690   -3.769079   -0.011583
      2         11           0       -1.823388    2.872737   -0.332686
      3         11           0        1.255098    4.104193   -0.109090
      4         11           0        2.181810    0.834059    0.573926
      5         11           0       -2.657253   -2.817093   -0.203553
      6         11           0       -4.092775    0.041160    0.315749
      7         11           0        4.118818   -1.265976   -0.232764
 ---------------------------------------------------------------------

 SCF Done:  E(UB3LYP) =  -1136.11383042     A.U. after   21 cycles

 The electronic state is 2-A.
 Alpha  occ. eigenvalues --  -38.45234 -38.45007 -38.44757 -38.44517 -38.43939
 Alpha  occ. eigenvalues --  -38.43901 -38.43489  -2.21003  -2.20764  -2.20590
 Alpha  occ. eigenvalues --   -2.20289  -2.19766  -2.19742  -2.19306  -1.14695
 Alpha  occ. eigenvalues --   -1.14680  -1.14630  -1.14439  -1.14422  -1.14366
 Alpha  occ. eigenvalues --   -1.14296  -1.14256  -1.14236  -1.13975  -1.13967
 Alpha  occ. eigenvalues --   -1.13931  -1.13427  -1.13419  -1.13414  -1.13395
 Alpha  occ. eigenvalues --   -1.13378  -1.13349  -1.12958  -1.12955  -1.12947
 Alpha  occ. eigenvalues --   -0.15874  -0.13735  -0.13652  -0.10687
 Alpha virt. eigenvalues --   -0.07210  -0.05085  -0.04252  -0.03513  -0.03079
 Alpha virt. eigenvalues --   -0.02458  -0.02219  -0.02033  -0.01884  -0.00198
 Alpha virt. eigenvalues --   -0.00172  -0.00073   0.00271   0.00582   0.00603

  Beta  occ. eigenvalues --  -38.45223 -38.44941 -38.44738 -38.44516 -38.43905
  Beta  occ. eigenvalues --  -38.43861 -38.43447  -2.20987  -2.20643  -2.20559
  Beta  occ. eigenvalues --   -2.20291  -2.19702  -2.19670  -2.19227  -1.14689
  Beta  occ. eigenvalues --   -1.14674  -1.14583  -1.14359  -1.14341  -1.14268
  Beta  occ. eigenvalues --   -1.14265  -1.14238  -1.14203  -1.13981  -1.13972
  Beta  occ. eigenvalues --   -1.13901  -1.13380  -1.13371  -1.13364  -1.13354
  Beta  occ. eigenvalues --   -1.13330  -1.13305  -1.12911  -1.12904  -1.12889
  Beta  occ. eigenvalues --   -0.15436  -0.13207  -0.12924
  Beta virt. eigenvalues --   -0.07335  -0.07196  -0.04863  -0.03892  -0.03179
  Beta virt. eigenvalues --   -0.02494  -0.02270  -0.02021  -0.01828  -0.01753
  Beta virt. eigenvalues --   -0.00029   0.00155   0.00278   0.00335   0.00574

 Mulliken charges and spin densities:
               1          2
     1  Na  -0.170313   0.353728
     2  Na   0.005949   0.141273
     3  Na   0.640603   0.175404
     4  Na  -1.191833   0.107769
     5  Na   0.183834  -0.048204
     6  Na  -0.230416   0.174656
     7  Na   0.762177   0.095372
 Sum of Mulliken charges =  -0.00000   1.00000

 Dipole moment (field-independent basis, Debye):
    X=              0.7892    Y=              0.5061    Z=             -0.1788  Tot=              0.9544
 Quadrupole moment (field-independent basis, Debye-Ang):
   XX=            -63.6733   YY=            -61.8753   ZZ=            -73.1684
   XY=             -2.2774   XZ=             -0.9716   YZ=              0.0622

 Normal termination of Gaussian 16 at Sun Dec  3 22:10:06 2023.
