 Gaussian 16, Revision B.01,
 Gaussian 16:  ES64L-G16RevB.01 20-Dec-2017

 -------------------------
 #P B3LYP/6-311+g(d) force
 -------------------------

 -----
 DPGEN
 -----
 Symbolic Z-matrix:
 Charge =  0 Multiplicity = 2

                         Standard orientation:
 ---------------------------------------------------------------------
 Center     Atomic      Atomic             Coordinates (Angstroms)
 Number     Number       Type             X           Y           Z
 ---------------------------------------------------------------------
      1         11           0       -0.859096   -0.730759    1.819851
      2         11           0        2.270796    0.468721    1.904458
      3         11           0       -4.082557   -1.056920   -0.426944
      4         11           0       -2.221495    2.005827   -0.065753
      5         11           0        0.996920    1.879922   -1.310741
      6         11           0        0.310050   -1.763983   -1.081861
      7         11           0        3.585381   -0.802807   -0.839009
 ---------------------------------------------------------------------

 SCF Done:  E(UB3LYP) =  -1136.11638081     A.U. after   33 cycles

 The electronic state is 2-A.
 Alpha  occ. eigenvalues --  -38.45405 -38.44872 -38.44823 -38.44516 -38.44301
 Alpha  occ. eigenvalues --  -38.43099 -38.42746  -2.21152  -2.20705  -2.20682
 Alpha  occ. eigenvalues --   -2.20335  -2.20168  -2.18912  -2.18579  -1.14827
 Alpha  occ. eigenvalues --   -1.14813  -1.14770  -1.14414  -1.14360  -1.14358
 Alpha  occ. eigenvalues --   -1.14340  -1.14298  -1.14283  -1.14056  -1.14010
 Alpha  occ. eigenvalues --   -1.13935  -1.13860  -1.13806  -1.13773  -1.12600
 Alpha  occ. eigenvalues --   -1.12589  -1.12540  -1.12277  -1.12238  -1.12191
 Alpha  occ. eigenvalues --   -0.18077  -0.13888  -0.11656  -0.10642
 Alpha virt. eigenvalues --   -0.07464  -0.05303  -0.04442  -0.03289  -0.02990
 Alpha virt. eigenvalues --   -0.02543  -0.02307  -0.01605  -0.00794  -0.00218
 Alpha virt. eigenvalues --    0.00002   0.00160   0.00288   0.00599   0.00748

  Beta  occ. eigenvalues --  -38.45391 -38.44850 -38.44756 -38.44497 -38.44241
  Beta  occ. eigenvalues --  -38.43103 -38.42723  -2.21126  -2.20665  -2.20561
  Beta  occ. eigenvalues --   -2.20301  -2.20062  -2.18921  -2.18537  -1.14807
  Beta  occ. eigenvalues --   -1.14797  -1.14754  -1.14370  -1.14324  -1.14309
  Beta  occ. eigenvalues --   -1.14263  -1.14219  -1.14207  -1.14026  -1.13977
  Beta  occ. eigenvalues --   -1.13909  -1.13796  -1.13738  -1.13669  -1.12600
  Beta  occ. eigenvalues --   -1.12593  -1.12545  -1.12246  -1.12207  -1.12159
  Beta  occ. eigenvalues --   -0.17352  -0.13707  -0.10513
  Beta virt. eigenvalues --   -0.07599  -0.07278  -0.05110  -0.03991  -0.02919
  Beta virt. eigenvalues --   -0.02711  -0.01992  -0.01746  -0.01318  -0.00566
  Beta virt. eigenvalues --   -0.00147   0.00038   0.00227   0.00379   0.00739

 Mulliken charges and spin densities:
               1          2
     1  Na   0.191830   0.474471
     2  Na  -0.098188  -0.012954
     3  Na   0.399602   0.063702
     4  Na  -0.369981  -0.110082
     5  Na  -0.287873   0.330349
     6  Na  -0.550705   0.043915
     7  Na   0.715315   0.210599
 Sum of Mulliken charges =  -0.00000   1.00000

 Dipole moment (field-independent basis, Debye):
    X=              0.1021    Y=             -0.6117    Z=              0.0087  Tot=              0.6202
 Quadrupole moment (field-independent basis, Debye-Ang):
   XX=            -43.6253   YY=            -81.3683   ZZ=            -68.7292
   XY=              1.7074   XZ=              1.6098   YZ=              3.4924

 Normal termination of Gaussian 16 at Fri Dec  8 20:08:30 2023.
