 Gaussian 16, Revision B.01,
 Gaussian 16:  ES64L-G16RevB.01 20-Dec-2017

 -------------------------
 #P B3LYP/6-311+g(d) force
 -------------------------

 -----
 DPGEN
 -----
 Symbolic Z-matrix:
 Charge =  0 Multiplicity = 2

                         Standard orientation:
 ---------------------------------------------------------------------
 Center     Atomic      Atomic             Coordinates (Angstroms)
 Number     Number       Type             X           Y           Z
 ---------------------------------------------------------------------
      1         11           0        0.593718   -1.270360   -0.509303
      2         11           0        4.081517   -3.348028    0.178581
      3         11           0        3.094009    0.411557    0.525483
      4         11           0        2.692776    3.558794    0.116296
      5         11           0       -0.655467    1.665825   -0.471131
      6         11           0       -3.601071   -0.637800   -0.645435
      7         11           0       -6.205482   -0.379987    0.805510
 ---------------------------------------------------------------------

 SCF Done:  E(UB3LYP) =  -1136.11638241     A.U. after   22 cycles

 The electronic state is 2-A.
 Alpha  occ. eigenvalues --  -38.44724 -38.44703 -38.44618 -38.44176 -38.44129
 Alpha  occ. eigenvalues --  -38.43940 -38.43792  -2.20555  -2.20551  -2.20451
 Alpha  occ. eigenvalues --   -2.20044  -2.19869  -2.19757  -2.19617  -1.14327
 Alpha  occ. eigenvalues --   -1.14246  -1.14235  -1.14223  -1.14135  -1.14131
 Alpha  occ. eigenvalues --   -1.14106  -1.14073  -1.14071  -1.13756  -1.13736
 Alpha  occ. eigenvalues --   -1.13641  -1.13545  -1.13542  -1.13478  -1.13416
 Alpha  occ. eigenvalues --   -1.13406  -1.13362  -1.13298  -1.13290  -1.13265
 Alpha  occ. eigenvalues --   -0.16916  -0.14163  -0.11993  -0.11669
 Alpha virt. eigenvalues --   -0.06099  -0.05270  -0.04559  -0.03979  -0.02693
 Alpha virt. eigenvalues --   -0.02513  -0.02184  -0.01694  -0.01254  -0.00915
 Alpha virt. eigenvalues --   -0.00318  -0.00118   0.00021   0.00437   0.00668

  Beta  occ. eigenvalues --  -38.44685 -38.44663 -38.44536 -38.44152 -38.44117
  Beta  occ. eigenvalues --  -38.43897 -38.43794  -2.20487  -2.20483  -2.20300
  Beta  occ. eigenvalues --   -2.20001  -2.19846  -2.19678  -2.19630  -1.14276
  Beta  occ. eigenvalues --   -1.14200  -1.14190  -1.14181  -1.14084  -1.14036
  Beta  occ. eigenvalues --   -1.14030  -1.13969  -1.13968  -1.13719  -1.13709
  Beta  occ. eigenvalues --   -1.13603  -1.13529  -1.13525  -1.13464  -1.13355
  Beta  occ. eigenvalues --   -1.13352  -1.13318  -1.13309  -1.13306  -1.13215
  Beta  occ. eigenvalues --   -0.16230  -0.13330  -0.11731
  Beta virt. eigenvalues --   -0.08269  -0.05920  -0.04806  -0.04207  -0.03760
  Beta virt. eigenvalues --   -0.02434  -0.02305  -0.01681  -0.01500  -0.01112
  Beta virt. eigenvalues --   -0.00583  -0.00021   0.00039   0.00154   0.00486

 Mulliken charges and spin densities:
               1          2
     1  Na  -1.001669   0.235175
     2  Na   0.576506   0.102275
     3  Na  -1.005108   0.295512
     4  Na   0.898053   0.188539
     5  Na  -0.168213  -0.043664
     6  Na  -0.185759  -0.104215
     7  Na   0.886190   0.326379
 Sum of Mulliken charges =  -0.00000   1.00000

 Dipole moment (field-independent basis, Debye):
    X=             -0.2626    Y=              0.4263    Z=              0.1005  Tot=              0.5107
 Quadrupole moment (field-independent basis, Debye-Ang):
   XX=            -59.9681   YY=            -62.5022   ZZ=            -71.8210
   XY=             -2.5625   XZ=             -2.3558   YZ=              0.1819

 Normal termination of Gaussian 16 at Wed Nov 29 03:27:18 2023.
