 Gaussian 16, Revision B.01,
 Gaussian 16:  ES64L-G16RevB.01 20-Dec-2017

 -------------------------
 #P B3LYP/6-311+g(d) force
 -------------------------

 -----
 DPGEN
 -----
 Symbolic Z-matrix:
 Charge =  0 Multiplicity = 2

                         Standard orientation:
 ---------------------------------------------------------------------
 Center     Atomic      Atomic             Coordinates (Angstroms)
 Number     Number       Type             X           Y           Z
 ---------------------------------------------------------------------
      1         11           0       -2.562369   -1.158798    1.009034
      2         11           0        0.301675   -2.729365   -0.192221
      3         11           0        0.896473    0.051312    1.968768
      4         11           0       -0.434427   -0.017010   -1.670364
      5         11           0        1.332623    2.720260    0.504864
      6         11           0        2.918751   -0.566687   -0.836549
      7         11           0       -2.452726    1.700288   -0.783532
 ---------------------------------------------------------------------

 SCF Done:  E(UB3LYP) =  -1136.13027180     A.U. after   19 cycles

 The electronic state is 2-A.
 Alpha  occ. eigenvalues --  -38.44149 -38.43883 -38.43869 -38.43717 -38.43626
 Alpha  occ. eigenvalues --  -38.43470 -38.43040  -2.19992  -2.19785  -2.19735
 Alpha  occ. eigenvalues --   -2.19653  -2.19593  -2.19298  -2.18931  -1.13677
 Alpha  occ. eigenvalues --   -1.13654  -1.13611  -1.13602  -1.13477  -1.13431
 Alpha  occ. eigenvalues --   -1.13415  -1.13398  -1.13389  -1.13380  -1.13300
 Alpha  occ. eigenvalues --   -1.13254  -1.13212  -1.13175  -1.13123  -1.12992
 Alpha  occ. eigenvalues --   -1.12938  -1.12917  -1.12629  -1.12592  -1.12551
 Alpha  occ. eigenvalues --   -0.18702  -0.13107  -0.12257  -0.11462
 Alpha virt. eigenvalues --   -0.05398  -0.04903  -0.04422  -0.03630  -0.03134
 Alpha virt. eigenvalues --   -0.02918  -0.01389  -0.00923  -0.00342   0.00112
 Alpha virt. eigenvalues --    0.00156   0.00356   0.00784   0.00878   0.00900

  Beta  occ. eigenvalues --  -38.44127 -38.43857 -38.43798 -38.43700 -38.43563
  Beta  occ. eigenvalues --  -38.43462 -38.43035  -2.19955  -2.19687  -2.19655
  Beta  occ. eigenvalues --   -2.19585  -2.19519  -2.19286  -2.18928  -1.13638
  Beta  occ. eigenvalues --   -1.13631  -1.13581  -1.13542  -1.13392  -1.13375
  Beta  occ. eigenvalues --   -1.13359  -1.13339  -1.13330  -1.13312  -1.13231
  Beta  occ. eigenvalues --   -1.13200  -1.13174  -1.13143  -1.13064  -1.12967
  Beta  occ. eigenvalues --   -1.12928  -1.12910  -1.12625  -1.12582  -1.12530
  Beta  occ. eigenvalues --   -0.17996  -0.12857  -0.11938
  Beta virt. eigenvalues --   -0.07596  -0.05312  -0.04697  -0.04331  -0.03055
  Beta virt. eigenvalues --   -0.02426  -0.01932  -0.01256  -0.00832  -0.00196
  Beta virt. eigenvalues --    0.00160   0.00165   0.00407   0.00886   0.00890

 Mulliken charges and spin densities:
               1          2
     1  Na  -0.302986   0.210234
     2  Na   0.197391   0.042919
     3  Na   0.004062   0.454632
     4  Na  -0.080938   0.323517
     5  Na  -0.244817  -0.045788
     6  Na   0.058507  -0.006734
     7  Na   0.368782   0.021220
 Sum of Mulliken charges =  -0.00000   1.00000

 Dipole moment (field-independent basis, Debye):
    X=              0.2310    Y=             -0.0359    Z=              0.2000  Tot=              0.3077
 Quadrupole moment (field-independent basis, Debye-Ang):
   XX=            -59.1890   YY=            -65.7483   ZZ=            -70.1816
   XY=             -0.3843   XZ=             -3.6052   YZ=             -1.0834

 Normal termination of Gaussian 16 at Tue Dec  5 20:40:30 2023.
