 Gaussian 16, Revision B.01,
 Gaussian 16:  ES64L-G16RevB.01 20-Dec-2017

 -------------------------
 #P B3LYP/6-311+g(d) force
 -------------------------

 -----
 DPGEN
 -----
 Symbolic Z-matrix:
 Charge =  0 Multiplicity = 2

                         Standard orientation:
 ---------------------------------------------------------------------
 Center     Atomic      Atomic             Coordinates (Angstroms)
 Number     Number       Type             X           Y           Z
 ---------------------------------------------------------------------
      1         11           0       -1.017284   -3.183995    0.225977
      2         11           0        1.696179    3.190056   -0.089734
      3         11           0       -1.403393    3.210094   -0.473482
      4         11           0        3.735158    0.518665    0.362025
      5         11           0        3.110799   -2.807776   -0.225617
      6         11           0       -3.188744    0.259926    1.342747
      7         11           0       -2.932716   -1.186972   -1.141916
 ---------------------------------------------------------------------

 SCF Done:  E(UB3LYP) =  -1136.10558744     A.U. after   23 cycles

 The electronic state is 2-A.
 Alpha  occ. eigenvalues --  -38.45026 -38.44832 -38.44558 -38.44544 -38.44336
 Alpha  occ. eigenvalues --  -38.44108 -38.43374  -2.20916  -2.20614  -2.20406
 Alpha  occ. eigenvalues --   -2.20338  -2.20100  -2.19936  -2.19210  -1.14686
 Alpha  occ. eigenvalues --   -1.14585  -1.14546  -1.14304  -1.14295  -1.14249
 Alpha  occ. eigenvalues --   -1.14063  -1.14028  -1.14016  -1.14007  -1.14001
 Alpha  occ. eigenvalues --   -1.13983  -1.13768  -1.13750  -1.13734  -1.13602
 Alpha  occ. eigenvalues --   -1.13573  -1.13553  -1.12872  -1.12855  -1.12851
 Alpha  occ. eigenvalues --   -0.16365  -0.14071  -0.13118  -0.10087
 Alpha virt. eigenvalues --   -0.07346  -0.05740  -0.03993  -0.03354  -0.02936
 Alpha virt. eigenvalues --   -0.02657  -0.02363  -0.01665  -0.01326  -0.00876
 Alpha virt. eigenvalues --   -0.00131   0.00110   0.00290   0.00414   0.00532

  Beta  occ. eigenvalues --  -38.45014 -38.44831 -38.44545 -38.44484 -38.44309
  Beta  occ. eigenvalues --  -38.44040 -38.43338  -2.20902  -2.20617  -2.20318
  Beta  occ. eigenvalues --   -2.20295  -2.20053  -2.19813  -2.19143  -1.14667
  Beta  occ. eigenvalues --   -1.14560  -1.14512  -1.14306  -1.14300  -1.14220
  Beta  occ. eigenvalues --   -1.14005  -1.13996  -1.13995  -1.13955  -1.13944
  Beta  occ. eigenvalues --   -1.13916  -1.13738  -1.13721  -1.13687  -1.13515
  Beta  occ. eigenvalues --   -1.13491  -1.13470  -1.12830  -1.12809  -1.12807
  Beta  occ. eigenvalues --   -0.15803  -0.13548  -0.12374
  Beta virt. eigenvalues --   -0.07465  -0.06845  -0.05472  -0.03747  -0.03002
  Beta virt. eigenvalues --   -0.02616  -0.02257  -0.01989  -0.01558  -0.01162
  Beta virt. eigenvalues --   -0.00678   0.00130   0.00230   0.00396   0.00486

 Mulliken charges and spin densities:
               1          2
     1  Na  -0.509043   0.271450
     2  Na   0.410044   0.166474
     3  Na  -0.185600  -0.013717
     4  Na  -0.383397   0.075124
     5  Na   0.108608   0.105968
     6  Na   0.101898   0.312153
     7  Na   0.457491   0.082548
 Sum of Mulliken charges =  -0.00000   1.00000

 Dipole moment (field-independent basis, Debye):
    X=             -0.9666    Y=             -0.3040    Z=             -0.0382  Tot=              1.0140
 Quadrupole moment (field-independent basis, Debye-Ang):
   XX=            -68.2145   YY=            -69.7057   ZZ=            -66.4899
   XY=             -0.6258   XZ=              2.3259   YZ=             -0.8140

 Normal termination of Gaussian 16 at Mon Dec  4 04:45:53 2023.
