 Gaussian 16, Revision B.01,
 Gaussian 16:  ES64L-G16RevB.01 20-Dec-2017

 -------------------------
 #P B3LYP/6-311+g(d) force
 -------------------------

 -----
 DPGEN
 -----
 Symbolic Z-matrix:
 Charge =  0 Multiplicity = 2

                         Standard orientation:
 ---------------------------------------------------------------------
 Center     Atomic      Atomic             Coordinates (Angstroms)
 Number     Number       Type             X           Y           Z
 ---------------------------------------------------------------------
      1         11           0        0.111333   -2.120906    0.413886
      2         11           0       -2.705669   -3.095954   -0.275599
      3         11           0       -3.002746   -0.004788   -0.610620
      4         11           0       -2.826510    3.367304   -0.296845
      5         11           0       -0.609251    1.761951    1.041582
      6         11           0        3.096995   -0.665015    0.427215
      7         11           0        5.935848    0.757408   -0.699619
 ---------------------------------------------------------------------

 SCF Done:  E(UB3LYP) =  -1136.12151292     A.U. after   19 cycles

 The electronic state is 2-A.
 Alpha  occ. eigenvalues --  -38.44949 -38.44570 -38.44343 -38.44099 -38.43703
 Alpha  occ. eigenvalues --  -38.43626 -38.42971  -2.20796  -2.20421  -2.20237
 Alpha  occ. eigenvalues --   -2.19903  -2.19590  -2.19508  -2.18779  -1.14482
 Alpha  occ. eigenvalues --   -1.14480  -1.14437  -1.14082  -1.14066  -1.14050
 Alpha  occ. eigenvalues --   -1.13926  -1.13921  -1.13849  -1.13535  -1.13535
 Alpha  occ. eigenvalues --   -1.13522  -1.13322  -1.13261  -1.13250  -1.13161
 Alpha  occ. eigenvalues --   -1.13139  -1.13092  -1.12469  -1.12458  -1.12432
 Alpha  occ. eigenvalues --   -0.17237  -0.13796  -0.13131  -0.10937
 Alpha virt. eigenvalues --   -0.06029  -0.05696  -0.04288  -0.04180  -0.02584
 Alpha virt. eigenvalues --   -0.02064  -0.01913  -0.01718  -0.01422  -0.00778
 Alpha virt. eigenvalues --   -0.00480   0.00126   0.00380   0.00419   0.00631

  Beta  occ. eigenvalues --  -38.44925 -38.44567 -38.44314 -38.43993 -38.43671
  Beta  occ. eigenvalues --  -38.43611 -38.42975  -2.20752  -2.20415  -2.20185
  Beta  occ. eigenvalues --   -2.19705  -2.19532  -2.19482  -2.18795  -1.14455
  Beta  occ. eigenvalues --   -1.14450  -1.14400  -1.14071  -1.14063  -1.14044
  Beta  occ. eigenvalues --   -1.13892  -1.13881  -1.13808  -1.13401  -1.13400
  Beta  occ. eigenvalues --   -1.13393  -1.13291  -1.13223  -1.13208  -1.13132
  Beta  occ. eigenvalues --   -1.13121  -1.13064  -1.12485  -1.12475  -1.12383
  Beta  occ. eigenvalues --   -0.16806  -0.13495  -0.12377
  Beta virt. eigenvalues --   -0.07512  -0.05816  -0.05320  -0.04047  -0.03731
  Beta virt. eigenvalues --   -0.02382  -0.01959  -0.01673  -0.01405  -0.01046
  Beta virt. eigenvalues --   -0.00396  -0.00151   0.00287   0.00492   0.00591

 Mulliken charges and spin densities:
               1          2
     1  Na  -1.145955  -0.079657
     2  Na   1.006875   0.164940
     3  Na  -0.889461   0.284578
     4  Na   1.284892   0.026184
     5  Na  -0.662132   0.084124
     6  Na  -0.048167   0.066322
     7  Na   0.453949   0.453510
 Sum of Mulliken charges =  -0.00000   1.00000

 Dipole moment (field-independent basis, Debye):
    X=             -2.1265    Y=              1.2835    Z=             -0.1271  Tot=              2.4871
 Quadrupole moment (field-independent basis, Debye-Ang):
   XX=            -68.3353   YY=            -57.6035   ZZ=            -71.1105
   XY=             -2.0125   XZ=              0.2450   YZ=             -1.3944

 Normal termination of Gaussian 16 at Tue Nov 28 21:31:36 2023.
