 Gaussian 16, Revision B.01,
 Gaussian 16:  ES64L-G16RevB.01 20-Dec-2017

 -------------------------
 #P B3LYP/6-311+g(d) force
 -------------------------

 -----
 DPGEN
 -----
 Symbolic Z-matrix:
 Charge =  0 Multiplicity = 2

                         Standard orientation:
 ---------------------------------------------------------------------
 Center     Atomic      Atomic             Coordinates (Angstroms)
 Number     Number       Type             X           Y           Z
 ---------------------------------------------------------------------
      1         11           0       -0.570487   -1.313544   -1.480691
      2         11           0       -3.487215   -0.257759   -0.236982
      3         11           0       -1.003170   -0.811464    1.812012
      4         11           0        2.281328    1.128838   -1.098814
      5         11           0        2.521938   -1.845390    0.056114
      6         11           0        1.317997    1.220550    1.478947
      7         11           0       -1.060390    1.878769   -0.530585
 ---------------------------------------------------------------------

 SCF Done:  E(UB3LYP) =  -1136.12323832     A.U. after   23 cycles

 The electronic state is 2-A.
 Alpha  occ. eigenvalues --  -38.44745 -38.44149 -38.44088 -38.43528 -38.43390
 Alpha  occ. eigenvalues --  -38.43214 -38.42747  -2.20620  -2.20100  -2.20061
 Alpha  occ. eigenvalues --   -2.19445  -2.19417  -2.19071  -2.18708  -1.14292
 Alpha  occ. eigenvalues --   -1.14282  -1.14261  -1.13908  -1.13812  -1.13734
 Alpha  occ. eigenvalues --   -1.13700  -1.13695  -1.13650  -1.13148  -1.13109
 Alpha  occ. eigenvalues --   -1.13093  -1.13051  -1.13049  -1.12987  -1.12749
 Alpha  occ. eigenvalues --   -1.12726  -1.12710  -1.12411  -1.12372  -1.12316
 Alpha  occ. eigenvalues --   -0.19489  -0.14123  -0.11844  -0.11296
 Alpha virt. eigenvalues --   -0.06313  -0.04767  -0.04375  -0.03329  -0.02751
 Alpha virt. eigenvalues --   -0.02695  -0.01997  -0.00658  -0.00406   0.00136
 Alpha virt. eigenvalues --    0.00302   0.00415   0.00537   0.00879   0.00936

  Beta  occ. eigenvalues --  -38.44741 -38.44065 -38.44064 -38.43494 -38.43349
  Beta  occ. eigenvalues --  -38.43214 -38.42725  -2.20615  -2.20017  -2.19949
  Beta  occ. eigenvalues --   -2.19384  -2.19348  -2.19073  -2.18672  -1.14282
  Beta  occ. eigenvalues --   -1.14270  -1.14257  -1.13878  -1.13706  -1.13658
  Beta  occ. eigenvalues --   -1.13621  -1.13617  -1.13592  -1.13112  -1.13046
  Beta  occ. eigenvalues --   -1.13038  -1.13007  -1.12993  -1.12933  -1.12750
  Beta  occ. eigenvalues --   -1.12715  -1.12710  -1.12390  -1.12315  -1.12294
  Beta  occ. eigenvalues --   -0.18680  -0.13944  -0.11122
  Beta virt. eigenvalues --   -0.07687  -0.06160  -0.04658  -0.03733  -0.03096
  Beta virt. eigenvalues --   -0.02060  -0.01920  -0.01812  -0.00565  -0.00109
  Beta virt. eigenvalues --    0.00193   0.00333   0.00430   0.00710   0.00910

 Mulliken charges and spin densities:
               1          2
     1  Na  -0.506616   0.302658
     2  Na   0.935470   0.062347
     3  Na  -0.421645   0.164300
     4  Na   0.293198   0.193099
     5  Na  -0.217037  -0.065555
     6  Na   0.508957   0.213406
     7  Na  -0.592327   0.129745
 Sum of Mulliken charges =  -0.00000   1.00000

 Dipole moment (field-independent basis, Debye):
    X=             -0.8930    Y=             -0.2118    Z=             -0.1382  Tot=              0.9281
 Quadrupole moment (field-independent basis, Debye-Ang):
   XX=            -51.0976   YY=            -76.5769   ZZ=            -67.2560
   XY=              0.4002   XZ=              0.1027   YZ=             -2.5659

 Normal termination of Gaussian 16 at Tue Dec  5 17:45:15 2023.
