 Gaussian 16, Revision B.01,
 Gaussian 16:  ES64L-G16RevB.01 20-Dec-2017

 -------------------------
 #P B3LYP/6-311+g(d) force
 -------------------------

 -----
 DPGEN
 -----
 Symbolic Z-matrix:
 Charge =  0 Multiplicity = 2

                         Standard orientation:
 ---------------------------------------------------------------------
 Center     Atomic      Atomic             Coordinates (Angstroms)
 Number     Number       Type             X           Y           Z
 ---------------------------------------------------------------------
      1         11           0        1.124400    0.327057    2.021550
      2         11           0       -1.743723    2.965080    0.196377
      3         11           0        2.626434   -1.620419   -0.672188
      4         11           0       -0.442425   -0.012277   -1.554407
      5         11           0        2.337076    2.117531   -0.433273
      6         11           0       -0.283164   -2.867138    0.527350
      7         11           0       -3.618600   -0.909834   -0.085409
 ---------------------------------------------------------------------

 SCF Done:  E(UB3LYP) =  -1136.12976479     A.U. after   21 cycles

 The electronic state is 2-A.
 Alpha  occ. eigenvalues --  -38.44710 -38.44623 -38.44082 -38.43838 -38.43532
 Alpha  occ. eigenvalues --  -38.43506 -38.43386  -2.20442  -2.20368  -2.19899
 Alpha  occ. eigenvalues --   -2.19681  -2.19372  -2.19356  -2.19272  -1.14126
 Alpha  occ. eigenvalues --   -1.14101  -1.14076  -1.14050  -1.14016  -1.14011
 Alpha  occ. eigenvalues --   -1.13593  -1.13562  -1.13526  -1.13355  -1.13340
 Alpha  occ. eigenvalues --   -1.13323  -1.13045  -1.13030  -1.13022  -1.13016
 Alpha  occ. eigenvalues --   -1.12985  -1.12975  -1.12966  -1.12909  -1.12895
 Alpha  occ. eigenvalues --   -0.17809  -0.12705  -0.12328  -0.10329
 Alpha virt. eigenvalues --   -0.06335  -0.05481  -0.04855  -0.03038  -0.02934
 Alpha virt. eigenvalues --   -0.02273  -0.01719  -0.01505  -0.00871  -0.00627
 Alpha virt. eigenvalues --   -0.00054   0.00330   0.00579   0.00677   0.00765

  Beta  occ. eigenvalues --  -38.44711 -38.44627 -38.44073 -38.43819 -38.43520
  Beta  occ. eigenvalues --  -38.43422 -38.43336  -2.20446  -2.20375  -2.19885
  Beta  occ. eigenvalues --   -2.19650  -2.19336  -2.19215  -2.19182  -1.14120
  Beta  occ. eigenvalues --   -1.14104  -1.14080  -1.14049  -1.14022  -1.14017
  Beta  occ. eigenvalues --   -1.13577  -1.13539  -1.13511  -1.13335  -1.13307
  Beta  occ. eigenvalues --   -1.13290  -1.13027  -1.12993  -1.12971  -1.12925
  Beta  occ. eigenvalues --   -1.12910  -1.12903  -1.12865  -1.12849  -1.12819
  Beta  occ. eigenvalues --   -0.17107  -0.12549  -0.12141
  Beta virt. eigenvalues --   -0.06478  -0.06330  -0.05349  -0.04719  -0.02452
  Beta virt. eigenvalues --   -0.02257  -0.01674  -0.01466  -0.01248  -0.00877
  Beta virt. eigenvalues --   -0.00597   0.00136   0.00392   0.00662   0.00727

 Mulliken charges and spin densities:
               1          2
     1  Na  -0.342916   0.674194
     2  Na  -0.249826  -0.129903
     3  Na   0.270462   0.131664
     4  Na   0.408789   0.379266
     5  Na   0.180414  -0.027838
     6  Na  -0.213975   0.042794
     7  Na  -0.052948  -0.070178
 Sum of Mulliken charges =  -0.00000   1.00000

 Dipole moment (field-independent basis, Debye):
    X=             -0.4097    Y=              0.3241    Z=              0.0001  Tot=              0.5224
 Quadrupole moment (field-independent basis, Debye-Ang):
   XX=            -55.2514   YY=            -61.2182   ZZ=            -75.9803
   XY=             -0.2292   XZ=             -3.2022   YZ=             -0.4469

 Normal termination of Gaussian 16 at Thu Dec  7 09:32:23 2023.
