 Gaussian 16, Revision B.01,
 Gaussian 16:  ES64L-G16RevB.01 20-Dec-2017

 -------------------------
 #P B3LYP/6-311+g(d) force
 -------------------------

 -----
 DPGEN
 -----
 Symbolic Z-matrix:
 Charge =  0 Multiplicity = 2

                         Standard orientation:
 ---------------------------------------------------------------------
 Center     Atomic      Atomic             Coordinates (Angstroms)
 Number     Number       Type             X           Y           Z
 ---------------------------------------------------------------------
      1         11           0        1.914221    1.912824   -0.106020
      2         11           0       -2.382260   -1.960867   -0.865360
      3         11           0       -1.602788    2.102271   -1.166043
      4         11           0        3.998123   -0.685263    0.572753
      5         11           0        0.009422   -0.262758    1.820525
      6         11           0       -3.444583    0.111685    1.140604
      7         11           0        1.507865   -1.217893   -1.396459
 ---------------------------------------------------------------------

 SCF Done:  E(UB3LYP) =  -1136.11801463     A.U. after   28 cycles

 The electronic state is 2-A.
 Alpha  occ. eigenvalues --  -38.45124 -38.45014 -38.44698 -38.44167 -38.43879
 Alpha  occ. eigenvalues --  -38.43395 -38.43162  -2.20938  -2.20842  -2.20556
 Alpha  occ. eigenvalues --   -2.20034  -2.19704  -2.19262  -2.18966  -1.14617
 Alpha  occ. eigenvalues --   -1.14610  -1.14580  -1.14534  -1.14484  -1.14463
 Alpha  occ. eigenvalues --   -1.14243  -1.14210  -1.14188  -1.13716  -1.13683
 Alpha  occ. eigenvalues --   -1.13653  -1.13370  -1.13360  -1.13351  -1.12954
 Alpha  occ. eigenvalues --   -1.12949  -1.12870  -1.12636  -1.12620  -1.12592
 Alpha  occ. eigenvalues --   -0.18123  -0.14511  -0.10974  -0.10735
 Alpha virt. eigenvalues --   -0.07207  -0.05531  -0.05031  -0.03262  -0.02874
 Alpha virt. eigenvalues --   -0.02493  -0.02118  -0.01136  -0.01084  -0.00406
 Alpha virt. eigenvalues --    0.00068   0.00199   0.00208   0.00551   0.00625

  Beta  occ. eigenvalues --  -38.45141 -38.44953 -38.44684 -38.44117 -38.43864
  Beta  occ. eigenvalues --  -38.43395 -38.43128  -2.20971  -2.20731  -2.20530
  Beta  occ. eigenvalues --   -2.19940  -2.19678  -2.19263  -2.18902  -1.14638
  Beta  occ. eigenvalues --   -1.14631  -1.14597  -1.14446  -1.14413  -1.14378
  Beta  occ. eigenvalues --   -1.14234  -1.14175  -1.14170  -1.13654  -1.13613
  Beta  occ. eigenvalues --   -1.13582  -1.13355  -1.13337  -1.13319  -1.12959
  Beta  occ. eigenvalues --   -1.12933  -1.12872  -1.12578  -1.12577  -1.12559
  Beta  occ. eigenvalues --   -0.17485  -0.14454  -0.10676
  Beta virt. eigenvalues --   -0.07106  -0.06945  -0.05446  -0.04372  -0.02989
  Beta virt. eigenvalues --   -0.02701  -0.01857  -0.01450  -0.00971  -0.00746
  Beta virt. eigenvalues --   -0.00402   0.00082   0.00239   0.00367   0.00645

 Mulliken charges and spin densities:
               1          2
     1  Na   0.153319   0.111207
     2  Na  -0.250750   0.070714
     3  Na  -0.486147   0.204172
     4  Na   1.028184  -0.100070
     5  Na  -0.729756   0.321619
     6  Na   0.839320   0.126741
     7  Na  -0.554170   0.265617
 Sum of Mulliken charges =  -0.00000   1.00000

 Dipole moment (field-independent basis, Debye):
    X=              0.7222    Y=             -0.0439    Z=              0.5758  Tot=              0.9247
 Quadrupole moment (field-independent basis, Debye-Ang):
   XX=            -47.0142   YY=            -77.9160   ZZ=            -71.0081
   XY=             -1.0672   XZ=              1.6617   YZ=              0.7962

 Normal termination of Gaussian 16 at Fri Dec  8 06:30:47 2023.
