 Gaussian 16, Revision B.01,
 Gaussian 16:  ES64L-G16RevB.01 20-Dec-2017

 -------------------------
 #P B3LYP/6-311+g(d) force
 -------------------------

 -----
 DPGEN
 -----
 Symbolic Z-matrix:
 Charge =  0 Multiplicity = 2

                         Standard orientation:
 ---------------------------------------------------------------------
 Center     Atomic      Atomic             Coordinates (Angstroms)
 Number     Number       Type             X           Y           Z
 ---------------------------------------------------------------------
      1         11           0        0.096658    1.378381    0.349481
      2         11           0        6.830226    0.391089    0.262752
      3         11           0        3.464358    0.021951   -0.240515
      4         11           0        0.782431   -2.146475    0.024360
      5         11           0       -2.611377   -1.157426   -0.884497
      6         11           0       -3.430851    2.080277   -0.480851
      7         11           0       -5.131444   -0.567795    0.969269
 ---------------------------------------------------------------------

 SCF Done:  E(UB3LYP) =  -1136.11718847     A.U. after   22 cycles

 The electronic state is 2-A.
 Alpha  occ. eigenvalues --  -38.44927 -38.44855 -38.44849 -38.44818 -38.44255
 Alpha  occ. eigenvalues --  -38.43143 -38.43007  -2.20774  -2.20726  -2.20689
 Alpha  occ. eigenvalues --   -2.20635  -2.20078  -2.18886  -2.18830  -1.14476
 Alpha  occ. eigenvalues --   -1.14460  -1.14440  -1.14402  -1.14377  -1.14367
 Alpha  occ. eigenvalues --   -1.14335  -1.14322  -1.14309  -1.14292  -1.14264
 Alpha  occ. eigenvalues --   -1.14240  -1.13749  -1.13734  -1.13699  -1.12562
 Alpha  occ. eigenvalues --   -1.12562  -1.12546  -1.12535  -1.12515  -1.12406
 Alpha  occ. eigenvalues --   -0.17500  -0.14278  -0.11751  -0.11019
 Alpha virt. eigenvalues --   -0.06882  -0.05855  -0.04994  -0.03459  -0.02971
 Alpha virt. eigenvalues --   -0.02520  -0.02100  -0.01396  -0.01079  -0.00796
 Alpha virt. eigenvalues --   -0.00469  -0.00276   0.00089   0.00172   0.00481

  Beta  occ. eigenvalues --  -38.44875 -38.44815 -38.44810 -38.44770 -38.44225
  Beta  occ. eigenvalues --  -38.43173 -38.42998  -2.20680  -2.20659  -2.20616
  Beta  occ. eigenvalues --   -2.20548  -2.20022  -2.18942  -2.18811  -1.14420
  Beta  occ. eigenvalues --   -1.14404  -1.14377  -1.14328  -1.14319  -1.14297
  Beta  occ. eigenvalues --   -1.14286  -1.14266  -1.14247  -1.14231  -1.14214
  Beta  occ. eigenvalues --   -1.14161  -1.13711  -1.13680  -1.13669  -1.12600
  Beta  occ. eigenvalues --   -1.12600  -1.12579  -1.12516  -1.12501  -1.12414
  Beta  occ. eigenvalues --   -0.16702  -0.14146  -0.11077
  Beta virt. eigenvalues --   -0.07754  -0.06590  -0.05303  -0.04682  -0.02964
  Beta virt. eigenvalues --   -0.02694  -0.02278  -0.01639  -0.01030  -0.00945
  Beta virt. eigenvalues --   -0.00686  -0.00303  -0.00115   0.00271   0.00315

 Mulliken charges and spin densities:
               1          2
     1  Na  -0.099271   0.443032
     2  Na   0.043368  -0.122376
     3  Na  -0.535049  -0.094736
     4  Na   0.229676   0.161541
     5  Na  -0.560104   0.378346
     6  Na   0.506716   0.140870
     7  Na   0.414665   0.093323
 Sum of Mulliken charges =  -0.00000   1.00000

 Dipole moment (field-independent basis, Debye):
    X=             -3.7801    Y=             -0.1127    Z=              0.3996  Tot=              3.8028
 Quadrupole moment (field-independent basis, Debye-Ang):
   XX=            -69.4963   YY=            -66.6239   ZZ=            -68.9792
   XY=             -2.8421   XZ=             -1.1830   YZ=             -0.5147

 Normal termination of Gaussian 16 at Wed Nov 29 01:24:14 2023.
