 Gaussian 16, Revision B.01,
 Gaussian 16:  ES64L-G16RevB.01 20-Dec-2017

 -------------------------
 #P B3LYP/6-311+g(d) force
 -------------------------

 -----
 DPGEN
 -----
 Symbolic Z-matrix:
 Charge =  0 Multiplicity = 2

                         Standard orientation:
 ---------------------------------------------------------------------
 Center     Atomic      Atomic             Coordinates (Angstroms)
 Number     Number       Type             X           Y           Z
 ---------------------------------------------------------------------
      1         11           0       -3.092766    1.330052    0.502935
      2         11           0        2.799728   -2.160009    0.190042
      3         11           0        3.158012    1.397157   -0.331642
      4         11           0        0.246550   -0.277182    2.052880
      5         11           0       -0.232730   -0.647823   -1.549127
      6         11           0       -0.135960    2.550071   -0.448328
      7         11           0       -2.742833   -2.192266   -0.416760
 ---------------------------------------------------------------------

 SCF Done:  E(UB3LYP) =  -1136.12596792     A.U. after   20 cycles

 The electronic state is 2-A.
 Alpha  occ. eigenvalues --  -38.44697 -38.44652 -38.44334 -38.44264 -38.43924
 Alpha  occ. eigenvalues --  -38.43693 -38.42586  -2.20484  -2.20456  -2.20113
 Alpha  occ. eigenvalues --   -2.20089  -2.19736  -2.19593  -2.18454  -1.14161
 Alpha  occ. eigenvalues --   -1.14137  -1.14128  -1.14122  -1.14114  -1.14090
 Alpha  occ. eigenvalues --   -1.13784  -1.13775  -1.13766  -1.13756  -1.13729
 Alpha  occ. eigenvalues --   -1.13688  -1.13454  -1.13382  -1.13374  -1.13279
 Alpha  occ. eigenvalues --   -1.13235  -1.13194  -1.12151  -1.12114  -1.12089
 Alpha  occ. eigenvalues --   -0.17950  -0.13451  -0.11758  -0.10560
 Alpha virt. eigenvalues --   -0.06453  -0.06157  -0.03980  -0.03320  -0.02595
 Alpha virt. eigenvalues --   -0.02483  -0.02230  -0.01710  -0.00806  -0.00182
 Alpha virt. eigenvalues --   -0.00096   0.00215   0.00587   0.00605   0.00667

  Beta  occ. eigenvalues --  -38.44687 -38.44640 -38.44332 -38.44177 -38.43912
  Beta  occ. eigenvalues --  -38.43640 -38.42579  -2.20467  -2.20434  -2.20111
  Beta  occ. eigenvalues --   -2.19929  -2.19717  -2.19496  -2.18444  -1.14145
  Beta  occ. eigenvalues --   -1.14122  -1.14115  -1.14109  -1.14088  -1.14076
  Beta  occ. eigenvalues --   -1.13773  -1.13766  -1.13759  -1.13658  -1.13622
  Beta  occ. eigenvalues --   -1.13569  -1.13426  -1.13367  -1.13357  -1.13210
  Beta  occ. eigenvalues --   -1.13167  -1.13127  -1.12146  -1.12105  -1.12063
  Beta  occ. eigenvalues --   -0.17295  -0.13253  -0.11445
  Beta virt. eigenvalues --   -0.06893  -0.06287  -0.06003  -0.03852  -0.02769
  Beta virt. eigenvalues --   -0.02109  -0.01947  -0.01731  -0.01321  -0.00835
  Beta virt. eigenvalues --   -0.00129   0.00030   0.00270   0.00629   0.00681

 Mulliken charges and spin densities:
               1          2
     1  Na   0.176393   0.123933
     2  Na   0.115120   0.040150
     3  Na   0.055544   0.018193
     4  Na  -0.253680   0.515560
     5  Na  -0.007882   0.192788
     6  Na  -0.177024   0.050473
     7  Na   0.091529   0.058902
 Sum of Mulliken charges =  -0.00000   1.00000

 Dipole moment (field-independent basis, Debye):
    X=              0.2124    Y=             -0.2526    Z=              0.3120  Tot=              0.4542
 Quadrupole moment (field-independent basis, Debye-Ang):
   XX=            -49.3672   YY=            -68.8050   ZZ=            -75.1654
   XY=             -0.7959   XZ=             -2.2065   YZ=             -0.1940

 Normal termination of Gaussian 16 at Thu Dec  7 04:34:16 2023.
