 Gaussian 16, Revision B.01,
 Gaussian 16:  ES64L-G16RevB.01 20-Dec-2017

 -------------------------
 #P B3LYP/6-311+g(d) force
 -------------------------

 -----
 DPGEN
 -----
 Symbolic Z-matrix:
 Charge =  0 Multiplicity = 2

                         Standard orientation:
 ---------------------------------------------------------------------
 Center     Atomic      Atomic             Coordinates (Angstroms)
 Number     Number       Type             X           Y           Z
 ---------------------------------------------------------------------
      1         11           0       -0.298610    0.548710    0.654184
      2         11           0        6.730663    0.251990    0.645651
      3         11           0        3.889260    0.136447   -0.613061
      4         11           0        0.845484   -1.849541   -0.323583
      5         11           0       -2.673221   -0.827181   -0.827523
      6         11           0       -2.865883    2.563328   -0.395178
      7         11           0       -5.627693   -0.823754    0.859511
 ---------------------------------------------------------------------

 SCF Done:  E(UB3LYP) =  -1136.11021686     A.U. after   20 cycles

 The electronic state is 2-A.
 Alpha  occ. eigenvalues --  -38.44787 -38.44709 -38.44695 -38.44597 -38.43867
 Alpha  occ. eigenvalues --  -38.43397 -38.43294  -2.20652  -2.20575  -2.20545
 Alpha  occ. eigenvalues --   -2.20492  -2.19765  -2.19180  -2.19111  -1.14412
 Alpha  occ. eigenvalues --   -1.14353  -1.14297  -1.14236  -1.14223  -1.14210
 Alpha  occ. eigenvalues --   -1.14195  -1.14189  -1.14170  -1.14166  -1.14131
 Alpha  occ. eigenvalues --   -1.14070  -1.13441  -1.13397  -1.13377  -1.12904
 Alpha  occ. eigenvalues --   -1.12840  -1.12839  -1.12789  -1.12774  -1.12687
 Alpha  occ. eigenvalues --   -0.17555  -0.13904  -0.11856  -0.11487
 Alpha virt. eigenvalues --   -0.06631  -0.05651  -0.04503  -0.03369  -0.02855
 Alpha virt. eigenvalues --   -0.02786  -0.01997  -0.01381  -0.01191  -0.00848
 Alpha virt. eigenvalues --   -0.00602  -0.00351   0.00166   0.00475   0.00533

  Beta  occ. eigenvalues --  -38.44712 -38.44674 -38.44623 -38.44583 -38.43852
  Beta  occ. eigenvalues --  -38.43409 -38.43291  -2.20619  -2.20470  -2.20434
  Beta  occ. eigenvalues --   -2.20389  -2.19737  -2.19201  -2.19105  -1.14376
  Beta  occ. eigenvalues --   -1.14315  -1.14268  -1.14173  -1.14139  -1.14130
  Beta  occ. eigenvalues --   -1.14128  -1.14103  -1.14090  -1.14067  -1.14045
  Beta  occ. eigenvalues --   -1.14030  -1.13425  -1.13378  -1.13351  -1.12915
  Beta  occ. eigenvalues --   -1.12854  -1.12853  -1.12783  -1.12770  -1.12694
  Beta  occ. eigenvalues --   -0.16922  -0.13644  -0.11419
  Beta virt. eigenvalues --   -0.07767  -0.06314  -0.05449  -0.04163  -0.03007
  Beta virt. eigenvalues --   -0.02732  -0.02194  -0.01666  -0.01139  -0.00933
  Beta virt. eigenvalues --   -0.00626  -0.00368  -0.00214   0.00356   0.00511

 Mulliken charges and spin densities:
               1          2
     1  Na  -0.469123   0.303178
     2  Na   0.222314  -0.042245
     3  Na  -0.492598  -0.101774
     4  Na   0.383064   0.105164
     5  Na  -0.099350   0.323792
     6  Na   0.180548   0.233925
     7  Na   0.275145   0.177959
 Sum of Mulliken charges =  -0.00000   1.00000

 Dipole moment (field-independent basis, Debye):
    X=             -2.2244    Y=              0.1208    Z=              0.2976  Tot=              2.2474
 Quadrupole moment (field-independent basis, Debye-Ang):
   XX=            -68.5855   YY=            -67.6021   ZZ=            -67.6890
   XY=             -3.1067   XZ=              0.8780   YZ=              1.0926

 Normal termination of Gaussian 16 at Tue Nov 28 22:12:42 2023.
