 Gaussian 16, Revision B.01,
 Gaussian 16:  ES64L-G16RevB.01 20-Dec-2017

 -------------------------
 #P B3LYP/6-311+g(d) force
 -------------------------

 -----
 DPGEN
 -----
 Symbolic Z-matrix:
 Charge =  0 Multiplicity = 2

                         Standard orientation:
 ---------------------------------------------------------------------
 Center     Atomic      Atomic             Coordinates (Angstroms)
 Number     Number       Type             X           Y           Z
 ---------------------------------------------------------------------
      1         11           0        1.441341   -2.189349   -0.550721
      2         11           0       -0.738744   -0.154176   -1.702957
      3         11           0        1.307267    2.065918   -0.798496
      4         11           0       -3.234860   -1.165494   -0.131010
      5         11           0       -0.112731   -0.655615    2.002039
      6         11           0        3.807021    0.267549    0.525477
      7         11           0       -2.469294    1.831167    0.655667
 ---------------------------------------------------------------------

 SCF Done:  E(UB3LYP) =  -1136.11985608     A.U. after   25 cycles

 The electronic state is 2-A.
 Alpha  occ. eigenvalues --  -38.45430 -38.45146 -38.44462 -38.43817 -38.43395
 Alpha  occ. eigenvalues --  -38.43062 -38.42813  -2.21209  -2.20999  -2.20300
 Alpha  occ. eigenvalues --   -2.19668  -2.19400  -2.18923  -2.18663  -1.14882
 Alpha  occ. eigenvalues --   -1.14866  -1.14841  -1.14703  -1.14656  -1.14620
 Alpha  occ. eigenvalues --   -1.13985  -1.13943  -1.13916  -1.13338  -1.13335
 Alpha  occ. eigenvalues --   -1.13301  -1.13108  -1.13039  -1.13013  -1.12618
 Alpha  occ. eigenvalues --   -1.12587  -1.12538  -1.12369  -1.12320  -1.12278
 Alpha  occ. eigenvalues --   -0.18529  -0.13944  -0.11152  -0.11086
 Alpha virt. eigenvalues --   -0.07190  -0.05214  -0.04089  -0.03159  -0.02869
 Alpha virt. eigenvalues --   -0.02655  -0.02357  -0.01081  -0.00599  -0.00238
 Alpha virt. eigenvalues --    0.00142   0.00159   0.00310   0.00671   0.00777

  Beta  occ. eigenvalues --  -38.45428 -38.45139 -38.44404 -38.43799 -38.43310
  Beta  occ. eigenvalues --  -38.43054 -38.42796  -2.21204  -2.20988  -2.20191
  Beta  occ. eigenvalues --   -2.19638  -2.19246  -2.18913  -2.18635  -1.14875
  Beta  occ. eigenvalues --   -1.14865  -1.14838  -1.14690  -1.14630  -1.14616
  Beta  occ. eigenvalues --   -1.13912  -1.13864  -1.13834  -1.13322  -1.13309
  Beta  occ. eigenvalues --   -1.13265  -1.12999  -1.12934  -1.12898  -1.12607
  Beta  occ. eigenvalues --   -1.12561  -1.12529  -1.12339  -1.12289  -1.12264
  Beta  occ. eigenvalues --   -0.17780  -0.13763  -0.10847
  Beta virt. eigenvalues --   -0.07341  -0.06911  -0.05155  -0.03573  -0.02946
  Beta virt. eigenvalues --   -0.02524  -0.01934  -0.01655  -0.00995  -0.00437
  Beta virt. eigenvalues --   -0.00120   0.00138   0.00186   0.00490   0.00737

 Mulliken charges and spin densities:
               1          2
     1  Na   0.034529   0.030786
     2  Na   0.314918   0.207231
     3  Na  -0.277182   0.037509
     4  Na   0.459531   0.032948
     5  Na  -0.302795   0.397017
     6  Na   0.033971   0.045701
     7  Na  -0.262973   0.248807
 Sum of Mulliken charges =  -0.00000   1.00000

 Dipole moment (field-independent basis, Debye):
    X=             -0.0781    Y=             -0.4434    Z=              0.7016  Tot=              0.8337
 Quadrupole moment (field-independent basis, Debye-Ang):
   XX=            -45.9630   YY=            -75.4211   ZZ=            -71.5561
   XY=              0.5183   XZ=              1.2085   YZ=              2.2885

 Normal termination of Gaussian 16 at Thu Dec  7 03:45:23 2023.
