 Gaussian 16, Revision B.01,
 Gaussian 16:  ES64L-G16RevB.01 20-Dec-2017

 -------------------------
 #P B3LYP/6-311+g(d) force
 -------------------------

 -----
 DPGEN
 -----
 Symbolic Z-matrix:
 Charge =  0 Multiplicity = 2

                         Standard orientation:
 ---------------------------------------------------------------------
 Center     Atomic      Atomic             Coordinates (Angstroms)
 Number     Number       Type             X           Y           Z
 ---------------------------------------------------------------------
      1         11           0       -1.604004   -3.129317   -0.099105
      2         11           0        1.314292    3.039993   -0.085369
      3         11           0        0.916831   -1.414604    1.991180
      4         11           0       -4.039915   -0.067714   -0.270367
      5         11           0        2.301038   -2.109206   -1.441604
      6         11           0       -2.421786    2.710942   -0.115415
      7         11           0        3.533545    0.969906    0.020680
 ---------------------------------------------------------------------

 SCF Done:  E(UB3LYP) =  -1136.10944285     A.U. after   23 cycles

 The electronic state is 2-A.
 Alpha  occ. eigenvalues --  -38.45353 -38.44812 -38.44568 -38.44377 -38.44278
 Alpha  occ. eigenvalues --  -38.44125 -38.44018  -2.21111  -2.20558  -2.20395
 Alpha  occ. eigenvalues --   -2.20161  -2.20055  -2.19931  -2.19830  -1.14786
 Alpha  occ. eigenvalues --   -1.14761  -1.14734  -1.14235  -1.14218  -1.14193
 Alpha  occ. eigenvalues --   -1.14117  -1.14056  -1.14031  -1.13859  -1.13827
 Alpha  occ. eigenvalues --   -1.13797  -1.13729  -1.13715  -1.13677  -1.13592
 Alpha  occ. eigenvalues --   -1.13566  -1.13545  -1.13491  -1.13475  -1.13466
 Alpha  occ. eigenvalues --   -0.16343  -0.13575  -0.12990  -0.10053
 Alpha virt. eigenvalues --   -0.07146  -0.06783  -0.03855  -0.03115  -0.03004
 Alpha virt. eigenvalues --   -0.02774  -0.02345  -0.01882  -0.01527  -0.00960
 Alpha virt. eigenvalues --   -0.00061   0.00131   0.00299   0.00395   0.00495

  Beta  occ. eigenvalues --  -38.45315 -38.44803 -38.44557 -38.44354 -38.44275
  Beta  occ. eigenvalues --  -38.44038 -38.43993  -2.21040  -2.20543  -2.20381
  Beta  occ. eigenvalues --   -2.20121  -2.20052  -2.19783  -2.19770  -1.14737
  Beta  occ. eigenvalues --   -1.14711  -1.14679  -1.14220  -1.14209  -1.14180
  Beta  occ. eigenvalues --   -1.14103  -1.14045  -1.13994  -1.13832  -1.13800
  Beta  occ. eigenvalues --   -1.13766  -1.13729  -1.13714  -1.13655  -1.13484
  Beta  occ. eigenvalues --   -1.13463  -1.13460  -1.13440  -1.13435  -1.13424
  Beta  occ. eigenvalues --   -0.15857  -0.13097  -0.12606
  Beta virt. eigenvalues --   -0.07107  -0.06806  -0.06329  -0.03707  -0.02651
  Beta virt. eigenvalues --   -0.02607  -0.02512  -0.02072  -0.01591  -0.01261
  Beta virt. eigenvalues --   -0.00852   0.00221   0.00319   0.00356   0.00490

 Mulliken charges and spin densities:
               1          2
     1  Na  -0.093532   0.057708
     2  Na  -0.044631   0.096309
     3  Na  -0.043294   0.243161
     4  Na   0.104940   0.062959
     5  Na   0.000372   0.426962
     6  Na  -0.120747   0.019132
     7  Na   0.196893   0.093769
 Sum of Mulliken charges =  -0.00000   1.00000

 Dipole moment (field-independent basis, Debye):
    X=             -0.1753    Y=             -0.5869    Z=              0.3591  Tot=              0.7100
 Quadrupole moment (field-independent basis, Debye-Ang):
   XX=            -66.2797   YY=            -66.4054   ZZ=            -71.0713
   XY=              5.8711   XZ=              4.0105   YZ=              1.4414

 Normal termination of Gaussian 16 at Sun Dec  3 14:12:16 2023.
