 Gaussian 16, Revision B.01,
 Gaussian 16:  ES64L-G16RevB.01 20-Dec-2017

 -------------------------
 #P B3LYP/6-311+g(d) force
 -------------------------

 -----
 DPGEN
 -----
 Symbolic Z-matrix:
 Charge =  0 Multiplicity = 2

                         Standard orientation:
 ---------------------------------------------------------------------
 Center     Atomic      Atomic             Coordinates (Angstroms)
 Number     Number       Type             X           Y           Z
 ---------------------------------------------------------------------
      1         11           0       -2.057178   -1.297752   -1.759894
      2         11           0       -1.558000    1.110628    2.617250
      3         11           0        1.709344   -2.133673   -1.146145
      4         11           0        3.684513   -0.543348    0.323522
      5         11           0       -1.709867   -2.412333    1.593668
      6         11           0       -1.515626    2.379471   -2.128431
      7         11           0        1.446813    2.897007    0.500030
 ---------------------------------------------------------------------

 SCF Done:  E(UB3LYP) =  -1136.10941946     A.U. after   20 cycles

 The electronic state is 2-A.
 Alpha  occ. eigenvalues --  -38.45544 -38.45139 -38.44631 -38.44532 -38.44353
 Alpha  occ. eigenvalues --  -38.43726 -38.43476  -2.21296  -2.20894  -2.20402
 Alpha  occ. eigenvalues --   -2.20316  -2.20073  -2.19541  -2.19287  -1.14964
 Alpha  occ. eigenvalues --   -1.14937  -1.14905  -1.14559  -1.14544  -1.14505
 Alpha  occ. eigenvalues --   -1.14072  -1.14062  -1.14038  -1.13991  -1.13972
 Alpha  occ. eigenvalues --   -1.13936  -1.13755  -1.13743  -1.13711  -1.13315
 Alpha  occ. eigenvalues --   -1.13205  -1.13174  -1.12937  -1.12923  -1.12906
 Alpha  occ. eigenvalues --   -0.16290  -0.12508  -0.12336  -0.12068
 Alpha virt. eigenvalues --   -0.06183  -0.05669  -0.05114  -0.03519  -0.03325
 Alpha virt. eigenvalues --   -0.03115  -0.01155  -0.00988  -0.00969  -0.00720
 Alpha virt. eigenvalues --   -0.00434  -0.00125   0.00254   0.00277   0.00404

  Beta  occ. eigenvalues --  -38.45466 -38.45071 -38.44608 -38.44495 -38.44359
  Beta  occ. eigenvalues --  -38.43726 -38.43482  -2.21151  -2.20769  -2.20360
  Beta  occ. eigenvalues --   -2.20248  -2.20084  -2.19540  -2.19299  -1.14863
  Beta  occ. eigenvalues --   -1.14842  -1.14798  -1.14474  -1.14456  -1.14416
  Beta  occ. eigenvalues --   -1.14044  -1.14035  -1.13996  -1.13942  -1.13929
  Beta  occ. eigenvalues --   -1.13877  -1.13756  -1.13752  -1.13721  -1.13318
  Beta  occ. eigenvalues --   -1.13202  -1.13176  -1.12945  -1.12930  -1.12914
  Beta  occ. eigenvalues --   -0.15592  -0.12273  -0.12019
  Beta virt. eigenvalues --   -0.08454  -0.05825  -0.05050  -0.04823  -0.03343
  Beta virt. eigenvalues --   -0.02848  -0.02675  -0.01041  -0.00843  -0.00753
  Beta virt. eigenvalues --   -0.00385  -0.00340  -0.00026   0.00377   0.00456

 Mulliken charges and spin densities:
               1          2
     1  Na   0.223948   0.150544
     2  Na   0.049617   0.366781
     3  Na  -0.223830  -0.018574
     4  Na   0.249331  -0.044274
     5  Na   0.002340   0.196045
     6  Na  -0.111797   0.328654
     7  Na  -0.189609   0.020824
 Sum of Mulliken charges =  -0.00000   1.00000

 Dipole moment (field-independent basis, Debye):
    X=             -0.9481    Y=              0.2366    Z=              0.4141  Tot=              1.0613
 Quadrupole moment (field-independent basis, Debye-Ang):
   XX=            -69.6839   YY=            -67.6604   ZZ=            -63.6615
   XY=              2.4235   XZ=              2.4344   YZ=             -1.4159

 Normal termination of Gaussian 16 at Sun Dec  3 18:27:14 2023.
