 Gaussian 16, Revision B.01,
 Gaussian 16:  ES64L-G16RevB.01 20-Dec-2017

 -------------------------
 #P B3LYP/6-311+g(d) force
 -------------------------

 -----
 DPGEN
 -----
 Symbolic Z-matrix:
 Charge =  0 Multiplicity = 2

                         Standard orientation:
 ---------------------------------------------------------------------
 Center     Atomic      Atomic             Coordinates (Angstroms)
 Number     Number       Type             X           Y           Z
 ---------------------------------------------------------------------
      1         11           0        0.677439    0.108646    1.806872
      2         11           0       -0.257972    0.143701   -1.763108
      3         11           0       -2.907578   -1.747163    0.026289
      4         11           0        1.037704    2.805124   -0.114591
      5         11           0       -2.267904    2.090129    0.251232
      6         11           0        3.192209   -0.561961   -0.301945
      7         11           0        0.526101   -2.838474    0.095250
 ---------------------------------------------------------------------

 SCF Done:  E(UB3LYP) =  -1136.13793045     A.U. after   19 cycles

 The electronic state is 2-A.
 Alpha  occ. eigenvalues --  -38.44012 -38.43998 -38.43900 -38.43669 -38.43658
 Alpha  occ. eigenvalues --  -38.43238 -38.43194  -2.19836  -2.19819  -2.19677
 Alpha  occ. eigenvalues --   -2.19533  -2.19502  -2.19164  -2.19116  -1.13510
 Alpha  occ. eigenvalues --   -1.13498  -1.13494  -1.13486  -1.13480  -1.13457
 Alpha  occ. eigenvalues --   -1.13351  -1.13333  -1.13327  -1.13220  -1.13207
 Alpha  occ. eigenvalues --   -1.13194  -1.13177  -1.13155  -1.13117  -1.12841
 Alpha  occ. eigenvalues --   -1.12800  -1.12794  -1.12776  -1.12747  -1.12732
 Alpha  occ. eigenvalues --   -0.18409  -0.12912  -0.12563  -0.10355
 Alpha virt. eigenvalues --   -0.05557  -0.05480  -0.05014  -0.03098  -0.02848
 Alpha virt. eigenvalues --   -0.02234  -0.01548  -0.01296  -0.00611  -0.00505
 Alpha virt. eigenvalues --    0.00000   0.00352   0.00785   0.00835   0.00849

  Beta  occ. eigenvalues --  -38.44006 -38.43993 -38.43902 -38.43661 -38.43652
  Beta  occ. eigenvalues --  -38.43164 -38.43120  -2.19827  -2.19813  -2.19682
  Beta  occ. eigenvalues --   -2.19522  -2.19494  -2.19027  -2.18979  -1.13499
  Beta  occ. eigenvalues --   -1.13491  -1.13483  -1.13466  -1.13465  -1.13456
  Beta  occ. eigenvalues --   -1.13343  -1.13338  -1.13332  -1.13215  -1.13186
  Beta  occ. eigenvalues --   -1.13167  -1.13150  -1.13148  -1.13116  -1.12750
  Beta  occ. eigenvalues --   -1.12703  -1.12701  -1.12677  -1.12650  -1.12630
  Beta  occ. eigenvalues --   -0.17689  -0.12682  -0.12372
  Beta virt. eigenvalues --   -0.06494  -0.05520  -0.05468  -0.04931  -0.02321
  Beta virt. eigenvalues --   -0.02137  -0.01466  -0.01273  -0.01184  -0.00648
  Beta virt. eigenvalues --   -0.00550   0.00149   0.00385   0.00811   0.00844

 Mulliken charges and spin densities:
               1          2
     1  Na  -0.136966   0.673670
     2  Na  -0.151419   0.725959
     3  Na  -0.099084  -0.101678
     4  Na   0.256254  -0.057037
     5  Na  -0.045063  -0.085816
     6  Na   0.170099  -0.059068
     7  Na   0.006180  -0.096031
 Sum of Mulliken charges =  -0.00000   1.00000

 Dipole moment (field-independent basis, Debye):
    X=              0.0454    Y=              0.1005    Z=             -0.0040  Tot=              0.1104
 Quadrupole moment (field-independent basis, Debye-Ang):
   XX=            -55.9405   YY=            -60.4392   ZZ=            -76.1538
   XY=             -0.2673   XZ=             -2.2182   YZ=              0.1190

 Normal termination of Gaussian 16 at Thu Dec  7 09:13:07 2023.
