 Gaussian 16, Revision B.01,
 Gaussian 16:  ES64L-G16RevB.01 20-Dec-2017

 -------------------------
 #P B3LYP/6-311+g(d) force
 -------------------------

 -----
 DPGEN
 -----
 Symbolic Z-matrix:
 Charge =  0 Multiplicity = 2

                         Standard orientation:
 ---------------------------------------------------------------------
 Center     Atomic      Atomic             Coordinates (Angstroms)
 Number     Number       Type             X           Y           Z
 ---------------------------------------------------------------------
      1         11           0        0.505595   -3.212234    0.882693
      2         11           0        2.881601   -2.144779   -1.084748
      3         11           0        4.007121    1.201959   -0.172721
      4         11           0       -2.935078   -3.020782    0.135396
      5         11           0        1.328697    2.946584    1.100187
      6         11           0       -2.022252    3.517642   -0.535902
      7         11           0       -3.765683    0.711609   -0.324906
 ---------------------------------------------------------------------

 SCF Done:  E(UB3LYP) =  -1136.10908181     A.U. after   22 cycles

 The electronic state is 2-A.
 Alpha  occ. eigenvalues --  -38.45184 -38.44907 -38.44834 -38.44761 -38.44164
 Alpha  occ. eigenvalues --  -38.44015 -38.43774  -2.20943  -2.20675  -2.20613
 Alpha  occ. eigenvalues --   -2.20530  -2.19976  -2.19812  -2.19565  -1.14627
 Alpha  occ. eigenvalues --   -1.14613  -1.14577  -1.14349  -1.14339  -1.14304
 Alpha  occ. eigenvalues --   -1.14299  -1.14289  -1.14256  -1.14207  -1.14187
 Alpha  occ. eigenvalues --   -1.14167  -1.13629  -1.13625  -1.13600  -1.13471
 Alpha  occ. eigenvalues --   -1.13464  -1.13451  -1.13219  -1.13204  -1.13200
 Alpha  occ. eigenvalues --   -0.15528  -0.13749  -0.13482  -0.10686
 Alpha virt. eigenvalues --   -0.07622  -0.04813  -0.04611  -0.03542  -0.03373
 Alpha virt. eigenvalues --   -0.02367  -0.02041  -0.01732  -0.01546  -0.01057
 Alpha virt. eigenvalues --   -0.00579  -0.00053   0.00076   0.00372   0.00711

  Beta  occ. eigenvalues --  -38.45166 -38.44871 -38.44829 -38.44749 -38.44106
  Beta  occ. eigenvalues --  -38.43981 -38.43711  -2.20916  -2.20610  -2.20610
  Beta  occ. eigenvalues --   -2.20513  -2.19870  -2.19750  -2.19448  -1.14613
  Beta  occ. eigenvalues --   -1.14600  -1.14522  -1.14307  -1.14298  -1.14296
  Beta  occ. eigenvalues --   -1.14293  -1.14246  -1.14219  -1.14198  -1.14178
  Beta  occ. eigenvalues --   -1.14129  -1.13557  -1.13551  -1.13532  -1.13430
  Beta  occ. eigenvalues --   -1.13423  -1.13402  -1.13139  -1.13127  -1.13121
  Beta  occ. eigenvalues --   -0.15007  -0.13043  -0.12702
  Beta virt. eigenvalues --   -0.07820  -0.07557  -0.04433  -0.04158  -0.03316
  Beta virt. eigenvalues --   -0.03013  -0.02115  -0.01811  -0.01557  -0.01376
  Beta virt. eigenvalues --   -0.00756  -0.00337   0.00078   0.00275   0.00361

 Mulliken charges and spin densities:
               1          2
     1  Na  -0.273119   0.000270
     2  Na   0.092848   0.244796
     3  Na   0.174526   0.038768
     4  Na   0.110120   0.302706
     5  Na  -0.186253   0.174499
     6  Na   0.096998   0.116026
     7  Na  -0.015120   0.122935
 Sum of Mulliken charges =  -0.00000   1.00000

 Dipole moment (field-independent basis, Debye):
    X=              0.4497    Y=              0.3632    Z=             -0.0477  Tot=              0.5800
 Quadrupole moment (field-independent basis, Debye-Ang):
   XX=            -63.0659   YY=            -69.0007   ZZ=            -69.3678
   XY=              0.1073   XZ=             -1.0176   YZ=             -0.3560

 Normal termination of Gaussian 16 at Sun Dec  3 21:19:31 2023.
