 Gaussian 16, Revision B.01,
 Gaussian 16:  ES64L-G16RevB.01 20-Dec-2017

 -------------------------
 #P B3LYP/6-311+g(d) force
 -------------------------

 -----
 DPGEN
 -----
 Symbolic Z-matrix:
 Charge =  0 Multiplicity = 2

                         Standard orientation:
 ---------------------------------------------------------------------
 Center     Atomic      Atomic             Coordinates (Angstroms)
 Number     Number       Type             X           Y           Z
 ---------------------------------------------------------------------
      1         11           0        3.968773   -0.733954    1.076245
      2         11           0       -3.265706   -1.034033    1.589339
      3         11           0       -0.524673    3.239489    0.420606
      4         11           0        1.953291    1.856218   -0.439626
      5         11           0       -2.381163    1.469131   -1.107809
      6         11           0       -1.347381   -2.978059   -0.617356
      7         11           0        1.596859   -1.818792   -0.921399
 ---------------------------------------------------------------------

 SCF Done:  E(UB3LYP) =  -1136.11612456     A.U. after   20 cycles

 The electronic state is 2-A.
 Alpha  occ. eigenvalues --  -38.45537 -38.44707 -38.44174 -38.43852 -38.43800
 Alpha  occ. eigenvalues --  -38.43521 -38.43495  -2.21336  -2.20548  -2.20065
 Alpha  occ. eigenvalues --   -2.19679  -2.19598  -2.19363  -2.19352  -1.15058
 Alpha  occ. eigenvalues --   -1.14998  -1.14955  -1.14290  -1.14224  -1.14176
 Alpha  occ. eigenvalues --   -1.13734  -1.13708  -1.13677  -1.13346  -1.13326
 Alpha  occ. eigenvalues --   -1.13297  -1.13253  -1.13241  -1.13224  -1.13106
 Alpha  occ. eigenvalues --   -1.13046  -1.13016  -1.13010  -1.12977  -1.12932
 Alpha  occ. eigenvalues --   -0.16857  -0.13696  -0.13339  -0.10098
 Alpha virt. eigenvalues --   -0.06702  -0.05406  -0.04605  -0.03795  -0.02975
 Alpha virt. eigenvalues --   -0.01869  -0.01582  -0.01426  -0.01145  -0.01031
 Alpha virt. eigenvalues --   -0.00215   0.00211   0.00232   0.00481   0.00598

  Beta  occ. eigenvalues --  -38.45538 -38.44703 -38.44171 -38.43798 -38.43734
  Beta  occ. eigenvalues --  -38.43485 -38.43456  -2.21340  -2.20545  -2.20060
  Beta  occ. eigenvalues --   -2.19576  -2.19474  -2.19299  -2.19291  -1.15066
  Beta  occ. eigenvalues --   -1.14998  -1.14942  -1.14289  -1.14220  -1.14158
  Beta  occ. eigenvalues --   -1.13735  -1.13703  -1.13667  -1.13278  -1.13255
  Beta  occ. eigenvalues --   -1.13229  -1.13168  -1.13157  -1.13142  -1.13045
  Beta  occ. eigenvalues --   -1.13005  -1.12975  -1.12968  -1.12927  -1.12850
  Beta  occ. eigenvalues --   -0.16516  -0.13197  -0.12744
  Beta virt. eigenvalues --   -0.06722  -0.06586  -0.05261  -0.04231  -0.03480
  Beta virt. eigenvalues --   -0.02592  -0.01635  -0.01301  -0.01087  -0.01049
  Beta virt. eigenvalues --   -0.00743   0.00045   0.00388   0.00424   0.00550

 Mulliken charges and spin densities:
               1          2
     1  Na   0.543317   0.315088
     2  Na  -0.200847   0.353843
     3  Na   0.335598  -0.008331
     4  Na  -0.301101   0.003597
     5  Na   0.063683   0.149424
     6  Na  -0.031538   0.079489
     7  Na  -0.409112   0.106890
 Sum of Mulliken charges =  -0.00000   1.00000

 Dipole moment (field-independent basis, Debye):
    X=             -0.0177    Y=              1.1463    Z=              0.0998  Tot=              1.1508
 Quadrupole moment (field-independent basis, Debye-Ang):
   XX=            -68.5762   YY=            -66.8492   ZZ=            -66.6907
   XY=             -1.4090   XZ=              3.6976   YZ=             -1.1863

 Normal termination of Gaussian 16 at Sun Dec  3 12:07:26 2023.
