 Gaussian 16, Revision B.01,
 Gaussian 16:  ES64L-G16RevB.01 20-Dec-2017

 -------------------------
 #P B3LYP/6-311+g(d) force
 -------------------------

 -----
 DPGEN
 -----
 Symbolic Z-matrix:
 Charge =  0 Multiplicity = 2

                         Standard orientation:
 ---------------------------------------------------------------------
 Center     Atomic      Atomic             Coordinates (Angstroms)
 Number     Number       Type             X           Y           Z
 ---------------------------------------------------------------------
      1         11           0        1.086903    2.692393    0.003815
      2         11           0       -2.626939    1.682129    0.051706
      3         11           0       -0.120006    0.258506   -1.611965
      4         11           0        1.226005   -2.601834   -0.171866
      5         11           0        3.264852   -0.040022   -0.123560
      6         11           0       -0.044801   -0.256603    2.083635
      7         11           0       -2.786013   -1.734569   -0.231765
 ---------------------------------------------------------------------

 SCF Done:  E(UB3LYP) =  -1136.13662724     A.U. after   19 cycles

 The electronic state is 2-A.
 Alpha  occ. eigenvalues --  -38.44339 -38.44131 -38.44093 -38.43557 -38.43264
 Alpha  occ. eigenvalues --  -38.43248 -38.43126  -2.20170  -2.19933  -2.19925
 Alpha  occ. eigenvalues --   -2.19428  -2.19216  -2.19116  -2.18980  -1.13840
 Alpha  occ. eigenvalues --   -1.13829  -1.13817  -1.13629  -1.13607  -1.13599
 Alpha  occ. eigenvalues --   -1.13582  -1.13576  -1.13536  -1.13098  -1.13056
 Alpha  occ. eigenvalues --   -1.13045  -1.12922  -1.12882  -1.12842  -1.12784
 Alpha  occ. eigenvalues --   -1.12779  -1.12749  -1.12653  -1.12637  -1.12604
 Alpha  occ. eigenvalues --   -0.18501  -0.13296  -0.12118  -0.10601
 Alpha virt. eigenvalues --   -0.05940  -0.05491  -0.04356  -0.03261  -0.02746
 Alpha virt. eigenvalues --   -0.02469  -0.01796  -0.01225  -0.00483  -0.00345
 Alpha virt. eigenvalues --   -0.00028   0.00337   0.00722   0.00841   0.00880

  Beta  occ. eigenvalues --  -38.44336 -38.44127 -38.44089 -38.43457 -38.43258
  Beta  occ. eigenvalues --  -38.43191 -38.43121  -2.20168  -2.19929  -2.19921
  Beta  occ. eigenvalues --   -2.19244  -2.19111  -2.19108  -2.18976  -1.13837
  Beta  occ. eigenvalues --   -1.13819  -1.13812  -1.13627  -1.13592  -1.13584
  Beta  occ. eigenvalues --   -1.13575  -1.13565  -1.13536  -1.12976  -1.12924
  Beta  occ. eigenvalues --   -1.12916  -1.12852  -1.12824  -1.12779  -1.12759
  Beta  occ. eigenvalues --   -1.12747  -1.12741  -1.12639  -1.12613  -1.12602
  Beta  occ. eigenvalues --   -0.17778  -0.13087  -0.11892
  Beta virt. eigenvalues --   -0.06682  -0.05876  -0.05504  -0.04327  -0.02493
  Beta virt. eigenvalues --   -0.01962  -0.01698  -0.01417  -0.01168  -0.00534
  Beta virt. eigenvalues --   -0.00387   0.00128   0.00367   0.00793   0.00835

 Mulliken charges and spin densities:
               1          2
     1  Na   0.185123  -0.039791
     2  Na   0.209100  -0.024425
     3  Na  -0.255863   0.449143
     4  Na   0.149648  -0.072477
     5  Na   0.140535  -0.015786
     6  Na  -0.526849   0.777576
     7  Na   0.098306  -0.074241
 Sum of Mulliken charges =  -0.00000   1.00000

 Dipole moment (field-independent basis, Debye):
    X=             -0.1842    Y=             -0.0283    Z=              0.1065  Tot=              0.2147
 Quadrupole moment (field-independent basis, Debye-Ang):
   XX=            -53.0977   YY=            -64.6289   ZZ=            -75.2414
   XY=              0.4068   XZ=             -0.1456   YZ=              1.3364

 Normal termination of Gaussian 16 at Thu Dec  7 06:57:04 2023.
