 Gaussian 16, Revision B.01,
 Gaussian 16:  ES64L-G16RevB.01 20-Dec-2017

 -------------------------
 #P B3LYP/6-311+g(d) force
 -------------------------

 -----
 DPGEN
 -----
 Symbolic Z-matrix:
 Charge =  0 Multiplicity = 2

                         Standard orientation:
 ---------------------------------------------------------------------
 Center     Atomic      Atomic             Coordinates (Angstroms)
 Number     Number       Type             X           Y           Z
 ---------------------------------------------------------------------
      1         11           0        0.025406   -0.252145    2.020671
      2         11           0       -0.221446    2.985684    0.087244
      3         11           0        2.961773    1.221201   -0.198651
      4         11           0       -2.828176    0.860820   -0.219357
      5         11           0       -1.720698   -2.355929   -0.067682
      6         11           0       -0.118407   -0.053699   -1.437773
      7         11           0        1.901548   -2.405932   -0.184451
 ---------------------------------------------------------------------

 SCF Done:  E(UB3LYP) =  -1136.13821073     A.U. after   19 cycles

 The electronic state is 2-A.
 Alpha  occ. eigenvalues --  -38.43945 -38.43812 -38.43571 -38.43546 -38.43507
 Alpha  occ. eigenvalues --  -38.43323 -38.42844  -2.19743  -2.19647  -2.19444
 Alpha  occ. eigenvalues --   -2.19416  -2.19402  -2.19230  -2.18903  -1.13422
 Alpha  occ. eigenvalues --   -1.13401  -1.13384  -1.13334  -1.13312  -1.13275
 Alpha  occ. eigenvalues --   -1.13176  -1.13134  -1.13111  -1.13095  -1.13085
 Alpha  occ. eigenvalues --   -1.13073  -1.13059  -1.13034  -1.12999  -1.12905
 Alpha  occ. eigenvalues --   -1.12846  -1.12842  -1.12586  -1.12529  -1.12525
 Alpha  occ. eigenvalues --   -0.18864  -0.12855  -0.12777  -0.10528
 Alpha virt. eigenvalues --   -0.05527  -0.05110  -0.04978  -0.02918  -0.02868
 Alpha virt. eigenvalues --   -0.02336  -0.01379  -0.01305  -0.00459  -0.00364
 Alpha virt. eigenvalues --    0.00020   0.00350   0.00839   0.00849   0.00909

  Beta  occ. eigenvalues --  -38.43943 -38.43807 -38.43568 -38.43537 -38.43499
  Beta  occ. eigenvalues --  -38.43223 -38.42788  -2.19741  -2.19640  -2.19433
  Beta  occ. eigenvalues --   -2.19413  -2.19392  -2.19047  -2.18802  -1.13410
  Beta  occ. eigenvalues --   -1.13396  -1.13386  -1.13325  -1.13290  -1.13272
  Beta  occ. eigenvalues --   -1.13167  -1.13129  -1.13091  -1.13074  -1.13066
  Beta  occ. eigenvalues --   -1.13058  -1.13048  -1.13013  -1.12997  -1.12785
  Beta  occ. eigenvalues --   -1.12717  -1.12711  -1.12512  -1.12457  -1.12448
  Beta  occ. eigenvalues --   -0.18139  -0.12605  -0.12543
  Beta virt. eigenvalues --   -0.06588  -0.05532  -0.05088  -0.04934  -0.02139
  Beta virt. eigenvalues --   -0.02105  -0.01326  -0.01253  -0.01219  -0.00503
  Beta virt. eigenvalues --   -0.00419   0.00164   0.00387   0.00848   0.00879

 Mulliken charges and spin densities:
               1          2
     1  Na  -0.537938   0.781964
     2  Na   0.116581  -0.016819
     3  Na   0.006524  -0.065358
     4  Na   0.392727   0.038197
     5  Na   0.485834   0.021519
     6  Na  -0.616218   0.305889
     7  Na   0.152491  -0.065391
 Sum of Mulliken charges =  -0.00000   1.00000

 Dipole moment (field-independent basis, Debye):
    X=              0.2410    Y=             -0.0537    Z=              0.1838  Tot=              0.3078
 Quadrupole moment (field-independent basis, Debye-Ang):
   XX=            -57.6088   YY=            -58.8336   ZZ=            -75.7863
   XY=             -0.0541   XZ=             -0.2876   YZ=              0.5120

 Normal termination of Gaussian 16 at Fri Dec  8 01:48:40 2023.
