 Gaussian 16, Revision B.01,
 Gaussian 16:  ES64L-G16RevB.01 20-Dec-2017

 -------------------------
 #P B3LYP/6-311+g(d) force
 -------------------------

 -----
 DPGEN
 -----
 Symbolic Z-matrix:
 Charge =  0 Multiplicity = 2

                         Standard orientation:
 ---------------------------------------------------------------------
 Center     Atomic      Atomic             Coordinates (Angstroms)
 Number     Number       Type             X           Y           Z
 ---------------------------------------------------------------------
      1         11           0       -1.054611   -2.352545    0.694092
      2         11           0        0.682781    2.487057   -0.827220
      3         11           0        3.864883   -0.661064    0.035240
      4         11           0        0.746924    0.356096    1.585704
      5         11           0       -2.131323    1.277905    1.261808
      6         11           0        0.623596   -0.653300   -1.444383
      7         11           0       -2.732250   -0.454149   -1.305240
 ---------------------------------------------------------------------

 SCF Done:  E(UB3LYP) =  -1136.12350317     A.U. after   22 cycles

 The electronic state is 2-A.
 Alpha  occ. eigenvalues --  -38.45054 -38.44176 -38.43555 -38.43280 -38.43267
 Alpha  occ. eigenvalues --  -38.43237 -38.43234  -2.20811  -2.20074  -2.19468
 Alpha  occ. eigenvalues --   -2.19267  -2.19257  -2.19148  -2.19140  -1.14493
 Alpha  occ. eigenvalues --   -1.14465  -1.14439  -1.13759  -1.13738  -1.13696
 Alpha  occ. eigenvalues --   -1.13230  -1.13128  -1.13064  -1.13054  -1.12988
 Alpha  occ. eigenvalues --   -1.12918  -1.12915  -1.12873  -1.12836  -1.12824
 Alpha  occ. eigenvalues --   -1.12800  -1.12776  -1.12770  -1.12757  -1.12740
 Alpha  occ. eigenvalues --   -0.19058  -0.13284  -0.11526  -0.11469
 Alpha virt. eigenvalues --   -0.06683  -0.04301  -0.04074  -0.03171  -0.02903
 Alpha virt. eigenvalues --   -0.02575  -0.02360  -0.00699  -0.00626   0.00115
 Alpha virt. eigenvalues --    0.00236   0.00265   0.00427   0.00837   0.00938

  Beta  occ. eigenvalues --  -38.45058 -38.44145 -38.43527 -38.43256 -38.43220
  Beta  occ. eigenvalues --  -38.43218 -38.43174  -2.20819  -2.20018  -2.19420
  Beta  occ. eigenvalues --   -2.19183  -2.19150  -2.19108  -2.19106  -1.14494
  Beta  occ. eigenvalues --   -1.14470  -1.14446  -1.13721  -1.13690  -1.13654
  Beta  occ. eigenvalues --   -1.13173  -1.13092  -1.13022  -1.13005  -1.12929
  Beta  occ. eigenvalues --   -1.12856  -1.12840  -1.12811  -1.12786  -1.12754
  Beta  occ. eigenvalues --   -1.12751  -1.12741  -1.12730  -1.12719  -1.12708
  Beta  occ. eigenvalues --   -0.18245  -0.13129  -0.11317
  Beta virt. eigenvalues --   -0.07360  -0.06587  -0.04212  -0.03624  -0.02921
  Beta virt. eigenvalues --   -0.02406  -0.02131  -0.01514  -0.00640  -0.00319
  Beta virt. eigenvalues --    0.00135   0.00264   0.00293   0.00532   0.00871

 Mulliken charges and spin densities:
               1          2
     1  Na  -0.226886   0.290864
     2  Na  -0.365692   0.156547
     3  Na   0.238028  -0.000938
     4  Na  -0.122707   0.221965
     5  Na   0.240941  -0.012386
     6  Na  -0.171364   0.233708
     7  Na   0.407680   0.110240
 Sum of Mulliken charges =  -0.00000   1.00000

 Dipole moment (field-independent basis, Debye):
    X=              0.6054    Y=              0.0181    Z=             -0.1379  Tot=              0.6212
 Quadrupole moment (field-independent basis, Debye-Ang):
   XX=            -50.1510   YY=            -72.1708   ZZ=            -69.0968
   XY=             -0.8225   XZ=              0.6727   YZ=             -2.9904

 Normal termination of Gaussian 16 at Thu Dec  7 02:51:47 2023.
