 Gaussian 16, Revision B.01,
 Gaussian 16:  ES64L-G16RevB.01 20-Dec-2017

 -------------------------
 #P B3LYP/6-311+g(d) force
 -------------------------

 -----
 DPGEN
 -----
 Symbolic Z-matrix:
 Charge =  0 Multiplicity = 2

                         Standard orientation:
 ---------------------------------------------------------------------
 Center     Atomic      Atomic             Coordinates (Angstroms)
 Number     Number       Type             X           Y           Z
 ---------------------------------------------------------------------
      1         11           0       -0.150343    0.003306   -1.811650
      2         11           0       -0.401058    2.559984   -0.058328
      3         11           0       -2.623951    0.550387    0.236872
      4         11           0       -1.281709   -2.296421   -0.188382
      5         11           0        0.160058   -0.168071    1.913391
      6         11           0        1.831916   -1.824536   -0.007312
      7         11           0        2.465086    1.175351   -0.084592
 ---------------------------------------------------------------------

 SCF Done:  E(UB3LYP) =  -1136.12825364     A.U. after   17 cycles

 The electronic state is 2-A.
 Alpha  occ. eigenvalues --  -38.43647 -38.43513 -38.43368 -38.43307 -38.43250
 Alpha  occ. eigenvalues --  -38.43163 -38.43140  -2.19688  -2.19601  -2.19343
 Alpha  occ. eigenvalues --   -2.19268  -2.19251  -2.19149  -2.19122  -1.13410
 Alpha  occ. eigenvalues --   -1.13349  -1.13311  -1.13303  -1.13284  -1.13243
 Alpha  occ. eigenvalues --   -1.13072  -1.13028  -1.13013  -1.12981  -1.12955
 Alpha  occ. eigenvalues --   -1.12935  -1.12914  -1.12892  -1.12831  -1.12808
 Alpha  occ. eigenvalues --   -1.12784  -1.12777  -1.12756  -1.12739  -1.12709
 Alpha  occ. eigenvalues --   -0.20263  -0.13252  -0.12992  -0.11638
 Alpha virt. eigenvalues --   -0.04867  -0.04675  -0.04527  -0.03405  -0.03229
 Alpha virt. eigenvalues --   -0.02893  -0.00977  -0.00813  -0.00063   0.00361
 Alpha virt. eigenvalues --    0.00411   0.00430   0.00997   0.01053   0.01057

  Beta  occ. eigenvalues --  -38.43557 -38.43427 -38.43359 -38.43301 -38.43240
  Beta  occ. eigenvalues --  -38.43153 -38.43133  -2.19523  -2.19446  -2.19331
  Beta  occ. eigenvalues --   -2.19260  -2.19239  -2.19135  -2.19112  -1.13314
  Beta  occ. eigenvalues --   -1.13242  -1.13206  -1.13195  -1.13177  -1.13142
  Beta  occ. eigenvalues --   -1.13062  -1.13023  -1.12997  -1.12946  -1.12934
  Beta  occ. eigenvalues --   -1.12925  -1.12869  -1.12840  -1.12827  -1.12793
  Beta  occ. eigenvalues --   -1.12767  -1.12741  -1.12736  -1.12717  -1.12707
  Beta  occ. eigenvalues --   -0.19463  -0.12946  -0.12678
  Beta virt. eigenvalues --   -0.07580  -0.04868  -0.04676  -0.04534  -0.02506
  Beta virt. eigenvalues --   -0.02345  -0.01779  -0.00914  -0.00757   0.00076
  Beta virt. eigenvalues --    0.00347   0.00361   0.00385   0.01030   0.01038

 Mulliken charges and spin densities:
               1          2
     1  Na  -0.917308   0.509191
     2  Na   0.326407  -0.018269
     3  Na   0.288647   0.004612
     4  Na   0.484070  -0.014452
     5  Na  -0.930882   0.574346
     6  Na   0.526748  -0.003179
     7  Na   0.222318  -0.052248
 Sum of Mulliken charges =   0.00000   1.00000

 Dipole moment (field-independent basis, Debye):
    X=              0.0072    Y=              0.0100    Z=              0.1091  Tot=              0.1098
 Quadrupole moment (field-independent basis, Debye-Ang):
   XX=            -61.7400   YY=            -64.3041   ZZ=            -70.1008
   XY=              0.4019   XZ=             -0.6973   YZ=              0.3234

 Normal termination of Gaussian 16 at Fri Dec  8 18:12:02 2023.
