 Gaussian 16, Revision B.01,
 Gaussian 16:  ES64L-G16RevB.01 20-Dec-2017

 -------------------------
 #P B3LYP/6-311+g(d) force
 -------------------------

 -----
 DPGEN
 -----
 Symbolic Z-matrix:
 Charge =  0 Multiplicity = 2

                         Standard orientation:
 ---------------------------------------------------------------------
 Center     Atomic      Atomic             Coordinates (Angstroms)
 Number     Number       Type             X           Y           Z
 ---------------------------------------------------------------------
      1         11           0       -0.175035    3.136632   -0.743187
      2         11           0        0.352530   -0.174923    2.149573
      3         11           0       -2.933513    0.937334    0.413091
      4         11           0       -2.116302   -2.267120   -0.062645
      5         11           0       -0.018186   -0.308206   -1.621682
      6         11           0        2.972460    1.039250    0.399363
      7         11           0        1.918046   -2.362967   -0.534513
 ---------------------------------------------------------------------

 SCF Done:  E(UB3LYP) =  -1136.13421030     A.U. after   19 cycles

 The electronic state is 2-A.
 Alpha  occ. eigenvalues --  -38.44143 -38.44108 -38.43870 -38.43777 -38.43701
 Alpha  occ. eigenvalues --  -38.43408 -38.43342  -2.19997  -2.19915  -2.19687
 Alpha  occ. eigenvalues --   -2.19629  -2.19540  -2.19312  -2.19199  -1.13672
 Alpha  occ. eigenvalues --   -1.13639  -1.13627  -1.13578  -1.13562  -1.13546
 Alpha  occ. eigenvalues --   -1.13388  -1.13365  -1.13361  -1.13329  -1.13274
 Alpha  occ. eigenvalues --   -1.13242  -1.13234  -1.13196  -1.13164  -1.12979
 Alpha  occ. eigenvalues --   -1.12942  -1.12933  -1.12871  -1.12845  -1.12835
 Alpha  occ. eigenvalues --   -0.18242  -0.12958  -0.12222  -0.11015
 Alpha virt. eigenvalues --   -0.05541  -0.05281  -0.04732  -0.03376  -0.02989
 Alpha virt. eigenvalues --   -0.02712  -0.01454  -0.01199  -0.00487  -0.00327
 Alpha virt. eigenvalues --   -0.00022   0.00360   0.00795   0.00838   0.00874

  Beta  occ. eigenvalues --  -38.44100 -38.44051 -38.43867 -38.43763 -38.43700
  Beta  occ. eigenvalues --  -38.43391 -38.43282  -2.19904  -2.19827  -2.19682
  Beta  occ. eigenvalues --   -2.19606  -2.19541  -2.19201  -2.19169  -1.13604
  Beta  occ. eigenvalues --   -1.13558  -1.13543  -1.13535  -1.13514  -1.13477
  Beta  occ. eigenvalues --   -1.13366  -1.13356  -1.13349  -1.13319  -1.13252
  Beta  occ. eigenvalues --   -1.13232  -1.13220  -1.13190  -1.13159  -1.12906
  Beta  occ. eigenvalues --   -1.12869  -1.12865  -1.12832  -1.12819  -1.12816
  Beta  occ. eigenvalues --   -0.17545  -0.12727  -0.11924
  Beta virt. eigenvalues --   -0.07185  -0.05438  -0.05226  -0.04627  -0.02620
  Beta virt. eigenvalues --   -0.02307  -0.01749  -0.01351  -0.01111  -0.00465
  Beta virt. eigenvalues --   -0.00354   0.00107   0.00392   0.00823   0.00871

 Mulliken charges and spin densities:
               1          2
     1  Na  -0.040894   0.029912
     2  Na  -0.273650   0.576913
     3  Na  -0.020714   0.065048
     4  Na   0.025884  -0.038924
     5  Na   0.104784   0.359850
     6  Na   0.063976   0.057091
     7  Na   0.140615  -0.049889
 Sum of Mulliken charges =  -0.00000   1.00000

 Dipole moment (field-independent basis, Debye):
    X=              0.1626    Y=             -0.2422    Z=              0.3282  Tot=              0.4391
 Quadrupole moment (field-independent basis, Debye-Ang):
   XX=            -58.1915   YY=            -63.0119   ZZ=            -73.1502
   XY=              0.3804   XZ=             -1.0449   YZ=             -0.2605

 Normal termination of Gaussian 16 at Fri Dec  8 02:21:11 2023.
