 Gaussian 16, Revision B.01,
 Gaussian 16:  ES64L-G16RevB.01 20-Dec-2017

 -------------------------
 #P B3LYP/6-311+g(d) force
 -------------------------

 -----
 DPGEN
 -----
 Symbolic Z-matrix:
 Charge =  0 Multiplicity = 2

                         Standard orientation:
 ---------------------------------------------------------------------
 Center     Atomic      Atomic             Coordinates (Angstroms)
 Number     Number       Type             X           Y           Z
 ---------------------------------------------------------------------
      1         11           0        0.096734    3.004524   -0.135946
      2         11           0        0.132781    0.251632    2.166123
      3         11           0       -2.784134    1.174688   -0.220831
      4         11           0        1.658956   -2.323606   -0.019096
      5         11           0       -2.254134   -2.339093    0.063094
      6         11           0       -0.130219   -0.225227   -1.572798
      7         11           0        3.280016    0.457083   -0.280546
 ---------------------------------------------------------------------

 SCF Done:  E(UB3LYP) =  -1136.13697988     A.U. after   18 cycles

 The electronic state is 2-A.
 Alpha  occ. eigenvalues --  -38.44226 -38.43921 -38.43673 -38.43637 -38.43596
 Alpha  occ. eigenvalues --  -38.43328 -38.43232  -2.20038  -2.19774  -2.19531
 Alpha  occ. eigenvalues --   -2.19471  -2.19446  -2.19208  -2.19158  -1.13713
 Alpha  occ. eigenvalues --   -1.13702  -1.13677  -1.13472  -1.13436  -1.13401
 Alpha  occ. eigenvalues --   -1.13203  -1.13187  -1.13159  -1.13152  -1.13123
 Alpha  occ. eigenvalues --   -1.13122  -1.13105  -1.13098  -1.13081  -1.12892
 Alpha  occ. eigenvalues --   -1.12861  -1.12831  -1.12823  -1.12803  -1.12796
 Alpha  occ. eigenvalues --   -0.18443  -0.13119  -0.12277  -0.10669
 Alpha virt. eigenvalues --   -0.05708  -0.05238  -0.04761  -0.03179  -0.02852
 Alpha virt. eigenvalues --   -0.02549  -0.01634  -0.01186  -0.00494  -0.00370
 Alpha virt. eigenvalues --   -0.00031   0.00341   0.00753   0.00861   0.00868

  Beta  occ. eigenvalues --  -38.44222 -38.43915 -38.43637 -38.43590 -38.43569
  Beta  occ. eigenvalues --  -38.43325 -38.43178  -2.20033  -2.19765  -2.19464
  Beta  occ. eigenvalues --   -2.19448  -2.19338  -2.19155  -2.19110  -1.13713
  Beta  occ. eigenvalues --   -1.13684  -1.13673  -1.13460  -1.13413  -1.13400
  Beta  occ. eigenvalues --   -1.13186  -1.13116  -1.13108  -1.13102  -1.13093
  Beta  occ. eigenvalues --   -1.13078  -1.13060  -1.13017  -1.13014  -1.12841
  Beta  occ. eigenvalues --   -1.12815  -1.12803  -1.12797  -1.12774  -1.12742
  Beta  occ. eigenvalues --   -0.17725  -0.12893  -0.12080
  Beta virt. eigenvalues --   -0.06731  -0.05663  -0.05244  -0.04697  -0.02408
  Beta virt. eigenvalues --   -0.02082  -0.01543  -0.01498  -0.01116  -0.00548
  Beta virt. eigenvalues --   -0.00409   0.00131   0.00374   0.00817   0.00851

 Mulliken charges and spin densities:
               1          2
     1  Na   0.096850  -0.063737
     2  Na  -0.579751   0.784946
     3  Na   0.236283  -0.022947
     4  Na   0.247751   0.020271
     5  Na   0.113252  -0.016643
     6  Na  -0.217079   0.337889
     7  Na   0.102694  -0.039779
 Sum of Mulliken charges =  -0.00000   1.00000

 Dipole moment (field-independent basis, Debye):
    X=              0.1078    Y=              0.0423    Z=              0.1120  Tot=              0.1611
 Quadrupole moment (field-independent basis, Debye-Ang):
   XX=            -55.8704   YY=            -62.5891   ZZ=            -74.9456
   XY=              1.2636   XZ=             -0.7374   YZ=             -1.2488

 Normal termination of Gaussian 16 at Thu Dec  7 12:22:03 2023.
