 Gaussian 16, Revision B.01,
 Gaussian 16:  ES64L-G16RevB.01 20-Dec-2017

 -------------------------
 #P B3LYP/6-311+g(d) force
 -------------------------

 -----
 DPGEN
 -----
 Symbolic Z-matrix:
 Charge =  0 Multiplicity = 2

                         Standard orientation:
 ---------------------------------------------------------------------
 Center     Atomic      Atomic             Coordinates (Angstroms)
 Number     Number       Type             X           Y           Z
 ---------------------------------------------------------------------
      1         11           0        0.224985    0.347734   -1.468705
      2         11           0       -3.186449   -0.789901   -0.166547
      3         11           0       -0.115437    0.139968    2.075671
      4         11           0       -2.213019    2.429838   -0.171361
      5         11           0        2.619712   -1.520814   -0.131354
      6         11           0       -0.311123   -2.609440   -0.125978
      7         11           0        2.981331    2.002615   -0.011726
 ---------------------------------------------------------------------

 SCF Done:  E(UB3LYP) =  -1136.13066251     A.U. after   21 cycles

 The electronic state is 2-A.
 Alpha  occ. eigenvalues --  -38.44624 -38.44318 -38.44077 -38.43994 -38.43531
 Alpha  occ. eigenvalues --  -38.43363 -38.42543  -2.20449  -2.20096  -2.19957
 Alpha  occ. eigenvalues --   -2.19806  -2.19401  -2.19318  -2.18466  -1.14117
 Alpha  occ. eigenvalues --   -1.14109  -1.14097  -1.13767  -1.13757  -1.13744
 Alpha  occ. eigenvalues --   -1.13657  -1.13615  -1.13583  -1.13480  -1.13460
 Alpha  occ. eigenvalues --   -1.13453  -1.13083  -1.13022  -1.13014  -1.13011
 Alpha  occ. eigenvalues --   -1.12968  -1.12931  -1.12153  -1.12123  -1.12108
 Alpha  occ. eigenvalues --   -0.18517  -0.13517  -0.11950  -0.10446
 Alpha virt. eigenvalues --   -0.06325  -0.05757  -0.04124  -0.03277  -0.02519
 Alpha virt. eigenvalues --   -0.02396  -0.02015  -0.01412  -0.00783  -0.00174
 Alpha virt. eigenvalues --   -0.00036   0.00276   0.00659   0.00727   0.00869

  Beta  occ. eigenvalues --  -38.44619 -38.44321 -38.44071 -38.43991 -38.43425
  Beta  occ. eigenvalues --  -38.43315 -38.42535  -2.20442  -2.20103  -2.19949
  Beta  occ. eigenvalues --   -2.19803  -2.19232  -2.19204  -2.18455  -1.14110
  Beta  occ. eigenvalues --   -1.14096  -1.14088  -1.13767  -1.13757  -1.13746
  Beta  occ. eigenvalues --   -1.13652  -1.13589  -1.13580  -1.13473  -1.13455
  Beta  occ. eigenvalues --   -1.13442  -1.12978  -1.12927  -1.12899  -1.12880
  Beta  occ. eigenvalues --   -1.12875  -1.12866  -1.12149  -1.12119  -1.12066
  Beta  occ. eigenvalues --   -0.17794  -0.13315  -0.11744
  Beta virt. eigenvalues --   -0.06507  -0.06292  -0.05696  -0.04128  -0.02539
  Beta virt. eigenvalues --   -0.01953  -0.01779  -0.01453  -0.01169  -0.00838
  Beta virt. eigenvalues --   -0.00195   0.00137   0.00320   0.00717   0.00753

 Mulliken charges and spin densities:
               1          2
     1  Na  -0.305514   0.146956
     2  Na   0.206212   0.063184
     3  Na  -0.538047   0.669473
     4  Na   0.182774   0.005997
     5  Na   0.319301   0.061333
     6  Na  -0.013713   0.073878
     7  Na   0.148988  -0.020821
 Sum of Mulliken charges =  -0.00000   1.00000

 Dipole moment (field-independent basis, Debye):
    X=             -0.0558    Y=              0.4002    Z=              0.1228  Tot=              0.4223
 Quadrupole moment (field-independent basis, Debye-Ang):
   XX=            -51.5955   YY=            -64.5799   ZZ=            -76.3844
   XY=              0.7365   XZ=              0.7349   YZ=              0.3988

 Normal termination of Gaussian 16 at Thu Dec  7 07:50:06 2023.
