 Gaussian 16, Revision B.01,
 Gaussian 16:  ES64L-G16RevB.01 20-Dec-2017

 -------------------------
 #P B3LYP/6-311+g(d) force
 -------------------------

 -----
 DPGEN
 -----
 Symbolic Z-matrix:
 Charge =  0 Multiplicity = 2

                         Standard orientation:
 ---------------------------------------------------------------------
 Center     Atomic      Atomic             Coordinates (Angstroms)
 Number     Number       Type             X           Y           Z
 ---------------------------------------------------------------------
      1         11           0       -1.053138   -1.808976   -0.255280
      2         11           0       -2.424272    1.561466    0.441536
      3         11           0        1.792997    0.846332   -0.853050
      4         11           0        2.660053   -0.874263    2.019806
      5         11           0        2.641237   -2.209172   -1.091409
      6         11           0        0.534387    4.020287   -0.265711
      7         11           0       -4.151265   -1.535674    0.004108
 ---------------------------------------------------------------------

 SCF Done:  E(UB3LYP) =  -1136.12250057     A.U. after   22 cycles

 The electronic state is 2-A.
 Alpha  occ. eigenvalues --  -38.45182 -38.44615 -38.44484 -38.44101 -38.43862
 Alpha  occ. eigenvalues --  -38.43532 -38.43277  -2.20943  -2.20438  -2.20319
 Alpha  occ. eigenvalues --   -2.19962  -2.19733  -2.19305  -2.19138  -1.14650
 Alpha  occ. eigenvalues --   -1.14640  -1.14525  -1.14154  -1.14092  -1.14071
 Alpha  occ. eigenvalues --   -1.14014  -1.14003  -1.13888  -1.13667  -1.13604
 Alpha  occ. eigenvalues --   -1.13602  -1.13428  -1.13421  -1.13334  -1.12974
 Alpha  occ. eigenvalues --   -1.12971  -1.12935  -1.12782  -1.12776  -1.12743
 Alpha  occ. eigenvalues --   -0.17207  -0.14241  -0.12351  -0.09880
 Alpha virt. eigenvalues --   -0.06231  -0.06085  -0.05355  -0.03324  -0.02493
 Alpha virt. eigenvalues --   -0.02207  -0.01948  -0.01729  -0.01323  -0.00775
 Alpha virt. eigenvalues --   -0.00177   0.00133   0.00275   0.00592   0.00607

  Beta  occ. eigenvalues --  -38.45178 -38.44614 -38.44467 -38.44078 -38.43846
  Beta  occ. eigenvalues --  -38.43533 -38.43167  -2.20935  -2.20437  -2.20289
  Beta  occ. eigenvalues --   -2.19925  -2.19706  -2.19305  -2.18933  -1.14645
  Beta  occ. eigenvalues --   -1.14633  -1.14519  -1.14151  -1.14091  -1.14067
  Beta  occ. eigenvalues --   -1.13995  -1.13975  -1.13864  -1.13645  -1.13582
  Beta  occ. eigenvalues --   -1.13538  -1.13411  -1.13369  -1.13320  -1.12974
  Beta  occ. eigenvalues --   -1.12970  -1.12936  -1.12640  -1.12636  -1.12608
  Beta  occ. eigenvalues --   -0.16712  -0.13937  -0.12249
  Beta virt. eigenvalues --   -0.06293  -0.06020  -0.05660  -0.05172  -0.02979
  Beta virt. eigenvalues --   -0.02373  -0.01958  -0.01650  -0.01293  -0.01122
  Beta virt. eigenvalues --   -0.00525   0.00157   0.00304   0.00618   0.00638

 Mulliken charges and spin densities:
               1          2
     1  Na  -1.613976  -0.039819
     2  Na  -0.371097   0.037348
     3  Na  -1.407071   0.209550
     4  Na  -0.091485   0.487388
     5  Na   1.892454   0.436188
     6  Na   0.542872  -0.117392
     7  Na   1.048303  -0.013264
 Sum of Mulliken charges =  -0.00000   1.00000

 Dipole moment (field-independent basis, Debye):
    X=             -1.8508    Y=             -0.5241    Z=             -0.4690  Tot=              1.9800
 Quadrupole moment (field-independent basis, Debye-Ang):
   XX=            -56.0711   YY=            -62.0055   ZZ=            -77.3555
   XY=              0.7698   XZ=             -5.8789   YZ=              1.9806

 Normal termination of Gaussian 16 at Wed Nov 29 02:08:58 2023.
