 Gaussian 16, Revision B.01,
 Gaussian 16:  ES64L-G16RevB.01 20-Dec-2017

 -------------------------
 #P B3LYP/6-311+g(d) force
 -------------------------

 -----
 DPGEN
 -----
 Symbolic Z-matrix:
 Charge =  0 Multiplicity = 2

                         Standard orientation:
 ---------------------------------------------------------------------
 Center     Atomic      Atomic             Coordinates (Angstroms)
 Number     Number       Type             X           Y           Z
 ---------------------------------------------------------------------
      1         11           0        0.078254    0.151478   -1.416365
      2         11           0        2.705360   -0.893365   -0.040539
      3         11           0        1.535458    2.402359    0.018037
      4         11           0        0.050282   -0.006244    1.518792
      5         11           0       -1.910083    2.001021    0.002927
      6         11           0       -2.470920   -1.039774   -0.049546
      7         11           0        0.011649   -2.615474   -0.033305
 ---------------------------------------------------------------------

 SCF Done:  E(UB3LYP) =  -1136.11994088     A.U. after   20 cycles

 The electronic state is 2-A.
 Alpha  occ. eigenvalues --  -38.43610 -38.43607 -38.43509 -38.43419 -38.43322
 Alpha  occ. eigenvalues --  -38.42751 -38.42721  -2.19551  -2.19540  -2.19480
 Alpha  occ. eigenvalues --   -2.19446  -2.19352  -2.18972  -2.18938  -1.13310
 Alpha  occ. eigenvalues --   -1.13295  -1.13284  -1.13263  -1.13218  -1.13209
 Alpha  occ. eigenvalues --   -1.13196  -1.13154  -1.13140  -1.13113  -1.13082
 Alpha  occ. eigenvalues --   -1.13040  -1.13034  -1.12992  -1.12903  -1.12796
 Alpha  occ. eigenvalues --   -1.12557  -1.12552  -1.12545  -1.12530  -1.12514
 Alpha  occ. eigenvalues --   -0.20375  -0.13433  -0.13279  -0.10611
 Alpha virt. eigenvalues --   -0.05218  -0.05024  -0.04675  -0.02895  -0.02816
 Alpha virt. eigenvalues --   -0.01760  -0.01289  -0.01168   0.00060   0.00085
 Alpha virt. eigenvalues --    0.00187   0.00368   0.00920   0.00948   0.01011

  Beta  occ. eigenvalues --  -38.43603 -38.43600 -38.43500 -38.43408 -38.43310
  Beta  occ. eigenvalues --  -38.42672 -38.42649  -2.19542  -2.19531  -2.19468
  Beta  occ. eigenvalues --   -2.19431  -2.19336  -2.18840  -2.18799  -1.13301
  Beta  occ. eigenvalues --   -1.13286  -1.13276  -1.13260  -1.13196  -1.13176
  Beta  occ. eigenvalues --   -1.13167  -1.13151  -1.13114  -1.13090  -1.13033
  Beta  occ. eigenvalues --   -1.13030  -1.13022  -1.12932  -1.12899  -1.12710
  Beta  occ. eigenvalues --   -1.12466  -1.12460  -1.12445  -1.12427  -1.12411
  Beta  occ. eigenvalues --   -0.19627  -0.13114  -0.12958
  Beta virt. eigenvalues --   -0.06580  -0.05204  -0.05045  -0.04666  -0.02039
  Beta virt. eigenvalues --   -0.01963  -0.01221  -0.01104  -0.00780   0.00012
  Beta virt. eigenvalues --    0.00138   0.00212   0.00419   0.00941   0.00968

 Mulliken charges and spin densities:
               1          2
     1  Na  -0.915587   0.458995
     2  Na   0.275845  -0.051515
     3  Na   0.181548  -0.098191
     4  Na  -0.712597   0.589831
     5  Na   0.356141  -0.020813
     6  Na   0.378537   0.063510
     7  Na   0.436113   0.058183
 Sum of Mulliken charges =  -0.00000   1.00000

 Dipole moment (field-independent basis, Debye):
    X=              0.2600    Y=              0.2749    Z=              0.0640  Tot=              0.3837
 Quadrupole moment (field-independent basis, Debye-Ang):
   XX=            -57.0446   YY=            -59.0367   ZZ=            -75.8979
   XY=             -0.1362   XZ=              0.0555   YZ=              0.3669

 Normal termination of Gaussian 16 at Sat Dec  9 06:02:58 2023.
