 Gaussian 16, Revision B.01,
 Gaussian 16:  ES64L-G16RevB.01 20-Dec-2017

 -------------------------
 #P B3LYP/6-311+g(d) force
 -------------------------

 -----
 DPGEN
 -----
 Symbolic Z-matrix:
 Charge =  0 Multiplicity = 2

                         Standard orientation:
 ---------------------------------------------------------------------
 Center     Atomic      Atomic             Coordinates (Angstroms)
 Number     Number       Type             X           Y           Z
 ---------------------------------------------------------------------
      1         11           0        1.631182    2.650863   -0.812165
      2         11           0        3.760393   -0.849951   -1.544790
      3         11           0       -2.889142   -2.371495   -0.635839
      4         11           0       -4.372280    0.371705    0.080030
      5         11           0       -1.987303    2.513365    0.280969
      6         11           0        0.895243   -2.659282    0.769388
      7         11           0        2.961906    0.344794    1.862406
 ---------------------------------------------------------------------

 SCF Done:  E(UB3LYP) =  -1136.10436411     A.U. after   28 cycles

 The electronic state is 2-A.
 Alpha  occ. eigenvalues --  -38.45791 -38.45032 -38.44848 -38.44461 -38.44297
 Alpha  occ. eigenvalues --  -38.44272 -38.43997  -2.21543  -2.20776  -2.20608
 Alpha  occ. eigenvalues --   -2.20293  -2.20065  -2.20022  -2.19805  -1.15218
 Alpha  occ. eigenvalues --   -1.15194  -1.15190  -1.14466  -1.14441  -1.14398
 Alpha  occ. eigenvalues --   -1.14296  -1.14284  -1.14257  -1.13973  -1.13945
 Alpha  occ. eigenvalues --   -1.13932  -1.13744  -1.13732  -1.13697  -1.13695
 Alpha  occ. eigenvalues --   -1.13690  -1.13639  -1.13461  -1.13437  -1.13414
 Alpha  occ. eigenvalues --   -0.16129  -0.14304  -0.12103  -0.10057
 Alpha virt. eigenvalues --   -0.07346  -0.07026  -0.03770  -0.03509  -0.03368
 Alpha virt. eigenvalues --   -0.02447  -0.02311  -0.01933  -0.01480  -0.00760
 Alpha virt. eigenvalues --   -0.00603  -0.00229   0.00074   0.00185   0.00522

  Beta  occ. eigenvalues --  -38.45780 -38.45016 -38.44855 -38.44447 -38.44299
  Beta  occ. eigenvalues --  -38.44235 -38.43891  -2.21525  -2.20750  -2.20623
  Beta  occ. eigenvalues --   -2.20266  -2.20069  -2.19953  -2.19607  -1.15197
  Beta  occ. eigenvalues --   -1.15178  -1.15169  -1.14450  -1.14423  -1.14361
  Beta  occ. eigenvalues --   -1.14303  -1.14295  -1.14259  -1.13960  -1.13926
  Beta  occ. eigenvalues --   -1.13915  -1.13747  -1.13736  -1.13689  -1.13646
  Beta  occ. eigenvalues --   -1.13640  -1.13595  -1.13326  -1.13297  -1.13281
  Beta  occ. eigenvalues --   -0.15667  -0.13961  -0.11806
  Beta virt. eigenvalues --   -0.07327  -0.06919  -0.06273  -0.03438  -0.03355
  Beta virt. eigenvalues --   -0.03092  -0.02147  -0.02082  -0.01425  -0.01183
  Beta virt. eigenvalues --   -0.00594  -0.00285  -0.00144   0.00289   0.00314

 Mulliken charges and spin densities:
               1          2
     1  Na  -0.055821   0.063823
     2  Na  -0.030881   0.528402
     3  Na  -0.138612  -0.035711
     4  Na   0.354455   0.119281
     5  Na  -0.143408  -0.072542
     6  Na  -0.399471   0.168459
     7  Na   0.413737   0.228287
 Sum of Mulliken charges =  -0.00000   1.00000

 Dipole moment (field-independent basis, Debye):
    X=             -0.3695    Y=              0.2832    Z=              0.5826  Tot=              0.7458
 Quadrupole moment (field-independent basis, Debye-Ang):
   XX=            -63.1151   YY=            -70.0265   ZZ=            -70.6779
   XY=              2.3186   XZ=              6.1114   YZ=              2.6300

 Normal termination of Gaussian 16 at Sun Dec  3 14:11:54 2023.
