 Gaussian 16, Revision B.01,
 Gaussian 16:  ES64L-G16RevB.01 20-Dec-2017

 -------------------------
 #P B3LYP/6-311+g(d) force
 -------------------------

 -----
 DPGEN
 -----
 Symbolic Z-matrix:
 Charge =  0 Multiplicity = 2

                         Standard orientation:
 ---------------------------------------------------------------------
 Center     Atomic      Atomic             Coordinates (Angstroms)
 Number     Number       Type             X           Y           Z
 ---------------------------------------------------------------------
      1         11           0       -0.034949    2.927652   -0.804663
      2         11           0       -0.050414   -0.553077   -1.529023
      3         11           0        3.399157   -1.663618   -0.505416
      4         11           0       -3.253168    0.925680    0.058157
      5         11           0       -2.331832   -2.402763   -0.117402
      6         11           0        2.739814    1.089914    0.899632
      7         11           0       -0.468607   -0.323788    1.998715
 ---------------------------------------------------------------------

 SCF Done:  E(UB3LYP) =  -1136.12507044     A.U. after   22 cycles

 The electronic state is 2-A.
 Alpha  occ. eigenvalues --  -38.45376 -38.44431 -38.44130 -38.44099 -38.43731
 Alpha  occ. eigenvalues --  -38.43703 -38.42693  -2.21168  -2.20222  -2.19990
 Alpha  occ. eigenvalues --   -2.19935  -2.19627  -2.19553  -2.18492  -1.14857
 Alpha  occ. eigenvalues --   -1.14822  -1.14796  -1.13920  -1.13879  -1.13862
 Alpha  occ. eigenvalues --   -1.13671  -1.13624  -1.13621  -1.13590  -1.13583
 Alpha  occ. eigenvalues --   -1.13564  -1.13340  -1.13301  -1.13244  -1.13210
 Alpha  occ. eigenvalues --   -1.13195  -1.13185  -1.12175  -1.12143  -1.12135
 Alpha  occ. eigenvalues --   -0.18022  -0.13708  -0.11467  -0.10689
 Alpha virt. eigenvalues --   -0.06781  -0.05574  -0.04270  -0.03492  -0.02681
 Alpha virt. eigenvalues --   -0.02398  -0.02267  -0.01330  -0.00708  -0.00263
 Alpha virt. eigenvalues --   -0.00083   0.00237   0.00411   0.00627   0.00695

  Beta  occ. eigenvalues --  -38.45373 -38.44431 -38.44084 -38.44044 -38.43700
  Beta  occ. eigenvalues --  -38.43670 -38.42683  -2.21164  -2.20223  -2.19909
  Beta  occ. eigenvalues --   -2.19831  -2.19551  -2.19516  -2.18475  -1.14838
  Beta  occ. eigenvalues --   -1.14821  -1.14791  -1.13922  -1.13873  -1.13861
  Beta  occ. eigenvalues --   -1.13585  -1.13561  -1.13559  -1.13553  -1.13515
  Beta  occ. eigenvalues --   -1.13482  -1.13283  -1.13231  -1.13206  -1.13179
  Beta  occ. eigenvalues --   -1.13161  -1.13145  -1.12157  -1.12127  -1.12125
  Beta  occ. eigenvalues --   -0.17318  -0.13559  -0.11238
  Beta virt. eigenvalues --   -0.06891  -0.06673  -0.05403  -0.04017  -0.02967
  Beta virt. eigenvalues --   -0.02294  -0.01927  -0.01502  -0.01163  -0.00728
  Beta virt. eigenvalues --   -0.00159   0.00035   0.00263   0.00573   0.00683

 Mulliken charges and spin densities:
               1          2
     1  Na  -0.296868  -0.034164
     2  Na  -0.032344   0.451257
     3  Na  -0.072724  -0.018906
     4  Na   0.220867   0.044083
     5  Na   0.088809  -0.006295
     6  Na   0.228151   0.119072
     7  Na  -0.135892   0.444952
 Sum of Mulliken charges =  -0.00000   1.00000

 Dipole moment (field-independent basis, Debye):
    X=             -0.5988    Y=             -0.3875    Z=              0.1883  Tot=              0.7377
 Quadrupole moment (field-independent basis, Debye-Ang):
   XX=            -50.4951   YY=            -68.4752   ZZ=            -74.6772
   XY=             -0.6623   XZ=              0.0183   YZ=              1.2348

 Normal termination of Gaussian 16 at Wed Nov 29 16:50:08 2023.
