 Gaussian 16, Revision B.01,
 Gaussian 16:  ES64L-G16RevB.01 20-Dec-2017

 -------------------------
 #P B3LYP/6-311+g(d) force
 -------------------------

 -----
 DPGEN
 -----
 Symbolic Z-matrix:
 Charge =  0 Multiplicity = 2

                         Standard orientation:
 ---------------------------------------------------------------------
 Center     Atomic      Atomic             Coordinates (Angstroms)
 Number     Number       Type             X           Y           Z
 ---------------------------------------------------------------------
      1         11           0       -2.371156   -1.836875   -0.035467
      2         11           0        1.431301   -0.930483   -1.595364
      3         11           0        4.179431   -1.147654   -0.032516
      4         11           0       -4.856746   -0.045641   -0.193826
      5         11           0       -1.227481    2.222792   -0.079043
      6         11           0        2.073867    2.256247   -0.150062
      7         11           0        0.770784   -0.518386    2.086278
 ---------------------------------------------------------------------

 SCF Done:  E(UB3LYP) =  -1136.11528209     A.U. after   23 cycles

 The electronic state is 2-A.
 Alpha  occ. eigenvalues --  -38.45372 -38.44622 -38.44394 -38.44140 -38.43975
 Alpha  occ. eigenvalues --  -38.43410 -38.43276  -2.21199  -2.20443  -2.20206
 Alpha  occ. eigenvalues --   -2.19955  -2.19786  -2.19257  -2.19072  -1.14867
 Alpha  occ. eigenvalues --   -1.14861  -1.14844  -1.14098  -1.14077  -1.14054
 Alpha  occ. eigenvalues --   -1.13897  -1.13850  -1.13836  -1.13622  -1.13602
 Alpha  occ. eigenvalues --   -1.13596  -1.13471  -1.13438  -1.13426  -1.12949
 Alpha  occ. eigenvalues --   -1.12918  -1.12882  -1.12765  -1.12739  -1.12680
 Alpha  occ. eigenvalues --   -0.17497  -0.13979  -0.11297  -0.10732
 Alpha virt. eigenvalues --   -0.07412  -0.05430  -0.04380  -0.03320  -0.03125
 Alpha virt. eigenvalues --   -0.02350  -0.02189  -0.01637  -0.01054  -0.00766
 Alpha virt. eigenvalues --   -0.00556   0.00092   0.00257   0.00561   0.00681

  Beta  occ. eigenvalues --  -38.45363 -38.44522 -38.44354 -38.44122 -38.43973
  Beta  occ. eigenvalues --  -38.43394 -38.43275  -2.21186  -2.20258  -2.20132
  Beta  occ. eigenvalues --   -2.19923  -2.19785  -2.19229  -2.19071  -1.14862
  Beta  occ. eigenvalues --   -1.14839  -1.14822  -1.13967  -1.13952  -1.13925
  Beta  occ. eigenvalues --   -1.13852  -1.13798  -1.13785  -1.13599  -1.13578
  Beta  occ. eigenvalues --   -1.13568  -1.13475  -1.13442  -1.13388  -1.12927
  Beta  occ. eigenvalues --   -1.12899  -1.12859  -1.12764  -1.12731  -1.12679
  Beta  occ. eigenvalues --   -0.16882  -0.13568  -0.11137
  Beta virt. eigenvalues --   -0.07283  -0.06931  -0.05280  -0.04033  -0.02985
  Beta virt. eigenvalues --   -0.02884  -0.01881  -0.01664  -0.01382  -0.00791
  Beta virt. eigenvalues --   -0.00493  -0.00449   0.00143   0.00397   0.00610

 Mulliken charges and spin densities:
               1          2
     1  Na  -0.258669   0.070024
     2  Na  -0.068797   0.137030
     3  Na   0.352024   0.079095
     4  Na   0.332049   0.152265
     5  Na  -0.373423  -0.015103
     6  Na   0.103899   0.153185
     7  Na  -0.087083   0.423504
 Sum of Mulliken charges =  -0.00000   1.00000

 Dipole moment (field-independent basis, Debye):
    X=              0.4383    Y=             -0.0474    Z=              0.3129  Tot=              0.5406
 Quadrupole moment (field-independent basis, Debye-Ang):
   XX=            -56.8256   YY=            -76.1113   ZZ=            -67.9729
   XY=             -1.3514   XZ=              4.2976   YZ=              1.0833

 Normal termination of Gaussian 16 at Thu Dec  7 22:20:01 2023.
