 Gaussian 16, Revision B.01,
 Gaussian 16:  ES64L-G16RevB.01 20-Dec-2017

 -------------------------
 #P B3LYP/6-311+g(d) force
 -------------------------

 -----
 DPGEN
 -----
 Symbolic Z-matrix:
 Charge =  0 Multiplicity = 2

                         Standard orientation:
 ---------------------------------------------------------------------
 Center     Atomic      Atomic             Coordinates (Angstroms)
 Number     Number       Type             X           Y           Z
 ---------------------------------------------------------------------
      1         11           0       -2.503754    0.621874   -0.975601
      2         11           0        4.062968   -0.511930    0.367303
      3         11           0       -1.997180   -2.763629   -0.848467
      4         11           0        1.362539   -1.780026    0.457824
      5         11           0       -1.731276   -0.130912    2.126358
      6         11           0        1.276748    1.409323   -1.775810
      7         11           0       -0.470044    3.155300    0.648395
 ---------------------------------------------------------------------

 SCF Done:  E(UB3LYP) =  -1136.12580842     A.U. after   20 cycles

 The electronic state is 2-A.
 Alpha  occ. eigenvalues --  -38.44351 -38.44329 -38.44214 -38.44167 -38.43768
 Alpha  occ. eigenvalues --  -38.43731 -38.43574  -2.20199  -2.20139  -2.20008
 Alpha  occ. eigenvalues --   -2.20006  -2.19564  -2.19535  -2.19422  -1.13909
 Alpha  occ. eigenvalues --   -1.13879  -1.13862  -1.13809  -1.13787  -1.13764
 Alpha  occ. eigenvalues --   -1.13687  -1.13676  -1.13671  -1.13655  -1.13609
 Alpha  occ. eigenvalues --   -1.13597  -1.13240  -1.13215  -1.13213  -1.13199
 Alpha  occ. eigenvalues --   -1.13197  -1.13162  -1.13099  -1.13089  -1.13046
 Alpha  occ. eigenvalues --   -0.17415  -0.13224  -0.12283  -0.10761
 Alpha virt. eigenvalues --   -0.06205  -0.05245  -0.04852  -0.03316  -0.03197
 Alpha virt. eigenvalues --   -0.02518  -0.01847  -0.01278  -0.00552  -0.00331
 Alpha virt. eigenvalues --    0.00004   0.00112   0.00355   0.00466   0.00730

  Beta  occ. eigenvalues --  -38.44331 -38.44330 -38.44171 -38.44087 -38.43766
  Beta  occ. eigenvalues --  -38.43705 -38.43565  -2.20167  -2.20141  -2.19928
  Beta  occ. eigenvalues --   -2.19859  -2.19562  -2.19488  -2.19407  -1.13875
  Beta  occ. eigenvalues --   -1.13861  -1.13842  -1.13788  -1.13784  -1.13764
  Beta  occ. eigenvalues --   -1.13631  -1.13623  -1.13568  -1.13560  -1.13553
  Beta  occ. eigenvalues --   -1.13489  -1.13241  -1.13216  -1.13188  -1.13167
  Beta  occ. eigenvalues --   -1.13156  -1.13133  -1.13083  -1.13068  -1.13042
  Beta  occ. eigenvalues --   -0.16777  -0.13013  -0.12052
  Beta virt. eigenvalues --   -0.07125  -0.06035  -0.04907  -0.04599  -0.02964
  Beta virt. eigenvalues --   -0.02644  -0.01861  -0.01572  -0.01169  -0.00524
  Beta virt. eigenvalues --   -0.00068   0.00099   0.00288   0.00464   0.00636

 Mulliken charges and spin densities:
               1          2
     1  Na   0.150338   0.412182
     2  Na   0.448164  -0.107088
     3  Na   0.254749  -0.061841
     4  Na  -0.697267   0.240159
     5  Na  -0.249446   0.392099
     6  Na  -0.151686   0.152637
     7  Na   0.245147  -0.028147
 Sum of Mulliken charges =  -0.00000   1.00000

 Dipole moment (field-independent basis, Debye):
    X=              0.3601    Y=              0.3110    Z=              0.0029  Tot=              0.4758
 Quadrupole moment (field-independent basis, Debye-Ang):
   XX=            -58.6565   YY=            -66.6666   ZZ=            -70.4136
   XY=              2.2482   XZ=              1.2060   YZ=              1.6662

 Normal termination of Gaussian 16 at Mon Dec  4 04:39:37 2023.
