 Gaussian 16, Revision B.01,
 Gaussian 16:  ES64L-G16RevB.01 20-Dec-2017

 -------------------------
 #P B3LYP/6-311+g(d) force
 -------------------------

 -----
 DPGEN
 -----
 Symbolic Z-matrix:
 Charge =  0 Multiplicity = 2

                         Standard orientation:
 ---------------------------------------------------------------------
 Center     Atomic      Atomic             Coordinates (Angstroms)
 Number     Number       Type             X           Y           Z
 ---------------------------------------------------------------------
      1         11           0       -3.036214   -0.428819   -0.168805
      2         11           0        1.776879    2.253307   -0.448294
      3         11           0       -1.261893    2.364759    0.295276
      4         11           0        2.815400   -1.170183   -0.113195
      5         11           0       -0.231431   -0.244101   -1.698731
      6         11           0        0.287140   -0.085767    2.085883
      7         11           0       -0.349881   -2.689196    0.047866
 ---------------------------------------------------------------------

 SCF Done:  E(UB3LYP) =  -1136.13786267     A.U. after   19 cycles

 The electronic state is 2-A.
 Alpha  occ. eigenvalues --  -38.43746 -38.43731 -38.43640 -38.43370 -38.43370
 Alpha  occ. eigenvalues --  -38.43309 -38.43133  -2.19662  -2.19574  -2.19509
 Alpha  occ. eigenvalues --   -2.19334  -2.19284  -2.19248  -2.19051  -1.13334
 Alpha  occ. eigenvalues --   -1.13300  -1.13289  -1.13247  -1.13227  -1.13226
 Alpha  occ. eigenvalues --   -1.13216  -1.13163  -1.13161  -1.13120  -1.13008
 Alpha  occ. eigenvalues --   -1.12955  -1.12942  -1.12938  -1.12904  -1.12883
 Alpha  occ. eigenvalues --   -1.12880  -1.12868  -1.12719  -1.12703  -1.12672
 Alpha  occ. eigenvalues --   -0.19143  -0.12896  -0.12757  -0.11163
 Alpha virt. eigenvalues --   -0.05370  -0.04835  -0.04614  -0.03209  -0.03176
 Alpha virt. eigenvalues --   -0.02790  -0.01367  -0.00940  -0.00101  -0.00037
 Alpha virt. eigenvalues --    0.00066   0.00368   0.00871   0.00940   0.00968

  Beta  occ. eigenvalues --  -38.43728 -38.43649 -38.43637 -38.43361 -38.43361
  Beta  occ. eigenvalues --  -38.43242 -38.43124  -2.19571  -2.19507  -2.19483
  Beta  occ. eigenvalues --   -2.19275  -2.19234  -2.19209  -2.19039  -1.13254
  Beta  occ. eigenvalues --   -1.13228  -1.13221  -1.13212  -1.13202  -1.13168
  Beta  occ. eigenvalues --   -1.13159  -1.13148  -1.13140  -1.13082  -1.12968
  Beta  occ. eigenvalues --   -1.12921  -1.12903  -1.12884  -1.12874  -1.12870
  Beta  occ. eigenvalues --   -1.12838  -1.12815  -1.12710  -1.12670  -1.12664
  Beta  occ. eigenvalues --   -0.18385  -0.12654  -0.12494
  Beta virt. eigenvalues --   -0.07192  -0.05355  -0.04810  -0.04581  -0.02410
  Beta virt. eigenvalues --   -0.02343  -0.01711  -0.01299  -0.00876  -0.00094
  Beta virt. eigenvalues --   -0.00042   0.00120   0.00387   0.00904   0.00952

 Mulliken charges and spin densities:
               1          2
     1  Na   0.230351  -0.041228
     2  Na   0.074247  -0.019152
     3  Na   0.237515   0.061019
     4  Na   0.148139  -0.072595
     5  Na  -0.452702   0.474088
     6  Na  -0.568916   0.656896
     7  Na   0.331366  -0.059029
 Sum of Mulliken charges =  -0.00000   1.00000

 Dipole moment (field-independent basis, Debye):
    X=              0.1227    Y=             -0.1941    Z=              0.1617  Tot=              0.2809
 Quadrupole moment (field-independent basis, Debye-Ang):
   XX=            -58.1223   YY=            -64.3441   ZZ=            -72.0560
   XY=              0.0111   XZ=             -1.1071   YZ=             -0.4024

 Normal termination of Gaussian 16 at Tue Dec  5 20:08:00 2023.
