 Gaussian 16, Revision B.01,
 Gaussian 16:  ES64L-G16RevB.01 20-Dec-2017

 -------------------------
 #P B3LYP/6-311+g(d) force
 -------------------------

 -----
 DPGEN
 -----
 Symbolic Z-matrix:
 Charge =  0 Multiplicity = 2

                         Standard orientation:
 ---------------------------------------------------------------------
 Center     Atomic      Atomic             Coordinates (Angstroms)
 Number     Number       Type             X           Y           Z
 ---------------------------------------------------------------------
      1         11           0        3.594780   -0.664377   -0.148978
      2         11           0       -3.146910   -0.984108   -0.193560
      3         11           0        0.313872   -0.237296   -1.811967
      4         11           0        1.536923    2.337910    0.057171
      5         11           0       -0.000508    0.141452    2.026734
      6         11           0       -2.185330    2.071995   -0.200860
      7         11           0       -0.112827   -2.665576    0.271460
 ---------------------------------------------------------------------

 SCF Done:  E(UB3LYP) =  -1136.13281427     A.U. after   21 cycles

 The electronic state is 2-A.
 Alpha  occ. eigenvalues --  -38.45128 -38.44302 -38.43828 -38.43583 -38.43350
 Alpha  occ. eigenvalues --  -38.43302 -38.42930  -2.20885  -2.20131  -2.19732
 Alpha  occ. eigenvalues --   -2.19489  -2.19192  -2.19158  -2.18801  -1.14561
 Alpha  occ. eigenvalues --   -1.14541  -1.14520  -1.13813  -1.13794  -1.13767
 Alpha  occ. eigenvalues --   -1.13427  -1.13391  -1.13334  -1.13161  -1.13130
 Alpha  occ. eigenvalues --   -1.13103  -1.12868  -1.12858  -1.12847  -1.12838
 Alpha  occ. eigenvalues --   -1.12827  -1.12763  -1.12497  -1.12475  -1.12408
 Alpha  occ. eigenvalues --   -0.18442  -0.13223  -0.11955  -0.10820
 Alpha virt. eigenvalues --   -0.06544  -0.05027  -0.04077  -0.03307  -0.02814
 Alpha virt. eigenvalues --   -0.02641  -0.02259  -0.01074  -0.00254  -0.00243
 Alpha virt. eigenvalues --   -0.00100   0.00282   0.00694   0.00737   0.00873

  Beta  occ. eigenvalues --  -38.45128 -38.44298 -38.43766 -38.43484 -38.43345
  Beta  occ. eigenvalues --  -38.43295 -38.42918  -2.20886  -2.20126  -2.19618
  Beta  occ. eigenvalues --   -2.19307  -2.19186  -2.19148  -2.18784  -1.14548
  Beta  occ. eigenvalues --   -1.14544  -1.14522  -1.13813  -1.13775  -1.13764
  Beta  occ. eigenvalues --   -1.13349  -1.13312  -1.13248  -1.13043  -1.12998
  Beta  occ. eigenvalues --   -1.12978  -1.12867  -1.12846  -1.12834  -1.12818
  Beta  occ. eigenvalues --   -1.12800  -1.12760  -1.12489  -1.12429  -1.12402
  Beta  occ. eigenvalues --   -0.17704  -0.13008  -0.11708
  Beta virt. eigenvalues --   -0.06943  -0.06436  -0.05039  -0.04039  -0.02590
  Beta virt. eigenvalues --   -0.02151  -0.02006  -0.01591  -0.01047  -0.00294
  Beta virt. eigenvalues --   -0.00249   0.00048   0.00310   0.00784   0.00848

 Mulliken charges and spin densities:
               1          2
     1  Na   0.133339  -0.102025
     2  Na   0.114708  -0.017097
     3  Na  -0.309448   0.684715
     4  Na   0.109733  -0.088977
     5  Na  -0.263353   0.673579
     6  Na   0.069083  -0.046212
     7  Na   0.145938  -0.103983
 Sum of Mulliken charges =  -0.00000   1.00000

 Dipole moment (field-independent basis, Debye):
    X=              0.5647    Y=             -0.1900    Z=             -0.0301  Tot=              0.5966
 Quadrupole moment (field-independent basis, Debye-Ang):
   XX=            -50.5852   YY=            -68.6553   ZZ=            -73.7056
   XY=             -0.3637   XZ=              0.6959   YZ=             -0.6342

 Normal termination of Gaussian 16 at Tue Dec  5 12:07:19 2023.
