 Gaussian 16, Revision B.01,
 Gaussian 16:  ES64L-G16RevB.01 20-Dec-2017

 -------------------------
 #P B3LYP/6-311+g(d) force
 -------------------------

 -----
 DPGEN
 -----
 Symbolic Z-matrix:
 Charge =  0 Multiplicity = 2

                         Standard orientation:
 ---------------------------------------------------------------------
 Center     Atomic      Atomic             Coordinates (Angstroms)
 Number     Number       Type             X           Y           Z
 ---------------------------------------------------------------------
      1         11           0        3.333889    0.490016   -0.289934
      2         11           0       -2.767632   -1.878135    0.082781
      3         11           0        1.757885   -2.248072    0.138807
      4         11           0       -2.793412    1.291493   -0.555317
      5         11           0        0.292491   -0.063142   -1.919176
      6         11           0       -0.106024   -0.168214    1.947656
      7         11           0        0.282802    2.576055    0.595183
 ---------------------------------------------------------------------

 SCF Done:  E(UB3LYP) =  -1136.13056069     A.U. after   21 cycles

 The electronic state is 2-A.
 Alpha  occ. eigenvalues --  -38.44811 -38.44189 -38.44065 -38.43885 -38.43732
 Alpha  occ. eigenvalues --  -38.43430 -38.42447  -2.20642  -2.20077  -2.19912
 Alpha  occ. eigenvalues --   -2.19687  -2.19663  -2.19309  -2.18329  -1.14315
 Alpha  occ. eigenvalues --   -1.14310  -1.14274  -1.13762  -1.13716  -1.13698
 Alpha  occ. eigenvalues --   -1.13591  -1.13582  -1.13549  -1.13359  -1.13344
 Alpha  occ. eigenvalues --   -1.13341  -1.13330  -1.13315  -1.13266  -1.12987
 Alpha  occ. eigenvalues --   -1.12975  -1.12938  -1.12043  -1.11974  -1.11947
 Alpha  occ. eigenvalues --   -0.18579  -0.13598  -0.11653  -0.11171
 Alpha virt. eigenvalues --   -0.06266  -0.05280  -0.03777  -0.03667  -0.02889
 Alpha virt. eigenvalues --   -0.02773  -0.02020  -0.01036  -0.00283  -0.00184
 Alpha virt. eigenvalues --    0.00031   0.00324   0.00673   0.00749   0.00842

  Beta  occ. eigenvalues --  -38.44805 -38.44121 -38.44054 -38.43888 -38.43637
  Beta  occ. eigenvalues --  -38.43422 -38.42433  -2.20633  -2.19952  -2.19892
  Beta  occ. eigenvalues --   -2.19695  -2.19491  -2.19298  -2.18307  -1.14312
  Beta  occ. eigenvalues --   -1.14290  -1.14265  -1.13677  -1.13631  -1.13607
  Beta  occ. eigenvalues --   -1.13581  -1.13552  -1.13534  -1.13359  -1.13338
  Beta  occ. eigenvalues --   -1.13332  -1.13228  -1.13190  -1.13147  -1.12981
  Beta  occ. eigenvalues --   -1.12952  -1.12918  -1.12018  -1.11942  -1.11938
  Beta  occ. eigenvalues --   -0.17829  -0.13373  -0.11398
  Beta virt. eigenvalues --   -0.07279  -0.06144  -0.05238  -0.03761  -0.02928
  Beta virt. eigenvalues --   -0.02069  -0.01891  -0.01808  -0.00957  -0.00321
  Beta virt. eigenvalues --   -0.00101   0.00085   0.00357   0.00793   0.00843

 Mulliken charges and spin densities:
               1          2
     1  Na   0.199182   0.018692
     2  Na  -0.053956  -0.098322
     3  Na   0.041865  -0.084812
     4  Na   0.061435   0.072544
     5  Na  -0.193615   0.507608
     6  Na  -0.046737   0.578137
     7  Na  -0.008174   0.006152
 Sum of Mulliken charges =  -0.00000   1.00000

 Dipole moment (field-independent basis, Debye):
    X=              0.3456    Y=             -0.0806    Z=             -0.3085  Tot=              0.4702
 Quadrupole moment (field-independent basis, Debye-Ang):
   XX=            -52.9038   YY=            -69.6208   ZZ=            -72.1308
   XY=              0.7860   XZ=              0.5850   YZ=             -0.9693

 Normal termination of Gaussian 16 at Tue Dec  5 22:02:41 2023.
