 Gaussian 16, Revision B.01,
 Gaussian 16:  ES64L-G16RevB.01 20-Dec-2017

 -------------------------
 #P B3LYP/6-311+g(d) force
 -------------------------

 -----
 DPGEN
 -----
 Symbolic Z-matrix:
 Charge =  0 Multiplicity = 2

                         Standard orientation:
 ---------------------------------------------------------------------
 Center     Atomic      Atomic             Coordinates (Angstroms)
 Number     Number       Type             X           Y           Z
 ---------------------------------------------------------------------
      1         11           0        0.262232   -1.086962    2.098479
      2         11           0        0.022632   -0.032022   -1.840782
      3         11           0        2.397374   -2.001572   -0.070563
      4         11           0        3.025921    1.280862   -0.124177
      5         11           0       -3.036511    1.216266    0.579204
      6         11           0       -0.091487    2.615947    0.055518
      7         11           0       -2.580162   -1.992520   -0.697679
 ---------------------------------------------------------------------

 SCF Done:  E(UB3LYP) =  -1136.12892323     A.U. after   21 cycles

 The electronic state is 2-A.
 Alpha  occ. eigenvalues --  -38.44404 -38.44376 -38.44134 -38.44096 -38.43869
 Alpha  occ. eigenvalues --  -38.43840 -38.42709  -2.20231  -2.20188  -2.19965
 Alpha  occ. eigenvalues --   -2.19897  -2.19771  -2.19695  -2.18581  -1.13905
 Alpha  occ. eigenvalues --   -1.13889  -1.13877  -1.13859  -1.13848  -1.13829
 Alpha  occ. eigenvalues --   -1.13648  -1.13607  -1.13585  -1.13576  -1.13542
 Alpha  occ. eigenvalues --   -1.13538  -1.13454  -1.13427  -1.13379  -1.13356
 Alpha  occ. eigenvalues --   -1.13342  -1.13335  -1.12276  -1.12241  -1.12216
 Alpha  occ. eigenvalues --   -0.18133  -0.13473  -0.11949  -0.10910
 Alpha virt. eigenvalues --   -0.06148  -0.05809  -0.04030  -0.03459  -0.03081
 Alpha virt. eigenvalues --   -0.02593  -0.01889  -0.01326  -0.00543  -0.00126
 Alpha virt. eigenvalues --   -0.00045   0.00301   0.00632   0.00669   0.00754

  Beta  occ. eigenvalues --  -38.44403 -38.44363 -38.44077 -38.44058 -38.43839
  Beta  occ. eigenvalues --  -38.43798 -38.42705  -2.20230  -2.20165  -2.19864
  Beta  occ. eigenvalues --   -2.19823  -2.19699  -2.19640  -2.18575  -1.13900
  Beta  occ. eigenvalues --   -1.13890  -1.13870  -1.13841  -1.13825  -1.13813
  Beta  occ. eigenvalues --   -1.13561  -1.13538  -1.13522  -1.13515  -1.13508
  Beta  occ. eigenvalues --   -1.13485  -1.13372  -1.13359  -1.13343  -1.13331
  Beta  occ. eigenvalues --   -1.13313  -1.13276  -1.12272  -1.12233  -1.12200
  Beta  occ. eigenvalues --   -0.17466  -0.13261  -0.11661
  Beta virt. eigenvalues --   -0.07154  -0.06039  -0.05671  -0.03841  -0.02882
  Beta virt. eigenvalues --   -0.02355  -0.01778  -0.01714  -0.01177  -0.00563
  Beta virt. eigenvalues --   -0.00088   0.00082   0.00346   0.00728   0.00777

 Mulliken charges and spin densities:
               1          2
     1  Na  -0.359661   0.393786
     2  Na   0.104087   0.302410
     3  Na   0.297272   0.028866
     4  Na   0.046116   0.010932
     5  Na   0.001057   0.071539
     6  Na  -0.155629   0.132858
     7  Na   0.066758   0.059608
 Sum of Mulliken charges =  -0.00000   1.00000

 Dipole moment (field-independent basis, Debye):
    X=              0.0902    Y=             -0.2826    Z=              0.1369  Tot=              0.3267
 Quadrupole moment (field-independent basis, Debye-Ang):
   XX=            -53.1094   YY=            -69.7724   ZZ=            -72.6059
   XY=              0.9199   XZ=             -1.5641   YZ=              2.3638

 Normal termination of Gaussian 16 at Tue Dec  5 20:42:47 2023.
