 Gaussian 16, Revision B.01,
 Gaussian 16:  ES64L-G16RevB.01 20-Dec-2017

 -------------------------
 #P B3LYP/6-311+g(d) force
 -------------------------

 -----
 DPGEN
 -----
 Symbolic Z-matrix:
 Charge =  0 Multiplicity = 2

                         Standard orientation:
 ---------------------------------------------------------------------
 Center     Atomic      Atomic             Coordinates (Angstroms)
 Number     Number       Type             X           Y           Z
 ---------------------------------------------------------------------
      1         11           0        3.668503   -0.619073   -1.283053
      2         11           0       -1.073000    0.133411    1.429470
      3         11           0       -2.055160    1.816752   -0.684943
      4         11           0        1.743632    2.048475    0.326207
      5         11           0       -3.799919   -1.143892   -0.397717
      6         11           0        0.066337   -1.062915   -1.350892
      7         11           0        1.449607   -1.172758    1.960929
 ---------------------------------------------------------------------

 SCF Done:  E(UB3LYP) =  -1136.11585398     A.U. after   28 cycles

 The electronic state is 2-A.
 Alpha  occ. eigenvalues --  -38.44519 -38.44508 -38.44295 -38.44288 -38.43975
 Alpha  occ. eigenvalues --  -38.43468 -38.42906  -2.20422  -2.20322  -2.20204
 Alpha  occ. eigenvalues --   -2.20138  -2.19811  -2.19262  -2.18984  -1.14179
 Alpha  occ. eigenvalues --   -1.14084  -1.14009  -1.13997  -1.13971  -1.13964
 Alpha  occ. eigenvalues --   -1.13929  -1.13868  -1.13844  -1.13809  -1.13791
 Alpha  occ. eigenvalues --   -1.13710  -1.13494  -1.13465  -1.13427  -1.12932
 Alpha  occ. eigenvalues --   -1.12925  -1.12891  -1.12715  -1.12669  -1.12525
 Alpha  occ. eigenvalues --   -0.18772  -0.14016  -0.11669  -0.10779
 Alpha virt. eigenvalues --   -0.06777  -0.05278  -0.04542  -0.03209  -0.02683
 Alpha virt. eigenvalues --   -0.02293  -0.02205  -0.01334  -0.00883  -0.00130
 Alpha virt. eigenvalues --    0.00062   0.00238   0.00428   0.00636   0.00685

  Beta  occ. eigenvalues --  -38.44511 -38.44462 -38.44291 -38.44210 -38.43944
  Beta  occ. eigenvalues --  -38.43457 -38.42872  -2.20338  -2.20309  -2.20134
  Beta  occ. eigenvalues --   -2.20063  -2.19754  -2.19242  -2.18932  -1.14129
  Beta  occ. eigenvalues --   -1.14025  -1.13985  -1.13980  -1.13947  -1.13891
  Beta  occ. eigenvalues --   -1.13878  -1.13840  -1.13813  -1.13719  -1.13714
  Beta  occ. eigenvalues --   -1.13689  -1.13449  -1.13425  -1.13383  -1.12914
  Beta  occ. eigenvalues --   -1.12910  -1.12881  -1.12651  -1.12611  -1.12490
  Beta  occ. eigenvalues --   -0.18042  -0.13800  -0.10550
  Beta virt. eigenvalues --   -0.07696  -0.06568  -0.04968  -0.04127  -0.02771
  Beta virt. eigenvalues --   -0.02524  -0.01828  -0.01698  -0.01138  -0.00464
  Beta virt. eigenvalues --    0.00006   0.00107   0.00328   0.00535   0.00710

 Mulliken charges and spin densities:
               1          2
     1  Na   0.429145  -0.012975
     2  Na  -0.053729   0.463129
     3  Na   0.422367   0.216947
     4  Na  -0.403381   0.342592
     5  Na   0.532553  -0.064693
     6  Na  -0.935766   0.184365
     7  Na   0.008811  -0.129365
 Sum of Mulliken charges =  -0.00000   1.00000

 Dipole moment (field-independent basis, Debye):
    X=             -0.5916    Y=              0.3484    Z=              0.2454  Tot=              0.7291
 Quadrupole moment (field-independent basis, Debye-Ang):
   XX=            -52.1734   YY=            -69.1186   ZZ=            -74.1498
   XY=              2.2288   XZ=              3.1958   YZ=             -5.9506

 Normal termination of Gaussian 16 at Fri Dec  8 02:08:56 2023.
