 Gaussian 16, Revision B.01,
 Gaussian 16:  ES64L-G16RevB.01 20-Dec-2017

 -------------------------
 #P B3LYP/6-311+g(d) force
 -------------------------

 -----
 DPGEN
 -----
 Symbolic Z-matrix:
 Charge =  0 Multiplicity = 2

                         Standard orientation:
 ---------------------------------------------------------------------
 Center     Atomic      Atomic             Coordinates (Angstroms)
 Number     Number       Type             X           Y           Z
 ---------------------------------------------------------------------
      1         11           0        0.710305   -2.824101   -0.471367
      2         11           0       -0.350601   -0.032368   -1.370858
      3         11           0        1.617128    2.689272   -0.164287
      4         11           0       -2.980151   -1.359280    0.049180
      5         11           0       -2.036589    2.442331    0.000856
      6         11           0        0.119456   -0.443985    1.944173
      7         11           0        2.920451   -0.471869    0.012302
 ---------------------------------------------------------------------

 SCF Done:  E(UB3LYP) =  -1136.13570284     A.U. after   19 cycles

 The electronic state is 2-A.
 Alpha  occ. eigenvalues --  -38.44214 -38.44133 -38.43662 -38.43607 -38.43585
 Alpha  occ. eigenvalues --  -38.43195 -38.42774  -2.20021  -2.19937  -2.19505
 Alpha  occ. eigenvalues --   -2.19478  -2.19469  -2.19113  -2.18810  -1.13707
 Alpha  occ. eigenvalues --   -1.13680  -1.13655  -1.13628  -1.13601  -1.13560
 Alpha  occ. eigenvalues --   -1.13237  -1.13181  -1.13175  -1.13152  -1.13146
 Alpha  occ. eigenvalues --   -1.13130  -1.13125  -1.13103  -1.13066  -1.12800
 Alpha  occ. eigenvalues --   -1.12732  -1.12721  -1.12502  -1.12453  -1.12428
 Alpha  occ. eigenvalues --   -0.18688  -0.12971  -0.12663  -0.10293
 Alpha virt. eigenvalues --   -0.05791  -0.05257  -0.04948  -0.02942  -0.02710
 Alpha virt. eigenvalues --   -0.02148  -0.01572  -0.01375  -0.00561  -0.00479
 Alpha virt. eigenvalues --    0.00028   0.00338   0.00793   0.00824   0.00876

  Beta  occ. eigenvalues --  -38.44211 -38.44132 -38.43661 -38.43589 -38.43578
  Beta  occ. eigenvalues --  -38.43101 -38.42722  -2.20019  -2.19937  -2.19478
  Beta  occ. eigenvalues --   -2.19476  -2.19461  -2.18939  -2.18718  -1.13699
  Beta  occ. eigenvalues --   -1.13665  -1.13656  -1.13623  -1.13592  -1.13563
  Beta  occ. eigenvalues --   -1.13221  -1.13177  -1.13156  -1.13132  -1.13126
  Beta  occ. eigenvalues --   -1.13109  -1.13101  -1.13088  -1.13059  -1.12685
  Beta  occ. eigenvalues --   -1.12611  -1.12595  -1.12430  -1.12376  -1.12363
  Beta  occ. eigenvalues --   -0.17980  -0.12743  -0.12433
  Beta virt. eigenvalues --   -0.06375  -0.05799  -0.05207  -0.04897  -0.02181
  Beta virt. eigenvalues --   -0.02017  -0.01501  -0.01315  -0.01076  -0.00590
  Beta virt. eigenvalues --   -0.00521   0.00181   0.00387   0.00798   0.00866

 Mulliken charges and spin densities:
               1          2
     1  Na   0.408721   0.042843
     2  Na  -0.442052   0.281278
     3  Na  -0.009809  -0.049881
     4  Na   0.121349  -0.065121
     5  Na   0.052853  -0.053299
     6  Na  -0.462617   0.766154
     7  Na   0.331556   0.078027
 Sum of Mulliken charges =  -0.00000   1.00000

 Dipole moment (field-independent basis, Debye):
    X=             -0.4384    Y=              0.0495    Z=              0.1742  Tot=              0.4743
 Quadrupole moment (field-independent basis, Debye-Ang):
   XX=            -55.8211   YY=            -58.7387   ZZ=            -76.9662
   XY=              0.2873   XZ=             -1.0324   YZ=              0.9054

 Normal termination of Gaussian 16 at Tue Dec  5 12:53:45 2023.
