 Gaussian 16, Revision B.01,
 Gaussian 16:  ES64L-G16RevB.01 20-Dec-2017

 -------------------------
 #P B3LYP/6-311+g(d) force
 -------------------------

 -----
 DPGEN
 -----
 Symbolic Z-matrix:
 Charge =  0 Multiplicity = 2

                         Standard orientation:
 ---------------------------------------------------------------------
 Center     Atomic      Atomic             Coordinates (Angstroms)
 Number     Number       Type             X           Y           Z
 ---------------------------------------------------------------------
      1         11           0        3.042056   -1.926319    0.155863
      2         11           0       -3.792752   -0.684879   -0.879103
      3         11           0        0.104133   -0.680970   -1.791286
      4         11           0       -1.983574    1.950391    0.191678
      5         11           0       -1.430007   -1.102039    1.639674
      6         11           0        1.123177    0.855267    1.600703
      7         11           0        2.936966    1.588548   -0.917529
 ---------------------------------------------------------------------

 SCF Done:  E(UB3LYP) =  -1136.11944135     A.U. after   27 cycles

 The electronic state is 2-A.
 Alpha  occ. eigenvalues --  -38.44818 -38.44488 -38.44445 -38.44247 -38.44230
 Alpha  occ. eigenvalues --  -38.44098 -38.42184  -2.20654  -2.20278  -2.20238
 Alpha  occ. eigenvalues --   -2.20126  -2.20058  -2.19944  -2.18115  -1.14328
 Alpha  occ. eigenvalues --   -1.14310  -1.14255  -1.13950  -1.13942  -1.13936
 Alpha  occ. eigenvalues --   -1.13927  -1.13906  -1.13830  -1.13818  -1.13778
 Alpha  occ. eigenvalues --   -1.13751  -1.13739  -1.13711  -1.13685  -1.13629
 Alpha  occ. eigenvalues --   -1.13597  -1.13556  -1.11823  -1.11792  -1.11725
 Alpha  occ. eigenvalues --   -0.18232  -0.14259  -0.11168  -0.10574
 Alpha virt. eigenvalues --   -0.06793  -0.06019  -0.04586  -0.03025  -0.02685
 Alpha virt. eigenvalues --   -0.02355  -0.02291  -0.01393  -0.00908  -0.00349
 Alpha virt. eigenvalues --    0.00061   0.00178   0.00351   0.00439   0.00522

  Beta  occ. eigenvalues --  -38.44767 -38.44462 -38.44427 -38.44250 -38.44169
  Beta  occ. eigenvalues --  -38.44090 -38.42164  -2.20560  -2.20230  -2.20207
  Beta  occ. eigenvalues --   -2.20064  -2.20014  -2.19930  -2.18084  -1.14266
  Beta  occ. eigenvalues --   -1.14240  -1.14190  -1.13924  -1.13909  -1.13897
  Beta  occ. eigenvalues --   -1.13884  -1.13874  -1.13810  -1.13749  -1.13744
  Beta  occ. eigenvalues --   -1.13738  -1.13700  -1.13676  -1.13647  -1.13616
  Beta  occ. eigenvalues --   -1.13578  -1.13544  -1.11794  -1.11743  -1.11705
  Beta  occ. eigenvalues --   -0.17563  -0.14025  -0.10400
  Beta virt. eigenvalues --   -0.07472  -0.06604  -0.05469  -0.04273  -0.02740
  Beta virt. eigenvalues --   -0.02509  -0.01860  -0.01693  -0.01051  -0.00595
  Beta virt. eigenvalues --   -0.00261   0.00166   0.00232   0.00387   0.00569

 Mulliken charges and spin densities:
               1          2
     1  Na  -0.084744   0.091298
     2  Na   0.139993  -0.041773
     3  Na  -0.405466   0.180397
     4  Na  -0.080933   0.081871
     5  Na  -0.079802   0.177082
     6  Na   0.328088   0.395722
     7  Na   0.182864   0.115404
 Sum of Mulliken charges =  -0.00000   1.00000

 Dipole moment (field-independent basis, Debye):
    X=             -0.0674    Y=              0.1266    Z=             -0.1879  Tot=              0.2364
 Quadrupole moment (field-independent basis, Debye-Ang):
   XX=            -49.9887   YY=            -70.3448   ZZ=            -74.7891
   XY=              0.0282   XZ=             -0.0855   YZ=             -7.9928

 Normal termination of Gaussian 16 at Fri Dec  8 00:45:57 2023.
