 Gaussian 16, Revision B.01,
 Gaussian 16:  ES64L-G16RevB.01 20-Dec-2017

 -------------------------
 #P B3LYP/6-311+g(d) force
 -------------------------

 -----
 DPGEN
 -----
 Symbolic Z-matrix:
 Charge =  0 Multiplicity = 2

                         Standard orientation:
 ---------------------------------------------------------------------
 Center     Atomic      Atomic             Coordinates (Angstroms)
 Number     Number       Type             X           Y           Z
 ---------------------------------------------------------------------
      1         11           0       -0.199563    1.248290   -0.276066
      2         11           0        2.564107   -0.643232   -1.432513
      3         11           0        1.964589   -1.297616    1.632595
      4         11           0        2.882230    2.171560    0.364435
      5         11           0       -2.479003   -0.912895    1.299956
      6         11           0       -3.828882    1.567564   -0.392343
      7         11           0       -0.903478   -2.133671   -1.196063
 ---------------------------------------------------------------------

 SCF Done:  E(UB3LYP) =  -1136.12206888     A.U. after   26 cycles

 The electronic state is 2-A.
 Alpha  occ. eigenvalues --  -38.44593 -38.44339 -38.44337 -38.44006 -38.43827
 Alpha  occ. eigenvalues --  -38.43793 -38.43183  -2.20380  -2.20229  -2.20206
 Alpha  occ. eigenvalues --   -2.19851  -2.19691  -2.19668  -2.19027  -1.14063
 Alpha  occ. eigenvalues --   -1.14041  -1.14027  -1.13932  -1.13895  -1.13889
 Alpha  occ. eigenvalues --   -1.13885  -1.13837  -1.13803  -1.13527  -1.13501
 Alpha  occ. eigenvalues --   -1.13443  -1.13411  -1.13388  -1.13353  -1.13327
 Alpha  occ. eigenvalues --   -1.13301  -1.13265  -1.12711  -1.12691  -1.12648
 Alpha  occ. eigenvalues --   -0.18173  -0.14320  -0.11341  -0.10325
 Alpha virt. eigenvalues --   -0.06727  -0.05863  -0.04684  -0.03227  -0.02521
 Alpha virt. eigenvalues --   -0.02417  -0.01998  -0.01343  -0.00845  -0.00356
 Alpha virt. eigenvalues --   -0.00058   0.00176   0.00245   0.00410   0.00640

  Beta  occ. eigenvalues --  -38.44602 -38.44320 -38.44302 -38.43937 -38.43819
  Beta  occ. eigenvalues --  -38.43772 -38.43163  -2.20397  -2.20174  -2.20165
  Beta  occ. eigenvalues --   -2.19723  -2.19658  -2.19655  -2.18992  -1.14071
  Beta  occ. eigenvalues --   -1.14052  -1.14037  -1.13879  -1.13870  -1.13859
  Beta  occ. eigenvalues --   -1.13842  -1.13786  -1.13781  -1.13433  -1.13419
  Beta  occ. eigenvalues --   -1.13384  -1.13354  -1.13352  -1.13325  -1.13315
  Beta  occ. eigenvalues --   -1.13279  -1.13251  -1.12691  -1.12645  -1.12626
  Beta  occ. eigenvalues --   -0.17536  -0.14157  -0.11133
  Beta virt. eigenvalues --   -0.06659  -0.06548  -0.05695  -0.04154  -0.02998
  Beta virt. eigenvalues --   -0.02426  -0.01896  -0.01397  -0.01001  -0.00631
  Beta virt. eigenvalues --   -0.00135   0.00043   0.00228   0.00337   0.00491

 Mulliken charges and spin densities:
               1          2
     1  Na  -2.314938   0.173618
     2  Na   0.767669   0.171479
     3  Na  -0.356328   0.478050
     4  Na   1.405975  -0.030223
     5  Na   0.578955   0.104730
     6  Na   0.102186  -0.021272
     7  Na  -0.183518   0.123618
 Sum of Mulliken charges =  -0.00000   1.00000

 Dipole moment (field-independent basis, Debye):
    X=             -0.4027    Y=              0.0833    Z=             -0.1970  Tot=              0.4559
 Quadrupole moment (field-independent basis, Debye-Ang):
   XX=            -50.0383   YY=            -71.6367   ZZ=            -71.8769
   XY=              0.2704   XZ=             -0.4465   YZ=              0.2038

 Normal termination of Gaussian 16 at Tue Dec  5 18:50:38 2023.
