 Gaussian 16, Revision B.01,
 Gaussian 16:  ES64L-G16RevB.01 20-Dec-2017

 -------------------------
 #P B3LYP/6-311+g(d) force
 -------------------------

 -----
 DPGEN
 -----
 Symbolic Z-matrix:
 Charge =  0 Multiplicity = 2

                         Standard orientation:
 ---------------------------------------------------------------------
 Center     Atomic      Atomic             Coordinates (Angstroms)
 Number     Number       Type             X           Y           Z
 ---------------------------------------------------------------------
      1         11           0       -0.112869    2.574922    0.253886
      2         11           0        1.963858   -0.134543   -2.006448
      3         11           0        2.710685    1.510507    0.607125
      4         11           0       -1.324746   -0.702320    2.066836
      5         11           0       -3.246463    1.128040   -0.614273
      6         11           0       -1.805874   -1.970964   -1.000941
      7         11           0        1.815410   -2.405641    0.693814
 ---------------------------------------------------------------------

 SCF Done:  E(UB3LYP) =  -1136.12759535     A.U. after   20 cycles

 The electronic state is 2-A.
 Alpha  occ. eigenvalues --  -38.44312 -38.44209 -38.44158 -38.44149 -38.44013
 Alpha  occ. eigenvalues --  -38.43929 -38.43250  -2.20148  -2.20039  -2.19970
 Alpha  occ. eigenvalues --   -2.19957  -2.19880  -2.19711  -2.19089  -1.13829
 Alpha  occ. eigenvalues --   -1.13799  -1.13772  -1.13728  -1.13698  -1.13659
 Alpha  occ. eigenvalues --   -1.13650  -1.13628  -1.13620  -1.13615  -1.13599
 Alpha  occ. eigenvalues --   -1.13587  -1.13567  -1.13530  -1.13503  -1.13385
 Alpha  occ. eigenvalues --   -1.13372  -1.13351  -1.12775  -1.12751  -1.12720
 Alpha  occ. eigenvalues --   -0.17618  -0.13533  -0.12026  -0.10777
 Alpha virt. eigenvalues --   -0.05797  -0.05444  -0.05105  -0.03642  -0.03062
 Alpha virt. eigenvalues --   -0.02687  -0.01391  -0.01033  -0.00477  -0.00339
 Alpha virt. eigenvalues --   -0.00134   0.00328   0.00392   0.00536   0.00631

  Beta  occ. eigenvalues --  -38.44260 -38.44144 -38.44140 -38.44132 -38.44010
  Beta  occ. eigenvalues --  -38.43920 -38.43243  -2.20051  -2.19938  -2.19928
  Beta  occ. eigenvalues --   -2.19919  -2.19877  -2.19697  -2.19078  -1.13769
  Beta  occ. eigenvalues --   -1.13731  -1.13707  -1.13672  -1.13623  -1.13616
  Beta  occ. eigenvalues --   -1.13600  -1.13599  -1.13585  -1.13582  -1.13569
  Beta  occ. eigenvalues --   -1.13554  -1.13543  -1.13506  -1.13502  -1.13370
  Beta  occ. eigenvalues --   -1.13359  -1.13333  -1.12762  -1.12734  -1.12714
  Beta  occ. eigenvalues --   -0.17002  -0.13287  -0.11820
  Beta virt. eigenvalues --   -0.07194  -0.05750  -0.05207  -0.04526  -0.03362
  Beta virt. eigenvalues --   -0.02447  -0.01833  -0.01325  -0.00963  -0.00432
  Beta virt. eigenvalues --   -0.00125  -0.00014   0.00485   0.00559   0.00652

 Mulliken charges and spin densities:
               1          2
     1  Na  -0.270068   0.028086
     2  Na  -0.096701   0.284961
     3  Na   0.291787   0.052490
     4  Na  -0.241940   0.412618
     5  Na   0.350464  -0.005813
     6  Na  -0.077402   0.243658
     7  Na   0.043860  -0.015999
 Sum of Mulliken charges =  -0.00000   1.00000

 Dipole moment (field-independent basis, Debye):
    X=             -0.0572    Y=             -0.2492    Z=             -0.1075  Tot=              0.2773
 Quadrupole moment (field-independent basis, Debye-Ang):
   XX=            -58.8277   YY=            -70.6541   ZZ=            -68.2678
   XY=             -1.2753   XZ=              2.2392   YZ=             -0.0291

 Normal termination of Gaussian 16 at Sun Dec  3 18:11:03 2023.
