 Gaussian 16, Revision B.01,
 Gaussian 16:  ES64L-G16RevB.01 20-Dec-2017

 -------------------------
 #P B3LYP/6-311+g(d) force
 -------------------------

 -----
 DPGEN
 -----
 Symbolic Z-matrix:
 Charge =  0 Multiplicity = 2

                         Standard orientation:
 ---------------------------------------------------------------------
 Center     Atomic      Atomic             Coordinates (Angstroms)
 Number     Number       Type             X           Y           Z
 ---------------------------------------------------------------------
      1         11           0       -2.306314    1.889343    0.154593
      2         11           0        4.221630    0.349347   -0.223405
      3         11           0       -0.716150   -1.516856   -1.455432
      4         11           0       -0.864851   -0.214920    2.057443
      5         11           0        1.472940    2.539074   -0.491515
      6         11           0        1.987843   -2.367185    0.450035
      7         11           0       -3.795098   -0.678802   -0.491719
 ---------------------------------------------------------------------

 SCF Done:  E(UB3LYP) =  -1136.11646033     A.U. after   23 cycles

 The electronic state is 2-A.
 Alpha  occ. eigenvalues --  -38.44744 -38.44653 -38.44490 -38.44387 -38.44017
 Alpha  occ. eigenvalues --  -38.43814 -38.43590  -2.20532  -2.20522  -2.20316
 Alpha  occ. eigenvalues --   -2.20250  -2.19903  -2.19559  -2.19390  -1.14229
 Alpha  occ. eigenvalues --   -1.14189  -1.14184  -1.14163  -1.14159  -1.14158
 Alpha  occ. eigenvalues --   -1.13996  -1.13978  -1.13940  -1.13925  -1.13889
 Alpha  occ. eigenvalues --   -1.13861  -1.13570  -1.13554  -1.13540  -1.13260
 Alpha  occ. eigenvalues --   -1.13234  -1.13192  -1.13068  -1.13052  -1.13034
 Alpha  occ. eigenvalues --   -0.17783  -0.13981  -0.11677  -0.10800
 Alpha virt. eigenvalues --   -0.07233  -0.05762  -0.04201  -0.03474  -0.02993
 Alpha virt. eigenvalues --   -0.02548  -0.02157  -0.01654  -0.00809  -0.00440
 Alpha virt. eigenvalues --   -0.00125  -0.00079   0.00298   0.00583   0.00707

  Beta  occ. eigenvalues --  -38.44711 -38.44605 -38.44467 -38.44292 -38.44004
  Beta  occ. eigenvalues --  -38.43829 -38.43587  -2.20460  -2.20445  -2.20275
  Beta  occ. eigenvalues --   -2.20073  -2.19884  -2.19588  -2.19387  -1.14173
  Beta  occ. eigenvalues --   -1.14145  -1.14122  -1.14119  -1.14117  -1.14091
  Beta  occ. eigenvalues --   -1.13970  -1.13949  -1.13892  -1.13810  -1.13772
  Beta  occ. eigenvalues --   -1.13731  -1.13547  -1.13544  -1.13500  -1.13281
  Beta  occ. eigenvalues --   -1.13253  -1.13200  -1.13066  -1.13047  -1.13020
  Beta  occ. eigenvalues --   -0.17139  -0.13570  -0.11459
  Beta virt. eigenvalues --   -0.07251  -0.06958  -0.05534  -0.03900  -0.03072
  Beta virt. eigenvalues --   -0.02642  -0.02122  -0.01545  -0.01499  -0.00643
  Beta virt. eigenvalues --   -0.00214  -0.00073   0.00048   0.00464   0.00660

 Mulliken charges and spin densities:
               1          2
     1  Na   0.049129   0.163178
     2  Na  -0.107234   0.134650
     3  Na  -0.419948   0.131321
     4  Na  -0.216231   0.374389
     5  Na  -0.087692  -0.101970
     6  Na   0.294666   0.080349
     7  Na   0.487310   0.218082
 Sum of Mulliken charges =  -0.00000   1.00000

 Dipole moment (field-independent basis, Debye):
    X=             -0.3992    Y=             -0.4859    Z=              0.2951  Tot=              0.6946
 Quadrupole moment (field-independent basis, Debye-Ang):
   XX=            -54.4588   YY=            -74.3812   ZZ=            -70.7069
   XY=             -3.3838   XZ=             -0.6515   YZ=             -2.0853

 Normal termination of Gaussian 16 at Sun Dec  3 14:06:49 2023.
