 Gaussian 16, Revision B.01,
 Gaussian 16:  ES64L-G16RevB.01 20-Dec-2017

 -------------------------
 #P B3LYP/6-311+g(d) force
 -------------------------

 -----
 DPGEN
 -----
 Symbolic Z-matrix:
 Charge =  0 Multiplicity = 2

                         Standard orientation:
 ---------------------------------------------------------------------
 Center     Atomic      Atomic             Coordinates (Angstroms)
 Number     Number       Type             X           Y           Z
 ---------------------------------------------------------------------
      1         11           0        0.704703    3.302038   -0.606604
      2         11           0        3.035978   -2.423938   -0.432672
      3         11           0       -0.805989   -2.571610   -0.377753
      4         11           0       -3.782487   -1.583974    0.134836
      5         11           0        0.007101    0.228412    0.992848
      6         11           0        3.304641    0.776472    0.459816
      7         11           0       -2.463948    2.272600   -0.170471
 ---------------------------------------------------------------------

 SCF Done:  E(UB3LYP) =  -1136.12148594     A.U. after   24 cycles

 The electronic state is 2-A.
 Alpha  occ. eigenvalues --  -38.45016 -38.44274 -38.44261 -38.44100 -38.43676
 Alpha  occ. eigenvalues --  -38.43616 -38.43449  -2.20888  -2.20110  -2.20086
 Alpha  occ. eigenvalues --   -2.19920  -2.19488  -2.19460  -2.19306  -1.14617
 Alpha  occ. eigenvalues --   -1.14540  -1.14523  -1.13823  -1.13785  -1.13774
 Alpha  occ. eigenvalues --   -1.13753  -1.13750  -1.13726  -1.13574  -1.13566
 Alpha  occ. eigenvalues --   -1.13524  -1.13158  -1.13150  -1.13123  -1.13112
 Alpha  occ. eigenvalues --   -1.13108  -1.13078  -1.12982  -1.12957  -1.12918
 Alpha  occ. eigenvalues --   -0.17312  -0.13694  -0.13293  -0.09495
 Alpha virt. eigenvalues --   -0.06744  -0.06214  -0.04152  -0.03187  -0.02694
 Alpha virt. eigenvalues --   -0.02547  -0.02245  -0.01670  -0.00928  -0.00457
 Alpha virt. eigenvalues --   -0.00014   0.00226   0.00413   0.00486   0.00725

  Beta  occ. eigenvalues --  -38.45023 -38.44270 -38.44251 -38.44058 -38.43631
  Beta  occ. eigenvalues --  -38.43565 -38.43404  -2.20901  -2.20097  -2.20086
  Beta  occ. eigenvalues --   -2.19843  -2.19405  -2.19366  -2.19226  -1.14623
  Beta  occ. eigenvalues --   -1.14557  -1.14527  -1.13822  -1.13781  -1.13781
  Beta  occ. eigenvalues --   -1.13757  -1.13700  -1.13675  -1.13522  -1.13507
  Beta  occ. eigenvalues --   -1.13475  -1.13100  -1.13092  -1.13059  -1.13054
  Beta  occ. eigenvalues --   -1.13047  -1.13012  -1.12928  -1.12905  -1.12850
  Beta  occ. eigenvalues --   -0.17048  -0.13129  -0.12634
  Beta virt. eigenvalues --   -0.06591  -0.06246  -0.06076  -0.03992  -0.02651
  Beta virt. eigenvalues --   -0.02443  -0.02350  -0.01799  -0.01333  -0.00781
  Beta virt. eigenvalues --   -0.00351   0.00282   0.00355   0.00517   0.00650

 Mulliken charges and spin densities:
               1          2
     1  Na   0.211239   0.032683
     2  Na  -0.088924   0.187631
     3  Na  -0.284973   0.093865
     4  Na   0.585560   0.252043
     5  Na  -0.971266  -0.057787
     6  Na   0.518929   0.261474
     7  Na   0.029435   0.230090
 Sum of Mulliken charges =  -0.00000   1.00000

 Dipole moment (field-independent basis, Debye):
    X=             -0.5082    Y=              0.4518    Z=             -0.3454  Tot=              0.7627
 Quadrupole moment (field-independent basis, Debye-Ang):
   XX=            -59.7014   YY=            -70.5672   ZZ=            -69.9767
   XY=              0.1773   XZ=             -1.4616   YZ=             -1.6575

 Normal termination of Gaussian 16 at Sun Dec  3 12:00:08 2023.
