 Gaussian 16, Revision B.01,
 Gaussian 16:  ES64L-G16RevB.01 20-Dec-2017

 -------------------------
 #P B3LYP/6-311+g(d) force
 -------------------------

 -----
 DPGEN
 -----
 Symbolic Z-matrix:
 Charge =  0 Multiplicity = 2

                         Standard orientation:
 ---------------------------------------------------------------------
 Center     Atomic      Atomic             Coordinates (Angstroms)
 Number     Number       Type             X           Y           Z
 ---------------------------------------------------------------------
      1         11           0       -0.369665    3.519733   -0.214217
      2         11           0        2.358391    2.017329   -0.620479
      3         11           0        3.571711   -0.387449    1.654962
      4         11           0        2.197114   -2.932391   -0.563169
      5         11           0       -0.963254   -1.721333   -1.599566
      6         11           0       -3.709001   -1.895261    1.103772
      7         11           0       -3.085296    1.399372    0.238697
 ---------------------------------------------------------------------

 SCF Done:  E(UB3LYP) =  -1136.11492499     A.U. after   20 cycles

 The electronic state is 2-A.
 Alpha  occ. eigenvalues --  -38.44873 -38.44772 -38.44591 -38.44417 -38.44383
 Alpha  occ. eigenvalues --  -38.44085 -38.43319  -2.20652  -2.20563  -2.20366
 Alpha  occ. eigenvalues --   -2.20205  -2.20150  -2.19884  -2.19143  -1.14345
 Alpha  occ. eigenvalues --   -1.14324  -1.14279  -1.14249  -1.14238  -1.14205
 Alpha  occ. eigenvalues --   -1.14040  -1.14037  -1.13973  -1.13865  -1.13852
 Alpha  occ. eigenvalues --   -1.13831  -1.13824  -1.13810  -1.13785  -1.13537
 Alpha  occ. eigenvalues --   -1.13529  -1.13505  -1.12814  -1.12794  -1.12788
 Alpha  occ. eigenvalues --   -0.16042  -0.13726  -0.12875  -0.10559
 Alpha virt. eigenvalues --   -0.07022  -0.05457  -0.04448  -0.03652  -0.03140
 Alpha virt. eigenvalues --   -0.02213  -0.01731  -0.01551  -0.01338  -0.01140
 Alpha virt. eigenvalues --   -0.00250  -0.00032   0.00167   0.00438   0.00563

  Beta  occ. eigenvalues --  -38.44863 -38.44773 -38.44538 -38.44371 -38.44368
  Beta  occ. eigenvalues --  -38.44020 -38.43304  -2.20638  -2.20567  -2.20270
  Beta  occ. eigenvalues --   -2.20127  -2.20120  -2.19762  -2.19116  -1.14337
  Beta  occ. eigenvalues --   -1.14316  -1.14256  -1.14246  -1.14235  -1.14191
  Beta  occ. eigenvalues --   -1.13976  -1.13975  -1.13891  -1.13819  -1.13807
  Beta  occ. eigenvalues --   -1.13795  -1.13787  -1.13771  -1.13742  -1.13454
  Beta  occ. eigenvalues --   -1.13442  -1.13429  -1.12800  -1.12775  -1.12767
  Beta  occ. eigenvalues --   -0.15590  -0.13114  -0.12396
  Beta virt. eigenvalues --   -0.07219  -0.07036  -0.05046  -0.04121  -0.03451
  Beta virt. eigenvalues --   -0.02634  -0.01979  -0.01356  -0.01312  -0.01276
  Beta virt. eigenvalues --   -0.00974   0.00015   0.00206   0.00307   0.00550

 Mulliken charges and spin densities:
               1          2
     1  Na   0.060248   0.070478
     2  Na  -0.264915   0.007958
     3  Na   0.105689   0.321406
     4  Na  -0.010515   0.043119
     5  Na  -0.080492   0.250238
     6  Na   0.345328   0.215421
     7  Na  -0.155341   0.091380
 Sum of Mulliken charges =  -0.00000   1.00000

 Dipole moment (field-independent basis, Debye):
    X=             -0.4051    Y=             -0.5154    Z=              0.3116  Tot=              0.7258
 Quadrupole moment (field-independent basis, Debye-Ang):
   XX=            -65.8796   YY=            -65.5300   ZZ=            -68.9730
   XY=             -1.3227   XZ=             -1.2554   YZ=             -2.7553

 Normal termination of Gaussian 16 at Sun Dec  3 14:32:21 2023.
