 Gaussian 16, Revision B.01,
 Gaussian 16:  ES64L-G16RevB.01 20-Dec-2017

 -------------------------
 #P B3LYP/6-311+g(d) force
 -------------------------

 -----
 DPGEN
 -----
 Symbolic Z-matrix:
 Charge =  0 Multiplicity = 2

                         Standard orientation:
 ---------------------------------------------------------------------
 Center     Atomic      Atomic             Coordinates (Angstroms)
 Number     Number       Type             X           Y           Z
 ---------------------------------------------------------------------
      1         11           0        0.012872   -1.969114    0.062848
      2         11           0        0.133639    0.337964    1.779067
      3         11           0        1.639396    1.866821   -0.095108
      4         11           0       -1.704331    1.819370   -0.076024
      5         11           0        2.612847   -1.019026   -0.053407
      6         11           0       -0.174510    0.030879   -1.768702
      7         11           0       -2.519912   -1.066894    0.151325
 ---------------------------------------------------------------------

 SCF Done:  E(UB3LYP) =  -1136.09650250     A.U. after   19 cycles

 The electronic state is 2-A.
 Alpha  occ. eigenvalues --  -38.43964 -38.43926 -38.43882 -38.43849 -38.43475
 Alpha  occ. eigenvalues --  -38.43320 -38.43319  -2.20160  -2.20019  -2.19974
 Alpha  occ. eigenvalues --   -2.19891  -2.19691  -2.19368  -2.19359  -1.14084
 Alpha  occ. eigenvalues --   -1.13972  -1.13874  -1.13801  -1.13759  -1.13741
 Alpha  occ. eigenvalues --   -1.13670  -1.13643  -1.13604  -1.13556  -1.13541
 Alpha  occ. eigenvalues --   -1.13492  -1.13239  -1.13234  -1.13128  -1.13047
 Alpha  occ. eigenvalues --   -1.13025  -1.13018  -1.13011  -1.12971  -1.12912
 Alpha  occ. eigenvalues --   -0.21148  -0.13955  -0.12653  -0.11911
 Alpha virt. eigenvalues --   -0.05329  -0.04656  -0.03875  -0.03640  -0.03018
 Alpha virt. eigenvalues --   -0.02708  -0.01334  -0.00617  -0.00059   0.00345
 Alpha virt. eigenvalues --    0.00596   0.00670   0.00905   0.01085   0.01093

  Beta  occ. eigenvalues --  -38.43918 -38.43877 -38.43872 -38.43759 -38.43454
  Beta  occ. eigenvalues --  -38.43308 -38.43308  -2.19996  -2.19963  -2.19886
  Beta  occ. eigenvalues --   -2.19858  -2.19660  -2.19352  -2.19344  -1.14025
  Beta  occ. eigenvalues --   -1.13937  -1.13770  -1.13718  -1.13673  -1.13640
  Beta  occ. eigenvalues --   -1.13621  -1.13587  -1.13564  -1.13508  -1.13495
  Beta  occ. eigenvalues --   -1.13446  -1.13208  -1.13141  -1.13120  -1.13032
  Beta  occ. eigenvalues --   -1.13014  -1.12968  -1.12957  -1.12951  -1.12909
  Beta  occ. eigenvalues --   -0.20325  -0.13613  -0.12307
  Beta virt. eigenvalues --   -0.07755  -0.05342  -0.04646  -0.03850  -0.02706
  Beta virt. eigenvalues --   -0.02122  -0.01626  -0.01251  -0.00576   0.00085
  Beta virt. eigenvalues --    0.00372   0.00551   0.00647   0.00946   0.01080

 Mulliken charges and spin densities:
               1          2
     1  Na   0.227257   0.178898
     2  Na  -0.250021   0.484667
     3  Na   0.153948  -0.007602
     4  Na   0.200297  -0.005564
     5  Na  -0.090852  -0.077467
     6  Na  -0.256711   0.482624
     7  Na   0.016081  -0.055555
 Sum of Mulliken charges =  -0.00000   1.00000

 Dipole moment (field-independent basis, Debye):
    X=              0.0783    Y=              0.3117    Z=              0.0373  Tot=              0.3235
 Quadrupole moment (field-independent basis, Debye-Ang):
   XX=            -56.6036   YY=            -69.9618   ZZ=            -69.7566
   XY=             -0.1169   XZ=             -0.7109   YZ=             -0.6023

 Normal termination of Gaussian 16 at Sat Dec  9 07:01:28 2023.
