 Gaussian 16, Revision B.01,
 Gaussian 16:  ES64L-G16RevB.01 20-Dec-2017

 -------------------------
 #P B3LYP/6-311+g(d) force
 -------------------------

 -----
 DPGEN
 -----
 Symbolic Z-matrix:
 Charge =  0 Multiplicity = 2

                         Standard orientation:
 ---------------------------------------------------------------------
 Center     Atomic      Atomic             Coordinates (Angstroms)
 Number     Number       Type             X           Y           Z
 ---------------------------------------------------------------------
      1         11           0       -0.208215    0.207753    2.210290
      2         11           0       -0.219961    0.025349   -1.562286
      3         11           0       -2.169538   -2.097799   -0.096413
      4         11           0       -2.952602    1.243034    0.063921
      5         11           0        3.073348    0.235483    0.425187
      6         11           0        1.602607   -2.600247   -0.412865
      7         11           0        0.874360    2.986429   -0.627833
 ---------------------------------------------------------------------

 SCF Done:  E(UB3LYP) =  -1136.13582002     A.U. after   19 cycles

 The electronic state is 2-A.
 Alpha  occ. eigenvalues --  -38.44248 -38.44082 -38.43991 -38.43761 -38.43460
 Alpha  occ. eigenvalues --  -38.43313 -38.43141  -2.20072  -2.19924  -2.19815
 Alpha  occ. eigenvalues --   -2.19608  -2.19269  -2.19146  -2.19121  -1.13750
 Alpha  occ. eigenvalues --   -1.13738  -1.13707  -1.13583  -1.13554  -1.13543
 Alpha  occ. eigenvalues --   -1.13485  -1.13484  -1.13452  -1.13311  -1.13271
 Alpha  occ. eigenvalues --   -1.13228  -1.12974  -1.12916  -1.12902  -1.12848
 Alpha  occ. eigenvalues --   -1.12807  -1.12796  -1.12785  -1.12749  -1.12732
 Alpha  occ. eigenvalues --   -0.18330  -0.13086  -0.12156  -0.10907
 Alpha virt. eigenvalues --   -0.05745  -0.05243  -0.04648  -0.03336  -0.02847
 Alpha virt. eigenvalues --   -0.02695  -0.01554  -0.01176  -0.00505  -0.00330
 Alpha virt. eigenvalues --   -0.00027   0.00361   0.00781   0.00828   0.00863

  Beta  occ. eigenvalues --  -38.44245 -38.43986 -38.43982 -38.43756 -38.43446
  Beta  occ. eigenvalues --  -38.43311 -38.43082  -2.20069  -2.19807  -2.19740
  Beta  occ. eigenvalues --   -2.19603  -2.19246  -2.19143  -2.19016  -1.13745
  Beta  occ. eigenvalues --   -1.13721  -1.13705  -1.13486  -1.13468  -1.13455
  Beta  occ. eigenvalues --   -1.13449  -1.13428  -1.13403  -1.13301  -1.13255
  Beta  occ. eigenvalues --   -1.13223  -1.12945  -1.12895  -1.12888  -1.12833
  Beta  occ. eigenvalues --   -1.12792  -1.12784  -1.12726  -1.12678  -1.12659
  Beta  occ. eigenvalues --   -0.17622  -0.12899  -0.11887
  Beta virt. eigenvalues --   -0.07008  -0.05663  -0.05203  -0.04558  -0.02583
  Beta virt. eigenvalues --   -0.02139  -0.01676  -0.01456  -0.01089  -0.00513
  Beta virt. eigenvalues --   -0.00366   0.00119   0.00389   0.00813   0.00863

 Mulliken charges and spin densities:
               1          2
     1  Na  -0.426561   0.661095
     2  Na  -0.035382   0.272629
     3  Na   0.133103   0.008454
     4  Na   0.197279  -0.008744
     5  Na   0.092518   0.087332
     6  Na   0.012827  -0.020949
     7  Na   0.026217   0.000184
 Sum of Mulliken charges =  -0.00000   1.00000

 Dipole moment (field-independent basis, Debye):
    X=             -0.3694    Y=              0.1155    Z=              0.2977  Tot=              0.4883
 Quadrupole moment (field-independent basis, Debye-Ang):
   XX=            -56.6743   YY=            -63.2963   ZZ=            -73.9048
   XY=             -0.2228   XZ=              0.2868   YZ=             -0.2027

 Normal termination of Gaussian 16 at Thu Dec  7 11:13:57 2023.
