 Gaussian 16, Revision B.01,
 Gaussian 16:  ES64L-G16RevB.01 20-Dec-2017

 -------------------------
 #P B3LYP/6-311+g(d) force
 -------------------------

 -----
 DPGEN
 -----
 Symbolic Z-matrix:
 Charge =  0 Multiplicity = 2

                         Standard orientation:
 ---------------------------------------------------------------------
 Center     Atomic      Atomic             Coordinates (Angstroms)
 Number     Number       Type             X           Y           Z
 ---------------------------------------------------------------------
      1         11           0        0.132758    1.027417    1.311804
      2         11           0        1.732318    3.515802   -0.391975
      3         11           0        3.248344    0.674976   -0.269806
      4         11           0        3.350895   -2.871390   -0.372517
      5         11           0       -0.176217   -1.932933    0.640962
      6         11           0       -2.605250   -0.484239   -0.804852
      7         11           0       -5.682848    0.070368   -0.113616
 ---------------------------------------------------------------------

 SCF Done:  E(UB3LYP) =  -1136.11941693     A.U. after   18 cycles

 The electronic state is 2-A.
 Alpha  occ. eigenvalues --  -38.44699 -38.44651 -38.44101 -38.43883 -38.43845
 Alpha  occ. eigenvalues --  -38.43616 -38.43517  -2.20593  -2.20464  -2.19954
 Alpha  occ. eigenvalues --   -2.19776  -2.19694  -2.19448  -2.19304  -1.14307
 Alpha  occ. eigenvalues --   -1.14258  -1.14196  -1.14104  -1.14092  -1.14091
 Alpha  occ. eigenvalues --   -1.13649  -1.13631  -1.13563  -1.13490  -1.13479
 Alpha  occ. eigenvalues --   -1.13393  -1.13360  -1.13355  -1.13297  -1.13114
 Alpha  occ. eigenvalues --   -1.13102  -1.13080  -1.12968  -1.12960  -1.12928
 Alpha  occ. eigenvalues --   -0.17235  -0.14041  -0.12208  -0.11398
 Alpha virt. eigenvalues --   -0.06007  -0.05154  -0.04760  -0.03720  -0.03102
 Alpha virt. eigenvalues --   -0.02211  -0.01442  -0.01369  -0.01275  -0.00935
 Alpha virt. eigenvalues --   -0.00574  -0.00049   0.00429   0.00555   0.00571

  Beta  occ. eigenvalues --  -38.44657 -38.44553 -38.44070 -38.43849 -38.43848
  Beta  occ. eigenvalues --  -38.43612 -38.43482  -2.20519  -2.20281  -2.19897
  Beta  occ. eigenvalues --   -2.19718  -2.19708  -2.19441  -2.19241  -1.14255
  Beta  occ. eigenvalues --   -1.14212  -1.14130  -1.13984  -1.13968  -1.13966
  Beta  occ. eigenvalues --   -1.13612  -1.13594  -1.13512  -1.13460  -1.13422
  Beta  occ. eigenvalues --   -1.13383  -1.13375  -1.13335  -1.13252  -1.13105
  Beta  occ. eigenvalues --   -1.13096  -1.13076  -1.12925  -1.12908  -1.12892
  Beta  occ. eigenvalues --   -0.16674  -0.13261  -0.11851
  Beta virt. eigenvalues --   -0.07983  -0.05660  -0.04962  -0.04436  -0.03359
  Beta virt. eigenvalues --   -0.02783  -0.02005  -0.01226  -0.01074  -0.00948
  Beta virt. eigenvalues --   -0.00528  -0.00359   0.00115   0.00538   0.00603

 Mulliken charges and spin densities:
               1          2
     1  Na   0.089057   0.241566
     2  Na   0.284495   0.008912
     3  Na  -0.519119   0.269550
     4  Na   0.377099   0.176450
     5  Na  -0.310773  -0.126841
     6  Na  -0.104036   0.043079
     7  Na   0.183277   0.387285
 Sum of Mulliken charges =  -0.00000   1.00000

 Dipole moment (field-independent basis, Debye):
    X=             -0.4562    Y=              0.6535    Z=              0.2234  Tot=              0.8277
 Quadrupole moment (field-independent basis, Debye-Ang):
   XX=            -65.9235   YY=            -64.5436   ZZ=            -68.6202
   XY=             -0.5737   XZ=             -3.2615   YZ=             -0.7102

 Normal termination of Gaussian 16 at Wed Nov 29 03:38:28 2023.
