 Gaussian 16, Revision B.01,
 Gaussian 16:  ES64L-G16RevB.01 20-Dec-2017

 -------------------------
 #P B3LYP/6-311+g(d) force
 -------------------------

 -----
 DPGEN
 -----
 Symbolic Z-matrix:
 Charge =  0 Multiplicity = 2

                         Standard orientation:
 ---------------------------------------------------------------------
 Center     Atomic      Atomic             Coordinates (Angstroms)
 Number     Number       Type             X           Y           Z
 ---------------------------------------------------------------------
      1         11           0        0.776107    2.280268   -0.106083
      2         11           0       -1.213376    0.164407    2.108736
      3         11           0       -2.266193    1.770831   -0.859230
      4         11           0       -3.431724   -1.668520   -0.402033
      5         11           0        0.259079   -1.368883   -1.597153
      6         11           0        3.828511   -0.289836   -1.136661
      7         11           0        2.047596   -0.888266    1.992424
 ---------------------------------------------------------------------

 SCF Done:  E(UB3LYP) =  -1136.12484269     A.U. after   24 cycles

 The electronic state is 2-A.
 Alpha  occ. eigenvalues --  -38.44726 -38.44528 -38.44409 -38.44161 -38.44015
 Alpha  occ. eigenvalues --  -38.43415 -38.43214  -2.20545  -2.20303  -2.20166
 Alpha  occ. eigenvalues --   -2.20023  -2.19867  -2.19200  -2.19070  -1.14229
 Alpha  occ. eigenvalues --   -1.14187  -1.14156  -1.13973  -1.13961  -1.13930
 Alpha  occ. eigenvalues --   -1.13877  -1.13863  -1.13752  -1.13721  -1.13680
 Alpha  occ. eigenvalues --   -1.13631  -1.13559  -1.13503  -1.13487  -1.12875
 Alpha  occ. eigenvalues --   -1.12860  -1.12833  -1.12769  -1.12709  -1.12689
 Alpha  occ. eigenvalues --   -0.17782  -0.13506  -0.11849  -0.11090
 Alpha virt. eigenvalues --   -0.06417  -0.05303  -0.04810  -0.03417  -0.02878
 Alpha virt. eigenvalues --   -0.02583  -0.02222  -0.01106  -0.00932  -0.00310
 Alpha virt. eigenvalues --    0.00162   0.00208   0.00287   0.00425   0.00629

  Beta  occ. eigenvalues --  -38.44662 -38.44516 -38.44403 -38.44125 -38.43966
  Beta  occ. eigenvalues --  -38.43409 -38.43180  -2.20430  -2.20280  -2.20158
  Beta  occ. eigenvalues --   -2.19960  -2.19780  -2.19188  -2.19011  -1.14144
  Beta  occ. eigenvalues --   -1.14115  -1.14063  -1.13951  -1.13946  -1.13915
  Beta  occ. eigenvalues --   -1.13861  -1.13857  -1.13747  -1.13666  -1.13644
  Beta  occ. eigenvalues --   -1.13580  -1.13497  -1.13433  -1.13423  -1.12861
  Beta  occ. eigenvalues --   -1.12854  -1.12827  -1.12724  -1.12660  -1.12649
  Beta  occ. eigenvalues --   -0.17086  -0.13314  -0.10852
  Beta virt. eigenvalues --   -0.07885  -0.06273  -0.04733  -0.04656  -0.03003
  Beta virt. eigenvalues --   -0.02407  -0.02107  -0.01989  -0.00863  -0.00582
  Beta virt. eigenvalues --   -0.00141   0.00205   0.00291   0.00374   0.00563

 Mulliken charges and spin densities:
               1          2
     1  Na  -0.336900   0.279527
     2  Na  -0.246317   0.422543
     3  Na   0.376240   0.058665
     4  Na   0.312146  -0.058805
     5  Na  -0.754840   0.186796
     6  Na   0.496861   0.032815
     7  Na   0.152810   0.078459
 Sum of Mulliken charges =  -0.00000   1.00000

 Dipole moment (field-independent basis, Debye):
    X=              0.7395    Y=              0.1929    Z=              0.1608  Tot=              0.7810
 Quadrupole moment (field-independent basis, Debye-Ang):
   XX=            -53.1527   YY=            -74.4625   ZZ=            -69.2643
   XY=             -0.6769   XZ=             -0.9640   YZ=             -5.6719

 Normal termination of Gaussian 16 at Mon Dec  4 01:12:12 2023.
