 Gaussian 16, Revision B.01,
 Gaussian 16:  ES64L-G16RevB.01 20-Dec-2017

 -------------------------
 #P B3LYP/6-311+g(d) force
 -------------------------

 -----
 DPGEN
 -----
 Symbolic Z-matrix:
 Charge =  0 Multiplicity = 2

                         Standard orientation:
 ---------------------------------------------------------------------
 Center     Atomic      Atomic             Coordinates (Angstroms)
 Number     Number       Type             X           Y           Z
 ---------------------------------------------------------------------
      1         11           0       -1.093009   -0.364569    1.754212
      2         11           0        4.160783   -0.046045   -0.482368
      3         11           0       -3.427369   -1.228410   -0.534074
      4         11           0       -1.833709    2.520062   -0.260047
      5         11           0       -0.166209   -0.062890   -1.496582
      6         11           0        0.859453   -2.217847    0.249789
      7         11           0        1.500060    1.399699    0.769071
 ---------------------------------------------------------------------

 SCF Done:  E(UB3LYP) =  -1136.11892247     A.U. after   25 cycles

 The electronic state is 2-A.
 Alpha  occ. eigenvalues --  -38.45038 -38.44795 -38.44489 -38.43387 -38.43273
 Alpha  occ. eigenvalues --  -38.42959 -38.42835  -2.20821  -2.20594  -2.20482
 Alpha  occ. eigenvalues --   -2.19301  -2.19279  -2.18903  -2.18675  -1.14498
 Alpha  occ. eigenvalues --   -1.14475  -1.14434  -1.14279  -1.14241  -1.14236
 Alpha  occ. eigenvalues --   -1.14215  -1.14142  -1.14073  -1.13099  -1.13018
 Alpha  occ. eigenvalues --   -1.12939  -1.12909  -1.12875  -1.12825  -1.12624
 Alpha  occ. eigenvalues --   -1.12576  -1.12490  -1.12364  -1.12332  -1.12303
 Alpha  occ. eigenvalues --   -0.18900  -0.13618  -0.11428  -0.10796
 Alpha virt. eigenvalues --   -0.07296  -0.04848  -0.03816  -0.03149  -0.02868
 Alpha virt. eigenvalues --   -0.02275  -0.02191  -0.01252  -0.00746  -0.00176
 Alpha virt. eigenvalues --    0.00014   0.00172   0.00432   0.00738   0.00787

  Beta  occ. eigenvalues --  -38.45009 -38.44766 -38.44463 -38.43371 -38.43197
  Beta  occ. eigenvalues --  -38.42936 -38.42833  -2.20767  -2.20541  -2.20435
  Beta  occ. eigenvalues --   -2.19276  -2.19145  -2.18866  -2.18673  -1.14462
  Beta  occ. eigenvalues --   -1.14435  -1.14399  -1.14239  -1.14200  -1.14193
  Beta  occ. eigenvalues --   -1.14178  -1.14109  -1.14039  -1.13053  -1.12972
  Beta  occ. eigenvalues --   -1.12860  -1.12846  -1.12803  -1.12753  -1.12606
  Beta  occ. eigenvalues --   -1.12508  -1.12468  -1.12358  -1.12333  -1.12290
  Beta  occ. eigenvalues --   -0.18205  -0.13245  -0.11233
  Beta virt. eigenvalues --   -0.07204  -0.06832  -0.04733  -0.03546  -0.02911
  Beta virt. eigenvalues --   -0.02562  -0.01715  -0.01352  -0.01149  -0.00458
  Beta virt. eigenvalues --   -0.00075   0.00089   0.00197   0.00563   0.00793

 Mulliken charges and spin densities:
               1          2
     1  Na   0.289910   0.242544
     2  Na   0.064663   0.192665
     3  Na   0.029148   0.078868
     4  Na  -0.125742   0.015658
     5  Na  -0.559895   0.580222
     6  Na   0.230445  -0.090519
     7  Na   0.071471  -0.019438
 Sum of Mulliken charges =  -0.00000   1.00000

 Dipole moment (field-independent basis, Debye):
    X=              0.0680    Y=             -0.3658    Z=              0.0569  Tot=              0.3764
 Quadrupole moment (field-independent basis, Debye-Ang):
   XX=            -47.8678   YY=            -73.0618   ZZ=            -70.5798
   XY=             -0.5842   XZ=             -1.1792   YZ=              0.7499

 Normal termination of Gaussian 16 at Tue Dec  5 10:34:54 2023.
