 Gaussian 16, Revision B.01,
 Gaussian 16:  ES64L-G16RevB.01 20-Dec-2017

 -------------------------
 #P B3LYP/6-311+g(d) force
 -------------------------

 -----
 DPGEN
 -----
 Symbolic Z-matrix:
 Charge =  0 Multiplicity = 2

                         Standard orientation:
 ---------------------------------------------------------------------
 Center     Atomic      Atomic             Coordinates (Angstroms)
 Number     Number       Type             X           Y           Z
 ---------------------------------------------------------------------
      1         11           0       -0.142758    0.080967    1.675369
      2         11           0        0.463131   -0.311290   -1.521401
      3         11           0       -2.475785   -2.516604    0.517569
      4         11           0        2.681863    1.486934    0.595369
      5         11           0       -0.914545    2.725004   -0.276947
      6         11           0        3.760565   -1.753974   -0.415449
      7         11           0       -3.372471    0.288964   -0.574509
 ---------------------------------------------------------------------

 SCF Done:  E(UB3LYP) =  -1136.12495056     A.U. after   23 cycles

 The electronic state is 2-A.
 Alpha  occ. eigenvalues --  -38.44755 -38.44491 -38.44463 -38.44167 -38.43673
 Alpha  occ. eigenvalues --  -38.43419 -38.42719  -2.20610  -2.20342  -2.20309
 Alpha  occ. eigenvalues --   -2.19938  -2.19601  -2.19247  -2.18581  -1.14343
 Alpha  occ. eigenvalues --   -1.14264  -1.14199  -1.14013  -1.14005  -1.14005
 Alpha  occ. eigenvalues --   -1.13982  -1.13977  -1.13911  -1.13606  -1.13603
 Alpha  occ. eigenvalues --   -1.13564  -1.13306  -1.13235  -1.13196  -1.12918
 Alpha  occ. eigenvalues --   -1.12896  -1.12889  -1.12264  -1.12250  -1.12213
 Alpha  occ. eigenvalues --   -0.18201  -0.13842  -0.11644  -0.10435
 Alpha virt. eigenvalues --   -0.06695  -0.05689  -0.04381  -0.03201  -0.02602
 Alpha virt. eigenvalues --   -0.02468  -0.02096  -0.01525  -0.00668  -0.00286
 Alpha virt. eigenvalues --   -0.00247   0.00133   0.00551   0.00571   0.00712

  Beta  occ. eigenvalues --  -38.44719 -38.44473 -38.44445 -38.44155 -38.43598
  Beta  occ. eigenvalues --  -38.43406 -38.42710  -2.20543  -2.20310  -2.20279
  Beta  occ. eigenvalues --   -2.19917  -2.19464  -2.19226  -2.18569  -1.14287
  Beta  occ. eigenvalues --   -1.14222  -1.14146  -1.13994  -1.13977  -1.13971
  Beta  occ. eigenvalues --   -1.13957  -1.13950  -1.13887  -1.13593  -1.13583
  Beta  occ. eigenvalues --   -1.13551  -1.13213  -1.13146  -1.13085  -1.12907
  Beta  occ. eigenvalues --   -1.12877  -1.12867  -1.12259  -1.12242  -1.12178
  Beta  occ. eigenvalues --   -0.17577  -0.13595  -0.11322
  Beta virt. eigenvalues --   -0.06868  -0.06451  -0.05487  -0.04135  -0.02779
  Beta virt. eigenvalues --   -0.02357  -0.01918  -0.01620  -0.01139  -0.00614
  Beta virt. eigenvalues --   -0.00198  -0.00056   0.00195   0.00632   0.00703

 Mulliken charges and spin densities:
               1          2
     1  Na   0.032787   0.335087
     2  Na  -0.346271   0.408999
     3  Na   0.072397   0.055963
     4  Na   0.387629   0.010954
     5  Na  -0.216101   0.046385
     6  Na  -0.044398   0.047932
     7  Na   0.113958   0.094679
 Sum of Mulliken charges =  -0.00000   1.00000

 Dipole moment (field-independent basis, Debye):
    X=              0.3801    Y=              0.2074    Z=              0.0549  Tot=              0.4365
 Quadrupole moment (field-independent basis, Debye-Ang):
   XX=            -54.8281   YY=            -66.1127   ZZ=            -74.4056
   XY=              0.1937   XZ=              2.4785   YZ=              0.0491

 Normal termination of Gaussian 16 at Thu Dec  7 21:14:22 2023.
