 Gaussian 16, Revision B.01,
 Gaussian 16:  ES64L-G16RevB.01 20-Dec-2017

 -------------------------
 #P B3LYP/6-311+g(d) force
 -------------------------

 -----
 DPGEN
 -----
 Symbolic Z-matrix:
 Charge =  0 Multiplicity = 2

                         Standard orientation:
 ---------------------------------------------------------------------
 Center     Atomic      Atomic             Coordinates (Angstroms)
 Number     Number       Type             X           Y           Z
 ---------------------------------------------------------------------
      1         11           0       -2.718043   -1.430037   -0.761459
      2         11           0        2.507384    2.685889   -0.740251
      3         11           0        3.311650   -0.564882   -0.037992
      4         11           0       -0.322284    1.455475    0.992423
      5         11           0        0.536914   -2.330142   -1.301645
      6         11           0       -3.546004    1.872935   -0.133721
      7         11           0        0.230383   -1.689238    1.982645
 ---------------------------------------------------------------------

 SCF Done:  E(UB3LYP) =  -1136.12525782     A.U. after   21 cycles

 The electronic state is 2-A.
 Alpha  occ. eigenvalues --  -38.44726 -38.44398 -38.44222 -38.43989 -38.43794
 Alpha  occ. eigenvalues --  -38.43649 -38.43556  -2.20526  -2.20182  -2.20033
 Alpha  occ. eigenvalues --   -2.19775  -2.19668  -2.19492  -2.19407  -1.14215
 Alpha  occ. eigenvalues --   -1.14180  -1.14158  -1.13847  -1.13844  -1.13834
 Alpha  occ. eigenvalues --   -1.13721  -1.13688  -1.13650  -1.13440  -1.13434
 Alpha  occ. eigenvalues --   -1.13419  -1.13351  -1.13299  -1.13295  -1.13161
 Alpha  occ. eigenvalues --   -1.13135  -1.13128  -1.13089  -1.13083  -1.13017
 Alpha  occ. eigenvalues --   -0.17530  -0.13422  -0.12247  -0.10740
 Alpha virt. eigenvalues --   -0.06751  -0.05661  -0.04281  -0.03314  -0.03111
 Alpha virt. eigenvalues --   -0.02213  -0.01926  -0.01493  -0.01043  -0.00421
 Alpha virt. eigenvalues --   -0.00163   0.00210   0.00327   0.00606   0.00780

  Beta  occ. eigenvalues --  -38.44713 -38.44398 -38.44192 -38.43981 -38.43710
  Beta  occ. eigenvalues --  -38.43624 -38.43519  -2.20505  -2.20181  -2.19979
  Beta  occ. eigenvalues --   -2.19760  -2.19516  -2.19447  -2.19341  -1.14193
  Beta  occ. eigenvalues --   -1.14162  -1.14141  -1.13845  -1.13838  -1.13834
  Beta  occ. eigenvalues --   -1.13680  -1.13648  -1.13612  -1.13431  -1.13422
  Beta  occ. eigenvalues --   -1.13406  -1.13243  -1.13199  -1.13190  -1.13130
  Beta  occ. eigenvalues --   -1.13101  -1.13083  -1.13048  -1.13008  -1.12981
  Beta  occ. eigenvalues --   -0.16880  -0.13116  -0.12115
  Beta virt. eigenvalues --   -0.07018  -0.06607  -0.05269  -0.04084  -0.02800
  Beta virt. eigenvalues --   -0.02741  -0.01867  -0.01444  -0.01283  -0.00898
  Beta virt. eigenvalues --   -0.00348   0.00101   0.00306   0.00451   0.00649

 Mulliken charges and spin densities:
               1          2
     1  Na  -0.226125   0.168442
     2  Na   0.222833  -0.073279
     3  Na   0.123563   0.276167
     4  Na  -0.886827   0.346265
     5  Na  -0.031847   0.197649
     6  Na   0.430187  -0.095700
     7  Na   0.368216   0.180456
 Sum of Mulliken charges =  -0.00000   1.00000

 Dipole moment (field-independent basis, Debye):
    X=             -0.0471    Y=             -0.0250    Z=             -0.1079  Tot=              0.1203
 Quadrupole moment (field-independent basis, Debye-Ang):
   XX=            -57.6745   YY=            -65.7093   ZZ=            -72.3523
   XY=             -3.3131   XZ=              0.3329   YZ=             -2.7390

 Normal termination of Gaussian 16 at Mon Dec  4 04:46:55 2023.
