 Gaussian 16, Revision B.01,
 Gaussian 16:  ES64L-G16RevB.01 20-Dec-2017

 -------------------------
 #P B3LYP/6-311+g(d) force
 -------------------------

 -----
 DPGEN
 -----
 Symbolic Z-matrix:
 Charge =  0 Multiplicity = 2

                         Standard orientation:
 ---------------------------------------------------------------------
 Center     Atomic      Atomic             Coordinates (Angstroms)
 Number     Number       Type             X           Y           Z
 ---------------------------------------------------------------------
      1         11           0       -0.360774    0.216415   -1.809382
      2         11           0        2.683331    1.824534    0.081705
      3         11           0        2.889824   -1.235090   -0.403785
      4         11           0       -0.618737   -2.699604    0.166721
      5         11           0       -1.564932    2.659310    0.292664
      6         11           0        0.079254   -0.356617    1.899074
      7         11           0       -3.107966   -0.408948   -0.226996
 ---------------------------------------------------------------------

 SCF Done:  E(UB3LYP) =  -1136.13326991     A.U. after   20 cycles

 The electronic state is 2-A.
 Alpha  occ. eigenvalues --  -38.44346 -38.44116 -38.44107 -38.43631 -38.43499
 Alpha  occ. eigenvalues --  -38.43425 -38.42860  -2.20214  -2.19949  -2.19929
 Alpha  occ. eigenvalues --   -2.19550  -2.19427  -2.19243  -2.18763  -1.13911
 Alpha  occ. eigenvalues --   -1.13869  -1.13842  -1.13716  -1.13615  -1.13593
 Alpha  occ. eigenvalues --   -1.13583  -1.13563  -1.13522  -1.13233  -1.13184
 Alpha  occ. eigenvalues --   -1.13176  -1.13139  -1.13063  -1.13033  -1.12910
 Alpha  occ. eigenvalues --   -1.12906  -1.12883  -1.12459  -1.12410  -1.12382
 Alpha  occ. eigenvalues --   -0.18573  -0.13464  -0.12056  -0.10738
 Alpha virt. eigenvalues --   -0.05945  -0.05355  -0.04361  -0.03439  -0.02824
 Alpha virt. eigenvalues --   -0.02488  -0.01740  -0.01073  -0.00487  -0.00304
 Alpha virt. eigenvalues --   -0.00013   0.00356   0.00759   0.00846   0.00887

  Beta  occ. eigenvalues --  -38.44338 -38.44117 -38.44099 -38.43563 -38.43419
  Beta  occ. eigenvalues --  -38.43414 -38.42851  -2.20201  -2.19939  -2.19929
  Beta  occ. eigenvalues --   -2.19426  -2.19270  -2.19234  -2.18752  -1.13893
  Beta  occ. eigenvalues --   -1.13844  -1.13838  -1.13715  -1.13595  -1.13584
  Beta  occ. eigenvalues --   -1.13570  -1.13562  -1.13520  -1.13151  -1.13093
  Beta  occ. eigenvalues --   -1.13085  -1.13035  -1.12950  -1.12924  -1.12899
  Beta  occ. eigenvalues --   -1.12892  -1.12870  -1.12444  -1.12380  -1.12374
  Beta  occ. eigenvalues --   -0.17847  -0.13244  -0.11814
  Beta virt. eigenvalues --   -0.06873  -0.05856  -0.05332  -0.04306  -0.02689
  Beta virt. eigenvalues --   -0.02067  -0.01645  -0.01479  -0.00988  -0.00527
  Beta virt. eigenvalues --   -0.00322   0.00124   0.00388   0.00835   0.00848

 Mulliken charges and spin densities:
               1          2
     1  Na  -0.150854   0.541277
     2  Na  -0.079643  -0.108401
     3  Na   0.073292  -0.000056
     4  Na   0.256374  -0.046134
     5  Na  -0.173286  -0.096185
     6  Na  -0.274668   0.706703
     7  Na   0.348785   0.002796
 Sum of Mulliken charges =  -0.00000   1.00000

 Dipole moment (field-independent basis, Debye):
    X=              0.0348    Y=              0.1235    Z=             -0.0763  Tot=              0.1493
 Quadrupole moment (field-independent basis, Debye-Ang):
   XX=            -55.0925   YY=            -64.9436   ZZ=            -74.2383
   XY=              0.3823   XZ=             -0.7108   YZ=              1.9493

 Normal termination of Gaussian 16 at Thu Dec  7 11:56:58 2023.
