 Gaussian 16, Revision B.01,
 Gaussian 16:  ES64L-G16RevB.01 20-Dec-2017

 -------------------------
 #P B3LYP/6-311+g(d) force
 -------------------------

 -----
 DPGEN
 -----
 Symbolic Z-matrix:
 Charge =  0 Multiplicity = 2

                         Standard orientation:
 ---------------------------------------------------------------------
 Center     Atomic      Atomic             Coordinates (Angstroms)
 Number     Number       Type             X           Y           Z
 ---------------------------------------------------------------------
      1         11           0       -1.520847    2.581636    0.251052
      2         11           0        0.079271    0.591188   -1.740577
      3         11           0        2.086154    2.034284    0.246846
      4         11           0        0.081047   -0.550276    1.797950
      5         11           0       -0.503224   -2.802168   -0.169711
      6         11           0       -2.839828   -0.572542   -0.143457
      7         11           0        2.617427   -1.282122   -0.242102
 ---------------------------------------------------------------------

 SCF Done:  E(UB3LYP) =  -1136.13886809     A.U. after   18 cycles

 The electronic state is 2-A.
 Alpha  occ. eigenvalues --  -38.43670 -38.43634 -38.43551 -38.43536 -38.43438
 Alpha  occ. eigenvalues --  -38.43213 -38.43121  -2.19547  -2.19489  -2.19434
 Alpha  occ. eigenvalues --   -2.19417  -2.19350  -2.19190  -2.19101  -1.13259
 Alpha  occ. eigenvalues --   -1.13211  -1.13195  -1.13179  -1.13152  -1.13151
 Alpha  occ. eigenvalues --   -1.13127  -1.13122  -1.13102  -1.13087  -1.13072
 Alpha  occ. eigenvalues --   -1.13059  -1.13050  -1.12988  -1.12951  -1.12848
 Alpha  occ. eigenvalues --   -1.12799  -1.12797  -1.12771  -1.12729  -1.12718
 Alpha  occ. eigenvalues --   -0.19110  -0.13025  -0.12890  -0.10684
 Alpha virt. eigenvalues --   -0.05312  -0.05077  -0.04915  -0.03159  -0.03066
 Alpha virt. eigenvalues --   -0.02307  -0.01220  -0.01137  -0.00240  -0.00190
 Alpha virt. eigenvalues --    0.00014   0.00382   0.00902   0.00916   0.00928

  Beta  occ. eigenvalues --  -38.43662 -38.43629 -38.43543 -38.43530 -38.43431
  Beta  occ. eigenvalues --  -38.43137 -38.43051  -2.19537  -2.19482  -2.19423
  Beta  occ. eigenvalues --   -2.19410  -2.19341  -2.19051  -2.18973  -1.13250
  Beta  occ. eigenvalues --   -1.13192  -1.13179  -1.13171  -1.13142  -1.13135
  Beta  occ. eigenvalues --   -1.13119  -1.13116  -1.13068  -1.13063  -1.13054
  Beta  occ. eigenvalues --   -1.13051  -1.13038  -1.12961  -1.12950  -1.12761
  Beta  occ. eigenvalues --   -1.12704  -1.12699  -1.12685  -1.12636  -1.12624
  Beta  occ. eigenvalues --   -0.18372  -0.12771  -0.12659
  Beta virt. eigenvalues --   -0.06773  -0.05309  -0.05077  -0.04823  -0.02362
  Beta virt. eigenvalues --   -0.02275  -0.01284  -0.01146  -0.01059  -0.00289
  Beta virt. eigenvalues --   -0.00236   0.00150   0.00405   0.00907   0.00925

 Mulliken charges and spin densities:
               1          2
     1  Na   0.073477  -0.059395
     2  Na  -0.371335   0.594716
     3  Na   0.146346  -0.062436
     4  Na  -0.456025   0.672691
     5  Na   0.288466  -0.013679
     6  Na   0.109562  -0.072692
     7  Na   0.209508  -0.059206
 Sum of Mulliken charges =  -0.00000   1.00000

 Dipole moment (field-independent basis, Debye):
    X=              0.0576    Y=              0.1480    Z=              0.0293  Tot=              0.1615
 Quadrupole moment (field-independent basis, Debye-Ang):
   XX=            -59.2891   YY=            -60.2949   ZZ=            -74.1167
   XY=             -0.2601   XZ=             -0.0403   YZ=              2.4875

 Normal termination of Gaussian 16 at Thu Dec  7 18:21:01 2023.
