 Gaussian 16, Revision B.01,
 Gaussian 16:  ES64L-G16RevB.01 20-Dec-2017

 -------------------------
 #P B3LYP/6-311+g(d) force
 -------------------------

 -----
 DPGEN
 -----
 Symbolic Z-matrix:
 Charge =  0 Multiplicity = 2

                         Standard orientation:
 ---------------------------------------------------------------------
 Center     Atomic      Atomic             Coordinates (Angstroms)
 Number     Number       Type             X           Y           Z
 ---------------------------------------------------------------------
      1         11           0        2.222842   -1.130408    0.929541
      2         11           0        4.126807    0.674612   -0.888461
      3         11           0       -0.550797    0.106804    2.531975
      4         11           0       -1.668525    2.597214    0.132977
      5         11           0        0.255330    0.695838   -1.252453
      6         11           0       -0.823476   -2.389401   -0.599320
      7         11           0       -3.562180   -0.554657   -0.854260
 ---------------------------------------------------------------------

 SCF Done:  E(UB3LYP) =  -1136.11976927     A.U. after   25 cycles

 The electronic state is 2-A.
 Alpha  occ. eigenvalues --  -38.45193 -38.44926 -38.44799 -38.44345 -38.43652
 Alpha  occ. eigenvalues --  -38.42523 -38.42480  -2.20983  -2.20767  -2.20597
 Alpha  occ. eigenvalues --   -2.20254  -2.19543  -2.18380  -2.18334  -1.14659
 Alpha  occ. eigenvalues --   -1.14633  -1.14604  -1.14433  -1.14392  -1.14365
 Alpha  occ. eigenvalues --   -1.14269  -1.14244  -1.14224  -1.13958  -1.13947
 Alpha  occ. eigenvalues --   -1.13864  -1.13234  -1.13205  -1.13174  -1.12086
 Alpha  occ. eigenvalues --   -1.12044  -1.12037  -1.12012  -1.11978  -1.11963
 Alpha  occ. eigenvalues --   -0.18121  -0.13607  -0.11740  -0.11214
 Alpha virt. eigenvalues --   -0.07016  -0.04845  -0.04068  -0.03312  -0.02981
 Alpha virt. eigenvalues --   -0.02776  -0.02556  -0.01089  -0.00685  -0.00082
 Alpha virt. eigenvalues --    0.00027   0.00097   0.00421   0.00692   0.00818

  Beta  occ. eigenvalues --  -38.45169 -38.44811 -38.44768 -38.44331 -38.43632
  Beta  occ. eigenvalues --  -38.42521 -38.42482  -2.20939  -2.20558  -2.20539
  Beta  occ. eigenvalues --   -2.20228  -2.19513  -2.18381  -2.18338  -1.14626
  Beta  occ. eigenvalues --   -1.14602  -1.14574  -1.14287  -1.14254  -1.14233
  Beta  occ. eigenvalues --   -1.14211  -1.14203  -1.14183  -1.13934  -1.13930
  Beta  occ. eigenvalues --   -1.13843  -1.13213  -1.13177  -1.13126  -1.12087
  Beta  occ. eigenvalues --   -1.12049  -1.12040  -1.11994  -1.11974  -1.11960
  Beta  occ. eigenvalues --   -0.17437  -0.13239  -0.11037
  Beta virt. eigenvalues --   -0.07933  -0.06698  -0.04444  -0.03793  -0.03061
  Beta virt. eigenvalues --   -0.02519  -0.02238  -0.01986  -0.00890  -0.00513
  Beta virt. eigenvalues --   -0.00008   0.00048   0.00200   0.00526   0.00816

 Mulliken charges and spin densities:
               1          2
     1  Na   0.444989   0.086229
     2  Na   0.155882   0.171089
     3  Na  -0.290282   0.440382
     4  Na   0.344500   0.011600
     5  Na  -0.797415   0.185915
     6  Na  -0.004876   0.051039
     7  Na   0.147202   0.053746
 Sum of Mulliken charges =  -0.00000   1.00000

 Dipole moment (field-independent basis, Debye):
    X=              0.0021    Y=              0.0648    Z=              0.2354  Tot=              0.2442
 Quadrupole moment (field-independent basis, Debye-Ang):
   XX=            -49.5049   YY=            -77.3464   ZZ=            -67.1142
   XY=              0.5803   XZ=             -1.6007   YZ=             -2.0902

 Normal termination of Gaussian 16 at Tue Dec  5 11:20:19 2023.
