 Gaussian 16, Revision B.01,
 Gaussian 16:  ES64L-G16RevB.01 20-Dec-2017

 -------------------------
 #P B3LYP/6-311+g(d) force
 -------------------------

 -----
 DPGEN
 -----
 Symbolic Z-matrix:
 Charge =  0 Multiplicity = 2

                         Standard orientation:
 ---------------------------------------------------------------------
 Center     Atomic      Atomic             Coordinates (Angstroms)
 Number     Number       Type             X           Y           Z
 ---------------------------------------------------------------------
      1         11           0       -0.144217    3.091369    0.117702
      2         11           0       -1.843301   -2.380096   -0.287959
      3         11           0       -3.191759    0.776426   -0.303948
      4         11           0        0.077692   -0.025322   -1.372338
      5         11           0        2.143184   -2.282333    0.027842
      6         11           0        3.208503    1.051077   -0.283970
      7         11           0       -0.250102   -0.231120    2.102672
 ---------------------------------------------------------------------

 SCF Done:  E(UB3LYP) =  -1136.13585103     A.U. after   19 cycles

 The electronic state is 2-A.
 Alpha  occ. eigenvalues --  -38.44312 -38.44307 -38.43806 -38.43570 -38.43460
 Alpha  occ. eigenvalues --  -38.43392 -38.43074  -2.20125  -2.20101  -2.19628
 Alpha  occ. eigenvalues --   -2.19428  -2.19266  -2.19255  -2.19064  -1.13800
 Alpha  occ. eigenvalues --   -1.13783  -1.13780  -1.13762  -1.13758  -1.13737
 Alpha  occ. eigenvalues --   -1.13313  -1.13295  -1.13258  -1.13134  -1.13090
 Alpha  occ. eigenvalues --   -1.13050  -1.12945  -1.12936  -1.12922  -1.12889
 Alpha  occ. eigenvalues --   -1.12887  -1.12870  -1.12763  -1.12702  -1.12685
 Alpha  occ. eigenvalues --   -0.18306  -0.13134  -0.12186  -0.10372
 Alpha virt. eigenvalues --   -0.05930  -0.05426  -0.04772  -0.03008  -0.02628
 Alpha virt. eigenvalues --   -0.02335  -0.01830  -0.01294  -0.00665  -0.00598
 Alpha virt. eigenvalues --   -0.00021   0.00305   0.00717   0.00813   0.00820

  Beta  occ. eigenvalues --  -38.44304 -38.44302 -38.43803 -38.43560 -38.43458
  Beta  occ. eigenvalues --  -38.43285 -38.43033  -2.20112  -2.20093  -2.19626
  Beta  occ. eigenvalues --   -2.19414  -2.19254  -2.19068  -2.18991  -1.13780
  Beta  occ. eigenvalues --   -1.13775  -1.13763  -1.13753  -1.13748  -1.13733
  Beta  occ. eigenvalues --   -1.13309  -1.13282  -1.13253  -1.13122  -1.13066
  Beta  occ. eigenvalues --   -1.13032  -1.12937  -1.12909  -1.12889  -1.12808
  Beta  occ. eigenvalues --   -1.12753  -1.12728  -1.12699  -1.12651  -1.12629
  Beta  occ. eigenvalues --   -0.17618  -0.12878  -0.11992
  Beta virt. eigenvalues --   -0.06492  -0.05835  -0.05422  -0.04719  -0.02313
  Beta virt. eigenvalues --   -0.01914  -0.01727  -0.01265  -0.01240  -0.00670
  Beta virt. eigenvalues --   -0.00647   0.00150   0.00363   0.00789   0.00818

 Mulliken charges and spin densities:
               1          2
     1  Na  -0.016103  -0.027851
     2  Na   0.343070   0.046366
     3  Na   0.174167   0.026309
     4  Na  -0.386761   0.170291
     5  Na   0.235531   0.001579
     6  Na   0.095540  -0.003635
     7  Na  -0.445443   0.786939
 Sum of Mulliken charges =  -0.00000   1.00000

 Dipole moment (field-independent basis, Debye):
    X=              0.0549    Y=              0.0023    Z=              0.1151  Tot=              0.1276
 Quadrupole moment (field-independent basis, Debye-Ang):
   XX=            -53.5906   YY=            -61.7707   ZZ=            -76.5158
   XY=             -0.2753   XZ=              0.5908   YZ=              0.3422

 Normal termination of Gaussian 16 at Thu Dec  7 11:40:26 2023.
