 Gaussian 16, Revision B.01,
 Gaussian 16:  ES64L-G16RevB.01 20-Dec-2017

 -------------------------
 #P B3LYP/6-311+g(d) force
 -------------------------

 -----
 DPGEN
 -----
 Symbolic Z-matrix:
 Charge =  0 Multiplicity = 2

                         Standard orientation:
 ---------------------------------------------------------------------
 Center     Atomic      Atomic             Coordinates (Angstroms)
 Number     Number       Type             X           Y           Z
 ---------------------------------------------------------------------
      1         11           0       -2.955156    0.214335   -0.129832
      2         11           0        3.123297   -1.489591   -0.296020
      3         11           0        2.522728    1.465164   -0.245607
      4         11           0       -0.647764    0.113152   -1.648492
      5         11           0        0.223209   -0.760563    1.863945
      6         11           0       -0.736795    3.194606    0.471878
      7         11           0       -1.529518   -2.737103   -0.015873
 ---------------------------------------------------------------------

 SCF Done:  E(UB3LYP) =  -1136.12629777     A.U. after   19 cycles

 The electronic state is 2-A.
 Alpha  occ. eigenvalues --  -38.44459 -38.44185 -38.43891 -38.43815 -38.43736
 Alpha  occ. eigenvalues --  -38.43483 -38.43356  -2.20384  -2.20013  -2.19783
 Alpha  occ. eigenvalues --   -2.19747  -2.19610  -2.19368  -2.19146  -1.14257
 Alpha  occ. eigenvalues --   -1.14014  -1.13970  -1.13754  -1.13662  -1.13643
 Alpha  occ. eigenvalues --   -1.13445  -1.13428  -1.13408  -1.13399  -1.13370
 Alpha  occ. eigenvalues --   -1.13362  -1.13297  -1.13264  -1.13248  -1.13035
 Alpha  occ. eigenvalues --   -1.12994  -1.12983  -1.12813  -1.12804  -1.12789
 Alpha  occ. eigenvalues --   -0.18403  -0.13611  -0.12243  -0.10438
 Alpha virt. eigenvalues --   -0.05845  -0.05306  -0.04912  -0.03421  -0.02899
 Alpha virt. eigenvalues --   -0.02135  -0.01619  -0.01278  -0.00663  -0.00343
 Alpha virt. eigenvalues --    0.00002   0.00325   0.00765   0.00784   0.00838

  Beta  occ. eigenvalues --  -38.44446 -38.44179 -38.43883 -38.43756 -38.43730
  Beta  occ. eigenvalues --  -38.43401 -38.43345  -2.20365  -2.20003  -2.19737
  Beta  occ. eigenvalues --   -2.19676  -2.19603  -2.19217  -2.19127  -1.14226
  Beta  occ. eigenvalues --   -1.13984  -1.13956  -1.13748  -1.13646  -1.13634
  Beta  occ. eigenvalues --   -1.13406  -1.13388  -1.13379  -1.13353  -1.13339
  Beta  occ. eigenvalues --   -1.13302  -1.13272  -1.13258  -1.13217  -1.12937
  Beta  occ. eigenvalues --   -1.12886  -1.12878  -1.12796  -1.12785  -1.12778
  Beta  occ. eigenvalues --   -0.17741  -0.13314  -0.12005
  Beta virt. eigenvalues --   -0.06711  -0.05731  -0.05241  -0.04802  -0.02659
  Beta virt. eigenvalues --   -0.02213  -0.01526  -0.01288  -0.01143  -0.00678
  Beta virt. eigenvalues --   -0.00356   0.00157   0.00382   0.00788   0.00850

 Mulliken charges and spin densities:
               1          2
     1  Na   0.410775   0.144680
     2  Na   0.038334  -0.084945
     3  Na  -0.073342   0.045659
     4  Na   0.018280   0.322510
     5  Na  -0.214791   0.673568
     6  Na  -0.260858   0.024225
     7  Na   0.081602  -0.125697
 Sum of Mulliken charges =  -0.00000   1.00000

 Dipole moment (field-independent basis, Debye):
    X=             -0.0139    Y=             -0.4237    Z=              0.0591  Tot=              0.4280
 Quadrupole moment (field-independent basis, Debye-Ang):
   XX=            -58.2873   YY=            -61.3578   ZZ=            -75.2594
   XY=             -0.3851   XZ=             -1.6936   YZ=              2.1560

 Normal termination of Gaussian 16 at Tue Dec  5 11:12:12 2023.
