 Gaussian 16, Revision B.01,
 Gaussian 16:  ES64L-G16RevB.01 20-Dec-2017

 -------------------------
 #P B3LYP/6-311+g(d) force
 -------------------------

 -----
 DPGEN
 -----
 Symbolic Z-matrix:
 Charge =  0 Multiplicity = 2

                         Standard orientation:
 ---------------------------------------------------------------------
 Center     Atomic      Atomic             Coordinates (Angstroms)
 Number     Number       Type             X           Y           Z
 ---------------------------------------------------------------------
      1         11           0        0.794112    2.604625    0.303622
      2         11           0       -2.214602    2.917502   -0.486125
      3         11           0       -3.192341   -0.878336   -0.910549
      4         11           0       -0.890099   -0.443219    1.499415
      5         11           0        2.585935   -0.475958    1.347015
      6         11           0       -1.193240   -3.343867   -0.157192
      7         11           0        4.110235   -0.380747   -1.596187
 ---------------------------------------------------------------------

 SCF Done:  E(UB3LYP) =  -1136.12364600     A.U. after   19 cycles

 The electronic state is 2-A.
 Alpha  occ. eigenvalues --  -38.44687 -38.44331 -38.44317 -38.43931 -38.43903
 Alpha  occ. eigenvalues --  -38.43477 -38.43399  -2.20497  -2.20167  -2.20135
 Alpha  occ. eigenvalues --   -2.19832  -2.19710  -2.19291  -2.19227  -1.14169
 Alpha  occ. eigenvalues --   -1.14160  -1.14144  -1.13848  -1.13833  -1.13821
 Alpha  occ. eigenvalues --   -1.13805  -1.13771  -1.13769  -1.13520  -1.13490
 Alpha  occ. eigenvalues --   -1.13444  -1.13351  -1.13346  -1.13331  -1.12966
 Alpha  occ. eigenvalues --   -1.12947  -1.12928  -1.12901  -1.12893  -1.12883
 Alpha  occ. eigenvalues --   -0.17132  -0.13624  -0.12597  -0.10572
 Alpha virt. eigenvalues --   -0.06262  -0.05314  -0.04765  -0.03997  -0.02616
 Alpha virt. eigenvalues --   -0.02195  -0.01672  -0.01345  -0.01105  -0.00675
 Alpha virt. eigenvalues --   -0.00201   0.00253   0.00297   0.00418   0.00589

  Beta  occ. eigenvalues --  -38.44687 -38.44315 -38.44300 -38.43879 -38.43807
  Beta  occ. eigenvalues --  -38.43471 -38.43393  -2.20498  -2.20132  -2.20109
  Beta  occ. eigenvalues --   -2.19741  -2.19531  -2.19280  -2.19224  -1.14168
  Beta  occ. eigenvalues --   -1.14155  -1.14142  -1.13822  -1.13810  -1.13795
  Beta  occ. eigenvalues --   -1.13791  -1.13773  -1.13727  -1.13464  -1.13410
  Beta  occ. eigenvalues --   -1.13375  -1.13232  -1.13224  -1.13215  -1.12959
  Beta  occ. eigenvalues --   -1.12936  -1.12919  -1.12906  -1.12896  -1.12825
  Beta  occ. eigenvalues --   -0.16621  -0.13181  -0.12283
  Beta virt. eigenvalues --   -0.07067  -0.06097  -0.05001  -0.04253  -0.03842
  Beta virt. eigenvalues --   -0.02336  -0.01585  -0.01484  -0.01181  -0.00990
  Beta virt. eigenvalues --   -0.00537   0.00088   0.00384   0.00541   0.00613

 Mulliken charges and spin densities:
               1          2
     1  Na  -0.245655   0.053430
     2  Na   0.051223   0.070389
     3  Na  -0.133298   0.308874
     4  Na   0.404169  -0.027224
     5  Na  -0.001833   0.046889
     6  Na   0.028197   0.040596
     7  Na  -0.102804   0.507046
 Sum of Mulliken charges =  -0.00000   1.00000

 Dipole moment (field-independent basis, Debye):
    X=             -0.9961    Y=             -0.7514    Z=             -0.2800  Tot=              1.2788
 Quadrupole moment (field-independent basis, Debye-Ang):
   XX=            -69.9479   YY=            -61.0162   ZZ=            -69.2738
   XY=              1.3237   XZ=              1.4366   YZ=              0.6584

 Normal termination of Gaussian 16 at Tue Nov 28 20:37:09 2023.
