 Gaussian 16, Revision B.01,
 Gaussian 16:  ES64L-G16RevB.01 20-Dec-2017

 -------------------------
 #P B3LYP/6-311+g(d) force
 -------------------------

 -----
 DPGEN
 -----
 Symbolic Z-matrix:
 Charge =  0 Multiplicity = 2

                         Standard orientation:
 ---------------------------------------------------------------------
 Center     Atomic      Atomic             Coordinates (Angstroms)
 Number     Number       Type             X           Y           Z
 ---------------------------------------------------------------------
      1         11           0       -0.285151    2.990371    0.233820
      2         11           0       -3.968981   -1.537803   -1.140143
      3         11           0        0.202063    0.139366    1.909434
      4         11           0        3.633092    0.779503   -0.231800
      5         11           0       -1.737085   -3.016546    0.795455
      6         11           0        5.300187   -1.340863   -0.893684
      7         11           0       -3.144124    1.985972   -0.673083
 ---------------------------------------------------------------------

 SCF Done:  E(UB3LYP) =  -1136.11077638     A.U. after   19 cycles

 The electronic state is 2-A.
 Alpha  occ. eigenvalues --  -38.45321 -38.44763 -38.44198 -38.44186 -38.44183
 Alpha  occ. eigenvalues --  -38.43975 -38.43724  -2.21118  -2.20582  -2.20037
 Alpha  occ. eigenvalues --   -2.19988  -2.19967  -2.19815  -2.19556  -1.14779
 Alpha  occ. eigenvalues --   -1.14757  -1.14740  -1.14246  -1.14225  -1.14213
 Alpha  occ. eigenvalues --   -1.13919  -1.13675  -1.13659  -1.13656  -1.13653
 Alpha  occ. eigenvalues --   -1.13647  -1.13631  -1.13620  -1.13565  -1.13457
 Alpha  occ. eigenvalues --   -1.13448  -1.13376  -1.13228  -1.13219  -1.13206
 Alpha  occ. eigenvalues --   -0.16384  -0.13831  -0.12374  -0.11726
 Alpha virt. eigenvalues --   -0.06272  -0.05787  -0.04412  -0.03690  -0.03243
 Alpha virt. eigenvalues --   -0.02181  -0.02078  -0.01515  -0.01143  -0.00988
 Alpha virt. eigenvalues --   -0.00507  -0.00232   0.00105   0.00323   0.00690

  Beta  occ. eigenvalues --  -38.45243 -38.44697 -38.44185 -38.44161 -38.44154
  Beta  occ. eigenvalues --  -38.43976 -38.43726  -2.20973  -2.20460  -2.19980
  Beta  occ. eigenvalues --   -2.19963  -2.19925  -2.19820  -2.19563  -1.14682
  Beta  occ. eigenvalues --   -1.14665  -1.14628  -1.14165  -1.14146  -1.14124
  Beta  occ. eigenvalues --   -1.13887  -1.13657  -1.13643  -1.13618  -1.13618
  Beta  occ. eigenvalues --   -1.13615  -1.13604  -1.13584  -1.13539  -1.13462
  Beta  occ. eigenvalues --   -1.13451  -1.13352  -1.13235  -1.13222  -1.13194
  Beta  occ. eigenvalues --   -0.15647  -0.13382  -0.12217
  Beta virt. eigenvalues --   -0.08273  -0.05774  -0.05169  -0.03987  -0.03442
  Beta virt. eigenvalues --   -0.03017  -0.01991  -0.01774  -0.01451  -0.00930
  Beta virt. eigenvalues --   -0.00773  -0.00172   0.00005   0.00251   0.00508

 Mulliken charges and spin densities:
               1          2
     1  Na   0.335378  -0.031975
     2  Na   0.034705   0.074336
     3  Na  -0.542600   0.328665
     4  Na  -0.565727   0.112010
     5  Na   0.051438   0.133937
     6  Na   0.739201  -0.013665
     7  Na  -0.052395   0.396692
 Sum of Mulliken charges =  -0.00000   1.00000

 Dipole moment (field-independent basis, Debye):
    X=             -0.2005    Y=             -0.1800    Z=              0.0786  Tot=              0.2807
 Quadrupole moment (field-independent basis, Debye-Ang):
   XX=            -67.3748   YY=            -63.8525   ZZ=            -69.6479
   XY=             -4.0683   XZ=              1.8673   YZ=             -0.1447

 Normal termination of Gaussian 16 at Sun Dec  3 14:54:59 2023.
