 Gaussian 16, Revision B.01,
 Gaussian 16:  ES64L-G16RevB.01 20-Dec-2017

 -------------------------
 #P B3LYP/6-311+g(d) force
 -------------------------

 -----
 DPGEN
 -----
 Symbolic Z-matrix:
 Charge =  0 Multiplicity = 2

                         Standard orientation:
 ---------------------------------------------------------------------
 Center     Atomic      Atomic             Coordinates (Angstroms)
 Number     Number       Type             X           Y           Z
 ---------------------------------------------------------------------
      1         11           0       -0.688599   -2.417161    0.862485
      2         11           0       -4.719686   -0.923364   -0.190785
      3         11           0        4.085143    0.447738   -0.927890
      4         11           0        2.820509   -2.113992   -0.316428
      5         11           0       -0.612092    3.114627    0.255710
      6         11           0       -2.333345    0.719972   -1.077408
      7         11           0        1.448070    1.172180    1.394316
 ---------------------------------------------------------------------

 SCF Done:  E(UB3LYP) =  -1136.11516258     A.U. after   19 cycles

 The electronic state is 2-A.
 Alpha  occ. eigenvalues --  -38.44473 -38.44379 -38.44337 -38.44255 -38.44151
 Alpha  occ. eigenvalues --  -38.44095 -38.43174  -2.20310  -2.20210  -2.20162
 Alpha  occ. eigenvalues --   -2.20101  -2.19970  -2.19953  -2.19029  -1.14021
 Alpha  occ. eigenvalues --   -1.13999  -1.13985  -1.13946  -1.13838  -1.13830
 Alpha  occ. eigenvalues --   -1.13822  -1.13819  -1.13764  -1.13761  -1.13759
 Alpha  occ. eigenvalues --   -1.13728  -1.13678  -1.13635  -1.13616  -1.13600
 Alpha  occ. eigenvalues --   -1.13581  -1.13515  -1.12702  -1.12689  -1.12665
 Alpha  occ. eigenvalues --   -0.16900  -0.14218  -0.12277  -0.11011
 Alpha virt. eigenvalues --   -0.06513  -0.04913  -0.04546  -0.03726  -0.03242
 Alpha virt. eigenvalues --   -0.02488  -0.01718  -0.01256  -0.00913  -0.00633
 Alpha virt. eigenvalues --   -0.00353  -0.00151   0.00415   0.00571   0.00663

  Beta  occ. eigenvalues --  -38.44463 -38.44298 -38.44268 -38.44246 -38.44112
  Beta  occ. eigenvalues --  -38.44085 -38.43179  -2.20293  -2.20101  -2.20073
  Beta  occ. eigenvalues --   -2.20012  -2.19941  -2.19894  -2.19037  -1.13988
  Beta  occ. eigenvalues --   -1.13959  -1.13953  -1.13935  -1.13780  -1.13748
  Beta  occ. eigenvalues --   -1.13733  -1.13729  -1.13723  -1.13717  -1.13706
  Beta  occ. eigenvalues --   -1.13649  -1.13623  -1.13610  -1.13592  -1.13557
  Beta  occ. eigenvalues --   -1.13534  -1.13483  -1.12705  -1.12694  -1.12672
  Beta  occ. eigenvalues --   -0.16352  -0.13660  -0.11854
  Beta virt. eigenvalues --   -0.07503  -0.06408  -0.04637  -0.04207  -0.03333
  Beta virt. eigenvalues --   -0.02812  -0.02291  -0.01340  -0.01032  -0.00738
  Beta virt. eigenvalues --   -0.00302  -0.00229   0.00058   0.00487   0.00648

 Mulliken charges and spin densities:
               1          2
     1  Na  -0.090048   0.313673
     2  Na   0.299294   0.198153
     3  Na   0.061298   0.281840
     4  Na   0.010509   0.027227
     5  Na   0.323403  -0.136095
     6  Na  -0.614060   0.070634
     7  Na   0.009604   0.244568
 Sum of Mulliken charges =  -0.00000   1.00000

 Dipole moment (field-independent basis, Debye):
    X=              0.1621    Y=             -0.0780    Z=              0.0880  Tot=              0.2002
 Quadrupole moment (field-independent basis, Debye-Ang):
   XX=            -63.3883   YY=            -67.9744   ZZ=            -68.4807
   XY=              2.3651   XZ=             -2.2634   YZ=             -1.9651

 Normal termination of Gaussian 16 at Sun Dec  3 12:29:00 2023.
