 Gaussian 16, Revision B.01,
 Gaussian 16:  ES64L-G16RevB.01 20-Dec-2017

 -------------------------
 #P B3LYP/6-311+g(d) force
 -------------------------

 -----
 DPGEN
 -----
 Symbolic Z-matrix:
 Charge =  0 Multiplicity = 2

                         Standard orientation:
 ---------------------------------------------------------------------
 Center     Atomic      Atomic             Coordinates (Angstroms)
 Number     Number       Type             X           Y           Z
 ---------------------------------------------------------------------
      1         11           0       -2.760589   -1.394149   -0.077301
      2         11           0        0.534887   -2.595618    0.130682
      3         11           0        3.320672   -0.087292   -0.221134
      4         11           0        0.345928   -0.122232    1.930617
      5         11           0       -2.163124    1.997989    0.139212
      6         11           0        0.849257    2.533441   -0.161149
      7         11           0       -0.127031   -0.332139   -1.740927
 ---------------------------------------------------------------------

 SCF Done:  E(UB3LYP) =  -1136.13540369     A.U. after   20 cycles

 The electronic state is 2-A.
 Alpha  occ. eigenvalues --  -38.44284 -38.43844 -38.43481 -38.43390 -38.43373
 Alpha  occ. eigenvalues --  -38.43338 -38.43128  -2.20086  -2.19696  -2.19429
 Alpha  occ. eigenvalues --   -2.19335  -2.19304  -2.19269  -2.19034  -1.13757
 Alpha  occ. eigenvalues --   -1.13742  -1.13728  -1.13386  -1.13355  -1.13338
 Alpha  occ. eigenvalues --   -1.13193  -1.13131  -1.13083  -1.13027  -1.13008
 Alpha  occ. eigenvalues --   -1.12977  -1.12940  -1.12936  -1.12920  -1.12910
 Alpha  occ. eigenvalues --   -1.12888  -1.12876  -1.12704  -1.12692  -1.12646
 Alpha  occ. eigenvalues --   -0.19047  -0.12985  -0.12678  -0.10866
 Alpha virt. eigenvalues --   -0.05818  -0.04883  -0.04513  -0.03137  -0.03015
 Alpha virt. eigenvalues --   -0.02543  -0.01752  -0.00932  -0.00173  -0.00060
 Alpha virt. eigenvalues --   -0.00014   0.00342   0.00832   0.00896   0.00950

  Beta  occ. eigenvalues --  -38.44281 -38.43841 -38.43391 -38.43387 -38.43359
  Beta  occ. eigenvalues --  -38.43265 -38.43121  -2.20083  -2.19694  -2.19290
  Beta  occ. eigenvalues --   -2.19268  -2.19262  -2.19198  -2.19025  -1.13744
  Beta  occ. eigenvalues --   -1.13734  -1.13728  -1.13378  -1.13344  -1.13332
  Beta  occ. eigenvalues --   -1.13132  -1.13049  -1.13005  -1.12965  -1.12923
  Beta  occ. eigenvalues --   -1.12913  -1.12898  -1.12888  -1.12880  -1.12867
  Beta  occ. eigenvalues --   -1.12830  -1.12820  -1.12698  -1.12658  -1.12642
  Beta  occ. eigenvalues --   -0.18299  -0.12761  -0.12404
  Beta virt. eigenvalues --   -0.06923  -0.05781  -0.04878  -0.04491  -0.02378
  Beta virt. eigenvalues --   -0.02170  -0.01664  -0.01479  -0.00877  -0.00219
  Beta virt. eigenvalues --   -0.00099   0.00112   0.00365   0.00876   0.00889

 Mulliken charges and spin densities:
               1          2
     1  Na   0.275250  -0.052995
     2  Na   0.398936  -0.123969
     3  Na   0.130010  -0.089664
     4  Na  -0.463291   0.696836
     5  Na   0.016586  -0.045648
     6  Na   0.095720  -0.048545
     7  Na  -0.453211   0.663985
 Sum of Mulliken charges =  -0.00000   1.00000

 Dipole moment (field-independent basis, Debye):
    X=              0.2081    Y=             -0.1836    Z=              0.0474  Tot=              0.2816
 Quadrupole moment (field-independent basis, Debye-Ang):
   XX=            -54.2303   YY=            -65.5357   ZZ=            -73.7162
   XY=              0.3590   XZ=             -1.2001   YZ=             -0.2679

 Normal termination of Gaussian 16 at Fri Dec  8 05:40:24 2023.
