 Gaussian 16, Revision B.01,
 Gaussian 16:  ES64L-G16RevB.01 20-Dec-2017

 -------------------------
 #P B3LYP/6-311+g(d) force
 -------------------------

 -----
 DPGEN
 -----
 Symbolic Z-matrix:
 Charge =  0 Multiplicity = 2

                         Standard orientation:
 ---------------------------------------------------------------------
 Center     Atomic      Atomic             Coordinates (Angstroms)
 Number     Number       Type             X           Y           Z
 ---------------------------------------------------------------------
      1         11           0        0.226974    1.680001   -0.087351
      2         11           0        2.611512    3.495729   -0.452062
      3         11           0        3.029341    0.055942    1.052067
      4         11           0        2.848128   -2.848486   -0.896282
      5         11           0        0.246067   -2.083992    0.626251
      6         11           0       -3.029794   -0.974755   -0.353960
      7         11           0       -5.932228    0.675560    0.111337
 ---------------------------------------------------------------------

 SCF Done:  E(UB3LYP) =  -1136.12033322     A.U. after   20 cycles

 The electronic state is 2-A.
 Alpha  occ. eigenvalues --  -38.45092 -38.44443 -38.44443 -38.44274 -38.43671
 Alpha  occ. eigenvalues --  -38.43626 -38.42847  -2.20928  -2.20276  -2.20270
 Alpha  occ. eigenvalues --   -2.20138  -2.19519  -2.19475  -2.18641  -1.14643
 Alpha  occ. eigenvalues --   -1.14614  -1.14505  -1.14016  -1.13962  -1.13926
 Alpha  occ. eigenvalues --   -1.13921  -1.13901  -1.13899  -1.13824  -1.13808
 Alpha  occ. eigenvalues --   -1.13694  -1.13216  -1.13186  -1.13120  -1.13109
 Alpha  occ. eigenvalues --   -1.13109  -1.13094  -1.12332  -1.12322  -1.12290
 Alpha  occ. eigenvalues --   -0.17242  -0.13371  -0.13013  -0.10513
 Alpha virt. eigenvalues --   -0.06632  -0.05351  -0.04652  -0.03668  -0.02788
 Alpha virt. eigenvalues --   -0.02306  -0.01999  -0.01382  -0.01004  -0.00870
 Alpha virt. eigenvalues --   -0.00398  -0.00269   0.00382   0.00425   0.00528

  Beta  occ. eigenvalues --  -38.45073 -38.44442 -38.44421 -38.44253 -38.43593
  Beta  occ. eigenvalues --  -38.43568 -38.42850  -2.20893  -2.20267  -2.20235
  Beta  occ. eigenvalues --   -2.20101  -2.19461  -2.19284  -2.18657  -1.14608
  Beta  occ. eigenvalues --   -1.14592  -1.14479  -1.14009  -1.13934  -1.13919
  Beta  occ. eigenvalues --   -1.13899  -1.13896  -1.13866  -1.13801  -1.13785
  Beta  occ. eigenvalues --   -1.13664  -1.13179  -1.13149  -1.13058  -1.12979
  Beta  occ. eigenvalues --   -1.12978  -1.12971  -1.12350  -1.12339  -1.12240
  Beta  occ. eigenvalues --   -0.16793  -0.13113  -0.12263
  Beta virt. eigenvalues --   -0.07091  -0.06517  -0.05026  -0.04254  -0.03319
  Beta virt. eigenvalues --   -0.02677  -0.02011  -0.01779  -0.01183  -0.00737
  Beta virt. eigenvalues --   -0.00549  -0.00159   0.00096   0.00504   0.00521

 Mulliken charges and spin densities:
               1          2
     1  Na  -1.479006  -0.066065
     2  Na   1.376234   0.157145
     3  Na   0.031435   0.277401
     4  Na   0.494550   0.187307
     5  Na  -0.374676  -0.071725
     6  Na  -0.293561   0.112202
     7  Na   0.245025   0.403734
 Sum of Mulliken charges =  -0.00000   1.00000

 Dipole moment (field-independent basis, Debye):
    X=              3.0253    Y=              0.5661    Z=             -0.2781  Tot=              3.0903
 Quadrupole moment (field-independent basis, Debye-Ang):
   XX=            -71.8811   YY=            -60.5215   ZZ=            -67.6604
   XY=              1.1561   XZ=             -1.9914   YZ=              1.0012

 Normal termination of Gaussian 16 at Tue Nov 28 20:01:55 2023.
