 Gaussian 16, Revision B.01,
 Gaussian 16:  ES64L-G16RevB.01 20-Dec-2017

 -------------------------
 #P B3LYP/6-311+g(d) force
 -------------------------

 -----
 DPGEN
 -----
 Symbolic Z-matrix:
 Charge =  0 Multiplicity = 2

                         Standard orientation:
 ---------------------------------------------------------------------
 Center     Atomic      Atomic             Coordinates (Angstroms)
 Number     Number       Type             X           Y           Z
 ---------------------------------------------------------------------
      1         11           0       -3.341973    0.202428    1.015101
      2         11           0        0.048601    1.706832   -0.616127
      3         11           0       -8.963677    0.038554    0.304522
      4         11           0       -6.055290   -1.011048   -0.529074
      5         11           0        2.792817    0.017647   -0.672019
      6         11           0        6.378125   -1.263840   -0.100028
      7         11           0        9.141397    0.309426    0.597626
 ---------------------------------------------------------------------

 SCF Done:  E(UB3LYP) =  -1136.10493702     A.U. after   19 cycles

 The electronic state is 2-A.
 Alpha  occ. eigenvalues --  -38.44993 -38.44897 -38.44893 -38.44338 -38.44199
 Alpha  occ. eigenvalues --  -38.44194 -38.44186  -2.20795  -2.20691  -2.20667
 Alpha  occ. eigenvalues --   -2.20098  -2.19994  -2.19993  -2.19963  -1.14437
 Alpha  occ. eigenvalues --   -1.14431  -1.14425  -1.14344  -1.14339  -1.14319
 Alpha  occ. eigenvalues --   -1.14318  -1.14304  -1.14298  -1.13799  -1.13778
 Alpha  occ. eigenvalues --   -1.13759  -1.13666  -1.13661  -1.13659  -1.13652
 Alpha  occ. eigenvalues --   -1.13650  -1.13639  -1.13634  -1.13615  -1.13588
 Alpha  occ. eigenvalues --   -0.15041  -0.14209  -0.12861  -0.11300
 Alpha virt. eigenvalues --   -0.07343  -0.05401  -0.04134  -0.03238  -0.03029
 Alpha virt. eigenvalues --   -0.02866  -0.02484  -0.02111  -0.01577  -0.01171
 Alpha virt. eigenvalues --   -0.00969  -0.00546  -0.00214   0.00276   0.00398

  Beta  occ. eigenvalues --  -38.44907 -38.44857 -38.44807 -38.44363 -38.44205
  Beta  occ. eigenvalues --  -38.44195 -38.44151  -2.20636  -2.20599  -2.20523
  Beta  occ. eigenvalues --   -2.20148  -2.20018  -2.19987  -2.19903  -1.14331
  Beta  occ. eigenvalues --   -1.14322  -1.14318  -1.14273  -1.14271  -1.14261
  Beta  occ. eigenvalues --   -1.14229  -1.14224  -1.14192  -1.13819  -1.13815
  Beta  occ. eigenvalues --   -1.13776  -1.13688  -1.13683  -1.13658  -1.13651
  Beta  occ. eigenvalues --   -1.13624  -1.13608  -1.13589  -1.13587  -1.13547
  Beta  occ. eigenvalues --   -0.14344  -0.13719  -0.12446
  Beta virt. eigenvalues --   -0.08178  -0.06799  -0.04915  -0.03920  -0.03041
  Beta virt. eigenvalues --   -0.02867  -0.02700  -0.02289  -0.01843  -0.01291
  Beta virt. eigenvalues --   -0.00910  -0.00588  -0.00274  -0.00053   0.00333

 Mulliken charges and spin densities:
               1          2
     1  Na  -0.111650   0.370397
     2  Na  -0.037619  -0.113566
     3  Na   0.380819   0.372594
     4  Na  -0.275499   0.021916
     5  Na  -0.035139   0.222491
     6  Na  -0.093655  -0.045346
     7  Na   0.172743   0.171513
 Sum of Mulliken charges =  -0.00000   1.00000

 Dipole moment (field-independent basis, Debye):
    X=             -0.3932    Y=              0.4220    Z=              0.4477  Tot=              0.7302
 Quadrupole moment (field-independent basis, Debye-Ang):
   XX=            -41.6616   YY=            -68.6389   ZZ=            -72.3778
   XY=              0.7865   XZ=              0.2200   YZ=              1.9974

 Normal termination of Gaussian 16 at Sun Dec  3 20:54:28 2023.
