 Gaussian 16, Revision B.01,
 Gaussian 16:  ES64L-G16RevB.01 20-Dec-2017

 -------------------------
 #P B3LYP/6-311+g(d) force
 -------------------------

 -----
 DPGEN
 -----
 Symbolic Z-matrix:
 Charge =  0 Multiplicity = 2

                         Standard orientation:
 ---------------------------------------------------------------------
 Center     Atomic      Atomic             Coordinates (Angstroms)
 Number     Number       Type             X           Y           Z
 ---------------------------------------------------------------------
      1         11           0        1.618761    1.425317    0.857655
      2         11           0       -1.259036   -0.567389    1.678750
      3         11           0       -1.631203   -2.934854   -0.294074
      4         11           0        1.446288   -1.529528   -0.007734
      5         11           0        4.557173    0.244115   -0.779103
      6         11           0       -2.755581    0.082080   -1.194360
      7         11           0       -1.976403    3.280259   -0.261136
 ---------------------------------------------------------------------

 SCF Done:  E(UB3LYP) =  -1136.12579743     A.U. after   20 cycles

 The electronic state is 2-A.
 Alpha  occ. eigenvalues --  -38.44242 -38.44055 -38.44022 -38.43889 -38.43774
 Alpha  occ. eigenvalues --  -38.43655 -38.43569  -2.20190  -2.19923  -2.19859
 Alpha  occ. eigenvalues --   -2.19746  -2.19646  -2.19469  -2.19420  -1.13888
 Alpha  occ. eigenvalues --   -1.13867  -1.13811  -1.13690  -1.13607  -1.13533
 Alpha  occ. eigenvalues --   -1.13513  -1.13512  -1.13462  -1.13430  -1.13411
 Alpha  occ. eigenvalues --   -1.13328  -1.13326  -1.13312  -1.13266  -1.13135
 Alpha  occ. eigenvalues --   -1.13115  -1.13100  -1.13095  -1.13077  -1.13055
 Alpha  occ. eigenvalues --   -0.18045  -0.13857  -0.12220  -0.10618
 Alpha virt. eigenvalues --   -0.06103  -0.05341  -0.04979  -0.03595  -0.02584
 Alpha virt. eigenvalues --   -0.02254  -0.01738  -0.01232  -0.00991  -0.00631
 Alpha virt. eigenvalues --   -0.00145   0.00231   0.00440   0.00600   0.00694

  Beta  occ. eigenvalues --  -38.44192 -38.44015 -38.43993 -38.43867 -38.43727
  Beta  occ. eigenvalues --  -38.43658 -38.43556  -2.20105  -2.19915  -2.19742
  Beta  occ. eigenvalues --   -2.19711  -2.19559  -2.19448  -2.19427  -1.13836
  Beta  occ. eigenvalues --   -1.13771  -1.13755  -1.13673  -1.13597  -1.13504
  Beta  occ. eigenvalues --   -1.13435  -1.13431  -1.13413  -1.13392  -1.13374
  Beta  occ. eigenvalues --   -1.13286  -1.13273  -1.13254  -1.13204  -1.13122
  Beta  occ. eigenvalues --   -1.13103  -1.13101  -1.13076  -1.13063  -1.13054
  Beta  occ. eigenvalues --   -0.17389  -0.13319  -0.12099
  Beta virt. eigenvalues --   -0.07027  -0.05899  -0.04999  -0.04731  -0.03194
  Beta virt. eigenvalues --   -0.02199  -0.01898  -0.01372  -0.01055  -0.00808
  Beta virt. eigenvalues --   -0.00349   0.00118   0.00329   0.00527   0.00728

 Mulliken charges and spin densities:
               1          2
     1  Na  -0.243111   0.010938
     2  Na  -0.591252   0.290690
     3  Na   0.827753   0.165925
     4  Na  -0.508296  -0.077250
     5  Na   0.421649   0.345962
     6  Na  -0.103458   0.327086
     7  Na   0.196716  -0.063351
 Sum of Mulliken charges =  -0.00000   1.00000

 Dipole moment (field-independent basis, Debye):
    X=              0.2420    Y=             -0.3283    Z=              0.2687  Tot=              0.4884
 Quadrupole moment (field-independent basis, Debye-Ang):
   XX=            -65.4339   YY=            -62.3273   ZZ=            -69.7065
   XY=              2.7008   XZ=             -2.8052   YZ=              1.3472

 Normal termination of Gaussian 16 at Tue Nov 28 22:03:03 2023.
