 Gaussian 16, Revision B.01,
 Gaussian 16:  ES64L-G16RevB.01 20-Dec-2017

 -------------------------
 #P B3LYP/6-311+g(d) force
 -------------------------

 -----
 DPGEN
 -----
 Symbolic Z-matrix:
 Charge =  0 Multiplicity = 2

                         Standard orientation:
 ---------------------------------------------------------------------
 Center     Atomic      Atomic             Coordinates (Angstroms)
 Number     Number       Type             X           Y           Z
 ---------------------------------------------------------------------
      1         11           0        0.453685   -2.420625   -0.061368
      2         11           0       -0.266071    0.272823   -1.674998
      3         11           0       -2.001374    2.006343    0.151052
      4         11           0       -3.102441   -1.238774   -0.204329
      5         11           0        0.092968   -0.104788    2.128993
      6         11           0        1.616466    2.143845   -0.088569
      7         11           0        3.206766   -0.658825   -0.250781
 ---------------------------------------------------------------------

 SCF Done:  E(UB3LYP) =  -1136.13295685     A.U. after   21 cycles

 The electronic state is 2-A.
 Alpha  occ. eigenvalues --  -38.44323 -38.44289 -38.43804 -38.43480 -38.43459
 Alpha  occ. eigenvalues --  -38.43043 -38.42840  -2.20173  -2.20098  -2.19715
 Alpha  occ. eigenvalues --   -2.19499  -2.19351  -2.18958  -2.18752  -1.13848
 Alpha  occ. eigenvalues --   -1.13830  -1.13821  -1.13771  -1.13760  -1.13737
 Alpha  occ. eigenvalues --   -1.13391  -1.13347  -1.13324  -1.13244  -1.13174
 Alpha  occ. eigenvalues --   -1.13136  -1.13009  -1.12991  -1.12960  -1.12648
 Alpha  occ. eigenvalues --   -1.12614  -1.12577  -1.12453  -1.12431  -1.12354
 Alpha  occ. eigenvalues --   -0.19078  -0.13433  -0.12060  -0.11085
 Alpha virt. eigenvalues --   -0.06086  -0.05101  -0.03835  -0.03404  -0.02860
 Alpha virt. eigenvalues --   -0.02704  -0.01921  -0.01041  -0.00088  -0.00054
 Alpha virt. eigenvalues --    0.00047   0.00322   0.00762   0.00910   0.00928

  Beta  occ. eigenvalues --  -38.44320 -38.44287 -38.43699 -38.43452 -38.43419
  Beta  occ. eigenvalues --  -38.43035 -38.42830  -2.20170  -2.20098  -2.19523
  Beta  occ. eigenvalues --   -2.19388  -2.19342  -2.18948  -2.18739  -1.13849
  Beta  occ. eigenvalues --   -1.13827  -1.13803  -1.13762  -1.13754  -1.13738
  Beta  occ. eigenvalues --   -1.13265  -1.13209  -1.13192  -1.13182  -1.13100
  Beta  occ. eigenvalues --   -1.13058  -1.12984  -1.12958  -1.12949  -1.12637
  Beta  occ. eigenvalues --   -1.12587  -1.12565  -1.12448  -1.12382  -1.12351
  Beta  occ. eigenvalues --   -0.18318  -0.13206  -0.11798
  Beta virt. eigenvalues --   -0.07105  -0.06021  -0.05105  -0.03837  -0.02625
  Beta virt. eigenvalues --   -0.01977  -0.01833  -0.01647  -0.01001  -0.00108
  Beta virt. eigenvalues --    0.00001   0.00088   0.00345   0.00823   0.00898

 Mulliken charges and spin densities:
               1          2
     1  Na   0.389548  -0.025152
     2  Na  -0.649392   0.430133
     3  Na   0.367908   0.007462
     4  Na   0.117878  -0.082180
     5  Na  -0.727023   0.667858
     6  Na   0.483862   0.043283
     7  Na   0.017219  -0.041404
 Sum of Mulliken charges =  -0.00000   1.00000

 Dipole moment (field-independent basis, Debye):
    X=             -0.1691    Y=             -0.1116    Z=              0.1751  Tot=              0.2678
 Quadrupole moment (field-independent basis, Debye-Ang):
   XX=            -51.7161   YY=            -69.2807   ZZ=            -72.4611
   XY=              0.2989   XZ=             -0.7631   YZ=              1.0915

 Normal termination of Gaussian 16 at Tue Dec  5 13:32:50 2023.
