 Gaussian 16, Revision B.01,
 Gaussian 16:  ES64L-G16RevB.01 20-Dec-2017

 -------------------------
 #P B3LYP/6-311+g(d) force
 -------------------------

 -----
 DPGEN
 -----
 Symbolic Z-matrix:
 Charge =  0 Multiplicity = 2

                         Standard orientation:
 ---------------------------------------------------------------------
 Center     Atomic      Atomic             Coordinates (Angstroms)
 Number     Number       Type             X           Y           Z
 ---------------------------------------------------------------------
      1         11           0        0.340496   -2.688753    0.298187
      2         11           0       -3.150663   -0.846505   -1.115090
      3         11           0       -1.342997    2.814283    0.199788
      4         11           0       -0.018920    0.049089   -1.373309
      5         11           0       -1.649436    0.033119    1.723011
      6         11           0        2.476826    0.060952    1.641829
      7         11           0        3.344694    0.577816   -1.374416
 ---------------------------------------------------------------------

 SCF Done:  E(UB3LYP) =  -1136.12374596     A.U. after   24 cycles

 The electronic state is 2-A.
 Alpha  occ. eigenvalues --  -38.44928 -38.44568 -38.44279 -38.43811 -38.43378
 Alpha  occ. eigenvalues --  -38.43074 -38.42864  -2.20755  -2.20389  -2.20107
 Alpha  occ. eigenvalues --   -2.19732  -2.19361  -2.18903  -2.18692  -1.14447
 Alpha  occ. eigenvalues --   -1.14410  -1.14350  -1.14072  -1.14045  -1.14029
 Alpha  occ. eigenvalues --   -1.13773  -1.13743  -1.13733  -1.13423  -1.13386
 Alpha  occ. eigenvalues --   -1.13346  -1.13062  -1.13014  -1.12996  -1.12600
 Alpha  occ. eigenvalues --   -1.12570  -1.12510  -1.12372  -1.12357  -1.12318
 Alpha  occ. eigenvalues --   -0.18244  -0.13604  -0.11228  -0.11185
 Alpha virt. eigenvalues --   -0.06352  -0.05282  -0.04329  -0.03180  -0.02805
 Alpha virt. eigenvalues --   -0.02478  -0.02102  -0.01041  -0.00692  -0.00033
 Alpha virt. eigenvalues --    0.00132   0.00230   0.00284   0.00634   0.00828

  Beta  occ. eigenvalues --  -38.44895 -38.44544 -38.44250 -38.43764 -38.43334
  Beta  occ. eigenvalues --  -38.43068 -38.42861  -2.20695  -2.20345  -2.20054
  Beta  occ. eigenvalues --   -2.19647  -2.19281  -2.18894  -2.18689  -1.14393
  Beta  occ. eigenvalues --   -1.14374  -1.14312  -1.14036  -1.14011  -1.13996
  Beta  occ. eigenvalues --   -1.13726  -1.13711  -1.13698  -1.13368  -1.13314
  Beta  occ. eigenvalues --   -1.13282  -1.12997  -1.12962  -1.12930  -1.12596
  Beta  occ. eigenvalues --   -1.12546  -1.12504  -1.12366  -1.12346  -1.12317
  Beta  occ. eigenvalues --   -0.17559  -0.13360  -0.10979
  Beta virt. eigenvalues --   -0.07470  -0.06242  -0.04517  -0.04223  -0.03119
  Beta virt. eigenvalues --   -0.02083  -0.01941  -0.01783  -0.00649  -0.00572
  Beta virt. eigenvalues --    0.00078   0.00199   0.00315   0.00348   0.00731

 Mulliken charges and spin densities:
               1          2
     1  Na  -0.283666   0.111229
     2  Na   0.581429   0.017271
     3  Na  -0.333388  -0.010940
     4  Na  -0.482563   0.199283
     5  Na   0.159365   0.459274
     6  Na  -0.047971   0.124949
     7  Na   0.406793   0.098933
 Sum of Mulliken charges =  -0.00000   1.00000

 Dipole moment (field-independent basis, Debye):
    X=             -0.0134    Y=             -0.2778    Z=              0.0271  Tot=              0.2794
 Quadrupole moment (field-independent basis, Debye-Ang):
   XX=            -53.1292   YY=            -73.3251   ZZ=            -66.6534
   XY=              2.1278   XZ=              1.7930   YZ=             -0.6165

 Normal termination of Gaussian 16 at Wed Nov 29 16:44:44 2023.
