 Gaussian 16, Revision B.01,
 Gaussian 16:  ES64L-G16RevB.01 20-Dec-2017

 -------------------------
 #P B3LYP/6-311+g(d) force
 -------------------------

 -----
 DPGEN
 -----
 Symbolic Z-matrix:
 Charge =  0 Multiplicity = 2

                         Standard orientation:
 ---------------------------------------------------------------------
 Center     Atomic      Atomic             Coordinates (Angstroms)
 Number     Number       Type             X           Y           Z
 ---------------------------------------------------------------------
      1         11           0       -2.135224   -2.666705   -0.273985
      2         11           0       -1.626696    0.515932   -1.611728
      3         11           0       -1.893454    2.976939    0.516553
      4         11           0        1.332991   -1.907393   -0.273012
      5         11           0        1.171693    1.381734   -0.575318
      6         11           0       -0.905028   -0.589486    2.052965
      7         11           0        4.055718    0.288979    0.164525
 ---------------------------------------------------------------------

 SCF Done:  E(UB3LYP) =  -1136.13162129     A.U. after   19 cycles

 The electronic state is 2-A.
 Alpha  occ. eigenvalues --  -38.44262 -38.43964 -38.43711 -38.43691 -38.43674
 Alpha  occ. eigenvalues --  -38.43332 -38.43298  -2.20076  -2.19832  -2.19544
 Alpha  occ. eigenvalues --   -2.19531  -2.19527  -2.19277  -2.19228  -1.13764
 Alpha  occ. eigenvalues --   -1.13728  -1.13713  -1.13564  -1.13524  -1.13412
 Alpha  occ. eigenvalues --   -1.13232  -1.13215  -1.13211  -1.13195  -1.13181
 Alpha  occ. eigenvalues --   -1.13177  -1.13174  -1.13159  -1.13120  -1.13072
 Alpha  occ. eigenvalues --   -1.12955  -1.12913  -1.12865  -1.12842  -1.12798
 Alpha  occ. eigenvalues --   -0.18308  -0.13193  -0.12500  -0.10599
 Alpha virt. eigenvalues --   -0.06179  -0.05163  -0.04382  -0.03192  -0.02969
 Alpha virt. eigenvalues --   -0.02417  -0.01969  -0.01464  -0.00373  -0.00174
 Alpha virt. eigenvalues --    0.00074   0.00259   0.00702   0.00782   0.00830

  Beta  occ. eigenvalues --  -38.44268 -38.43955 -38.43704 -38.43683 -38.43588
  Beta  occ. eigenvalues --  -38.43317 -38.43240  -2.20086  -2.19820  -2.19519
  Beta  occ. eigenvalues --   -2.19515  -2.19384  -2.19253  -2.19124  -1.13771
  Beta  occ. eigenvalues --   -1.13732  -1.13720  -1.13558  -1.13487  -1.13409
  Beta  occ. eigenvalues --   -1.13208  -1.13202  -1.13169  -1.13168  -1.13158
  Beta  occ. eigenvalues --   -1.13152  -1.13106  -1.13068  -1.13034  -1.13020
  Beta  occ. eigenvalues --   -1.12920  -1.12870  -1.12804  -1.12789  -1.12728
  Beta  occ. eigenvalues --   -0.17609  -0.13055  -0.12319
  Beta virt. eigenvalues --   -0.06676  -0.05988  -0.05083  -0.04287  -0.02534
  Beta virt. eigenvalues --   -0.02422  -0.01929  -0.01432  -0.01371  -0.00300
  Beta virt. eigenvalues --    0.00004   0.00167   0.00320   0.00771   0.00842

 Mulliken charges and spin densities:
               1          2
     1  Na   0.590902   0.256719
     2  Na   0.121919   0.085390
     3  Na  -0.045980   0.021578
     4  Na  -0.147000   0.089771
     5  Na  -0.479498   0.214704
     6  Na  -0.508334   0.442717
     7  Na   0.467992  -0.110880
 Sum of Mulliken charges =  -0.00000   1.00000

 Dipole moment (field-independent basis, Debye):
    X=              0.4033    Y=             -0.1126    Z=              0.2777  Tot=              0.5024
 Quadrupole moment (field-independent basis, Debye-Ang):
   XX=            -54.3447   YY=            -63.2513   ZZ=            -74.1304
   XY=              0.1731   XZ=              1.2607   YZ=              2.7878

 Normal termination of Gaussian 16 at Tue Dec  5 20:14:36 2023.
