 Gaussian 16, Revision B.01,
 Gaussian 16:  ES64L-G16RevB.01 20-Dec-2017

 -------------------------
 #P B3LYP/6-311+g(d) force
 -------------------------

 -----
 DPGEN
 -----
 Symbolic Z-matrix:
 Charge =  0 Multiplicity = 2

                         Standard orientation:
 ---------------------------------------------------------------------
 Center     Atomic      Atomic             Coordinates (Angstroms)
 Number     Number       Type             X           Y           Z
 ---------------------------------------------------------------------
      1         11           0        0.073165    1.265447   -1.823709
      2         11           0        0.209844   -1.741976   -1.549322
      3         11           0        2.255728   -1.802289    0.756646
      4         11           0        2.837484    1.855490    0.136168
      5         11           0       -0.421246    0.063725    2.193723
      6         11           0       -2.479956    1.948847    0.292664
      7         11           0       -2.475019   -1.589243   -0.006172
 ---------------------------------------------------------------------

 SCF Done:  E(UB3LYP) =  -1136.12378535     A.U. after   23 cycles

 The electronic state is 2-A.
 Alpha  occ. eigenvalues --  -38.44703 -38.44053 -38.44010 -38.44004 -38.43909
 Alpha  occ. eigenvalues --  -38.43710 -38.43390  -2.20568  -2.19863  -2.19853
 Alpha  occ. eigenvalues --   -2.19822  -2.19816  -2.19545  -2.19356  -1.14227
 Alpha  occ. eigenvalues --   -1.14208  -1.14195  -1.13577  -1.13562  -1.13555
 Alpha  occ. eigenvalues --   -1.13531  -1.13520  -1.13508  -1.13486  -1.13483
 Alpha  occ. eigenvalues --   -1.13478  -1.13450  -1.13449  -1.13407  -1.13220
 Alpha  occ. eigenvalues --   -1.13204  -1.13175  -1.13019  -1.12977  -1.12965
 Alpha  occ. eigenvalues --   -0.18555  -0.12984  -0.12100  -0.11718
 Alpha virt. eigenvalues --   -0.05773  -0.05337  -0.03976  -0.03535  -0.03433
 Alpha virt. eigenvalues --   -0.03286  -0.01470  -0.01087  -0.00262   0.00171
 Alpha virt. eigenvalues --    0.00230   0.00393   0.00503   0.00704   0.00730

  Beta  occ. eigenvalues --  -38.44621 -38.44058 -38.43998 -38.43994 -38.43840
  Beta  occ. eigenvalues --  -38.43708 -38.43341  -2.20417  -2.19856  -2.19834
  Beta  occ. eigenvalues --   -2.19823  -2.19692  -2.19543  -2.19269  -1.14130
  Beta  occ. eigenvalues --   -1.14101  -1.14080  -1.13563  -1.13543  -1.13508
  Beta  occ. eigenvalues --   -1.13502  -1.13492  -1.13488  -1.13484  -1.13478
  Beta  occ. eigenvalues --   -1.13456  -1.13439  -1.13369  -1.13328  -1.13207
  Beta  occ. eigenvalues --   -1.13197  -1.13173  -1.12951  -1.12920  -1.12898
  Beta  occ. eigenvalues --   -0.17725  -0.12764  -0.11575
  Beta virt. eigenvalues --   -0.08063  -0.05764  -0.05055  -0.03345  -0.03168
  Beta virt. eigenvalues --   -0.02808  -0.02451  -0.01376  -0.01000  -0.00051
  Beta virt. eigenvalues --    0.00133   0.00244   0.00430   0.00591   0.00817

 Mulliken charges and spin densities:
               1          2
     1  Na  -0.127936   0.393846
     2  Na   0.879960  -0.165049
     3  Na  -0.293029   0.303912
     4  Na  -0.277016  -0.039193
     5  Na   0.239473   0.346648
     6  Na   0.096988  -0.015877
     7  Na  -0.518439   0.175712
 Sum of Mulliken charges =  -0.00000   1.00000

 Dipole moment (field-independent basis, Debye):
    X=             -0.1029    Y=              0.1261    Z=              0.6640  Tot=              0.6837
 Quadrupole moment (field-independent basis, Debye-Ang):
   XX=            -59.2618   YY=            -70.3373   ZZ=            -67.1559
   XY=             -0.2335   XZ=              1.6620   YZ=             -0.1731

 Normal termination of Gaussian 16 at Tue Dec  5 09:47:04 2023.
