 Gaussian 16, Revision B.01,
 Gaussian 16:  ES64L-G16RevB.01 20-Dec-2017

 -------------------------
 #P B3LYP/6-311+g(d) force
 -------------------------

 -----
 DPGEN
 -----
 Symbolic Z-matrix:
 Charge =  0 Multiplicity = 2

                         Standard orientation:
 ---------------------------------------------------------------------
 Center     Atomic      Atomic             Coordinates (Angstroms)
 Number     Number       Type             X           Y           Z
 ---------------------------------------------------------------------
      1         11           0       -1.910457   -2.453154   -0.116430
      2         11           0       -0.173055    2.927656   -0.114901
      3         11           0        3.072189    1.133207    0.171906
      4         11           0       -0.343662   -0.303710    1.708864
      5         11           0       -0.054194   -0.087742   -1.602080
      6         11           0       -2.664980    1.107340    0.036245
      7         11           0        2.074160   -2.323598   -0.083603
 ---------------------------------------------------------------------

 SCF Done:  E(UB3LYP) =  -1136.13575234     A.U. after   20 cycles

 The electronic state is 2-A.
 Alpha  occ. eigenvalues --  -38.44092 -38.44082 -38.43779 -38.43641 -38.43406
 Alpha  occ. eigenvalues --  -38.43012 -38.42846  -2.19895  -2.19878  -2.19638
 Alpha  occ. eigenvalues --   -2.19575  -2.19286  -2.18994  -2.18851  -1.13579
 Alpha  occ. eigenvalues --   -1.13568  -1.13552  -1.13538  -1.13532  -1.13503
 Alpha  occ. eigenvalues --   -1.13330  -1.13311  -1.13299  -1.13268  -1.13238
 Alpha  occ. eigenvalues --   -1.13213  -1.12960  -1.12936  -1.12917  -1.12698
 Alpha  occ. eigenvalues --   -1.12615  -1.12606  -1.12535  -1.12473  -1.12466
 Alpha  occ. eigenvalues --   -0.18892  -0.13035  -0.12716  -0.10274
 Alpha virt. eigenvalues --   -0.05700  -0.05290  -0.04937  -0.02942  -0.02776
 Alpha virt. eigenvalues --   -0.02032  -0.01489  -0.01379  -0.00553  -0.00388
 Alpha virt. eigenvalues --    0.00045   0.00348   0.00813   0.00847   0.00887

  Beta  occ. eigenvalues --  -38.44091 -38.44078 -38.43771 -38.43630 -38.43401
  Beta  occ. eigenvalues --  -38.42935 -38.42773  -2.19892  -2.19879  -2.19629
  Beta  occ. eigenvalues --   -2.19561  -2.19280  -2.18853  -2.18718  -1.13573
  Beta  occ. eigenvalues --   -1.13550  -1.13541  -1.13538  -1.13534  -1.13504
  Beta  occ. eigenvalues --   -1.13325  -1.13294  -1.13276  -1.13262  -1.13211
  Beta  occ. eigenvalues --   -1.13183  -1.12953  -1.12920  -1.12905  -1.12604
  Beta  occ. eigenvalues --   -1.12511  -1.12504  -1.12442  -1.12375  -1.12369
  Beta  occ. eigenvalues --   -0.18171  -0.12789  -0.12468
  Beta virt. eigenvalues --   -0.06376  -0.05699  -0.05241  -0.04923  -0.02167
  Beta virt. eigenvalues --   -0.02020  -0.01425  -0.01305  -0.01020  -0.00598
  Beta virt. eigenvalues --   -0.00440   0.00181   0.00384   0.00814   0.00871

 Mulliken charges and spin densities:
               1          2
     1  Na   0.252471  -0.136748
     2  Na  -0.017186  -0.059909
     3  Na  -0.086989  -0.065801
     4  Na  -0.374966   0.750802
     5  Na  -0.280367   0.629997
     6  Na   0.524332   0.023759
     7  Na  -0.017295  -0.142100
 Sum of Mulliken charges =  -0.00000   1.00000

 Dipole moment (field-independent basis, Debye):
    X=              0.2558    Y=             -0.2999    Z=              0.0246  Tot=              0.3949
 Quadrupole moment (field-independent basis, Debye-Ang):
   XX=            -56.2981   YY=            -58.2815   ZZ=            -77.0663
   XY=              0.6691   XZ=              0.7524   YZ=              0.5647

 Normal termination of Gaussian 16 at Thu Dec  7 04:10:56 2023.
