 Gaussian 16, Revision B.01,
 Gaussian 16:  ES64L-G16RevB.01 20-Dec-2017

 -------------------------
 #P B3LYP/6-311+g(d) force
 -------------------------

 -----
 DPGEN
 -----
 Symbolic Z-matrix:
 Charge =  0 Multiplicity = 2

                         Standard orientation:
 ---------------------------------------------------------------------
 Center     Atomic      Atomic             Coordinates (Angstroms)
 Number     Number       Type             X           Y           Z
 ---------------------------------------------------------------------
      1         11           0       -1.338861    2.955405   -0.694722
      2         11           0        0.030258    0.062200   -1.707483
      3         11           0        3.525365    1.157933   -0.002445
      4         11           0        1.910003   -2.328902    0.193837
      5         11           0       -1.311482   -2.376367   -0.538379
      6         11           0        0.351587    0.819136    1.921347
      7         11           0       -3.166870   -0.289405    0.827845
 ---------------------------------------------------------------------

 SCF Done:  E(UB3LYP) =  -1136.12630408     A.U. after   20 cycles

 The electronic state is 2-A.
 Alpha  occ. eigenvalues --  -38.44877 -38.44320 -38.44108 -38.43978 -38.43785
 Alpha  occ. eigenvalues --  -38.43459 -38.42956  -2.20623  -2.20145  -2.19928
 Alpha  occ. eigenvalues --   -2.19796  -2.19583  -2.19404  -2.18883  -1.14301
 Alpha  occ. eigenvalues --   -1.14280  -1.14259  -1.13838  -1.13798  -1.13759
 Alpha  occ. eigenvalues --   -1.13614  -1.13578  -1.13536  -1.13483  -1.13470
 Alpha  occ. eigenvalues --   -1.13421  -1.13270  -1.13230  -1.13215  -1.13123
 Alpha  occ. eigenvalues --   -1.13051  -1.13004  -1.12566  -1.12527  -1.12515
 Alpha  occ. eigenvalues --   -0.18068  -0.12908  -0.12220  -0.10758
 Alpha virt. eigenvalues --   -0.06448  -0.05312  -0.04279  -0.03226  -0.03016
 Alpha virt. eigenvalues --   -0.02524  -0.02027  -0.01319  -0.00623  -0.00197
 Alpha virt. eigenvalues --   -0.00028   0.00311   0.00516   0.00702   0.00809

  Beta  occ. eigenvalues --  -38.44882 -38.44288 -38.44053 -38.43977 -38.43760
  Beta  occ. eigenvalues --  -38.43384 -38.42947  -2.20633  -2.20086  -2.19826
  Beta  occ. eigenvalues --   -2.19797  -2.19539  -2.19267  -2.18871  -1.14299
  Beta  occ. eigenvalues --   -1.14289  -1.14266  -1.13801  -1.13744  -1.13721
  Beta  occ. eigenvalues --   -1.13546  -1.13505  -1.13485  -1.13459  -1.13459
  Beta  occ. eigenvalues --   -1.13420  -1.13225  -1.13201  -1.13183  -1.13031
  Beta  occ. eigenvalues --   -1.12956  -1.12905  -1.12551  -1.12513  -1.12491
  Beta  occ. eigenvalues --   -0.17400  -0.12673  -0.11928
  Beta virt. eigenvalues --   -0.07031  -0.06305  -0.05174  -0.04179  -0.02659
  Beta virt. eigenvalues --   -0.02348  -0.01981  -0.01476  -0.01198  -0.00606
  Beta virt. eigenvalues --   -0.00154   0.00083   0.00364   0.00603   0.00743

 Mulliken charges and spin densities:
               1          2
     1  Na  -0.107899   0.042371
     2  Na   0.258817   0.267621
     3  Na   0.009438  -0.036266
     4  Na  -0.163467  -0.008500
     5  Na   0.281749   0.138477
     6  Na  -0.131406   0.443171
     7  Na  -0.147231   0.153126
 Sum of Mulliken charges =  -0.00000   1.00000

 Dipole moment (field-independent basis, Debye):
    X=              0.6713    Y=              0.4370    Z=              0.2680  Tot=              0.8447
 Quadrupole moment (field-independent basis, Debye-Ang):
   XX=            -54.9886   YY=            -65.1326   ZZ=            -73.5184
   XY=             -0.1211   XZ=             -1.4089   YZ=             -1.6464

 Normal termination of Gaussian 16 at Fri Dec  8 01:50:09 2023.
