 Gaussian 16, Revision B.01,
 Gaussian 16:  ES64L-G16RevB.01 20-Dec-2017

 -------------------------
 #P B3LYP/6-311+g(d) force
 -------------------------

 -----
 DPGEN
 -----
 Symbolic Z-matrix:
 Charge =  0 Multiplicity = 2

                         Standard orientation:
 ---------------------------------------------------------------------
 Center     Atomic      Atomic             Coordinates (Angstroms)
 Number     Number       Type             X           Y           Z
 ---------------------------------------------------------------------
      1         11           0       -1.198563   -0.005867    1.719301
      2         11           0        1.834372   -1.617127    0.474869
      3         11           0       -3.966366   -0.659281   -0.160837
      4         11           0        1.519144    1.485081   -0.614443
      5         11           0       -1.852686    2.624696   -0.239224
      6         11           0       -1.150043   -1.969920   -1.126888
      7         11           0        4.814142    0.142419   -0.052778
 ---------------------------------------------------------------------

 SCF Done:  E(UB3LYP) =  -1136.12408541     A.U. after   23 cycles

 The electronic state is 2-A.
 Alpha  occ. eigenvalues --  -38.45088 -38.44086 -38.43905 -38.43861 -38.43788
 Alpha  occ. eigenvalues --  -38.43412 -38.43013  -2.20975  -2.19909  -2.19737
 Alpha  occ. eigenvalues --   -2.19726  -2.19644  -2.19301  -2.18832  -1.14655
 Alpha  occ. eigenvalues --   -1.14650  -1.14592  -1.13558  -1.13552  -1.13520
 Alpha  occ. eigenvalues --   -1.13447  -1.13437  -1.13414  -1.13383  -1.13338
 Alpha  occ. eigenvalues --   -1.13336  -1.13316  -1.13300  -1.13268  -1.12992
 Alpha  occ. eigenvalues --   -1.12986  -1.12905  -1.12514  -1.12498  -1.12465
 Alpha  occ. eigenvalues --   -0.18011  -0.14333  -0.11577  -0.10742
 Alpha virt. eigenvalues --   -0.07092  -0.05101  -0.04313  -0.03441  -0.03189
 Alpha virt. eigenvalues --   -0.02181  -0.01677  -0.01378  -0.01092  -0.00680
 Alpha virt. eigenvalues --   -0.00391   0.00051   0.00373   0.00630   0.00770

  Beta  occ. eigenvalues --  -38.45067 -38.44001 -38.43903 -38.43789 -38.43782
  Beta  occ. eigenvalues --  -38.43391 -38.43013  -2.20940  -2.19749  -2.19738
  Beta  occ. eigenvalues --   -2.19638  -2.19590  -2.19269  -2.18834  -1.14637
  Beta  occ. eigenvalues --   -1.14592  -1.14570  -1.13451  -1.13448  -1.13440
  Beta  occ. eigenvalues --   -1.13437  -1.13416  -1.13354  -1.13318  -1.13317
  Beta  occ. eigenvalues --   -1.13297  -1.13276  -1.13245  -1.13215  -1.12976
  Beta  occ. eigenvalues --   -1.12958  -1.12851  -1.12517  -1.12501  -1.12454
  Beta  occ. eigenvalues --   -0.17418  -0.13585  -0.11356
  Beta virt. eigenvalues --   -0.07249  -0.06904  -0.04970  -0.03513  -0.03266
  Beta virt. eigenvalues --   -0.02911  -0.02106  -0.01216  -0.01169  -0.00555
  Beta virt. eigenvalues --   -0.00332  -0.00174   0.00126   0.00477   0.00706

 Mulliken charges and spin densities:
               1          2
     1  Na  -0.196687   0.089881
     2  Na  -0.069304   0.071351
     3  Na   0.332723   0.423628
     4  Na  -0.569823  -0.019918
     5  Na   0.080676   0.020020
     6  Na  -0.122347  -0.013685
     7  Na   0.544763   0.428723
 Sum of Mulliken charges =  -0.00000   1.00000

 Dipole moment (field-independent basis, Debye):
    X=             -0.1176    Y=             -0.2624    Z=              0.3923  Tot=              0.4863
 Quadrupole moment (field-independent basis, Debye-Ang):
   XX=            -64.7469   YY=            -76.0117   ZZ=            -62.2066
   XY=             -2.4896   XZ=             -0.0982   YZ=             -1.8444

 Normal termination of Gaussian 16 at Wed Nov 29 03:02:56 2023.
