 Gaussian 16, Revision B.01,
 Gaussian 16:  ES64L-G16RevB.01 20-Dec-2017

 -------------------------
 #P B3LYP/6-311+g(d) force
 -------------------------

 -----
 DPGEN
 -----
 Symbolic Z-matrix:
 Charge =  0 Multiplicity = 2

                         Standard orientation:
 ---------------------------------------------------------------------
 Center     Atomic      Atomic             Coordinates (Angstroms)
 Number     Number       Type             X           Y           Z
 ---------------------------------------------------------------------
      1         11           0        2.346059    2.014804   -0.194868
      2         11           0       -1.384271   -2.132751   -0.585904
      3         11           0       -3.544649    0.133246    0.092988
      4         11           0        1.147152   -0.587939   -1.797034
      5         11           0        2.981097   -1.404304    0.738054
      6         11           0       -1.203547    1.938276   -0.503785
      7         11           0       -0.341843    0.038668    2.250550
 ---------------------------------------------------------------------

 SCF Done:  E(UB3LYP) =  -1136.12503073     A.U. after   23 cycles

 The electronic state is 2-A.
 Alpha  occ. eigenvalues --  -38.44971 -38.44724 -38.44704 -38.43561 -38.43549
 Alpha  occ. eigenvalues --  -38.43091 -38.42942  -2.20837  -2.20538  -2.20532
 Alpha  occ. eigenvalues --   -2.19497  -2.19388  -2.18961  -2.18843  -1.14539
 Alpha  occ. eigenvalues --   -1.14486  -1.14470  -1.14210  -1.14206  -1.14186
 Alpha  occ. eigenvalues --   -1.14173  -1.14168  -1.14146  -1.13188  -1.13171
 Alpha  occ. eigenvalues --   -1.13130  -1.13050  -1.13035  -1.13021  -1.12651
 Alpha  occ. eigenvalues --   -1.12617  -1.12592  -1.12522  -1.12501  -1.12492
 Alpha  occ. eigenvalues --   -0.18558  -0.13946  -0.11339  -0.11301
 Alpha virt. eigenvalues --   -0.06645  -0.05287  -0.04301  -0.03303  -0.02950
 Alpha virt. eigenvalues --   -0.02619  -0.02147  -0.01055  -0.00388  -0.00127
 Alpha virt. eigenvalues --    0.00160   0.00244   0.00368   0.00668   0.00823

  Beta  occ. eigenvalues --  -38.44973 -38.44709 -38.44612 -38.43544 -38.43508
  Beta  occ. eigenvalues --  -38.43078 -38.42930  -2.20842  -2.20508  -2.20367
  Beta  occ. eigenvalues --   -2.19400  -2.19381  -2.18940  -2.18825  -1.14544
  Beta  occ. eigenvalues --   -1.14493  -1.14461  -1.14190  -1.14158  -1.14156
  Beta  occ. eigenvalues --   -1.14092  -1.14052  -1.14022  -1.13122  -1.13121
  Beta  occ. eigenvalues --   -1.13060  -1.13029  -1.13019  -1.13003  -1.12631
  Beta  occ. eigenvalues --   -1.12589  -1.12577  -1.12512  -1.12484  -1.12462
  Beta  occ. eigenvalues --   -0.17827  -0.13795  -0.11066
  Beta virt. eigenvalues --   -0.07419  -0.06417  -0.05298  -0.03647  -0.03102
  Beta virt. eigenvalues --   -0.02142  -0.01936  -0.01857  -0.00965  -0.00271
  Beta virt. eigenvalues --   -0.00014   0.00145   0.00301   0.00569   0.00773

 Mulliken charges and spin densities:
               1          2
     1  Na   0.037591  -0.010925
     2  Na  -0.405532   0.073793
     3  Na   0.878895  -0.007559
     4  Na   0.446255   0.221316
     5  Na  -0.007668   0.029127
     6  Na  -0.571424   0.059211
     7  Na  -0.378118   0.635038
 Sum of Mulliken charges =  -0.00000   1.00000

 Dipole moment (field-independent basis, Debye):
    X=             -0.0583    Y=             -0.1132    Z=              0.6096  Tot=              0.6228
 Quadrupole moment (field-independent basis, Debye-Ang):
   XX=            -49.2344   YY=            -75.4981   ZZ=            -70.1293
   XY=             -0.3653   XZ=              1.1765   YZ=             -1.8115

 Normal termination of Gaussian 16 at Fri Dec  8 01:12:37 2023.
