 Gaussian 16, Revision B.01,
 Gaussian 16:  ES64L-G16RevB.01 20-Dec-2017

 -------------------------
 #P B3LYP/6-311+g(d) force
 -------------------------

 -----
 DPGEN
 -----
 Symbolic Z-matrix:
 Charge =  0 Multiplicity = 2

                         Standard orientation:
 ---------------------------------------------------------------------
 Center     Atomic      Atomic             Coordinates (Angstroms)
 Number     Number       Type             X           Y           Z
 ---------------------------------------------------------------------
      1         11           0       -2.347618   -0.199670    0.702543
      2         11           0       -3.955772   -2.595184   -0.531870
      3         11           0        2.957535    0.042254    1.151846
      4         11           0       -3.207990    2.579531   -0.611116
      5         11           0        6.031636   -0.288861   -0.977579
      6         11           0        0.471569   -2.056540    0.145364
      7         11           0        0.050640    2.518470    0.120812
 ---------------------------------------------------------------------

 SCF Done:  E(UB3LYP) =  -1136.11673417     A.U. after   18 cycles

 The electronic state is 2-A.
 Alpha  occ. eigenvalues --  -38.45020 -38.44655 -38.44198 -38.44126 -38.43951
 Alpha  occ. eigenvalues --  -38.43880 -38.43433  -2.20806  -2.20450  -2.19994
 Alpha  occ. eigenvalues --   -2.19915  -2.19784  -2.19664  -2.19355  -1.14437
 Alpha  occ. eigenvalues --   -1.14437  -1.14407  -1.14135  -1.14127  -1.14044
 Alpha  occ. eigenvalues --   -1.13684  -1.13671  -1.13615  -1.13601  -1.13571
 Alpha  occ. eigenvalues --   -1.13541  -1.13474  -1.13438  -1.13394  -1.13349
 Alpha  occ. eigenvalues --   -1.13341  -1.13309  -1.13056  -1.13042  -1.12952
 Alpha  occ. eigenvalues --   -0.16628  -0.13840  -0.12049  -0.11313
 Alpha virt. eigenvalues --   -0.06175  -0.05395  -0.04938  -0.03685  -0.02603
 Alpha virt. eigenvalues --   -0.02304  -0.02103  -0.01495  -0.01149  -0.00677
 Alpha virt. eigenvalues --   -0.00606  -0.00206   0.00037   0.00222   0.00626

  Beta  occ. eigenvalues --  -38.44886 -38.44620 -38.44193 -38.44109 -38.43938
  Beta  occ. eigenvalues --  -38.43887 -38.43427  -2.20556  -2.20386  -2.19984
  Beta  occ. eigenvalues --   -2.19883  -2.19760  -2.19683  -2.19348  -1.14268
  Beta  occ. eigenvalues --   -1.14267  -1.14241  -1.14088  -1.14083  -1.14002
  Beta  occ. eigenvalues --   -1.13678  -1.13664  -1.13605  -1.13578  -1.13550
  Beta  occ. eigenvalues --   -1.13521  -1.13456  -1.13422  -1.13379  -1.13367
  Beta  occ. eigenvalues --   -1.13360  -1.13278  -1.13041  -1.13021  -1.12951
  Beta  occ. eigenvalues --   -0.16235  -0.12968  -0.11965
  Beta virt. eigenvalues --   -0.07678  -0.05889  -0.04869  -0.04800  -0.03527
  Beta virt. eigenvalues --   -0.02326  -0.02037  -0.01484  -0.01393  -0.00874
  Beta virt. eigenvalues --   -0.00409  -0.00169  -0.00011   0.00147   0.00412

 Mulliken charges and spin densities:
               1          2
     1  Na  -0.941505  -0.079353
     2  Na   0.368265   0.129371
     3  Na  -0.022971  -0.246029
     4  Na   0.626760   0.162903
     5  Na  -0.003769   0.703874
     6  Na   0.036443   0.253002
     7  Na  -0.063222   0.076231
 Sum of Mulliken charges =  -0.00000   1.00000

 Dipole moment (field-independent basis, Debye):
    X=             -0.5321    Y=              0.0345    Z=             -0.7260  Tot=              0.9008
 Quadrupole moment (field-independent basis, Debye-Ang):
   XX=            -61.7713   YY=            -66.5314   ZZ=            -69.3460
   XY=              0.5045   XZ=              2.4581   YZ=              1.7178

 Normal termination of Gaussian 16 at Tue Nov 28 21:09:36 2023.
