 Gaussian 16, Revision B.01,
 Gaussian 16:  ES64L-G16RevB.01 20-Dec-2017

 -------------------------
 #P B3LYP/6-311+g(d) force
 -------------------------

 -----
 DPGEN
 -----
 Symbolic Z-matrix:
 Charge =  0 Multiplicity = 2

                         Standard orientation:
 ---------------------------------------------------------------------
 Center     Atomic      Atomic             Coordinates (Angstroms)
 Number     Number       Type             X           Y           Z
 ---------------------------------------------------------------------
      1         11           0        1.943106    2.342429    0.108188
      2         11           0       -0.399417    0.017975    2.012418
      3         11           0       -0.938916   -2.651508    0.103947
      4         11           0        2.166656   -1.780911    0.454953
      5         11           0        4.097210    0.018978   -1.474635
      6         11           0       -4.652005   -0.532873   -1.263289
      7         11           0       -2.216634    2.585910    0.058418
 ---------------------------------------------------------------------

 SCF Done:  E(UB3LYP) =  -1136.11811764     A.U. after   21 cycles

 The electronic state is 2-A.
 Alpha  occ. eigenvalues --  -38.45292 -38.44443 -38.44342 -38.44305 -38.43929
 Alpha  occ. eigenvalues --  -38.43671 -38.43632  -2.21056  -2.20293  -2.20105
 Alpha  occ. eigenvalues --   -2.20033  -2.19751  -2.19504  -2.19492  -1.14699
 Alpha  occ. eigenvalues --   -1.14685  -1.14660  -1.13978  -1.13968  -1.13887
 Alpha  occ. eigenvalues --   -1.13808  -1.13788  -1.13728  -1.13713  -1.13706
 Alpha  occ. eigenvalues --   -1.13669  -1.13429  -1.13401  -1.13370  -1.13225
 Alpha  occ. eigenvalues --   -1.13198  -1.13162  -1.13154  -1.13145  -1.13066
 Alpha  occ. eigenvalues --   -0.16847  -0.13572  -0.11965  -0.11474
 Alpha virt. eigenvalues --   -0.06113  -0.05648  -0.04953  -0.03596  -0.03099
 Alpha virt. eigenvalues --   -0.02374  -0.01992  -0.01179  -0.01016  -0.00729
 Alpha virt. eigenvalues --   -0.00453   0.00051   0.00139   0.00263   0.00538

  Beta  occ. eigenvalues --  -38.45171 -38.44397 -38.44338 -38.44321 -38.43887
  Beta  occ. eigenvalues --  -38.43675 -38.43624  -2.20829  -2.20208  -2.20101
  Beta  occ. eigenvalues --   -2.20067  -2.19672  -2.19500  -2.19493  -1.14545
  Beta  occ. eigenvalues --   -1.14530  -1.14510  -1.13923  -1.13914  -1.13822
  Beta  occ. eigenvalues --   -1.13804  -1.13785  -1.13753  -1.13731  -1.13697
  Beta  occ. eigenvalues --   -1.13672  -1.13373  -1.13347  -1.13321  -1.13225
  Beta  occ. eigenvalues --   -1.13181  -1.13165  -1.13157  -1.13138  -1.13051
  Beta  occ. eigenvalues --   -0.16406  -0.12722  -0.11868
  Beta virt. eigenvalues --   -0.07945  -0.05885  -0.05233  -0.04536  -0.03545
  Beta virt. eigenvalues --   -0.02536  -0.01972  -0.01563  -0.01014  -0.00901
  Beta virt. eigenvalues --   -0.00499  -0.00288   0.00296   0.00355   0.00413

 Mulliken charges and spin densities:
               1          2
     1  Na  -0.419354  -0.029742
     2  Na   0.730357   0.066842
     3  Na  -0.137676   0.047688
     4  Na  -0.439136   0.045111
     5  Na   0.445613   0.246937
     6  Na  -0.018872   0.652601
     7  Na  -0.160932  -0.029438
 Sum of Mulliken charges =  -0.00000   1.00000

 Dipole moment (field-independent basis, Debye):
    X=             -0.0070    Y=             -0.0285    Z=             -0.2039  Tot=              0.2060
 Quadrupole moment (field-independent basis, Debye-Ang):
   XX=            -63.5446   YY=            -69.0366   ZZ=            -67.5916
   XY=              0.4595   XZ=             -0.4337   YZ=              1.4087

 Normal termination of Gaussian 16 at Tue Nov 28 22:05:46 2023.
