 Gaussian 16, Revision B.01,
 Gaussian 16:  ES64L-G16RevB.01 20-Dec-2017

 -------------------------
 #P B3LYP/6-311+g(d) force
 -------------------------

 -----
 DPGEN
 -----
 Symbolic Z-matrix:
 Charge =  0 Multiplicity = 2

                         Standard orientation:
 ---------------------------------------------------------------------
 Center     Atomic      Atomic             Coordinates (Angstroms)
 Number     Number       Type             X           Y           Z
 ---------------------------------------------------------------------
      1         11           0        3.302935    0.402055    1.810057
      2         11           0        0.050860   -1.832536    1.709975
      3         11           0       -1.008263   -2.208197   -1.334751
      4         11           0        2.894682    2.039432   -1.118947
      5         11           0       -3.211146    2.854890    0.192428
      6         11           0       -3.992126   -0.380788    0.181911
      7         11           0        1.963059   -0.874856   -1.440673
 ---------------------------------------------------------------------

 SCF Done:  E(UB3LYP) =  -1136.11542086     A.U. after   20 cycles

 The electronic state is 2-A.
 Alpha  occ. eigenvalues --  -38.44512 -38.44465 -38.44162 -38.44122 -38.44090
 Alpha  occ. eigenvalues --  -38.44049 -38.43560  -2.20326  -2.20278  -2.20008
 Alpha  occ. eigenvalues --   -2.19952  -2.19871  -2.19866  -2.19416  -1.13998
 Alpha  occ. eigenvalues --   -1.13977  -1.13949  -1.13946  -1.13931  -1.13907
 Alpha  occ. eigenvalues --   -1.13769  -1.13654  -1.13634  -1.13625  -1.13593
 Alpha  occ. eigenvalues --   -1.13562  -1.13551  -1.13538  -1.13536  -1.13534
 Alpha  occ. eigenvalues --   -1.13514  -1.13458  -1.13088  -1.13065  -1.13051
 Alpha  occ. eigenvalues --   -0.17015  -0.13757  -0.11684  -0.11217
 Alpha virt. eigenvalues --   -0.06488  -0.05559  -0.04712  -0.03760  -0.03019
 Alpha virt. eigenvalues --   -0.02396  -0.01904  -0.01384  -0.00680  -0.00583
 Alpha virt. eigenvalues --   -0.00461  -0.00205   0.00209   0.00334   0.00528

  Beta  occ. eigenvalues --  -38.44456 -38.44418 -38.44137 -38.44129 -38.44086
  Beta  occ. eigenvalues --  -38.44001 -38.43544  -2.20222  -2.20191  -2.19964
  Beta  occ. eigenvalues --   -2.19885  -2.19867  -2.19860  -2.19388  -1.13929
  Beta  occ. eigenvalues --   -1.13907  -1.13890  -1.13875  -1.13865  -1.13832
  Beta  occ. eigenvalues --   -1.13720  -1.13622  -1.13595  -1.13571  -1.13565
  Beta  occ. eigenvalues --   -1.13553  -1.13546  -1.13538  -1.13520  -1.13512
  Beta  occ. eigenvalues --   -1.13479  -1.13460  -1.13064  -1.13042  -1.13030
  Beta  occ. eigenvalues --   -0.16317  -0.13630  -0.11616
  Beta virt. eigenvalues --   -0.07276  -0.06410  -0.04979  -0.04394  -0.03581
  Beta virt. eigenvalues --   -0.02182  -0.02041  -0.01810  -0.01339  -0.00554
  Beta virt. eigenvalues --   -0.00483  -0.00143   0.00066   0.00362   0.00475

 Mulliken charges and spin densities:
               1          2
     1  Na   0.058434   0.254780
     2  Na  -0.234408   0.287729
     3  Na   0.377807   0.075602
     4  Na   0.079821   0.040939
     5  Na  -0.050760  -0.043905
     6  Na  -0.120072   0.009689
     7  Na  -0.110821   0.375165
 Sum of Mulliken charges =  -0.00000   1.00000

 Dipole moment (field-independent basis, Debye):
    X=              0.6111    Y=              0.1920    Z=              0.1692  Tot=              0.6625
 Quadrupole moment (field-independent basis, Debye-Ang):
   XX=            -68.8738   YY=            -63.5638   ZZ=            -69.5525
   XY=              6.8814   XZ=              1.6050   YZ=             -0.6158

 Normal termination of Gaussian 16 at Mon Dec  4 02:16:35 2023.
