 Gaussian 16, Revision B.01,
 Gaussian 16:  ES64L-G16RevB.01 20-Dec-2017

 -------------------------
 #P B3LYP/6-311+g(d) force
 -------------------------

 -----
 DPGEN
 -----
 Symbolic Z-matrix:
 Charge =  0 Multiplicity = 2

                         Standard orientation:
 ---------------------------------------------------------------------
 Center     Atomic      Atomic             Coordinates (Angstroms)
 Number     Number       Type             X           Y           Z
 ---------------------------------------------------------------------
      1         11           0       -0.575555   -0.413405   -0.841496
      2         11           0        1.949225   -0.415655    2.143837
      3         11           0        2.716003    0.555834   -1.137519
      4         11           0       -2.828981    1.804612    0.163877
      5         11           0        1.459512   -2.419454   -0.461872
      6         11           0       -3.315237   -1.833794    0.131748
      7         11           0        0.595032    2.721863    0.001425
 ---------------------------------------------------------------------

 SCF Done:  E(UB3LYP) =  -1136.12429464     A.U. after   22 cycles

 The electronic state is 2-A.
 Alpha  occ. eigenvalues --  -38.44696 -38.44425 -38.44158 -38.43787 -38.43640
 Alpha  occ. eigenvalues --  -38.43020 -38.42989  -2.20479  -2.20234  -2.20072
 Alpha  occ. eigenvalues --   -2.19709  -2.19510  -2.19067  -2.18841  -1.14156
 Alpha  occ. eigenvalues --   -1.14144  -1.14113  -1.13922  -1.13908  -1.13846
 Alpha  occ. eigenvalues --   -1.13747  -1.13727  -1.13717  -1.13495  -1.13353
 Alpha  occ. eigenvalues --   -1.13317  -1.13155  -1.13128  -1.13125  -1.12743
 Alpha  occ. eigenvalues --   -1.12735  -1.12691  -1.12522  -1.12502  -1.12480
 Alpha  occ. eigenvalues --   -0.18410  -0.13802  -0.12111  -0.10464
 Alpha virt. eigenvalues --   -0.06372  -0.05693  -0.04309  -0.03292  -0.02424
 Alpha virt. eigenvalues --   -0.02261  -0.01927  -0.01298  -0.00734  -0.00374
 Alpha virt. eigenvalues --   -0.00155   0.00278   0.00616   0.00714   0.00752

  Beta  occ. eigenvalues --  -38.44702 -38.44426 -38.44123 -38.43770 -38.43533
  Beta  occ. eigenvalues --  -38.42992 -38.42984  -2.20490  -2.20236  -2.20012
  Beta  occ. eigenvalues --   -2.19682  -2.19312  -2.19020  -2.18835  -1.14162
  Beta  occ. eigenvalues --   -1.14150  -1.14120  -1.13922  -1.13906  -1.13851
  Beta  occ. eigenvalues --   -1.13708  -1.13682  -1.13649  -1.13475  -1.13308
  Beta  occ. eigenvalues --   -1.13285  -1.13018  -1.13000  -1.12986  -1.12717
  Beta  occ. eigenvalues --   -1.12690  -1.12642  -1.12516  -1.12487  -1.12471
  Beta  occ. eigenvalues --   -0.17750  -0.13598  -0.11934
  Beta virt. eigenvalues --   -0.06436  -0.06277  -0.05526  -0.04282  -0.02770
  Beta virt. eigenvalues --   -0.01939  -0.01759  -0.01261  -0.01149  -0.00741
  Beta virt. eigenvalues --   -0.00334   0.00166   0.00364   0.00719   0.00786

 Mulliken charges and spin densities:
               1          2
     1  Na  -1.406585   0.242747
     2  Na  -0.790673   0.581097
     3  Na   0.969468   0.136466
     4  Na   0.185823  -0.045280
     5  Na   0.415651   0.126998
     6  Na   0.457059  -0.070524
     7  Na   0.169257   0.028497
 Sum of Mulliken charges =  -0.00000   1.00000

 Dipole moment (field-independent basis, Debye):
    X=             -0.8846    Y=             -0.1863    Z=              0.0470  Tot=              0.9052
 Quadrupole moment (field-independent basis, Debye-Ang):
   XX=            -53.0201   YY=            -64.4275   ZZ=            -75.3007
   XY=              0.9875   XZ=             -4.6098   YZ=              0.3414

 Normal termination of Gaussian 16 at Wed Nov 29 16:09:58 2023.
