 Gaussian 16, Revision B.01,
 Gaussian 16:  ES64L-G16RevB.01 20-Dec-2017

 -------------------------
 #P B3LYP/6-311+g(d) force
 -------------------------

 -----
 DPGEN
 -----
 Symbolic Z-matrix:
 Charge =  0 Multiplicity = 2

                         Standard orientation:
 ---------------------------------------------------------------------
 Center     Atomic      Atomic             Coordinates (Angstroms)
 Number     Number       Type             X           Y           Z
 ---------------------------------------------------------------------
      1         11           0       -0.066461    0.094484   -0.434058
      2         11           0        3.186816   -1.513070   -0.487647
      3         11           0        3.320801    1.798526    0.513685
      4         11           0       -0.394829    3.292603   -0.313023
      5         11           0       -3.415212    1.308304    0.436036
      6         11           0       -3.142463   -1.962526   -0.284408
      7         11           0        0.511348   -3.018321    0.569414
 ---------------------------------------------------------------------

 SCF Done:  E(UB3LYP) =  -1136.12692160     A.U. after   21 cycles

 The electronic state is 2-A.
 Alpha  occ. eigenvalues --  -38.44713 -38.44465 -38.43690 -38.43667 -38.43651
 Alpha  occ. eigenvalues --  -38.43628 -38.43415  -2.20520  -2.20302  -2.19607
 Alpha  occ. eigenvalues --   -2.19506  -2.19476  -2.19452  -2.19247  -1.14205
 Alpha  occ. eigenvalues --   -1.14186  -1.14148  -1.13988  -1.13967  -1.13948
 Alpha  occ. eigenvalues --   -1.13342  -1.13290  -1.13233  -1.13163  -1.13146
 Alpha  occ. eigenvalues --   -1.13139  -1.13135  -1.13121  -1.13119  -1.13102
 Alpha  occ. eigenvalues --   -1.13095  -1.13077  -1.12913  -1.12895  -1.12865
 Alpha  occ. eigenvalues --   -0.17228  -0.13983  -0.12957  -0.09775
 Alpha virt. eigenvalues --   -0.06584  -0.05480  -0.04728  -0.02938  -0.02534
 Alpha virt. eigenvalues --   -0.02373  -0.02012  -0.01835  -0.01416  -0.00233
 Alpha virt. eigenvalues --    0.00206   0.00311   0.00492   0.00591   0.00661

  Beta  occ. eigenvalues --  -38.44693 -38.44453 -38.43687 -38.43620 -38.43597
  Beta  occ. eigenvalues --  -38.43586 -38.43378  -2.20491  -2.20287  -2.19601
  Beta  occ. eigenvalues --   -2.19449  -2.19376  -2.19350  -2.19181  -1.14191
  Beta  occ. eigenvalues --   -1.14172  -1.14084  -1.13984  -1.13963  -1.13887
  Beta  occ. eigenvalues --   -1.13334  -1.13279  -1.13243  -1.13125  -1.13106
  Beta  occ. eigenvalues --   -1.13103  -1.13071  -1.13054  -1.13053  -1.13033
  Beta  occ. eigenvalues --   -1.13010  -1.13000  -1.12868  -1.12852  -1.12819
  Beta  occ. eigenvalues --   -0.16930  -0.13218  -0.12402
  Beta virt. eigenvalues --   -0.06633  -0.06439  -0.05288  -0.04526  -0.02363
  Beta virt. eigenvalues --   -0.02159  -0.02085  -0.01771  -0.01536  -0.01253
  Beta virt. eigenvalues --   -0.00118   0.00424   0.00512   0.00532   0.00659

 Mulliken charges and spin densities:
               1          2
     1  Na  -2.456563  -0.145779
     2  Na   0.004510   0.182433
     3  Na   0.486480   0.374216
     4  Na   0.305312   0.104736
     5  Na   0.944221   0.103221
     6  Na  -0.125533   0.307435
     7  Na   0.841573   0.073736
 Sum of Mulliken charges =  -0.00000   1.00000

 Dipole moment (field-independent basis, Debye):
    X=             -0.3111    Y=             -0.1757    Z=              0.2115  Tot=              0.4152
 Quadrupole moment (field-independent basis, Debye-Ang):
   XX=            -69.4264   YY=            -59.3742   ZZ=            -69.9566
   XY=             -6.2314   XZ=             -1.9549   YZ=              1.4410

 Normal termination of Gaussian 16 at Sat Dec  9 06:33:58 2023.
