 Gaussian 16, Revision B.01,
 Gaussian 16:  ES64L-G16RevB.01 20-Dec-2017

 -------------------------
 #P B3LYP/6-311+g(d) force
 -------------------------

 -----
 DPGEN
 -----
 Symbolic Z-matrix:
 Charge =  0 Multiplicity = 2

                         Standard orientation:
 ---------------------------------------------------------------------
 Center     Atomic      Atomic             Coordinates (Angstroms)
 Number     Number       Type             X           Y           Z
 ---------------------------------------------------------------------
      1         11           0        1.410781   -2.452413    0.086162
      2         11           0        3.270239    0.229388   -0.220505
      3         11           0        0.680251    2.750192    0.422175
      4         11           0       -0.541095   -0.435398    1.785984
      5         11           0       -2.771324    1.443322   -0.296495
      6         11           0        0.373229    0.316621   -1.376501
      7         11           0       -2.422081   -1.851712   -0.400820
 ---------------------------------------------------------------------

 SCF Done:  E(UB3LYP) =  -1136.13366777     A.U. after   20 cycles

 The electronic state is 2-A.
 Alpha  occ. eigenvalues --  -38.44308 -38.44051 -38.43813 -38.43327 -38.43242
 Alpha  occ. eigenvalues --  -38.43064 -38.42938  -2.20171  -2.19901  -2.19681
 Alpha  occ. eigenvalues --   -2.19216  -2.19120  -2.19105  -2.18910  -1.13871
 Alpha  occ. eigenvalues --   -1.13822  -1.13802  -1.13580  -1.13568  -1.13538
 Alpha  occ. eigenvalues --   -1.13365  -1.13339  -1.13307  -1.12935  -1.12928
 Alpha  occ. eigenvalues --   -1.12888  -1.12840  -1.12793  -1.12758  -1.12741
 Alpha  occ. eigenvalues --   -1.12712  -1.12684  -1.12583  -1.12536  -1.12512
 Alpha  occ. eigenvalues --   -0.18965  -0.13579  -0.12373  -0.10308
 Alpha virt. eigenvalues --   -0.05909  -0.05350  -0.04477  -0.03193  -0.02683
 Alpha virt. eigenvalues --   -0.01937  -0.01818  -0.01143  -0.00442  -0.00263
 Alpha virt. eigenvalues --    0.00029   0.00331   0.00760   0.00858   0.00868

  Beta  occ. eigenvalues --  -38.44302 -38.44040 -38.43801 -38.43320 -38.43230
  Beta  occ. eigenvalues --  -38.43021 -38.42853  -2.20161  -2.19883  -2.19662
  Beta  occ. eigenvalues --   -2.19206  -2.19092  -2.19037  -2.18754  -1.13859
  Beta  occ. eigenvalues --   -1.13812  -1.13790  -1.13569  -1.13546  -1.13515
  Beta  occ. eigenvalues --   -1.13349  -1.13317  -1.13284  -1.12925  -1.12896
  Beta  occ. eigenvalues --   -1.12856  -1.12830  -1.12744  -1.12724  -1.12712
  Beta  occ. eigenvalues --   -1.12669  -1.12642  -1.12482  -1.12428  -1.12396
  Beta  occ. eigenvalues --   -0.18285  -0.13277  -0.12137
  Beta virt. eigenvalues --   -0.06495  -0.05776  -0.05344  -0.04426  -0.02462
  Beta virt. eigenvalues --   -0.01944  -0.01715  -0.01099  -0.00980  -0.00425
  Beta virt. eigenvalues --   -0.00293   0.00176   0.00392   0.00825   0.00867

 Mulliken charges and spin densities:
               1          2
     1  Na   0.179203  -0.077296
     2  Na   0.310239   0.005794
     3  Na  -0.016085  -0.004790
     4  Na  -0.256244   0.644189
     5  Na   0.120423   0.077585
     6  Na  -0.412991   0.319295
     7  Na   0.075454   0.035222
 Sum of Mulliken charges =  -0.00000   1.00000

 Dipole moment (field-independent basis, Debye):
    X=              0.0347    Y=              0.0469    Z=              0.1236  Tot=              0.1367
 Quadrupole moment (field-independent basis, Debye-Ang):
   XX=            -52.9226   YY=            -63.2060   ZZ=            -75.8488
   XY=             -0.0055   XZ=              1.5249   YZ=              1.6119

 Normal termination of Gaussian 16 at Wed Nov 29 00:32:13 2023.
