 Gaussian 16, Revision B.01,
 Gaussian 16:  ES64L-G16RevB.01 20-Dec-2017

 -------------------------
 #P B3LYP/6-311+g(d) force
 -------------------------

 -----
 DPGEN
 -----
 Symbolic Z-matrix:
 Charge =  0 Multiplicity = 2

                         Standard orientation:
 ---------------------------------------------------------------------
 Center     Atomic      Atomic             Coordinates (Angstroms)
 Number     Number       Type             X           Y           Z
 ---------------------------------------------------------------------
      1         11           0       -0.843455    1.596523   -0.264775
      2         11           0        0.431715    4.334342    0.432494
      3         11           0        2.740560    0.975552   -0.532243
      4         11           0        4.656899   -2.471541    0.091574
      5         11           0        1.178383   -1.718227   -0.007032
      6         11           0       -2.676538   -1.626277    0.770840
      7         11           0       -5.487563   -1.090373   -0.490859
 ---------------------------------------------------------------------

 SCF Done:  E(UB3LYP) =  -1136.11948805     A.U. after   20 cycles

 The electronic state is 2-A.
 Alpha  occ. eigenvalues --  -38.45752 -38.44570 -38.44088 -38.44088 -38.43840
 Alpha  occ. eigenvalues --  -38.43765 -38.43239  -2.21540  -2.20351  -2.19937
 Alpha  occ. eigenvalues --   -2.19898  -2.19656  -2.19631  -2.19058  -1.15275
 Alpha  occ. eigenvalues --   -1.15245  -1.15101  -1.14014  -1.14011  -1.13952
 Alpha  occ. eigenvalues --   -1.13679  -1.13622  -1.13607  -1.13547  -1.13533
 Alpha  occ. eigenvalues --   -1.13464  -1.13346  -1.13314  -1.13312  -1.13291
 Alpha  occ. eigenvalues --   -1.13286  -1.13208  -1.12738  -1.12730  -1.12703
 Alpha  occ. eigenvalues --   -0.16797  -0.13531  -0.12992  -0.10419
 Alpha virt. eigenvalues --   -0.06845  -0.05173  -0.04522  -0.03824  -0.02865
 Alpha virt. eigenvalues --   -0.02358  -0.01967  -0.01637  -0.01357  -0.01040
 Alpha virt. eigenvalues --   -0.00300   0.00062   0.00235   0.00331   0.00549

  Beta  occ. eigenvalues --  -38.45757 -38.44521 -38.44079 -38.44065 -38.43767
  Beta  occ. eigenvalues --  -38.43724 -38.43239  -2.21552  -2.20258  -2.19923
  Beta  occ. eigenvalues --   -2.19855  -2.19560  -2.19519  -2.19065  -1.15268
  Beta  occ. eigenvalues --   -1.15254  -1.15112  -1.13949  -1.13947  -1.13894
  Beta  occ. eigenvalues --   -1.13658  -1.13612  -1.13590  -1.13518  -1.13502
  Beta  occ. eigenvalues --   -1.13439  -1.13303  -1.13268  -1.13228  -1.13197
  Beta  occ. eigenvalues --   -1.13194  -1.13125  -1.12750  -1.12740  -1.12652
  Beta  occ. eigenvalues --   -0.16265  -0.13068  -0.12548
  Beta virt. eigenvalues --   -0.07178  -0.06446  -0.04884  -0.04136  -0.03612
  Beta virt. eigenvalues --   -0.02699  -0.02109  -0.01773  -0.01396  -0.00916
  Beta virt. eigenvalues --   -0.00734  -0.00106   0.00312   0.00356   0.00492

 Mulliken charges and spin densities:
               1          2
     1  Na  -1.251129  -0.114240
     2  Na   0.801986   0.186108
     3  Na   0.299793   0.104750
     4  Na   1.146306   0.332669
     5  Na  -1.355594   0.222461
     6  Na   0.046544  -0.093029
     7  Na   0.312094   0.361281
 Sum of Mulliken charges =  -0.00000   1.00000

 Dipole moment (field-independent basis, Debye):
    X=              1.7526    Y=              0.5317    Z=             -0.0810  Tot=              1.8333
 Quadrupole moment (field-independent basis, Debye-Ang):
   XX=            -63.9562   YY=            -61.6033   ZZ=            -71.5223
   XY=             -3.9661   XZ=              2.0106   YZ=             -0.3681

 Normal termination of Gaussian 16 at Wed Nov 29 02:15:49 2023.
