 Gaussian 16, Revision B.01,
 Gaussian 16:  ES64L-G16RevB.01 20-Dec-2017

 -------------------------
 #P B3LYP/6-311+g(d) force
 -------------------------

 -----
 DPGEN
 -----
 Symbolic Z-matrix:
 Charge =  0 Multiplicity = 2

                         Standard orientation:
 ---------------------------------------------------------------------
 Center     Atomic      Atomic             Coordinates (Angstroms)
 Number     Number       Type             X           Y           Z
 ---------------------------------------------------------------------
      1         11           0       -0.279962    2.999024   -0.780691
      2         11           0       -2.462467   -2.484112    0.178870
      3         11           0       -2.698144    1.236884    0.287141
      4         11           0       -0.178038   -0.642031   -1.594513
      5         11           0        3.461344   -0.864081   -0.695752
      6         11           0        0.671080   -1.596807    0.920656
      7         11           0        1.486186    1.351123    1.684288
 ---------------------------------------------------------------------

 SCF Done:  E(UB3LYP) =  -1136.12722628     A.U. after   19 cycles

 The electronic state is 2-A.
 Alpha  occ. eigenvalues --  -38.44445 -38.44397 -38.43778 -38.43604 -38.43497
 Alpha  occ. eigenvalues --  -38.43320 -38.43317  -2.20262  -2.20204  -2.19733
 Alpha  occ. eigenvalues --   -2.19474  -2.19333  -2.19323  -2.19168  -1.13949
 Alpha  occ. eigenvalues --   -1.13930  -1.13894  -1.13877  -1.13855  -1.13838
 Alpha  occ. eigenvalues --   -1.13597  -1.13355  -1.13314  -1.13203  -1.13115
 Alpha  occ. eigenvalues --   -1.13077  -1.13015  -1.12997  -1.12991  -1.12972
 Alpha  occ. eigenvalues --   -1.12957  -1.12867  -1.12831  -1.12819  -1.12815
 Alpha  occ. eigenvalues --   -0.18349  -0.13110  -0.12573  -0.10499
 Alpha virt. eigenvalues --   -0.06034  -0.05168  -0.04515  -0.03288  -0.03063
 Alpha virt. eigenvalues --   -0.02096  -0.01962  -0.01181  -0.00381  -0.00232
 Alpha virt. eigenvalues --    0.00143   0.00288   0.00670   0.00713   0.00808

  Beta  occ. eigenvalues --  -38.44444 -38.44380 -38.43723 -38.43538 -38.43492
  Beta  occ. eigenvalues --  -38.43312 -38.43288  -2.20263  -2.20173  -2.19633
  Beta  occ. eigenvalues --   -2.19352  -2.19325  -2.19276  -2.19154  -1.13944
  Beta  occ. eigenvalues --   -1.13921  -1.13899  -1.13859  -1.13823  -1.13812
  Beta  occ. eigenvalues --   -1.13532  -1.13285  -1.13235  -1.13120  -1.13027
  Beta  occ. eigenvalues --   -1.13006  -1.12995  -1.12980  -1.12969  -1.12957
  Beta  occ. eigenvalues --   -1.12881  -1.12841  -1.12824  -1.12811  -1.12788
  Beta  occ. eigenvalues --   -0.17683  -0.12853  -0.12377
  Beta virt. eigenvalues --   -0.06712  -0.05910  -0.05046  -0.04379  -0.02666
  Beta virt. eigenvalues --   -0.02463  -0.01807  -0.01273  -0.01104  -0.00355
  Beta virt. eigenvalues --    0.00011   0.00193   0.00353   0.00699   0.00820

 Mulliken charges and spin densities:
               1          2
     1  Na   0.013313   0.029428
     2  Na   0.459706  -0.108876
     3  Na  -0.157060   0.056368
     4  Na  -0.211004   0.363450
     5  Na   0.084453   0.005266
     6  Na  -0.261169   0.591511
     7  Na   0.071762   0.062854
 Sum of Mulliken charges =  -0.00000   1.00000

 Dipole moment (field-independent basis, Debye):
    X=              0.0066    Y=              0.0422    Z=             -0.1429  Tot=              0.1491
 Quadrupole moment (field-independent basis, Debye-Ang):
   XX=            -53.6796   YY=            -65.7746   ZZ=            -73.2179
   XY=              1.5384   XZ=             -2.9883   YZ=             -0.6723

 Normal termination of Gaussian 16 at Wed Dec  6 00:35:31 2023.
