 Gaussian 16, Revision B.01,
 Gaussian 16:  ES64L-G16RevB.01 20-Dec-2017

 -------------------------
 #P B3LYP/6-311+g(d) force
 -------------------------

 -----
 DPGEN
 -----
 Symbolic Z-matrix:
 Charge =  0 Multiplicity = 2

                         Standard orientation:
 ---------------------------------------------------------------------
 Center     Atomic      Atomic             Coordinates (Angstroms)
 Number     Number       Type             X           Y           Z
 ---------------------------------------------------------------------
      1         11           0        1.667121    1.419816   -0.917901
      2         11           0        4.808581    0.281891    0.632063
      3         11           0       -1.044390   -1.194152   -0.986701
      4         11           0        2.100360   -1.947077   -0.243365
      5         11           0       -1.818172   -0.734559    1.533670
      6         11           0       -1.343614    2.407197    0.225498
      7         11           0       -4.369887   -0.233116   -0.243265
 ---------------------------------------------------------------------

 SCF Done:  E(UB3LYP) =  -1136.11218243     A.U. after   25 cycles

 The electronic state is 2-A.
 Alpha  occ. eigenvalues --  -38.45729 -38.45002 -38.44588 -38.44043 -38.43459
 Alpha  occ. eigenvalues --  -38.43223 -38.42149  -2.21676  -2.20851  -2.20395
 Alpha  occ. eigenvalues --   -2.20038  -2.19296  -2.19066  -2.17996  -1.15537
 Alpha  occ. eigenvalues --   -1.15300  -1.15260  -1.14517  -1.14478  -1.14464
 Alpha  occ. eigenvalues --   -1.14039  -1.14033  -1.14001  -1.13790  -1.13638
 Alpha  occ. eigenvalues --   -1.13611  -1.12993  -1.12974  -1.12921  -1.12765
 Alpha  occ. eigenvalues --   -1.12748  -1.12681  -1.11689  -1.11660  -1.11627
 Alpha  occ. eigenvalues --   -0.18140  -0.14641  -0.11259  -0.10921
 Alpha virt. eigenvalues --   -0.06812  -0.05171  -0.04755  -0.03264  -0.03082
 Alpha virt. eigenvalues --   -0.02081  -0.01659  -0.01257  -0.00933  -0.00871
 Alpha virt. eigenvalues --   -0.00384   0.00138   0.00333   0.00576   0.00724

  Beta  occ. eigenvalues --  -38.45728 -38.44944 -38.44489 -38.44002 -38.43449
  Beta  occ. eigenvalues --  -38.43218 -38.42150  -2.21679  -2.20742  -2.20209
  Beta  occ. eigenvalues --   -2.19968  -2.19284  -2.19061  -2.18000  -1.15537
  Beta  occ. eigenvalues --   -1.15272  -1.15265  -1.14439  -1.14412  -1.14389
  Beta  occ. eigenvalues --   -1.13912  -1.13905  -1.13881  -1.13750  -1.13561
  Beta  occ. eigenvalues --   -1.13558  -1.12983  -1.12971  -1.12875  -1.12757
  Beta  occ. eigenvalues --   -1.12735  -1.12669  -1.11693  -1.11660  -1.11623
  Beta  occ. eigenvalues --   -0.17581  -0.13851  -0.10722
  Beta virt. eigenvalues --   -0.07684  -0.06567  -0.04971  -0.04136  -0.03077
  Beta virt. eigenvalues --   -0.02846  -0.01557  -0.01277  -0.00967  -0.00668
  Beta virt. eigenvalues --   -0.00475  -0.00259   0.00228   0.00421   0.00658

 Mulliken charges and spin densities:
               1          2
     1  Na  -0.363747   0.019882
     2  Na   0.203016   0.513307
     3  Na  -0.110427   0.225125
     4  Na  -0.193516  -0.062305
     5  Na   0.177207   0.072970
     6  Na  -0.417600  -0.066174
     7  Na   0.705067   0.297195
 Sum of Mulliken charges =  -0.00000   1.00000

 Dipole moment (field-independent basis, Debye):
    X=             -1.0264    Y=             -0.3207    Z=              0.4277  Tot=              1.1573
 Quadrupole moment (field-independent basis, Debye-Ang):
   XX=            -54.7961   YY=            -80.3766   ZZ=            -62.6730
   XY=             -1.4211   XZ=              3.2558   YZ=             -0.3291

 Normal termination of Gaussian 16 at Thu Dec  7 19:28:43 2023.
