 Gaussian 16, Revision B.01,
 Gaussian 16:  ES64L-G16RevB.01 20-Dec-2017

 -------------------------
 #P B3LYP/6-311+g(d) force
 -------------------------

 -----
 DPGEN
 -----
 Symbolic Z-matrix:
 Charge =  0 Multiplicity = 2

                         Standard orientation:
 ---------------------------------------------------------------------
 Center     Atomic      Atomic             Coordinates (Angstroms)
 Number     Number       Type             X           Y           Z
 ---------------------------------------------------------------------
      1         11           0        1.351464   -2.131637    0.978866
      2         11           0        5.085484   -2.036808   -0.494492
      3         11           0        2.800188    1.033426   -0.533772
      4         11           0        1.713479    3.839266    0.350701
      5         11           0       -0.498676    0.325856    0.126116
      6         11           0       -3.596859   -0.961335   -0.239864
      7         11           0       -6.855079   -0.068767   -0.187555
 ---------------------------------------------------------------------

 SCF Done:  E(UB3LYP) =  -1136.11343329     A.U. after   22 cycles

 The electronic state is 2-A.
 Alpha  occ. eigenvalues --  -38.45161 -38.45015 -38.44539 -38.44310 -38.44101
 Alpha  occ. eigenvalues --  -38.43746 -38.43415  -2.20946  -2.20803  -2.20303
 Alpha  occ. eigenvalues --   -2.20189  -2.19882  -2.19621  -2.19223  -1.14586
 Alpha  occ. eigenvalues --   -1.14585  -1.14563  -1.14516  -1.14482  -1.14405
 Alpha  occ. eigenvalues --   -1.13963  -1.13963  -1.13907  -1.13878  -1.13864
 Alpha  occ. eigenvalues --   -1.13784  -1.13571  -1.13562  -1.13524  -1.13326
 Alpha  occ. eigenvalues --   -1.13307  -1.13232  -1.12888  -1.12876  -1.12840
 Alpha  occ. eigenvalues --   -0.16666  -0.13876  -0.11994  -0.11762
 Alpha virt. eigenvalues --   -0.06632  -0.05300  -0.04351  -0.03671  -0.02969
 Alpha virt. eigenvalues --   -0.02379  -0.02309  -0.01764  -0.01237  -0.00985
 Alpha virt. eigenvalues --   -0.00585  -0.00153   0.00038   0.00358   0.00630

  Beta  occ. eigenvalues --  -38.45076 -38.45002 -38.44483 -38.44260 -38.44117
  Beta  occ. eigenvalues --  -38.43728 -38.43400  -2.20788  -2.20783  -2.20199
  Beta  occ. eigenvalues --   -2.20100  -2.19919  -2.19588  -2.19196  -1.14496
  Beta  occ. eigenvalues --   -1.14478  -1.14477  -1.14471  -1.14459  -1.14373
  Beta  occ. eigenvalues --   -1.13893  -1.13888  -1.13842  -1.13829  -1.13806
  Beta  occ. eigenvalues --   -1.13707  -1.13600  -1.13593  -1.13502  -1.13300
  Beta  occ. eigenvalues --   -1.13283  -1.13207  -1.12864  -1.12858  -1.12825
  Beta  occ. eigenvalues --   -0.16095  -0.13125  -0.11638
  Beta virt. eigenvalues --   -0.08486  -0.06019  -0.05170  -0.04045  -0.03469
  Beta virt. eigenvalues --   -0.02538  -0.02138  -0.01902  -0.01662  -0.00862
  Beta virt. eigenvalues --   -0.00723  -0.00346  -0.00008   0.00175   0.00446

 Mulliken charges and spin densities:
               1          2
     1  Na   0.253895   0.041788
     2  Na   0.368825   0.211939
     3  Na  -0.176891   0.302327
     4  Na   0.402459   0.074763
     5  Na  -1.124581  -0.052835
     6  Na  -0.237135   0.085835
     7  Na   0.513428   0.336184
 Sum of Mulliken charges =  -0.00000   1.00000

 Dipole moment (field-independent basis, Debye):
    X=             -0.5771    Y=             -0.3126    Z=              0.3154  Tot=              0.7282
 Quadrupole moment (field-independent basis, Debye-Ang):
   XX=            -51.0857   YY=            -66.6266   ZZ=            -71.8202
   XY=             -4.7141   XZ=             -1.4531   YZ=              0.3738

 Normal termination of Gaussian 16 at Tue Nov 28 23:29:33 2023.
