 Gaussian 16, Revision B.01,
 Gaussian 16:  ES64L-G16RevB.01 20-Dec-2017

 -------------------------
 #P B3LYP/6-311+g(d) force
 -------------------------

 -----
 DPGEN
 -----
 Symbolic Z-matrix:
 Charge =  0 Multiplicity = 2

                         Standard orientation:
 ---------------------------------------------------------------------
 Center     Atomic      Atomic             Coordinates (Angstroms)
 Number     Number       Type             X           Y           Z
 ---------------------------------------------------------------------
      1         11           0        2.213554   -2.041808    0.245390
      2         11           0       -0.672630    2.828532    0.101277
      3         11           0        2.629763    1.239546   -0.608218
      4         11           0        0.534161    0.382327    1.957231
      5         11           0        0.121959   -0.478735   -1.688049
      6         11           0       -1.807492   -2.318988    0.216008
      7         11           0       -3.019315    0.389126   -0.223639
 ---------------------------------------------------------------------

 SCF Done:  E(UB3LYP) =  -1136.13575304     A.U. after   19 cycles

 The electronic state is 2-A.
 Alpha  occ. eigenvalues --  -38.43973 -38.43899 -38.43735 -38.43583 -38.43483
 Alpha  occ. eigenvalues --  -38.43325 -38.43099  -2.19857  -2.19775  -2.19604
 Alpha  occ. eigenvalues --   -2.19458  -2.19404  -2.19304  -2.18949  -1.13560
 Alpha  occ. eigenvalues --   -1.13521  -1.13515  -1.13477  -1.13436  -1.13410
 Alpha  occ. eigenvalues --   -1.13293  -1.13277  -1.13231  -1.13141  -1.13110
 Alpha  occ. eigenvalues --   -1.13080  -1.13070  -1.13031  -1.13031  -1.12972
 Alpha  occ. eigenvalues --   -1.12932  -1.12923  -1.12628  -1.12609  -1.12586
 Alpha  occ. eigenvalues --   -0.18874  -0.13426  -0.12331  -0.10896
 Alpha virt. eigenvalues --   -0.05516  -0.05351  -0.04462  -0.03406  -0.02926
 Alpha virt. eigenvalues --   -0.02554  -0.01432  -0.01071  -0.00271  -0.00199
 Alpha virt. eigenvalues --    0.00007   0.00368   0.00812   0.00879   0.00922

  Beta  occ. eigenvalues --  -38.43952 -38.43897 -38.43726 -38.43580 -38.43398
  Beta  occ. eigenvalues --  -38.43260 -38.43096  -2.19823  -2.19774  -2.19591
  Beta  occ. eigenvalues --   -2.19455  -2.19248  -2.19187  -2.18947  -1.13531
  Beta  occ. eigenvalues --   -1.13518  -1.13476  -1.13455  -1.13428  -1.13402
  Beta  occ. eigenvalues --   -1.13285  -1.13241  -1.13218  -1.13132  -1.13102
  Beta  occ. eigenvalues --   -1.13069  -1.12970  -1.12924  -1.12916  -1.12896
  Beta  occ. eigenvalues --   -1.12849  -1.12836  -1.12621  -1.12594  -1.12583
  Beta  occ. eigenvalues --   -0.18147  -0.13185  -0.12110
  Beta virt. eigenvalues --   -0.06949  -0.05460  -0.05326  -0.04412  -0.02645
  Beta virt. eigenvalues --   -0.02175  -0.01523  -0.01319  -0.00984  -0.00286
  Beta virt. eigenvalues --   -0.00229   0.00136   0.00407   0.00879   0.00893

 Mulliken charges and spin densities:
               1          2
     1  Na   0.208305   0.007070
     2  Na   0.086710  -0.053535
     3  Na   0.256448  -0.003403
     4  Na  -0.455480   0.701771
     5  Na  -0.196961   0.417773
     6  Na   0.137331  -0.009905
     7  Na  -0.036353  -0.059771
 Sum of Mulliken charges =  -0.00000   1.00000

 Dipole moment (field-independent basis, Debye):
    X=              0.2365    Y=             -0.1110    Z=              0.0591  Tot=              0.2678
 Quadrupole moment (field-independent basis, Debye-Ang):
   XX=            -57.4057   YY=            -63.8640   ZZ=            -73.3868
   XY=             -0.4259   XZ=             -0.5864   YZ=             -2.1849

 Normal termination of Gaussian 16 at Tue Dec  5 15:48:16 2023.
