 Gaussian 16, Revision B.01,
 Gaussian 16:  ES64L-G16RevB.01 20-Dec-2017

 -------------------------
 #P B3LYP/6-311+g(d) force
 -------------------------

 -----
 DPGEN
 -----
 Symbolic Z-matrix:
 Charge =  0 Multiplicity = 2

                         Standard orientation:
 ---------------------------------------------------------------------
 Center     Atomic      Atomic             Coordinates (Angstroms)
 Number     Number       Type             X           Y           Z
 ---------------------------------------------------------------------
      1         11           0       -8.898334   -0.666009    0.487263
      2         11           0       -5.649271   -0.333281   -0.327052
      3         11           0       -0.297834   -0.042324   -0.363176
      4         11           0        3.405228   -0.981086    0.736569
      5         11           0       -2.991522    2.156586   -0.229137
      6         11           0        8.421885    1.150543    0.421308
      7         11           0        6.009848   -1.284429   -0.725776
 ---------------------------------------------------------------------

 SCF Done:  E(UB3LYP) =  -1136.10340545     A.U. after   21 cycles

 The electronic state is 2-A.
 Alpha  occ. eigenvalues --  -38.45593 -38.44817 -38.44800 -38.44687 -38.44654
 Alpha  occ. eigenvalues --  -38.44094 -38.43839  -2.21370  -2.20606  -2.20602
 Alpha  occ. eigenvalues --   -2.20513  -2.20384  -2.19868  -2.19604  -1.15009
 Alpha  occ. eigenvalues --   -1.15008  -1.14973  -1.14398  -1.14273  -1.14263
 Alpha  occ. eigenvalues --   -1.14250  -1.14246  -1.14229  -1.14150  -1.14144
 Alpha  occ. eigenvalues --   -1.14093  -1.14079  -1.14076  -1.14013  -1.13520
 Alpha  occ. eigenvalues --   -1.13520  -1.13500  -1.13295  -1.13293  -1.13225
 Alpha  occ. eigenvalues --   -0.15266  -0.14318  -0.12484  -0.11488
 Alpha virt. eigenvalues --   -0.07178  -0.05201  -0.04709  -0.03407  -0.03150
 Alpha virt. eigenvalues --   -0.02934  -0.02238  -0.01950  -0.01706  -0.01188
 Alpha virt. eigenvalues --   -0.00818  -0.00788  -0.00405   0.00157   0.00495

  Beta  occ. eigenvalues --  -38.45479 -38.44817 -38.44773 -38.44682 -38.44625
  Beta  occ. eigenvalues --  -38.44048 -38.43852  -2.21159  -2.20643  -2.20521
  Beta  occ. eigenvalues --   -2.20439  -2.20398  -2.19783  -2.19630  -1.14865
  Beta  occ. eigenvalues --   -1.14863  -1.14833  -1.14388  -1.14303  -1.14251
  Beta  occ. eigenvalues --   -1.14207  -1.14196  -1.14182  -1.14119  -1.14117
  Beta  occ. eigenvalues --   -1.14071  -1.14066  -1.14042  -1.14021  -1.13462
  Beta  occ. eigenvalues --   -1.13462  -1.13446  -1.13316  -1.13313  -1.13218
  Beta  occ. eigenvalues --   -0.14717  -0.13887  -0.11742
  Beta virt. eigenvalues --   -0.08405  -0.06607  -0.04900  -0.04534  -0.03240
  Beta virt. eigenvalues --   -0.02807  -0.02725  -0.01885  -0.01730  -0.01402
  Beta virt. eigenvalues --   -0.00842  -0.00551  -0.00452  -0.00225   0.00278

 Mulliken charges and spin densities:
               1          2
     1  Na   0.506343   0.160997
     2  Na  -0.395181   0.010602
     3  Na  -0.333746  -0.061916
     4  Na  -0.493230   0.194940
     5  Na   0.468072   0.175588
     6  Na   0.144989   0.563531
     7  Na   0.102752  -0.043741
 Sum of Mulliken charges =  -0.00000   1.00000

 Dipole moment (field-independent basis, Debye):
    X=              2.0623    Y=              0.6651    Z=              0.2058  Tot=              2.1766
 Quadrupole moment (field-independent basis, Debye-Ang):
   XX=            -55.1382   YY=            -66.2022   ZZ=            -72.3616
   XY=              0.4130   XZ=             -1.2827   YZ=              2.3483

 Normal termination of Gaussian 16 at Mon Dec  4 04:44:26 2023.
