 Gaussian 16, Revision B.01,
 Gaussian 16:  ES64L-G16RevB.01 20-Dec-2017

 -------------------------
 #P B3LYP/6-311+g(d) force
 -------------------------

 -----
 DPGEN
 -----
 Symbolic Z-matrix:
 Charge =  0 Multiplicity = 2

                         Standard orientation:
 ---------------------------------------------------------------------
 Center     Atomic      Atomic             Coordinates (Angstroms)
 Number     Number       Type             X           Y           Z
 ---------------------------------------------------------------------
      1         11           0       -3.842392   -0.487021    1.490661
      2         11           0       -2.730833   -2.167661   -0.695751
      3         11           0        0.512614    2.947550    0.557367
      4         11           0       -2.576388    1.856415   -0.989322
      5         11           0        0.968276   -0.821736   -0.887263
      6         11           0        3.500464   -2.710815    0.498963
      7         11           0        4.168259    1.383268    0.025345
 ---------------------------------------------------------------------

 SCF Done:  E(UB3LYP) =  -1136.10976350     A.U. after   23 cycles

 The electronic state is 2-A.
 Alpha  occ. eigenvalues --  -38.44927 -38.44754 -38.44714 -38.44419 -38.44358
 Alpha  occ. eigenvalues --  -38.43966 -38.43490  -2.20666  -2.20573  -2.20495
 Alpha  occ. eigenvalues --   -2.20276  -2.20132  -2.19766  -2.19241  -1.14346
 Alpha  occ. eigenvalues --   -1.14329  -1.14327  -1.14307  -1.14225  -1.14219
 Alpha  occ. eigenvalues --   -1.14187  -1.14148  -1.14110  -1.13916  -1.13899
 Alpha  occ. eigenvalues --   -1.13884  -1.13798  -1.13762  -1.13743  -1.13467
 Alpha  occ. eigenvalues --   -1.13416  -1.13378  -1.12935  -1.12914  -1.12877
 Alpha  occ. eigenvalues --   -0.16452  -0.14095  -0.11721  -0.10161
 Alpha virt. eigenvalues --   -0.07235  -0.05841  -0.04686  -0.03443  -0.02743
 Alpha virt. eigenvalues --   -0.02468  -0.02025  -0.01867  -0.01417  -0.00606
 Alpha virt. eigenvalues --   -0.00202  -0.00047   0.00195   0.00270   0.00419

  Beta  occ. eigenvalues --  -38.44939 -38.44753 -38.44690 -38.44362 -38.44270
  Beta  occ. eigenvalues --  -38.43924 -38.43502  -2.20689  -2.20577  -2.20452
  Beta  occ. eigenvalues --   -2.20170  -2.19968  -2.19689  -2.19265  -1.14363
  Beta  occ. eigenvalues --   -1.14334  -1.14323  -1.14309  -1.14232  -1.14200
  Beta  occ. eigenvalues --   -1.14153  -1.14117  -1.14080  -1.13846  -1.13827
  Beta  occ. eigenvalues --   -1.13815  -1.13685  -1.13653  -1.13631  -1.13416
  Beta  occ. eigenvalues --   -1.13354  -1.13324  -1.12954  -1.12932  -1.12873
  Beta  occ. eigenvalues --   -0.15948  -0.13575  -0.11473
  Beta virt. eigenvalues --   -0.07013  -0.06790  -0.05368  -0.04612  -0.03119
  Beta virt. eigenvalues --   -0.02297  -0.02093  -0.01855  -0.01618  -0.01051
  Beta virt. eigenvalues --   -0.00554   0.00007   0.00202   0.00290   0.00393

 Mulliken charges and spin densities:
               1          2
     1  Na   0.172389   0.305184
     2  Na   0.140642  -0.007151
     3  Na   0.126693  -0.063893
     4  Na  -0.066641   0.147369
     5  Na  -1.301461   0.195942
     6  Na   0.711714  -0.076212
     7  Na   0.216664   0.498762
 Sum of Mulliken charges =  -0.00000   1.00000

 Dipole moment (field-independent basis, Debye):
    X=             -0.5447    Y=             -0.8383    Z=              0.2372  Tot=              1.0275
 Quadrupole moment (field-independent basis, Debye-Ang):
   XX=            -62.6209   YY=            -69.3877   ZZ=            -67.3447
   XY=             -8.0672   XZ=              3.4619   YZ=              0.3465

 Normal termination of Gaussian 16 at Sun Dec  3 22:54:56 2023.
