 Gaussian 16, Revision B.01,
 Gaussian 16:  ES64L-G16RevB.01 20-Dec-2017

 -------------------------
 #P B3LYP/6-311+g(d) force
 -------------------------

 -----
 DPGEN
 -----
 Symbolic Z-matrix:
 Charge =  0 Multiplicity = 2

                         Standard orientation:
 ---------------------------------------------------------------------
 Center     Atomic      Atomic             Coordinates (Angstroms)
 Number     Number       Type             X           Y           Z
 ---------------------------------------------------------------------
      1         11           0        3.981066    0.302870    0.484592
      2         11           0       -1.073089    0.557020    2.342235
      3         11           0        1.071955    1.841085   -0.559891
      4         11           0       -0.892520   -0.982309   -2.010407
      5         11           0        1.574635   -1.738875   -0.374632
      6         11           0       -2.498915    2.014687   -0.701233
      7         11           0       -2.163132   -1.994478    0.819336
 ---------------------------------------------------------------------

 SCF Done:  E(UB3LYP) =  -1136.12734944     A.U. after   21 cycles

 The electronic state is 2-A.
 Alpha  occ. eigenvalues --  -38.44608 -38.44362 -38.43818 -38.43734 -38.43574
 Alpha  occ. eigenvalues --  -38.43542 -38.43322  -2.20456  -2.20171  -2.19681
 Alpha  occ. eigenvalues --   -2.19545  -2.19501  -2.19386  -2.19210  -1.14135
 Alpha  occ. eigenvalues --   -1.14100  -1.14054  -1.13843  -1.13825  -1.13811
 Alpha  occ. eigenvalues --   -1.13369  -1.13350  -1.13300  -1.13240  -1.13219
 Alpha  occ. eigenvalues --   -1.13200  -1.13184  -1.13122  -1.13104  -1.13086
 Alpha  occ. eigenvalues --   -1.13077  -1.12978  -1.12909  -1.12879  -1.12793
 Alpha  occ. eigenvalues --   -0.18226  -0.13481  -0.11829  -0.11533
 Alpha virt. eigenvalues --   -0.06212  -0.04969  -0.03857  -0.03686  -0.03274
 Alpha virt. eigenvalues --   -0.02980  -0.01894  -0.01096  -0.00446   0.00087
 Alpha virt. eigenvalues --    0.00181   0.00226   0.00254   0.00786   0.00865

  Beta  occ. eigenvalues --  -38.44525 -38.44357 -38.43789 -38.43718 -38.43531
  Beta  occ. eigenvalues --  -38.43513 -38.43315  -2.20304  -2.20162  -2.19633
  Beta  occ. eigenvalues --   -2.19517  -2.19388  -2.19367  -2.19201  -1.14027
  Beta  occ. eigenvalues --   -1.13996  -1.13946  -1.13837  -1.13818  -1.13806
  Beta  occ. eigenvalues --   -1.13327  -1.13306  -1.13262  -1.13190  -1.13178
  Beta  occ. eigenvalues --   -1.13168  -1.13163  -1.13081  -1.13055  -1.13050
  Beta  occ. eigenvalues --   -1.13011  -1.12964  -1.12887  -1.12862  -1.12790
  Beta  occ. eigenvalues --   -0.17488  -0.13183  -0.11407
  Beta virt. eigenvalues --   -0.07833  -0.05954  -0.04953  -0.03341  -0.03103
  Beta virt. eigenvalues --   -0.02974  -0.02081  -0.01778  -0.00995  -0.00190
  Beta virt. eigenvalues --    0.00137   0.00189   0.00289   0.00492   0.00844

 Mulliken charges and spin densities:
               1          2
     1  Na   0.433700  -0.009549
     2  Na  -0.156728   0.650290
     3  Na  -0.526556   0.033586
     4  Na   0.454689   0.623176
     5  Na  -0.349476  -0.048291
     6  Na   0.123631  -0.103865
     7  Na   0.020740  -0.145346
 Sum of Mulliken charges =  -0.00000   1.00000

 Dipole moment (field-independent basis, Debye):
    X=              0.2422    Y=              0.1506    Z=              0.4181  Tot=              0.5061
 Quadrupole moment (field-independent basis, Debye-Ang):
   XX=            -54.3962   YY=            -74.1208   ZZ=            -67.0666
   XY=              0.4261   XZ=              3.0921   YZ=             -1.9469

 Normal termination of Gaussian 16 at Mon Dec  4 04:55:51 2023.
