 Gaussian 16, Revision B.01,
 Gaussian 16:  ES64L-G16RevB.01 20-Dec-2017

 -------------------------
 #P B3LYP/6-311+g(d) force
 -------------------------

 -----
 DPGEN
 -----
 Symbolic Z-matrix:
 Charge =  0 Multiplicity = 2

                         Standard orientation:
 ---------------------------------------------------------------------
 Center     Atomic      Atomic             Coordinates (Angstroms)
 Number     Number       Type             X           Y           Z
 ---------------------------------------------------------------------
      1         11           0       -3.296575    1.601569   -0.376090
      2         11           0       -2.605443   -2.021829   -0.713019
      3         11           0        0.551426    0.123374   -1.397315
      4         11           0        4.140066    0.552668   -0.605700
      5         11           0        2.040155   -1.895418    0.757101
      6         11           0        0.317808    2.323259    0.897666
      7         11           0       -1.147436   -0.683623    1.437357
 ---------------------------------------------------------------------

 SCF Done:  E(UB3LYP) =  -1136.11958224     A.U. after   23 cycles

 The electronic state is 2-A.
 Alpha  occ. eigenvalues --  -38.45011 -38.44586 -38.44579 -38.43971 -38.43525
 Alpha  occ. eigenvalues --  -38.43140 -38.42848  -2.20901  -2.20381  -2.20365
 Alpha  occ. eigenvalues --   -2.19811  -2.19387  -2.19147  -2.18706  -1.14633
 Alpha  occ. eigenvalues --   -1.14563  -1.14509  -1.14054  -1.14046  -1.14027
 Alpha  occ. eigenvalues --   -1.14011  -1.13996  -1.13984  -1.13499  -1.13482
 Alpha  occ. eigenvalues --   -1.13427  -1.13186  -1.13040  -1.12988  -1.12829
 Alpha  occ. eigenvalues --   -1.12772  -1.12735  -1.12406  -1.12368  -1.12299
 Alpha  occ. eigenvalues --   -0.18297  -0.13940  -0.11303  -0.10547
 Alpha virt. eigenvalues --   -0.06876  -0.05641  -0.03980  -0.03211  -0.02838
 Alpha virt. eigenvalues --   -0.02515  -0.01772  -0.01530  -0.00679  -0.00317
 Alpha virt. eigenvalues --   -0.00048   0.00115   0.00450   0.00584   0.00609

  Beta  occ. eigenvalues --  -38.45009 -38.44555 -38.44536 -38.43953 -38.43508
  Beta  occ. eigenvalues --  -38.43091 -38.42820  -2.20899  -2.20320  -2.20287
  Beta  occ. eigenvalues --   -2.19784  -2.19357  -2.19063  -2.18656  -1.14607
  Beta  occ. eigenvalues --   -1.14568  -1.14509  -1.14023  -1.13981  -1.13980
  Beta  occ. eigenvalues --   -1.13961  -1.13943  -1.13936  -1.13486  -1.13450
  Beta  occ. eigenvalues --   -1.13389  -1.13162  -1.13019  -1.12953  -1.12772
  Beta  occ. eigenvalues --   -1.12697  -1.12673  -1.12376  -1.12314  -1.12271
  Beta  occ. eigenvalues --   -0.17687  -0.13421  -0.11137
  Beta virt. eigenvalues --   -0.06992  -0.06585  -0.05423  -0.03690  -0.02869
  Beta virt. eigenvalues --   -0.02564  -0.02008  -0.01447  -0.01185  -0.00446
  Beta virt. eigenvalues --   -0.00111   0.00020   0.00226   0.00599   0.00653

 Mulliken charges and spin densities:
               1          2
     1  Na   0.066881   0.229508
     2  Na   0.131710   0.389807
     3  Na  -0.588686   0.078043
     4  Na   0.330558   0.296453
     5  Na   0.063157  -0.005498
     6  Na  -0.190961  -0.087272
     7  Na   0.187341   0.098957
 Sum of Mulliken charges =  -0.00000   1.00000

 Dipole moment (field-independent basis, Debye):
    X=              0.3768    Y=              0.2439    Z=              0.0301  Tot=              0.4498
 Quadrupole moment (field-independent basis, Debye-Ang):
   XX=            -54.9614   YY=            -72.2097   ZZ=            -68.5173
   XY=             -1.3070   XZ=              2.2620   YZ=              0.0207

 Normal termination of Gaussian 16 at Tue Dec  5 10:20:04 2023.
