 Gaussian 16, Revision B.01,
 Gaussian 16:  ES64L-G16RevB.01 20-Dec-2017

 -------------------------
 #P B3LYP/6-311+g(d) force
 -------------------------

 -----
 DPGEN
 -----
 Symbolic Z-matrix:
 Charge =  0 Multiplicity = 2

                         Standard orientation:
 ---------------------------------------------------------------------
 Center     Atomic      Atomic             Coordinates (Angstroms)
 Number     Number       Type             X           Y           Z
 ---------------------------------------------------------------------
      1         11           0       -0.610384   -0.173046    1.925016
      2         11           0       -0.718736    2.768407    0.325786
      3         11           0        2.003645   -1.814747    0.497503
      4         11           0        3.222719    1.216224   -0.237071
      5         11           0        0.128684    0.183625   -1.765523
      6         11           0       -3.026270    0.297371   -0.324722
      7         11           0       -0.999658   -2.477834   -0.420988
 ---------------------------------------------------------------------

 SCF Done:  E(UB3LYP) =  -1136.13577630     A.U. after   19 cycles

 The electronic state is 2-A.
 Alpha  occ. eigenvalues --  -38.44086 -38.44076 -38.43546 -38.43461 -38.43440
 Alpha  occ. eigenvalues --  -38.43346 -38.42869  -2.19967  -2.19866  -2.19503
 Alpha  occ. eigenvalues --   -2.19424  -2.19288  -2.19247  -2.18813  -1.13648
 Alpha  occ. eigenvalues --   -1.13639  -1.13598  -1.13539  -1.13534  -1.13504
 Alpha  occ. eigenvalues --   -1.13181  -1.13144  -1.13135  -1.13115  -1.13082
 Alpha  occ. eigenvalues --   -1.13036  -1.12962  -1.12950  -1.12926  -1.12915
 Alpha  occ. eigenvalues --   -1.12904  -1.12876  -1.12497  -1.12462  -1.12440
 Alpha  occ. eigenvalues --   -0.18993  -0.13180  -0.12302  -0.11102
 Alpha virt. eigenvalues --   -0.05881  -0.04831  -0.04384  -0.03349  -0.02948
 Alpha virt. eigenvalues --   -0.02696  -0.01626  -0.00914  -0.00312  -0.00051
 Alpha virt. eigenvalues --    0.00052   0.00354   0.00826   0.00887   0.00911

  Beta  occ. eigenvalues --  -38.44078 -38.44076 -38.43461 -38.43432 -38.43390
  Beta  occ. eigenvalues --  -38.43334 -38.42856  -2.19953  -2.19871  -2.19347
  Beta  occ. eigenvalues --   -2.19293  -2.19276  -2.19229  -2.18794  -1.13640
  Beta  occ. eigenvalues --   -1.13609  -1.13580  -1.13541  -1.13529  -1.13509
  Beta  occ. eigenvalues --   -1.13086  -1.13039  -1.13031  -1.13028  -1.12998
  Beta  occ. eigenvalues --   -1.12941  -1.12932  -1.12921  -1.12908  -1.12896
  Beta  occ. eigenvalues --   -1.12888  -1.12852  -1.12484  -1.12440  -1.12403
  Beta  occ. eigenvalues --   -0.18228  -0.12956  -0.12042
  Beta virt. eigenvalues --   -0.07127  -0.05828  -0.04790  -0.04355  -0.02593
  Beta virt. eigenvalues --   -0.02197  -0.01691  -0.01482  -0.00844  -0.00308
  Beta virt. eigenvalues --   -0.00010   0.00109   0.00380   0.00871   0.00926

 Mulliken charges and spin densities:
               1          2
     1  Na  -0.175709   0.534740
     2  Na  -0.100752  -0.093745
     3  Na   0.105865   0.047418
     4  Na  -0.056287  -0.096851
     5  Na  -0.297038   0.572273
     6  Na   0.270947  -0.029130
     7  Na   0.252973   0.065296
 Sum of Mulliken charges =  -0.00000   1.00000

 Dipole moment (field-independent basis, Debye):
    X=             -0.1028    Y=              0.3251    Z=              0.0370  Tot=              0.3430
 Quadrupole moment (field-independent basis, Debye-Ang):
   XX=            -56.2167   YY=            -65.4462   ZZ=            -72.4054
   XY=              0.8226   XZ=              1.4542   YZ=              0.4108

 Normal termination of Gaussian 16 at Fri Dec  8 06:47:52 2023.
