 Gaussian 16, Revision B.01,
 Gaussian 16:  ES64L-G16RevB.01 20-Dec-2017

 -------------------------
 #P B3LYP/6-311+g(d) force
 -------------------------

 -----
 DPGEN
 -----
 Symbolic Z-matrix:
 Charge =  0 Multiplicity = 2

                         Standard orientation:
 ---------------------------------------------------------------------
 Center     Atomic      Atomic             Coordinates (Angstroms)
 Number     Number       Type             X           Y           Z
 ---------------------------------------------------------------------
      1         11           0       -0.485192   -0.200800   -1.676692
      2         11           0        0.523007    2.949596   -0.327327
      3         11           0       -2.407338   -1.905155    0.268930
      4         11           0        1.836019   -2.467773   -0.614483
      5         11           0        2.835939    0.669217    0.328918
      6         11           0       -2.572361    1.354956    0.121357
      7         11           0        0.269926   -0.400042    1.899298
 ---------------------------------------------------------------------

 SCF Done:  E(UB3LYP) =  -1136.13671827     A.U. after   19 cycles

 The electronic state is 2-A.
 Alpha  occ. eigenvalues --  -38.43851 -38.43801 -38.43743 -38.43688 -38.43551
 Alpha  occ. eigenvalues --  -38.43265 -38.43115  -2.19724  -2.19689  -2.19622
 Alpha  occ. eigenvalues --   -2.19523  -2.19473  -2.19246  -2.18957  -1.13450
 Alpha  occ. eigenvalues --   -1.13394  -1.13383  -1.13371  -1.13348  -1.13345
 Alpha  occ. eigenvalues --   -1.13284  -1.13281  -1.13267  -1.13201  -1.13173
 Alpha  occ. eigenvalues --   -1.13154  -1.13135  -1.13095  -1.13083  -1.12920
 Alpha  occ. eigenvalues --   -1.12876  -1.12865  -1.12630  -1.12612  -1.12605
 Alpha  occ. eigenvalues --   -0.18808  -0.13332  -0.12381  -0.10834
 Alpha virt. eigenvalues --   -0.05441  -0.05280  -0.04701  -0.03397  -0.02851
 Alpha virt. eigenvalues --   -0.02474  -0.01398  -0.01175  -0.00328  -0.00178
 Alpha virt. eigenvalues --    0.00019   0.00371   0.00833   0.00863   0.00878

  Beta  occ. eigenvalues --  -38.43843 -38.43795 -38.43735 -38.43670 -38.43470
  Beta  occ. eigenvalues --  -38.43198 -38.43113  -2.19712  -2.19683  -2.19611
  Beta  occ. eigenvalues --   -2.19493  -2.19326  -2.19123  -2.18956  -1.13446
  Beta  occ. eigenvalues --   -1.13374  -1.13363  -1.13355  -1.13328  -1.13323
  Beta  occ. eigenvalues --   -1.13277  -1.13266  -1.13255  -1.13169  -1.13147
  Beta  occ. eigenvalues --   -1.13133  -1.13041  -1.12990  -1.12983  -1.12837
  Beta  occ. eigenvalues --   -1.12793  -1.12772  -1.12627  -1.12611  -1.12592
  Beta  occ. eigenvalues --   -0.18099  -0.13088  -0.12121
  Beta virt. eigenvalues --   -0.06951  -0.05423  -0.05199  -0.04611  -0.02619
  Beta virt. eigenvalues --   -0.02153  -0.01463  -0.01297  -0.01079  -0.00352
  Beta virt. eigenvalues --   -0.00202   0.00143   0.00404   0.00858   0.00887

 Mulliken charges and spin densities:
               1          2
     1  Na  -0.200263   0.537920
     2  Na  -0.140606  -0.071199
     3  Na   0.256259  -0.036716
     4  Na  -0.021041  -0.052036
     5  Na   0.209398   0.075963
     6  Na   0.118870   0.055822
     7  Na  -0.222617   0.490245
 Sum of Mulliken charges =  -0.00000   1.00000

 Dipole moment (field-independent basis, Debye):
    X=             -0.1734    Y=             -0.3198    Z=              0.1189  Tot=              0.3827
 Quadrupole moment (field-independent basis, Debye-Ang):
   XX=            -57.9368   YY=            -62.3867   ZZ=            -73.7931
   XY=              0.1078   XZ=             -1.4485   YZ=              0.4762

 Normal termination of Gaussian 16 at Tue Dec  5 20:56:52 2023.
