 Gaussian 16, Revision B.01,
 Gaussian 16:  ES64L-G16RevB.01 20-Dec-2017

 -------------------------
 #P B3LYP/6-311+g(d) force
 -------------------------

 -----
 DPGEN
 -----
 Symbolic Z-matrix:
 Charge =  0 Multiplicity = 2

                         Standard orientation:
 ---------------------------------------------------------------------
 Center     Atomic      Atomic             Coordinates (Angstroms)
 Number     Number       Type             X           Y           Z
 ---------------------------------------------------------------------
      1         11           0       -3.108290   -0.989096   -1.146787
      2         11           0        2.181057    1.791409   -0.858149
      3         11           0        3.904433   -0.189638    1.386312
      4         11           0        1.916851   -1.575103   -1.095488
      5         11           0       -0.246966    0.300114   -0.755918
      6         11           0       -1.807344   -1.227221    1.764636
      7         11           0       -2.839740    1.889535    0.705393
 ---------------------------------------------------------------------

 SCF Done:  E(UB3LYP) =  -1136.09781558     A.U. after   37 cycles

 The electronic state is 2-A.
 Alpha  occ. eigenvalues --  -38.45675 -38.45277 -38.44714 -38.43931 -38.43894
 Alpha  occ. eigenvalues --  -38.43201 -38.43068  -2.21531  -2.21139  -2.20541
 Alpha  occ. eigenvalues --   -2.19837  -2.19797  -2.19214  -2.19051  -1.15241
 Alpha  occ. eigenvalues --   -1.15208  -1.15143  -1.14826  -1.14775  -1.14741
 Alpha  occ. eigenvalues --   -1.14187  -1.14182  -1.14155  -1.13671  -1.13581
 Alpha  occ. eigenvalues --   -1.13474  -1.13439  -1.13436  -1.13371  -1.12887
 Alpha  occ. eigenvalues --   -1.12871  -1.12794  -1.12736  -1.12704  -1.12684
 Alpha  occ. eigenvalues --   -0.18462  -0.15195  -0.10985  -0.10259
 Alpha virt. eigenvalues --   -0.07128  -0.05746  -0.05152  -0.02971  -0.02810
 Alpha virt. eigenvalues --   -0.02171  -0.01992  -0.01099  -0.00932  -0.00536
 Alpha virt. eigenvalues --   -0.00139   0.00068   0.00178   0.00463   0.00504

  Beta  occ. eigenvalues --  -38.45695 -38.45246 -38.44622 -38.43902 -38.43866
  Beta  occ. eigenvalues --  -38.43206 -38.43008  -2.21570  -2.21079  -2.20368
  Beta  occ. eigenvalues --   -2.19791  -2.19752  -2.19112  -2.19061  -1.15262
  Beta  occ. eigenvalues --   -1.15228  -1.15168  -1.14788  -1.14742  -1.14692
  Beta  occ. eigenvalues --   -1.14070  -1.14056  -1.14045  -1.13618  -1.13528
  Beta  occ. eigenvalues --   -1.13433  -1.13402  -1.13384  -1.13344  -1.12837
  Beta  occ. eigenvalues --   -1.12780  -1.12741  -1.12732  -1.12693  -1.12675
  Beta  occ. eigenvalues --   -0.17909  -0.14655  -0.10120
  Beta virt. eigenvalues --   -0.07411  -0.06685  -0.05596  -0.04593  -0.02745
  Beta virt. eigenvalues --   -0.02499  -0.01712  -0.01469  -0.01008  -0.00626
  Beta virt. eigenvalues --   -0.00265   0.00049   0.00141   0.00332   0.00513

 Mulliken charges and spin densities:
               1          2
     1  Na   0.429907  -0.060653
     2  Na   0.358262   0.072240
     3  Na  -0.186043   0.553218
     4  Na   0.631316   0.107984
     5  Na  -1.381803   0.145724
     6  Na   0.110458   0.106438
     7  Na   0.037904   0.075050
 Sum of Mulliken charges =  -0.00000   1.00000

 Dipole moment (field-independent basis, Debye):
    X=             -0.8299    Y=             -0.7231    Z=              0.2599  Tot=              1.1310
 Quadrupole moment (field-independent basis, Debye-Ang):
   XX=            -54.9741   YY=            -79.2950   ZZ=            -63.1722
   XY=              1.8601   XZ=              2.3376   YZ=             -0.3804

 Normal termination of Gaussian 16 at Fri Dec  8 00:25:16 2023.
