 Gaussian 16, Revision B.01,
 Gaussian 16:  ES64L-G16RevB.01 20-Dec-2017

 -------------------------
 #P B3LYP/6-311+g(d) force
 -------------------------

 -----
 DPGEN
 -----
 Symbolic Z-matrix:
 Charge =  0 Multiplicity = 2

                         Standard orientation:
 ---------------------------------------------------------------------
 Center     Atomic      Atomic             Coordinates (Angstroms)
 Number     Number       Type             X           Y           Z
 ---------------------------------------------------------------------
      1         11           0        0.467543    2.455287    0.281151
      2         11           0        3.433880    1.142866   -0.022832
      3         11           0        4.261998   -1.970112   -0.012135
      4         11           0        0.513231   -1.014132   -1.103931
      5         11           0       -1.264376   -0.023670    1.774172
      6         11           0       -4.190840   -1.973726    0.148277
      7         11           0       -3.221436    1.383488   -1.064701
 ---------------------------------------------------------------------

 SCF Done:  E(UB3LYP) =  -1136.11108751     A.U. after   28 cycles

 The electronic state is 2-A.
 Alpha  occ. eigenvalues --  -38.45677 -38.44617 -38.44598 -38.44541 -38.44186
 Alpha  occ. eigenvalues --  -38.43775 -38.42619  -2.21467  -2.20450  -2.20413
 Alpha  occ. eigenvalues --   -2.20278  -2.20042  -2.19565  -2.18486  -1.15156
 Alpha  occ. eigenvalues --   -1.15116  -1.15072  -1.14121  -1.14109  -1.14098
 Alpha  occ. eigenvalues --   -1.14067  -1.14046  -1.14017  -1.13967  -1.13944
 Alpha  occ. eigenvalues --   -1.13918  -1.13718  -1.13700  -1.13685  -1.13236
 Alpha  occ. eigenvalues --   -1.13224  -1.13197  -1.12162  -1.12152  -1.12130
 Alpha  occ. eigenvalues --   -0.17440  -0.14096  -0.11298  -0.10179
 Alpha virt. eigenvalues --   -0.07272  -0.06587  -0.03963  -0.03362  -0.03132
 Alpha virt. eigenvalues --   -0.02592  -0.02005  -0.01620  -0.01289  -0.00622
 Alpha virt. eigenvalues --   -0.00345  -0.00119   0.00344   0.00371   0.00474

  Beta  occ. eigenvalues --  -38.45632 -38.44561 -38.44550 -38.44545 -38.44156
  Beta  occ. eigenvalues --  -38.43769 -38.42606  -2.21387  -2.20363  -2.20318
  Beta  occ. eigenvalues --   -2.20279  -2.19987  -2.19556  -2.18465  -1.15086
  Beta  occ. eigenvalues --   -1.15063  -1.15018  -1.14054  -1.14036  -1.14016
  Beta  occ. eigenvalues --   -1.14006  -1.13995  -1.13960  -1.13957  -1.13946
  Beta  occ. eigenvalues --   -1.13913  -1.13682  -1.13659  -1.13642  -1.13229
  Beta  occ. eigenvalues --   -1.13210  -1.13192  -1.12147  -1.12132  -1.12108
  Beta  occ. eigenvalues --   -0.16829  -0.13734  -0.11164
  Beta virt. eigenvalues --   -0.06965  -0.06567  -0.06389  -0.03754  -0.03120
  Beta virt. eigenvalues --   -0.02762  -0.02157  -0.01715  -0.01346  -0.01003
  Beta virt. eigenvalues --   -0.00439  -0.00111   0.00084   0.00405   0.00493

 Mulliken charges and spin densities:
               1          2
     1  Na  -0.003292   0.055348
     2  Na  -0.180388   0.194332
     3  Na   0.345014   0.005702
     4  Na  -0.373108   0.091974
     5  Na   0.065194   0.223814
     6  Na   0.083300  -0.111456
     7  Na   0.063281   0.540286
 Sum of Mulliken charges =  -0.00000   1.00000

 Dipole moment (field-independent basis, Debye):
    X=             -0.2061    Y=             -0.8267    Z=              0.4062  Tot=              0.9439
 Quadrupole moment (field-independent basis, Debye-Ang):
   XX=            -71.6487   YY=            -69.1707   ZZ=            -65.3163
   XY=              2.6825   XZ=             -0.6748   YZ=              0.2831

 Normal termination of Gaussian 16 at Fri Dec  8 18:22:49 2023.
