 Gaussian 16, Revision B.01,
 Gaussian 16:  ES64L-G16RevB.01 20-Dec-2017

 -------------------------
 #P B3LYP/6-311+g(d) force
 -------------------------

 -----
 DPGEN
 -----
 Symbolic Z-matrix:
 Charge =  0 Multiplicity = 2

                         Standard orientation:
 ---------------------------------------------------------------------
 Center     Atomic      Atomic             Coordinates (Angstroms)
 Number     Number       Type             X           Y           Z
 ---------------------------------------------------------------------
      1         11           0        0.715834    3.241419    0.557523
      2         11           0       -3.424832    1.034349   -0.481024
      3         11           0        0.011252    0.412092   -1.746917
      4         11           0       -2.180251   -2.289318    0.148862
      5         11           0       -0.025645    0.064045    1.987265
      6         11           0        1.672200   -2.684370    0.093912
      7         11           0        3.231442    0.221782   -0.559621
 ---------------------------------------------------------------------

 SCF Done:  E(UB3LYP) =  -1136.13216542     A.U. after   20 cycles

 The electronic state is 2-A.
 Alpha  occ. eigenvalues --  -38.44502 -38.44165 -38.43961 -38.43912 -38.43838
 Alpha  occ. eigenvalues --  -38.43670 -38.43426  -2.20270  -2.19984  -2.19815
 Alpha  occ. eigenvalues --   -2.19703  -2.19689  -2.19452  -2.19235  -1.13941
 Alpha  occ. eigenvalues --   -1.13916  -1.13909  -1.13668  -1.13645  -1.13610
 Alpha  occ. eigenvalues --   -1.13506  -1.13454  -1.13434  -1.13390  -1.13376
 Alpha  occ. eigenvalues --   -1.13357  -1.13331  -1.13326  -1.13300  -1.13120
 Alpha  occ. eigenvalues --   -1.13104  -1.13093  -1.12914  -1.12899  -1.12878
 Alpha  occ. eigenvalues --   -0.17733  -0.12924  -0.12068  -0.10689
 Alpha virt. eigenvalues --   -0.05999  -0.05295  -0.04997  -0.03106  -0.02906
 Alpha virt. eigenvalues --   -0.02511  -0.01892  -0.01337  -0.00788  -0.00553
 Alpha virt. eigenvalues --   -0.00075   0.00303   0.00714   0.00740   0.00760

  Beta  occ. eigenvalues --  -38.44486 -38.44147 -38.43911 -38.43911 -38.43751
  Beta  occ. eigenvalues --  -38.43655 -38.43427  -2.20242  -2.19953  -2.19722
  Beta  occ. eigenvalues --   -2.19702  -2.19529  -2.19427  -2.19240  -1.13911
  Beta  occ. eigenvalues --   -1.13898  -1.13893  -1.13636  -1.13623  -1.13589
  Beta  occ. eigenvalues --   -1.13440  -1.13395  -1.13379  -1.13373  -1.13359
  Beta  occ. eigenvalues --   -1.13323  -1.13254  -1.13221  -1.13180  -1.13090
  Beta  occ. eigenvalues --   -1.13083  -1.13078  -1.12916  -1.12902  -1.12866
  Beta  occ. eigenvalues --   -0.17071  -0.12643  -0.11808
  Beta virt. eigenvalues --   -0.07008  -0.05818  -0.05204  -0.04873  -0.02511
  Beta virt. eigenvalues --   -0.02259  -0.01717  -0.01585  -0.01217  -0.00779
  Beta virt. eigenvalues --   -0.00587   0.00066   0.00363   0.00747   0.00805

 Mulliken charges and spin densities:
               1          2
     1  Na  -0.092971  -0.004977
     2  Na   0.064809   0.024569
     3  Na  -0.006148   0.393548
     4  Na  -0.069185  -0.031667
     5  Na  -0.000894   0.594389
     6  Na  -0.158969  -0.052664
     7  Na   0.263359   0.076802
 Sum of Mulliken charges =  -0.00000   1.00000

 Dipole moment (field-independent basis, Debye):
    X=             -0.2314    Y=              0.2130    Z=             -0.0486  Tot=              0.3183
 Quadrupole moment (field-independent basis, Debye-Ang):
   XX=            -56.9395   YY=            -62.6527   ZZ=            -74.4504
   XY=             -0.0961   XZ=             -0.1520   YZ=              0.1878

 Normal termination of Gaussian 16 at Thu Dec  7 08:27:38 2023.
