 Gaussian 16, Revision B.01,
 Gaussian 16:  ES64L-G16RevB.01 20-Dec-2017

 -------------------------
 #P B3LYP/6-311+g(d) force
 -------------------------

 -----
 DPGEN
 -----
 Symbolic Z-matrix:
 Charge =  0 Multiplicity = 2

                         Standard orientation:
 ---------------------------------------------------------------------
 Center     Atomic      Atomic             Coordinates (Angstroms)
 Number     Number       Type             X           Y           Z
 ---------------------------------------------------------------------
      1         11           0        0.623129    1.562375    1.056849
      2         11           0        2.231865    3.684531   -0.502419
      3         11           0        3.611436   -0.414718   -0.656695
      4         11           0       -0.102627   -1.890488   -0.356746
      5         11           0       -2.570408    0.407128    0.622612
      6         11           0        2.704539   -3.108643    0.362411
      7         11           0       -6.497934   -0.240185   -0.526012
 ---------------------------------------------------------------------

 SCF Done:  E(UB3LYP) =  -1136.11605037     A.U. after   19 cycles

 The electronic state is 2-A.
 Alpha  occ. eigenvalues --  -38.45139 -38.44887 -38.44330 -38.44190 -38.43833
 Alpha  occ. eigenvalues --  -38.43543 -38.43317  -2.20919  -2.20707  -2.20175
 Alpha  occ. eigenvalues --   -2.20065  -2.19629  -2.19411  -2.19111  -1.14546
 Alpha  occ. eigenvalues --   -1.14545  -1.14518  -1.14406  -1.14375  -1.14334
 Alpha  occ. eigenvalues --   -1.13888  -1.13850  -1.13819  -1.13721  -1.13698
 Alpha  occ. eigenvalues --   -1.13668  -1.13349  -1.13286  -1.13260  -1.13092
 Alpha  occ. eigenvalues --   -1.13085  -1.13013  -1.12794  -1.12786  -1.12753
 Alpha  occ. eigenvalues --   -0.16849  -0.13510  -0.12661  -0.11318
 Alpha virt. eigenvalues --   -0.06149  -0.05490  -0.04911  -0.03719  -0.02414
 Alpha virt. eigenvalues --   -0.02327  -0.02070  -0.01658  -0.01607  -0.00810
 Alpha virt. eigenvalues --   -0.00368  -0.00035   0.00169   0.00309   0.00600

  Beta  occ. eigenvalues --  -38.44989 -38.44865 -38.44310 -38.44188 -38.43832
  Beta  occ. eigenvalues --  -38.43531 -38.43323  -2.20666  -2.20640  -2.20137
  Beta  occ. eigenvalues --   -2.20061  -2.19627  -2.19391  -2.19129  -1.14379
  Beta  occ. eigenvalues --   -1.14356  -1.14356  -1.14347  -1.14331  -1.14303
  Beta  occ. eigenvalues --   -1.13869  -1.13827  -1.13791  -1.13712  -1.13695
  Beta  occ. eigenvalues --   -1.13659  -1.13347  -1.13284  -1.13257  -1.13081
  Beta  occ. eigenvalues --   -1.13073  -1.12989  -1.12811  -1.12804  -1.12726
  Beta  occ. eigenvalues --   -0.16564  -0.12994  -0.12102
  Beta virt. eigenvalues --   -0.07529  -0.05905  -0.05382  -0.04455  -0.03561
  Beta virt. eigenvalues --   -0.02260  -0.02043  -0.01585  -0.01436  -0.01000
  Beta virt. eigenvalues --   -0.00303  -0.00192   0.00061   0.00371   0.00452

 Mulliken charges and spin densities:
               1          2
     1  Na  -0.569808  -0.087403
     2  Na   0.602241   0.043367
     3  Na   0.098098   0.193806
     4  Na  -0.520166  -0.043643
     5  Na  -0.090425   0.187203
     6  Na   0.539286   0.058751
     7  Na  -0.059226   0.647920
 Sum of Mulliken charges =  -0.00000   1.00000

 Dipole moment (field-independent basis, Debye):
    X=              1.2004    Y=             -0.7590    Z=             -0.3665  Tot=              1.4668
 Quadrupole moment (field-independent basis, Debye-Ang):
   XX=            -66.5699   YY=            -62.4913   ZZ=            -69.6759
   XY=             -1.4218   XZ=             -0.1313   YZ=             -2.4250

 Normal termination of Gaussian 16 at Wed Nov 29 03:59:50 2023.
