 Gaussian 16, Revision B.01,
 Gaussian 16:  ES64L-G16RevB.01 20-Dec-2017

 -------------------------
 #P B3LYP/6-311+g(d) force
 -------------------------

 -----
 DPGEN
 -----
 Symbolic Z-matrix:
 Charge =  0 Multiplicity = 2

                         Standard orientation:
 ---------------------------------------------------------------------
 Center     Atomic      Atomic             Coordinates (Angstroms)
 Number     Number       Type             X           Y           Z
 ---------------------------------------------------------------------
      1         11           0       -2.137827   -1.517203   -1.157042
      2         11           0        1.611086    2.383598   -0.823905
      3         11           0       -2.506922    1.443393   -0.986030
      4         11           0       -2.571203   -0.239767    2.283515
      5         11           0        0.188669   -0.115454    0.404131
      6         11           0        2.116022   -2.018722   -1.060009
      7         11           0        3.300175    0.064155    1.339341
 ---------------------------------------------------------------------

 SCF Done:  E(UB3LYP) =  -1136.11486888     A.U. after   25 cycles

 The electronic state is 2-A.
 Alpha  occ. eigenvalues --  -38.45136 -38.44549 -38.44233 -38.44033 -38.43497
 Alpha  occ. eigenvalues --  -38.43060 -38.42854  -2.20972  -2.20397  -2.20112
 Alpha  occ. eigenvalues --   -2.19937  -2.19336  -2.18973  -2.18877  -1.14666
 Alpha  occ. eigenvalues --   -1.14617  -1.14584  -1.14062  -1.14023  -1.13995
 Alpha  occ. eigenvalues --   -1.13889  -1.13753  -1.13733  -1.13620  -1.13570
 Alpha  occ. eigenvalues --   -1.13521  -1.13068  -1.12988  -1.12955  -1.12725
 Alpha  occ. eigenvalues --   -1.12674  -1.12603  -1.12543  -1.12510  -1.12490
 Alpha  occ. eigenvalues --   -0.18364  -0.14402  -0.11156  -0.10789
 Alpha virt. eigenvalues --   -0.06368  -0.05370  -0.05025  -0.03124  -0.02518
 Alpha virt. eigenvalues --   -0.02200  -0.02116  -0.01001  -0.00727  -0.00100
 Alpha virt. eigenvalues --   -0.00010   0.00173   0.00274   0.00594   0.00671

  Beta  occ. eigenvalues --  -38.45127 -38.44445 -38.44205 -38.44002 -38.43493
  Beta  occ. eigenvalues --  -38.43064 -38.42834  -2.20954  -2.20203  -2.20064
  Beta  occ. eigenvalues --   -2.19884  -2.19329  -2.18943  -2.18885  -1.14649
  Beta  occ. eigenvalues --   -1.14606  -1.14577  -1.13926  -1.13889  -1.13874
  Beta  occ. eigenvalues --   -1.13846  -1.13718  -1.13686  -1.13588  -1.13509
  Beta  occ. eigenvalues --   -1.13486  -1.13060  -1.12982  -1.12946  -1.12693
  Beta  occ. eigenvalues --   -1.12625  -1.12589  -1.12544  -1.12507  -1.12492
  Beta  occ. eigenvalues --   -0.17731  -0.14165  -0.10630
  Beta virt. eigenvalues --   -0.07339  -0.05979  -0.05144  -0.04582  -0.02871
  Beta virt. eigenvalues --   -0.02149  -0.01793  -0.01620  -0.00707  -0.00404
  Beta virt. eigenvalues --    0.00084   0.00142   0.00320   0.00416   0.00631

 Mulliken charges and spin densities:
               1          2
     1  Na   0.656259   0.298893
     2  Na   0.238080  -0.155349
     3  Na   0.683134   0.263792
     4  Na   0.162748   0.242210
     5  Na  -3.163286   0.577330
     6  Na   0.471617  -0.141512
     7  Na   0.951448  -0.085364
 Sum of Mulliken charges =  -0.00000   1.00000

 Dipole moment (field-independent basis, Debye):
    X=              0.1904    Y=             -0.0593    Z=              0.3240  Tot=              0.3804
 Quadrupole moment (field-independent basis, Debye-Ang):
   XX=            -49.7258   YY=            -76.8002   ZZ=            -65.8740
   XY=             -0.5705   XZ=              3.3550   YZ=              0.2644

 Normal termination of Gaussian 16 at Fri Dec  8 19:19:38 2023.
