 Gaussian 16, Revision B.01,
 Gaussian 16:  ES64L-G16RevB.01 20-Dec-2017

 -------------------------
 #P B3LYP/6-311+g(d) force
 -------------------------

 -----
 DPGEN
 -----
 Symbolic Z-matrix:
 Charge =  0 Multiplicity = 2

                         Standard orientation:
 ---------------------------------------------------------------------
 Center     Atomic      Atomic             Coordinates (Angstroms)
 Number     Number       Type             X           Y           Z
 ---------------------------------------------------------------------
      1         11           0        2.952547   -0.196214   -0.555259
      2         11           0       -2.102052   -1.822378    0.012826
      3         11           0        0.375277    0.508256    2.055834
      4         11           0        0.885880   -2.536748    0.317263
      5         11           0       -3.011933    1.293629   -0.201018
      6         11           0        0.949160    2.841599   -0.071422
      7         11           0       -0.048879   -0.088144   -1.558225
 ---------------------------------------------------------------------

 SCF Done:  E(UB3LYP) =  -1136.13326981     A.U. after   19 cycles

 The electronic state is 2-A.
 Alpha  occ. eigenvalues --  -38.44100 -38.43956 -38.43617 -38.43591 -38.43419
 Alpha  occ. eigenvalues --  -38.43170 -38.42971  -2.19910  -2.19844  -2.19521
 Alpha  occ. eigenvalues --   -2.19435  -2.19347  -2.19211  -2.18918  -1.13588
 Alpha  occ. eigenvalues --   -1.13580  -1.13552  -1.13544  -1.13502  -1.13462
 Alpha  occ. eigenvalues --   -1.13223  -1.13175  -1.13138  -1.13115  -1.13100
 Alpha  occ. eigenvalues --   -1.13072  -1.13055  -1.13009  -1.12982  -1.12891
 Alpha  occ. eigenvalues --   -1.12834  -1.12827  -1.12586  -1.12561  -1.12553
 Alpha  occ. eigenvalues --   -0.19039  -0.13172  -0.12526  -0.10949
 Alpha virt. eigenvalues --   -0.05756  -0.04928  -0.04476  -0.03232  -0.03020
 Alpha virt. eigenvalues --   -0.02567  -0.01556  -0.01017  -0.00314  -0.00072
 Alpha virt. eigenvalues --    0.00057   0.00348   0.00849   0.00903   0.00961

  Beta  occ. eigenvalues --  -38.44099 -38.43937 -38.43586 -38.43524 -38.43414
  Beta  occ. eigenvalues --  -38.43110 -38.42960  -2.19910  -2.19812  -2.19431
  Beta  occ. eigenvalues --   -2.19350  -2.19341  -2.19104  -2.18902  -1.13590
  Beta  occ. eigenvalues --   -1.13568  -1.13544  -1.13525  -1.13465  -1.13439
  Beta  occ. eigenvalues --   -1.13161  -1.13100  -1.13089  -1.13058  -1.13056
  Beta  occ. eigenvalues --   -1.13018  -1.12995  -1.12994  -1.12966  -1.12823
  Beta  occ. eigenvalues --   -1.12766  -1.12744  -1.12576  -1.12555  -1.12505
  Beta  occ. eigenvalues --   -0.18309  -0.12913  -0.12278
  Beta virt. eigenvalues --   -0.06995  -0.05727  -0.04862  -0.04467  -0.02462
  Beta virt. eigenvalues --   -0.02234  -0.01574  -0.01402  -0.00944  -0.00340
  Beta virt. eigenvalues --   -0.00047   0.00142   0.00384   0.00858   0.00930

 Mulliken charges and spin densities:
               1          2
     1  Na   0.394037   0.086762
     2  Na   0.129984   0.039163
     3  Na  -0.573066   0.608776
     4  Na   0.310678   0.174219
     5  Na   0.088698  -0.062169
     6  Na   0.091434  -0.088265
     7  Na  -0.441765   0.241515
 Sum of Mulliken charges =  -0.00000   1.00000

 Dipole moment (field-independent basis, Debye):
    X=             -0.0218    Y=              0.4652    Z=              0.1491  Tot=              0.4890
 Quadrupole moment (field-independent basis, Debye-Ang):
   XX=            -57.3774   YY=            -63.2790   ZZ=            -73.3030
   XY=             -0.9481   XZ=             -1.0499   YZ=             -1.4242

 Normal termination of Gaussian 16 at Thu Dec  7 08:30:27 2023.
