 Gaussian 16, Revision B.01,
 Gaussian 16:  ES64L-G16RevB.01 20-Dec-2017

 -------------------------
 #P B3LYP/6-311+g(d) force
 -------------------------

 -----
 DPGEN
 -----
 Symbolic Z-matrix:
 Charge =  0 Multiplicity = 2

                         Standard orientation:
 ---------------------------------------------------------------------
 Center     Atomic      Atomic             Coordinates (Angstroms)
 Number     Number       Type             X           Y           Z
 ---------------------------------------------------------------------
      1         11           0       -0.918241   -0.126363    2.012681
      2         11           0       -2.366413    1.908268   -0.050273
      3         11           0        1.487805    1.999153    0.418389
      4         11           0        3.817866   -0.047393   -0.575671
      5         11           0        1.148274   -2.303065    0.747066
      6         11           0        0.016075   -0.095623   -1.775135
      7         11           0       -3.185367   -1.334978   -0.777057
 ---------------------------------------------------------------------

 SCF Done:  E(UB3LYP) =  -1136.12678087     A.U. after   24 cycles

 The electronic state is 2-A.
 Alpha  occ. eigenvalues --  -38.45043 -38.44594 -38.44569 -38.43707 -38.43497
 Alpha  occ. eigenvalues --  -38.42972 -38.42894  -2.20840  -2.20470  -2.20379
 Alpha  occ. eigenvalues --   -2.19637  -2.19364  -2.18836  -2.18731  -1.14518
 Alpha  occ. eigenvalues --   -1.14494  -1.14466  -1.14173  -1.14115  -1.14095
 Alpha  occ. eigenvalues --   -1.14043  -1.14029  -1.14005  -1.13318  -1.13294
 Alpha  occ. eigenvalues --   -1.13242  -1.13043  -1.13026  -1.12984  -1.12534
 Alpha  occ. eigenvalues --   -1.12511  -1.12457  -1.12429  -1.12394  -1.12344
 Alpha  occ. eigenvalues --   -0.18457  -0.13801  -0.11326  -0.11145
 Alpha virt. eigenvalues --   -0.06784  -0.05160  -0.04126  -0.03111  -0.02818
 Alpha virt. eigenvalues --   -0.02673  -0.02419  -0.01133  -0.00571  -0.00145
 Alpha virt. eigenvalues --    0.00115   0.00222   0.00441   0.00716   0.00780

  Beta  occ. eigenvalues --  -38.45034 -38.44549 -38.44542 -38.43615 -38.43490
  Beta  occ. eigenvalues --  -38.42967 -38.42874  -2.20823  -2.20389  -2.20330
  Beta  occ. eigenvalues --   -2.19469  -2.19356  -2.18830  -2.18698  -1.14508
  Beta  occ. eigenvalues --   -1.14477  -1.14456  -1.14114  -1.14064  -1.14032
  Beta  occ. eigenvalues --   -1.14008  -1.13983  -1.13973  -1.13202  -1.13186
  Beta  occ. eigenvalues --   -1.13121  -1.13019  -1.13018  -1.12964  -1.12534
  Beta  occ. eigenvalues --   -1.12491  -1.12445  -1.12400  -1.12357  -1.12324
  Beta  occ. eigenvalues --   -0.17744  -0.13527  -0.10869
  Beta virt. eigenvalues --   -0.07479  -0.06573  -0.05118  -0.03680  -0.02897
  Beta virt. eigenvalues --   -0.02322  -0.01945  -0.01798  -0.01085  -0.00380
  Beta virt. eigenvalues --   -0.00056   0.00131   0.00264   0.00587   0.00775

 Mulliken charges and spin densities:
               1          2
     1  Na   0.205285   0.540490
     2  Na   0.184221   0.015486
     3  Na  -0.278204  -0.109361
     4  Na   0.427364   0.097429
     5  Na  -0.341030  -0.077921
     6  Na  -0.267421   0.488657
     7  Na   0.069786   0.045219
 Sum of Mulliken charges =  -0.00000   1.00000

 Dipole moment (field-independent basis, Debye):
    X=              0.1261    Y=             -0.1545    Z=             -0.4409  Tot=              0.4839
 Quadrupole moment (field-independent basis, Debye-Ang):
   XX=            -47.8426   YY=            -75.1959   ZZ=            -70.2287
   XY=             -0.2929   XZ=             -0.6557   YZ=              1.0403

 Normal termination of Gaussian 16 at Thu Dec  7 05:17:09 2023.
