 Gaussian 16, Revision B.01,
 Gaussian 16:  ES64L-G16RevB.01 20-Dec-2017

 -------------------------
 #P B3LYP/6-311+g(d) force
 -------------------------

 -----
 DPGEN
 -----
 Symbolic Z-matrix:
 Charge =  0 Multiplicity = 2

                         Standard orientation:
 ---------------------------------------------------------------------
 Center     Atomic      Atomic             Coordinates (Angstroms)
 Number     Number       Type             X           Y           Z
 ---------------------------------------------------------------------
      1         11           0        0.905456   -2.056198   -1.822488
      2         11           0       -1.816197   -2.063717    1.065968
      3         11           0        1.502823    2.580998    0.607273
      4         11           0       -4.439825    0.926615    0.005693
      5         11           0        1.636971   -0.830370    1.959685
      6         11           0        3.885445    0.382042   -0.638571
      7         11           0       -1.674673    1.060630   -1.177561
 ---------------------------------------------------------------------

 SCF Done:  E(UB3LYP) =  -1136.11442114     A.U. after   22 cycles

 The electronic state is 2-A.
 Alpha  occ. eigenvalues --  -38.45284 -38.44840 -38.44297 -38.44165 -38.44142
 Alpha  occ. eigenvalues --  -38.43861 -38.43644  -2.21063  -2.20636  -2.20125
 Alpha  occ. eigenvalues --   -2.19956  -2.19949  -2.19633  -2.19426  -1.14745
 Alpha  occ. eigenvalues --   -1.14711  -1.14695  -1.14353  -1.14288  -1.14275
 Alpha  occ. eigenvalues --   -1.13793  -1.13775  -1.13755  -1.13648  -1.13626
 Alpha  occ. eigenvalues --   -1.13619  -1.13605  -1.13577  -1.13551  -1.13314
 Alpha  occ. eigenvalues --   -1.13293  -1.13257  -1.13104  -1.13072  -1.13037
 Alpha  occ. eigenvalues --   -0.16991  -0.13771  -0.11408  -0.10703
 Alpha virt. eigenvalues --   -0.07306  -0.05587  -0.04178  -0.03706  -0.03185
 Alpha virt. eigenvalues --   -0.02505  -0.02318  -0.01327  -0.00725  -0.00583
 Alpha virt. eigenvalues --   -0.00366  -0.00168   0.00177   0.00599   0.00661

  Beta  occ. eigenvalues --  -38.45269 -38.44846 -38.44284 -38.44151 -38.44086
  Beta  occ. eigenvalues --  -38.43841 -38.43582  -2.21037  -2.20648  -2.20101
  Beta  occ. eigenvalues --   -2.19926  -2.19851  -2.19597  -2.19312  -1.14727
  Beta  occ. eigenvalues --   -1.14694  -1.14662  -1.14358  -1.14296  -1.14283
  Beta  occ. eigenvalues --   -1.13770  -1.13760  -1.13741  -1.13612  -1.13592
  Beta  occ. eigenvalues --   -1.13571  -1.13557  -1.13533  -1.13480  -1.13285
  Beta  occ. eigenvalues --   -1.13265  -1.13232  -1.13025  -1.12995  -1.12954
  Beta  occ. eigenvalues --   -0.16415  -0.13639  -0.11134
  Beta virt. eigenvalues --   -0.07147  -0.07020  -0.05335  -0.03854  -0.03219
  Beta virt. eigenvalues --   -0.02966  -0.02236  -0.01608  -0.01180  -0.00554
  Beta virt. eigenvalues --   -0.00373  -0.00298  -0.00028   0.00294   0.00687

 Mulliken charges and spin densities:
               1          2
     1  Na  -0.056580   0.386657
     2  Na  -0.074037   0.087373
     3  Na   0.164080   0.059144
     4  Na   0.492489  -0.114768
     5  Na  -0.095783   0.349010
     6  Na   0.235800   0.052407
     7  Na  -0.665969   0.180177
 Sum of Mulliken charges =  -0.00000   1.00000

 Dipole moment (field-independent basis, Debye):
    X=             -0.1670    Y=              0.2558    Z=              0.3086  Tot=              0.4342
 Quadrupole moment (field-independent basis, Debye-Ang):
   XX=            -48.0764   YY=            -74.5918   ZZ=            -72.7935
   XY=              0.6408   XZ=             -3.5477   YZ=             -0.0622

 Normal termination of Gaussian 16 at Sun Dec  3 17:16:34 2023.
