 Gaussian 16, Revision B.01,
 Gaussian 16:  ES64L-G16RevB.01 20-Dec-2017

 -------------------------
 #P B3LYP/6-311+g(d) force
 -------------------------

 -----
 DPGEN
 -----
 Symbolic Z-matrix:
 Charge =  0 Multiplicity = 2

                         Standard orientation:
 ---------------------------------------------------------------------
 Center     Atomic      Atomic             Coordinates (Angstroms)
 Number     Number       Type             X           Y           Z
 ---------------------------------------------------------------------
      1         11           0        2.077616   -2.026698   -0.365262
      2         11           0       -0.173897   -0.138227   -1.697068
      3         11           0       -1.436980   -2.317340   -0.035209
      4         11           0       -3.039947    0.350562    0.082911
      5         11           0       -0.462448    3.032721   -0.446862
      6         11           0        3.101282    1.072649    0.195805
      7         11           0       -0.065625    0.026334    2.265684
 ---------------------------------------------------------------------

 SCF Done:  E(UB3LYP) =  -1136.13312674     A.U. after   19 cycles

 The electronic state is 2-A.
 Alpha  occ. eigenvalues --  -38.44284 -38.44262 -38.44076 -38.43440 -38.43378
 Alpha  occ. eigenvalues --  -38.43369 -38.43118  -2.20106  -2.20072  -2.19944
 Alpha  occ. eigenvalues --   -2.19437  -2.19250  -2.19164  -2.19060  -1.13765
 Alpha  occ. eigenvalues --   -1.13746  -1.13742  -1.13734  -1.13722  -1.13709
 Alpha  occ. eigenvalues --   -1.13644  -1.13604  -1.13576  -1.13174  -1.13090
 Alpha  occ. eigenvalues --   -1.13077  -1.12920  -1.12901  -1.12881  -1.12847
 Alpha  occ. eigenvalues --   -1.12818  -1.12796  -1.12737  -1.12702  -1.12681
 Alpha  occ. eigenvalues --   -0.18648  -0.13117  -0.12146  -0.11178
 Alpha virt. eigenvalues --   -0.05886  -0.04876  -0.04530  -0.03401  -0.03063
 Alpha virt. eigenvalues --   -0.02818  -0.01542  -0.00958  -0.00414  -0.00142
 Alpha virt. eigenvalues --   -0.00052   0.00368   0.00793   0.00855   0.00887

  Beta  occ. eigenvalues --  -38.44284 -38.44159 -38.44071 -38.43375 -38.43371
  Beta  occ. eigenvalues --  -38.43362 -38.43109  -2.20075  -2.19940  -2.19916
  Beta  occ. eigenvalues --   -2.19318  -2.19241  -2.19154  -2.19049  -1.13746
  Beta  occ. eigenvalues --   -1.13731  -1.13715  -1.13652  -1.13633  -1.13605
  Beta  occ. eigenvalues --   -1.13589  -1.13574  -1.13566  -1.13101  -1.13017
  Beta  occ. eigenvalues --   -1.12992  -1.12895  -1.12887  -1.12869  -1.12826
  Beta  occ. eigenvalues --   -1.12810  -1.12791  -1.12726  -1.12682  -1.12654
  Beta  occ. eigenvalues --   -0.17892  -0.12921  -0.11892
  Beta virt. eigenvalues --   -0.07211  -0.05805  -0.04875  -0.04470  -0.02615
  Beta virt. eigenvalues --   -0.02183  -0.01877  -0.01438  -0.00888  -0.00446
  Beta virt. eigenvalues --   -0.00192   0.00100   0.00395   0.00853   0.00897

 Mulliken charges and spin densities:
               1          2
     1  Na   0.234918  -0.009387
     2  Na  -0.146151   0.320307
     3  Na   0.393449   0.084172
     4  Na   0.240621   0.015449
     5  Na  -0.033256  -0.049496
     6  Na  -0.048462  -0.027611
     7  Na  -0.641119   0.666566
 Sum of Mulliken charges =  -0.00000   1.00000

 Dipole moment (field-independent basis, Debye):
    X=              0.1086    Y=              0.1867    Z=              0.3422  Tot=              0.4047
 Quadrupole moment (field-independent basis, Debye-Ang):
   XX=            -57.0222   YY=            -65.6294   ZZ=            -72.2648
   XY=              0.4966   XZ=             -0.1478   YZ=             -0.0101

 Normal termination of Gaussian 16 at Tue Dec  5 16:37:04 2023.
