 Gaussian 16, Revision B.01,
 Gaussian 16:  ES64L-G16RevB.01 20-Dec-2017

 -------------------------
 #P B3LYP/6-311+g(d) force
 -------------------------

 -----
 DPGEN
 -----
 Symbolic Z-matrix:
 Charge =  0 Multiplicity = 2

                         Standard orientation:
 ---------------------------------------------------------------------
 Center     Atomic      Atomic             Coordinates (Angstroms)
 Number     Number       Type             X           Y           Z
 ---------------------------------------------------------------------
      1         11           0        2.016815    2.316884   -0.051939
      2         11           0       -0.741327   -2.945503   -0.788658
      3         11           0        0.103309   -0.947678    2.027354
      4         11           0       -3.030703   -0.060647    0.392284
      5         11           0        3.405208   -0.836549    0.077640
      6         11           0       -1.671121    2.448368   -0.062319
      7         11           0       -0.082181    0.025126   -1.594362
 ---------------------------------------------------------------------

 SCF Done:  E(UB3LYP) =  -1136.12974182     A.U. after   20 cycles

 The electronic state is 2-A.
 Alpha  occ. eigenvalues --  -38.44755 -38.44218 -38.43870 -38.43816 -38.43454
 Alpha  occ. eigenvalues --  -38.43313 -38.43200  -2.20526  -2.20108  -2.19709
 Alpha  occ. eigenvalues --   -2.19630  -2.19299  -2.19209  -2.19171  -1.14198
 Alpha  occ. eigenvalues --   -1.14178  -1.14170  -1.13860  -1.13753  -1.13725
 Alpha  occ. eigenvalues --   -1.13379  -1.13347  -1.13327  -1.13313  -1.13301
 Alpha  occ. eigenvalues --   -1.13259  -1.13032  -1.12935  -1.12929  -1.12918
 Alpha  occ. eigenvalues --   -1.12869  -1.12845  -1.12826  -1.12786  -1.12773
 Alpha  occ. eigenvalues --   -0.18308  -0.13167  -0.12373  -0.10689
 Alpha virt. eigenvalues --   -0.06192  -0.05125  -0.04605  -0.03215  -0.02979
 Alpha virt. eigenvalues --   -0.02447  -0.01854  -0.01157  -0.00554  -0.00334
 Alpha virt. eigenvalues --   -0.00025   0.00348   0.00710   0.00773   0.00853

  Beta  occ. eigenvalues --  -38.44754 -38.44204 -38.43815 -38.43798 -38.43426
  Beta  occ. eigenvalues --  -38.43310 -38.43133  -2.20525  -2.20085  -2.19629
  Beta  occ. eigenvalues --   -2.19573  -2.19251  -2.19207  -2.19050  -1.14185
  Beta  occ. eigenvalues --   -1.14180  -1.14171  -1.13849  -1.13718  -1.13705
  Beta  occ. eigenvalues --   -1.13307  -1.13296  -1.13287  -1.13258  -1.13254
  Beta  occ. eigenvalues --   -1.13226  -1.12980  -1.12908  -1.12900  -1.12889
  Beta  occ. eigenvalues --   -1.12849  -1.12830  -1.12755  -1.12708  -1.12689
  Beta  occ. eigenvalues --   -0.17642  -0.12971  -0.12089
  Beta virt. eigenvalues --   -0.06871  -0.06064  -0.05047  -0.04519  -0.02551
  Beta virt. eigenvalues --   -0.02312  -0.01775  -0.01408  -0.01055  -0.00574
  Beta virt. eigenvalues --   -0.00339   0.00138   0.00396   0.00758   0.00843

 Mulliken charges and spin densities:
               1          2
     1  Na  -0.022215  -0.005375
     2  Na   0.024395   0.002323
     3  Na  -0.400902   0.552153
     4  Na   0.305962   0.213517
     5  Na   0.038109  -0.024549
     6  Na  -0.106236  -0.057664
     7  Na   0.160888   0.319594
 Sum of Mulliken charges =  -0.00000   1.00000

 Dipole moment (field-independent basis, Debye):
    X=              0.5615    Y=             -0.3059    Z=              0.2301  Tot=              0.6796
 Quadrupole moment (field-independent basis, Debye-Ang):
   XX=            -56.1063   YY=            -63.5539   ZZ=            -74.6387
   XY=             -0.2567   XZ=             -0.5382   YZ=              1.4132

 Normal termination of Gaussian 16 at Thu Dec  7 04:59:46 2023.
