 Gaussian 16, Revision B.01,
 Gaussian 16:  ES64L-G16RevB.01 20-Dec-2017

 -------------------------
 #P B3LYP/6-311+g(d) force
 -------------------------

 -----
 DPGEN
 -----
 Symbolic Z-matrix:
 Charge =  0 Multiplicity = 2

                         Standard orientation:
 ---------------------------------------------------------------------
 Center     Atomic      Atomic             Coordinates (Angstroms)
 Number     Number       Type             X           Y           Z
 ---------------------------------------------------------------------
      1         11           0       -0.571889   -0.295664   -1.381880
      2         11           0        0.393457   -2.317300    0.328035
      3         11           0       -3.232945   -0.022389   -0.389887
      4         11           0       -1.145163    0.284773    1.559162
      5         11           0        1.777547    0.279338    1.451076
      6         11           0        0.467887    2.325821   -0.350834
      7         11           0        2.311106   -0.254578   -1.215671
 ---------------------------------------------------------------------

 SCF Done:  E(UB3LYP) =  -1136.09809969     A.U. after   21 cycles

 The electronic state is 2-A.
 Alpha  occ. eigenvalues --  -38.44650 -38.44204 -38.44051 -38.43755 -38.43669
 Alpha  occ. eigenvalues --  -38.42598 -38.42529  -2.20577  -2.20285  -2.20181
 Alpha  occ. eigenvalues --   -2.19947  -2.19893  -2.18624  -2.18540  -1.14381
 Alpha  occ. eigenvalues --   -1.14305  -1.14212  -1.14142  -1.14078  -1.13968
 Alpha  occ. eigenvalues --   -1.13834  -1.13738  -1.13700  -1.13684  -1.13593
 Alpha  occ. eigenvalues --   -1.13540  -1.13523  -1.13467  -1.13447  -1.12345
 Alpha  occ. eigenvalues --   -1.12278  -1.12258  -1.12200  -1.12197  -1.12130
 Alpha  occ. eigenvalues --   -0.20829  -0.13820  -0.12469  -0.11933
 Alpha virt. eigenvalues --   -0.05839  -0.04178  -0.03590  -0.03485  -0.03149
 Alpha virt. eigenvalues --   -0.02775  -0.01544  -0.00453  -0.00348   0.00311
 Alpha virt. eigenvalues --    0.00573   0.00696   0.00901   0.01007   0.01055

  Beta  occ. eigenvalues --  -38.44643 -38.44166 -38.43996 -38.43693 -38.43606
  Beta  occ. eigenvalues --  -38.42585 -38.42516  -2.20566  -2.20217  -2.20086
  Beta  occ. eigenvalues --   -2.19836  -2.19783  -2.18605  -2.18521  -1.14364
  Beta  occ. eigenvalues --   -1.14279  -1.14161  -1.14137  -1.14004  -1.13882
  Beta  occ. eigenvalues --   -1.13783  -1.13670  -1.13630  -1.13621  -1.13518
  Beta  occ. eigenvalues --   -1.13462  -1.13429  -1.13381  -1.13371  -1.12336
  Beta  occ. eigenvalues --   -1.12250  -1.12222  -1.12189  -1.12152  -1.12115
  Beta  occ. eigenvalues --   -0.19987  -0.13650  -0.11648
  Beta virt. eigenvalues --   -0.08071  -0.05757  -0.03619  -0.03504  -0.03348
  Beta virt. eigenvalues --   -0.02148  -0.01845  -0.01455  -0.00335  -0.00135
  Beta virt. eigenvalues --    0.00338   0.00633   0.00840   0.00884   0.01016

 Mulliken charges and spin densities:
               1          2
     1  Na   0.010797   0.145890
     2  Na  -0.690372   0.300797
     3  Na  -0.044824   0.141088
     4  Na   0.011103   0.096588
     5  Na   0.607408   0.133939
     6  Na  -0.724865   0.254838
     7  Na   0.830753  -0.073140
 Sum of Mulliken charges =  -0.00000   1.00000

 Dipole moment (field-independent basis, Debye):
    X=             -0.3433    Y=              0.0586    Z=             -0.0148  Tot=              0.3485
 Quadrupole moment (field-independent basis, Debye-Ang):
   XX=            -55.5641   YY=            -73.2645   ZZ=            -65.9002
   XY=             -0.1505   XZ=              0.0236   YZ=             -1.4529

 Normal termination of Gaussian 16 at Fri Dec  8 18:11:18 2023.
