 Gaussian 16, Revision B.01,
 Gaussian 16:  ES64L-G16RevB.01 20-Dec-2017

 -------------------------
 #P B3LYP/6-311+g(d) force
 -------------------------

 -----
 DPGEN
 -----
 Symbolic Z-matrix:
 Charge =  0 Multiplicity = 2

                         Standard orientation:
 ---------------------------------------------------------------------
 Center     Atomic      Atomic             Coordinates (Angstroms)
 Number     Number       Type             X           Y           Z
 ---------------------------------------------------------------------
      1         11           0       -2.162169   -1.280400    1.994262
      2         11           0        0.230826    3.160618   -0.454150
      3         11           0       -2.733518    1.244544   -0.582853
      4         11           0       -1.411991   -2.126740   -1.184155
      5         11           0        2.739773   -1.738968   -0.889832
      6         11           0        0.412428    0.199655   -0.128731
      7         11           0        2.924651    0.541291    1.245459
 ---------------------------------------------------------------------

 SCF Done:  E(UB3LYP) =  -1136.12056067     A.U. after   20 cycles

 The electronic state is 2-A.
 Alpha  occ. eigenvalues --  -38.44366 -38.44230 -38.44169 -38.43739 -38.43681
 Alpha  occ. eigenvalues --  -38.43225 -38.42593  -2.20205  -2.20129  -2.20028
 Alpha  occ. eigenvalues --   -2.19587  -2.19548  -2.19064  -2.18767  -1.13900
 Alpha  occ. eigenvalues --   -1.13888  -1.13883  -1.13813  -1.13799  -1.13739
 Alpha  occ. eigenvalues --   -1.13707  -1.13666  -1.13620  -1.13272  -1.13242
 Alpha  occ. eigenvalues --   -1.13235  -1.13217  -1.13185  -1.13136  -1.12831
 Alpha  occ. eigenvalues --   -1.12715  -1.12678  -1.12481  -1.12409  -1.12378
 Alpha  occ. eigenvalues --   -0.18211  -0.13808  -0.12144  -0.10342
 Alpha virt. eigenvalues --   -0.05912  -0.05203  -0.04704  -0.03605  -0.02499
 Alpha virt. eigenvalues --   -0.02091  -0.01742  -0.01009  -0.00437  -0.00145
 Alpha virt. eigenvalues --   -0.00100   0.00368   0.00418   0.00718   0.00769

  Beta  occ. eigenvalues --  -38.44354 -38.44202 -38.44158 -38.43660 -38.43655
  Beta  occ. eigenvalues --  -38.43228 -38.42571  -2.20186  -2.20076  -2.20008
  Beta  occ. eigenvalues --   -2.19503  -2.19437  -2.19071  -2.18735  -1.13880
  Beta  occ. eigenvalues --   -1.13864  -1.13856  -1.13798  -1.13767  -1.13704
  Beta  occ. eigenvalues --   -1.13684  -1.13654  -1.13592  -1.13240  -1.13171
  Beta  occ. eigenvalues --   -1.13138  -1.13131  -1.13119  -1.13069  -1.12835
  Beta  occ. eigenvalues --   -1.12717  -1.12674  -1.12421  -1.12371  -1.12362
  Beta  occ. eigenvalues --   -0.17625  -0.13563  -0.11856
  Beta virt. eigenvalues --   -0.06758  -0.05819  -0.04659  -0.04439  -0.03270
  Beta virt. eigenvalues --   -0.02033  -0.01746  -0.01300  -0.00874  -0.00251
  Beta virt. eigenvalues --   -0.00009   0.00086   0.00450   0.00590   0.00778

 Mulliken charges and spin densities:
               1          2
     1  Na   0.160498   0.406823
     2  Na   0.465060  -0.081527
     3  Na   0.364234   0.127443
     4  Na   0.242641   0.066068
     5  Na   0.894956  -0.019128
     6  Na  -3.315285   0.525151
     7  Na   1.187896  -0.024830
 Sum of Mulliken charges =  -0.00000   1.00000

 Dipole moment (field-independent basis, Debye):
    X=              0.1662    Y=             -0.1295    Z=             -0.1581  Tot=              0.2634
 Quadrupole moment (field-independent basis, Debye-Ang):
   XX=            -55.1601   YY=            -66.0272   ZZ=            -70.5632
   XY=             -1.4398   XZ=              2.3276   YZ=              2.0238

 Normal termination of Gaussian 16 at Thu Dec  7 06:04:15 2023.
