 Gaussian 16, Revision B.01,
 Gaussian 16:  ES64L-G16RevB.01 20-Dec-2017

 -------------------------
 #P B3LYP/6-311+g(d) force
 -------------------------

 -----
 DPGEN
 -----
 Symbolic Z-matrix:
 Charge =  0 Multiplicity = 2

                         Standard orientation:
 ---------------------------------------------------------------------
 Center     Atomic      Atomic             Coordinates (Angstroms)
 Number     Number       Type             X           Y           Z
 ---------------------------------------------------------------------
      1         11           0        0.451258    3.100594   -0.258541
      2         11           0        1.935032   -2.505323   -0.108375
      3         11           0        0.151695    0.004750    2.015611
      4         11           0        0.019075    0.094561   -1.782824
      5         11           0       -3.322525    1.048578    0.225682
      6         11           0        3.307904    0.427024    0.097720
      7         11           0       -2.542440   -2.170183   -0.189272
 ---------------------------------------------------------------------

 SCF Done:  E(UB3LYP) =  -1136.13037370     A.U. after   19 cycles

 The electronic state is 2-A.
 Alpha  occ. eigenvalues --  -38.44891 -38.44784 -38.44039 -38.43962 -38.43522
 Alpha  occ. eigenvalues --  -38.43506 -38.43005  -2.20664  -2.20598  -2.19828
 Alpha  occ. eigenvalues --   -2.19797  -2.19385  -2.19346  -2.18804  -1.14338
 Alpha  occ. eigenvalues --   -1.14323  -1.14303  -1.14273  -1.14266  -1.14232
 Alpha  occ. eigenvalues --   -1.13498  -1.13486  -1.13477  -1.13471  -1.13427
 Alpha  occ. eigenvalues --   -1.13413  -1.13073  -1.13032  -1.13011  -1.13004
 Alpha  occ. eigenvalues --   -1.13003  -1.12990  -1.12483  -1.12462  -1.12446
 Alpha  occ. eigenvalues --   -0.17855  -0.13322  -0.11741  -0.10452
 Alpha virt. eigenvalues --   -0.06376  -0.05515  -0.04584  -0.03360  -0.02580
 Alpha virt. eigenvalues --   -0.02510  -0.02066  -0.01284  -0.00730  -0.00681
 Alpha virt. eigenvalues --   -0.00072   0.00334   0.00663   0.00680   0.00781

  Beta  occ. eigenvalues --  -38.44889 -38.44781 -38.44038 -38.43876 -38.43519
  Beta  occ. eigenvalues --  -38.43432 -38.43002  -2.20662  -2.20596  -2.19827
  Beta  occ. eigenvalues --   -2.19639  -2.19343  -2.19250  -2.18801  -1.14325
  Beta  occ. eigenvalues --   -1.14321  -1.14305  -1.14270  -1.14247  -1.14232
  Beta  occ. eigenvalues --   -1.13490  -1.13482  -1.13474  -1.13364  -1.13317
  Beta  occ. eigenvalues --   -1.13298  -1.13019  -1.13001  -1.12981  -1.12975
  Beta  occ. eigenvalues --   -1.12915  -1.12911  -1.12473  -1.12450  -1.12446
  Beta  occ. eigenvalues --   -0.17135  -0.13174  -0.11525
  Beta virt. eigenvalues --   -0.06634  -0.06216  -0.05523  -0.04530  -0.02640
  Beta virt. eigenvalues --   -0.01941  -0.01887  -0.01492  -0.01199  -0.00788
  Beta virt. eigenvalues --   -0.00704   0.00093   0.00361   0.00735   0.00791

 Mulliken charges and spin densities:
               1          2
     1  Na  -0.118689  -0.136665
     2  Na  -0.031939  -0.112611
     3  Na  -0.207787   0.711336
     4  Na   0.062501   0.682672
     5  Na   0.039668  -0.043740
     6  Na   0.260772  -0.002695
     7  Na  -0.004525  -0.098296
 Sum of Mulliken charges =  -0.00000   1.00000

 Dipole moment (field-independent basis, Debye):
    X=             -0.1650    Y=              0.0110    Z=              0.1425  Tot=              0.2183
 Quadrupole moment (field-independent basis, Debye-Ang):
   XX=            -52.3753   YY=            -64.7002   ZZ=            -76.3175
   XY=             -0.3461   XZ=             -0.3340   YZ=              0.7404

 Normal termination of Gaussian 16 at Fri Dec  8 01:50:29 2023.
