 Gaussian 16, Revision B.01,
 Gaussian 16:  ES64L-G16RevB.01 20-Dec-2017

 -------------------------
 #P B3LYP/6-311+g(d) force
 -------------------------

 -----
 DPGEN
 -----
 Symbolic Z-matrix:
 Charge =  0 Multiplicity = 2

                         Standard orientation:
 ---------------------------------------------------------------------
 Center     Atomic      Atomic             Coordinates (Angstroms)
 Number     Number       Type             X           Y           Z
 ---------------------------------------------------------------------
      1         11           0       -0.524692   -1.247257   -1.078668
      2         11           0       -1.539612    2.267767   -0.740732
      3         11           0       -1.049382   -0.102219    2.056049
      4         11           0        2.628598   -1.977468    0.497201
      5         11           0        1.614324    1.517451    1.391230
      6         11           0        2.674000    0.576663   -1.726638
      7         11           0       -3.803236   -1.034936   -0.398441
 ---------------------------------------------------------------------

 SCF Done:  E(UB3LYP) =  -1136.12676892     A.U. after   23 cycles

 The electronic state is 2-A.
 Alpha  occ. eigenvalues --  -38.44505 -38.44340 -38.44210 -38.44023 -38.43861
 Alpha  occ. eigenvalues --  -38.43428 -38.42917  -2.20340  -2.20129  -2.20003
 Alpha  occ. eigenvalues --   -2.19840  -2.19751  -2.19305  -2.18787  -1.14008
 Alpha  occ. eigenvalues --   -1.13993  -1.13956  -1.13804  -1.13792  -1.13766
 Alpha  occ. eigenvalues --   -1.13690  -1.13649  -1.13617  -1.13506  -1.13493
 Alpha  occ. eigenvalues --   -1.13480  -1.13456  -1.13376  -1.13367  -1.13022
 Alpha  occ. eigenvalues --   -1.12987  -1.12900  -1.12490  -1.12449  -1.12403
 Alpha  occ. eigenvalues --   -0.18160  -0.13665  -0.11292  -0.11007
 Alpha virt. eigenvalues --   -0.06279  -0.05564  -0.04605  -0.03105  -0.02752
 Alpha virt. eigenvalues --   -0.02590  -0.02191  -0.01122  -0.00687  -0.00256
 Alpha virt. eigenvalues --    0.00175   0.00238   0.00394   0.00469   0.00734

  Beta  occ. eigenvalues --  -38.44459 -38.44345 -38.44175 -38.44010 -38.43799
  Beta  occ. eigenvalues --  -38.43413 -38.42902  -2.20255  -2.20139  -2.19937
  Beta  occ. eigenvalues --   -2.19816  -2.19638  -2.19281  -2.18765  -1.13949
  Beta  occ. eigenvalues --   -1.13936  -1.13895  -1.13808  -1.13795  -1.13774
  Beta  occ. eigenvalues --   -1.13639  -1.13603  -1.13572  -1.13488  -1.13476
  Beta  occ. eigenvalues --   -1.13454  -1.13381  -1.13295  -1.13281  -1.12993
  Beta  occ. eigenvalues --   -1.12952  -1.12889  -1.12457  -1.12422  -1.12387
  Beta  occ. eigenvalues --   -0.17419  -0.13499  -0.10827
  Beta virt. eigenvalues --   -0.07511  -0.06106  -0.05111  -0.04236  -0.02877
  Beta virt. eigenvalues --   -0.02167  -0.02151  -0.01819  -0.00901  -0.00364
  Beta virt. eigenvalues --   -0.00170   0.00270   0.00293   0.00448   0.00598

 Mulliken charges and spin densities:
               1          2
     1  Na  -0.541997   0.146133
     2  Na  -0.283780   0.208626
     3  Na  -0.061403   0.247416
     4  Na   0.155872   0.072368
     5  Na   0.238120   0.103730
     6  Na   0.206480   0.252301
     7  Na   0.286708  -0.030573
 Sum of Mulliken charges =  -0.00000   1.00000

 Dipole moment (field-independent basis, Debye):
    X=             -0.3965    Y=              0.1544    Z=             -0.1357  Tot=              0.4467
 Quadrupole moment (field-independent basis, Debye-Ang):
   XX=            -51.6107   YY=            -73.1985   ZZ=            -69.1713
   XY=             -0.5595   XZ=             -0.0594   YZ=             -6.6990

 Normal termination of Gaussian 16 at Thu Dec  7 08:06:48 2023.
