 Gaussian 16, Revision B.01,
 Gaussian 16:  ES64L-G16RevB.01 20-Dec-2017

 -------------------------
 #P B3LYP/6-311+g(d) force
 -------------------------

 -----
 DPGEN
 -----
 Symbolic Z-matrix:
 Charge =  0 Multiplicity = 2

                         Standard orientation:
 ---------------------------------------------------------------------
 Center     Atomic      Atomic             Coordinates (Angstroms)
 Number     Number       Type             X           Y           Z
 ---------------------------------------------------------------------
      1         11           0        2.364487   -1.785389    0.410634
      2         11           0       -2.923309    0.520980   -0.320956
      3         11           0        0.363184   -0.103870   -1.658529
      4         11           0       -1.590924   -2.442079   -0.357738
      5         11           0       -0.834382    2.574980    0.455965
      6         11           0       -0.054790   -0.271028    1.988823
      7         11           0        2.675733    1.506407   -0.518198
 ---------------------------------------------------------------------

 SCF Done:  E(UB3LYP) =  -1136.13437542     A.U. after   19 cycles

 The electronic state is 2-A.
 Alpha  occ. eigenvalues --  -38.43877 -38.43870 -38.43862 -38.43714 -38.43387
 Alpha  occ. eigenvalues --  -38.43252 -38.42972  -2.19771  -2.19746  -2.19727
 Alpha  occ. eigenvalues --   -2.19649  -2.19392  -2.19122  -2.18870  -1.13484
 Alpha  occ. eigenvalues --   -1.13473  -1.13458  -1.13429  -1.13422  -1.13418
 Alpha  occ. eigenvalues --   -1.13387  -1.13356  -1.13327  -1.13311  -1.13269
 Alpha  occ. eigenvalues --   -1.13263  -1.13063  -1.13031  -1.13010  -1.12794
 Alpha  occ. eigenvalues --   -1.12783  -1.12748  -1.12552  -1.12534  -1.12491
 Alpha  occ. eigenvalues --   -0.19040  -0.13438  -0.12239  -0.11199
 Alpha virt. eigenvalues --   -0.05475  -0.05243  -0.04189  -0.03518  -0.02966
 Alpha virt. eigenvalues --   -0.02712  -0.01478  -0.01049  -0.00174  -0.00044
 Alpha virt. eigenvalues --    0.00087   0.00355   0.00807   0.00890   0.00954

  Beta  occ. eigenvalues --  -38.43865 -38.43864 -38.43848 -38.43621 -38.43324
  Beta  occ. eigenvalues --  -38.43244 -38.42962  -2.19764  -2.19726  -2.19705
  Beta  occ. eigenvalues --   -2.19479  -2.19279  -2.19110  -2.18856  -1.13471
  Beta  occ. eigenvalues --   -1.13459  -1.13425  -1.13423  -1.13394  -1.13383
  Beta  occ. eigenvalues --   -1.13373  -1.13334  -1.13315  -1.13202  -1.13153
  Beta  occ. eigenvalues --   -1.13143  -1.12986  -1.12950  -1.12932  -1.12782
  Beta  occ. eigenvalues --   -1.12766  -1.12732  -1.12545  -1.12513  -1.12471
  Beta  occ. eigenvalues --   -0.18319  -0.13153  -0.11962
  Beta virt. eigenvalues --   -0.07270  -0.05417  -0.05190  -0.04178  -0.02722
  Beta virt. eigenvalues --   -0.02193  -0.01676  -0.01365  -0.00972  -0.00149
  Beta virt. eigenvalues --   -0.00031   0.00135   0.00390   0.00886   0.00890

 Mulliken charges and spin densities:
               1          2
     1  Na   0.169273  -0.008323
     2  Na  -0.020282  -0.008423
     3  Na  -0.282295   0.387283
     4  Na   0.165975  -0.027980
     5  Na   0.183101   0.059694
     6  Na  -0.334664   0.585190
     7  Na   0.118892   0.012559
 Sum of Mulliken charges =  -0.00000   1.00000

 Dipole moment (field-independent basis, Debye):
    X=              0.2897    Y=             -0.1846    Z=              0.0959  Tot=              0.3566
 Quadrupole moment (field-independent basis, Debye-Ang):
   XX=            -56.9616   YY=            -65.3888   ZZ=            -72.3528
   XY=              0.2616   XZ=              0.9618   YZ=             -0.1045

 Normal termination of Gaussian 16 at Fri Dec  8 07:29:09 2023.
