 Gaussian 16, Revision B.01,
 Gaussian 16:  ES64L-G16RevB.01 20-Dec-2017

 -------------------------
 #P B3LYP/6-311+g(d) force
 -------------------------

 -----
 DPGEN
 -----
 Symbolic Z-matrix:
 Charge =  0 Multiplicity = 2

                         Standard orientation:
 ---------------------------------------------------------------------
 Center     Atomic      Atomic             Coordinates (Angstroms)
 Number     Number       Type             X           Y           Z
 ---------------------------------------------------------------------
      1         11           0        1.212054    2.010452   -0.472815
      2         11           0       -2.483554    2.279371   -0.600154
      3         11           0        1.065855   -1.819516   -1.392473
      4         11           0       -2.597631   -1.651583   -1.261849
      5         11           0       -2.116128   -0.186464    2.116852
      6         11           0        1.195518   -1.120560    1.672481
      7         11           0        3.723886    0.488300   -0.062041
 ---------------------------------------------------------------------

 SCF Done:  E(UB3LYP) =  -1136.12157166     A.U. after   23 cycles

 The electronic state is 2-A.
 Alpha  occ. eigenvalues --  -38.44824 -38.44616 -38.44497 -38.43961 -38.43932
 Alpha  occ. eigenvalues --  -38.43626 -38.43544  -2.20689  -2.20392  -2.20313
 Alpha  occ. eigenvalues --   -2.19852  -2.19773  -2.19400  -2.19388  -1.14405
 Alpha  occ. eigenvalues --   -1.14348  -1.14300  -1.14067  -1.14034  -1.14021
 Alpha  occ. eigenvalues --   -1.13989  -1.13952  -1.13929  -1.13586  -1.13521
 Alpha  occ. eigenvalues --   -1.13466  -1.13444  -1.13410  -1.13369  -1.13077
 Alpha  occ. eigenvalues --   -1.13067  -1.13062  -1.13053  -1.13040  -1.13024
 Alpha  occ. eigenvalues --   -0.17831  -0.13853  -0.11417  -0.11361
 Alpha virt. eigenvalues --   -0.06349  -0.05520  -0.05055  -0.03517  -0.02774
 Alpha virt. eigenvalues --   -0.02563  -0.02122  -0.00996  -0.00695  -0.00371
 Alpha virt. eigenvalues --    0.00100   0.00177   0.00264   0.00544   0.00629

  Beta  occ. eigenvalues --  -38.44824 -38.44576 -38.44434 -38.43911 -38.43905
  Beta  occ. eigenvalues --  -38.43619 -38.43543  -2.20690  -2.20319  -2.20197
  Beta  occ. eigenvalues --   -2.19762  -2.19722  -2.19390  -2.19384  -1.14407
  Beta  occ. eigenvalues --   -1.14340  -1.14305  -1.14008  -1.13990  -1.13968
  Beta  occ. eigenvalues --   -1.13901  -1.13879  -1.13839  -1.13535  -1.13456
  Beta  occ. eigenvalues --   -1.13409  -1.13399  -1.13364  -1.13321  -1.13066
  Beta  occ. eigenvalues --   -1.13056  -1.13053  -1.13051  -1.13035  -1.13023
  Beta  occ. eigenvalues --   -0.17285  -0.13613  -0.11176
  Beta virt. eigenvalues --   -0.07484  -0.06275  -0.05409  -0.04353  -0.03236
  Beta virt. eigenvalues --   -0.02242  -0.02036  -0.01785  -0.00950  -0.00344
  Beta virt. eigenvalues --   -0.00199   0.00137   0.00284   0.00304   0.00626

 Mulliken charges and spin densities:
               1          2
     1  Na  -0.554291  -0.041343
     2  Na  -0.120301   0.141797
     3  Na  -0.166931   0.370859
     4  Na  -0.016558   0.109111
     5  Na   0.059408   0.318853
     6  Na  -0.232091   0.157506
     7  Na   1.030764  -0.056783
 Sum of Mulliken charges =  -0.00000   1.00000

 Dipole moment (field-independent basis, Debye):
    X=              0.5412    Y=             -0.4712    Z=             -0.0199  Tot=              0.7178
 Quadrupole moment (field-independent basis, Debye-Ang):
   XX=            -50.0971   YY=            -77.3283   ZZ=            -69.1963
   XY=             -0.1198   XZ=              0.1954   YZ=              0.6709

 Normal termination of Gaussian 16 at Sun Dec  3 14:22:19 2023.
