 Gaussian 16, Revision B.01,
 Gaussian 16:  ES64L-G16RevB.01 20-Dec-2017

 -------------------------
 #P B3LYP/6-311+g(d) force
 -------------------------

 -----
 DPGEN
 -----
 Symbolic Z-matrix:
 Charge =  0 Multiplicity = 2

                         Standard orientation:
 ---------------------------------------------------------------------
 Center     Atomic      Atomic             Coordinates (Angstroms)
 Number     Number       Type             X           Y           Z
 ---------------------------------------------------------------------
      1         11           0       -3.245741    1.915720    0.093500
      2         11           0        0.464205    1.947945   -0.560880
      3         11           0       -4.863309   -0.901369   -0.139772
      4         11           0        1.338239   -2.174521   -0.456303
      5         11           0        4.538579   -1.368667    0.045673
      6         11           0       -1.698408   -1.556341    0.627443
      7         11           0        3.466435    2.137233    0.390339
 ---------------------------------------------------------------------

 SCF Done:  E(UB3LYP) =  -1136.11569705     A.U. after   25 cycles

 The electronic state is 2-A.
 Alpha  occ. eigenvalues --  -38.45314 -38.44649 -38.44479 -38.44478 -38.44289
 Alpha  occ. eigenvalues --  -38.43297 -38.43203  -2.21117  -2.20497  -2.20274
 Alpha  occ. eigenvalues --   -2.20264  -2.20141  -2.19119  -2.19020  -1.14798
 Alpha  occ. eigenvalues --   -1.14770  -1.14758  -1.14155  -1.14136  -1.14124
 Alpha  occ. eigenvalues --   -1.13957  -1.13944  -1.13937  -1.13926  -1.13917
 Alpha  occ. eigenvalues --   -1.13882  -1.13818  -1.13815  -1.13757  -1.12796
 Alpha  occ. eigenvalues --   -1.12787  -1.12767  -1.12696  -1.12672  -1.12660
 Alpha  occ. eigenvalues --   -0.16890  -0.14561  -0.11799  -0.11169
 Alpha virt. eigenvalues --   -0.07244  -0.05164  -0.04173  -0.03642  -0.03420
 Alpha virt. eigenvalues --   -0.02833  -0.01741  -0.01261  -0.01222  -0.00513
 Alpha virt. eigenvalues --   -0.00126  -0.00047   0.00064   0.00474   0.00593

  Beta  occ. eigenvalues --  -38.45283 -38.44590 -38.44494 -38.44442 -38.44237
  Beta  occ. eigenvalues --  -38.43283 -38.43179  -2.21065  -2.20387  -2.20293
  Beta  occ. eigenvalues --   -2.20205  -2.20053  -2.19100  -2.18974  -1.14767
  Beta  occ. eigenvalues --   -1.14741  -1.14683  -1.14076  -1.14063  -1.14051
  Beta  occ. eigenvalues --   -1.13980  -1.13963  -1.13911  -1.13891  -1.13886
  Beta  occ. eigenvalues --   -1.13847  -1.13762  -1.13733  -1.13679  -1.12784
  Beta  occ. eigenvalues --   -1.12767  -1.12732  -1.12669  -1.12637  -1.12630
  Beta  occ. eigenvalues --   -0.16094  -0.14150  -0.11542
  Beta virt. eigenvalues --   -0.07675  -0.07096  -0.04693  -0.03693  -0.03172
  Beta virt. eigenvalues --   -0.03102  -0.02676  -0.01640  -0.01088  -0.00744
  Beta virt. eigenvalues --   -0.00176  -0.00051   0.00089   0.00194   0.00572

 Mulliken charges and spin densities:
               1          2
     1  Na   0.270157   0.234489
     2  Na  -0.883581   0.048099
     3  Na   0.591084   0.314262
     4  Na  -0.044774  -0.147425
     5  Na   0.184794   0.277935
     6  Na  -0.798865   0.218866
     7  Na   0.681184   0.053774
 Sum of Mulliken charges =  -0.00000   1.00000

 Dipole moment (field-independent basis, Debye):
    X=             -1.1345    Y=              0.1527    Z=              0.1990  Tot=              1.1619
 Quadrupole moment (field-independent basis, Debye-Ang):
   XX=            -51.7186   YY=            -71.5364   ZZ=            -71.2766
   XY=              0.1020   XZ=              1.8162   YZ=              1.4884

 Normal termination of Gaussian 16 at Sun Dec  3 21:11:54 2023.
