 Gaussian 16, Revision B.01,
 Gaussian 16:  ES64L-G16RevB.01 20-Dec-2017

 -------------------------
 #P B3LYP/6-311+g(d) force
 -------------------------

 -----
 DPGEN
 -----
 Symbolic Z-matrix:
 Charge =  0 Multiplicity = 2

                         Standard orientation:
 ---------------------------------------------------------------------
 Center     Atomic      Atomic             Coordinates (Angstroms)
 Number     Number       Type             X           Y           Z
 ---------------------------------------------------------------------
      1         11           0        2.946042    1.135471    0.644237
      2         11           0       -3.650626   -1.773182   -0.159550
      3         11           0       -3.040045    1.909490   -0.664118
      4         11           0        0.842382    3.104129   -0.329168
      5         11           0        3.876632   -1.771114   -0.788140
      6         11           0       -0.067795   -2.531997    0.010574
      7         11           0       -0.906590   -0.072798    1.286165
 ---------------------------------------------------------------------

 SCF Done:  E(UB3LYP) =  -1136.11654758     A.U. after   20 cycles

 The electronic state is 2-A.
 Alpha  occ. eigenvalues --  -38.45420 -38.44410 -38.44212 -38.44010 -38.43989
 Alpha  occ. eigenvalues --  -38.43931 -38.43515  -2.21203  -2.20327  -2.20055
 Alpha  occ. eigenvalues --   -2.19860  -2.19787  -2.19746  -2.19323  -1.14893
 Alpha  occ. eigenvalues --   -1.14849  -1.14834  -1.14125  -1.13982  -1.13920
 Alpha  occ. eigenvalues --   -1.13789  -1.13720  -1.13700  -1.13550  -1.13512
 Alpha  occ. eigenvalues --   -1.13460  -1.13445  -1.13428  -1.13406  -1.13400
 Alpha  occ. eigenvalues --   -1.13395  -1.13366  -1.12970  -1.12969  -1.12939
 Alpha  occ. eigenvalues --   -0.17215  -0.14013  -0.12488  -0.10244
 Alpha virt. eigenvalues --   -0.06877  -0.05795  -0.04106  -0.03679  -0.02980
 Alpha virt. eigenvalues --   -0.02251  -0.02046  -0.01512  -0.01075  -0.00656
 Alpha virt. eigenvalues --   -0.00083   0.00155   0.00411   0.00530   0.00628

  Beta  occ. eigenvalues --  -38.45411 -38.44374 -38.44204 -38.43985 -38.43940
  Beta  occ. eigenvalues --  -38.43922 -38.43435  -2.21188  -2.20264  -2.20045
  Beta  occ. eigenvalues --   -2.19818  -2.19730  -2.19694  -2.19174  -1.14887
  Beta  occ. eigenvalues --   -1.14843  -1.14795  -1.14072  -1.13932  -1.13876
  Beta  occ. eigenvalues --   -1.13776  -1.13702  -1.13681  -1.13512  -1.13483
  Beta  occ. eigenvalues --   -1.13400  -1.13399  -1.13397  -1.13386  -1.13378
  Beta  occ. eigenvalues --   -1.13359  -1.13325  -1.12868  -1.12866  -1.12842
  Beta  occ. eigenvalues --   -0.16749  -0.13424  -0.11975
  Beta virt. eigenvalues --   -0.06894  -0.06750  -0.05714  -0.03793  -0.03211
  Beta virt. eigenvalues --   -0.02538  -0.02113  -0.01771  -0.01206  -0.00691
  Beta virt. eigenvalues --   -0.00599   0.00113   0.00325   0.00491   0.00625

 Mulliken charges and spin densities:
               1          2
     1  Na  -0.039063   0.029292
     2  Na   0.403806   0.089274
     3  Na  -0.159745   0.400708
     4  Na  -0.035459  -0.027980
     5  Na   0.092122   0.494689
     6  Na  -0.471471  -0.037835
     7  Na   0.209809   0.051853
 Sum of Mulliken charges =  -0.00000   1.00000

 Dipole moment (field-independent basis, Debye):
    X=             -1.4948    Y=             -0.4474    Z=             -0.0957  Tot=              1.5632
 Quadrupole moment (field-independent basis, Debye-Ang):
   XX=            -67.1292   YY=            -63.7902   ZZ=            -69.9160
   XY=              8.9516   XZ=              1.0196   YZ=              1.1934

 Normal termination of Gaussian 16 at Sun Dec  3 19:05:06 2023.
