 Gaussian 16, Revision B.01,
 Gaussian 16:  ES64L-G16RevB.01 20-Dec-2017

 -------------------------
 #P B3LYP/6-311+g(d) force
 -------------------------

 -----
 DPGEN
 -----
 Symbolic Z-matrix:
 Charge =  0 Multiplicity = 2

                         Standard orientation:
 ---------------------------------------------------------------------
 Center     Atomic      Atomic             Coordinates (Angstroms)
 Number     Number       Type             X           Y           Z
 ---------------------------------------------------------------------
      1         11           0        0.045693    2.908139   -0.267515
      2         11           0        2.878675    0.600623    0.381977
      3         11           0        1.501171   -2.339214   -0.263616
      4         11           0        0.260888   -0.009247   -1.628367
      5         11           0       -1.739932   -2.230587    0.196049
      6         11           0       -0.211148    0.276772    1.743197
      7         11           0       -2.735348    0.793514   -0.161725
 ---------------------------------------------------------------------

 SCF Done:  E(UB3LYP) =  -1136.13643315     A.U. after   18 cycles

 The electronic state is 2-A.
 Alpha  occ. eigenvalues --  -38.43677 -38.43574 -38.43479 -38.43360 -38.43279
 Alpha  occ. eigenvalues --  -38.43086 -38.42996  -2.19558  -2.19489  -2.19365
 Alpha  occ. eigenvalues --   -2.19294  -2.19197  -2.19106  -2.19064  -1.13250
 Alpha  occ. eigenvalues --   -1.13226  -1.13204  -1.13195  -1.13158  -1.13136
 Alpha  occ. eigenvalues --   -1.13087  -1.13056  -1.13037  -1.12979  -1.12957
 Alpha  occ. eigenvalues --   -1.12921  -1.12878  -1.12851  -1.12813  -1.12790
 Alpha  occ. eigenvalues --   -1.12724  -1.12712  -1.12709  -1.12670  -1.12660
 Alpha  occ. eigenvalues --   -0.19511  -0.13155  -0.12896  -0.10812
 Alpha virt. eigenvalues --   -0.05276  -0.04893  -0.04812  -0.03143  -0.02969
 Alpha virt. eigenvalues --   -0.02290  -0.01273  -0.01126  -0.00108  -0.00024
 Alpha virt. eigenvalues --    0.00087   0.00369   0.00916   0.00927   0.00976

  Beta  occ. eigenvalues --  -38.43667 -38.43566 -38.43470 -38.43351 -38.43272
  Beta  occ. eigenvalues --  -38.43007 -38.42922  -2.19542  -2.19480  -2.19352
  Beta  occ. eigenvalues --   -2.19282  -2.19189  -2.18962  -2.18930  -1.13241
  Beta  occ. eigenvalues --   -1.13197  -1.13189  -1.13185  -1.13143  -1.13111
  Beta  occ. eigenvalues --   -1.13061  -1.13043  -1.13005  -1.12971  -1.12945
  Beta  occ. eigenvalues --   -1.12897  -1.12864  -1.12829  -1.12801  -1.12703
  Beta  occ. eigenvalues --   -1.12624  -1.12620  -1.12607  -1.12577  -1.12568
  Beta  occ. eigenvalues --   -0.18781  -0.12875  -0.12608
  Beta virt. eigenvalues --   -0.06860  -0.05262  -0.04874  -0.04800  -0.02323
  Beta virt. eigenvalues --   -0.02163  -0.01248  -0.01186  -0.01053  -0.00127
  Beta virt. eigenvalues --   -0.00059   0.00168   0.00393   0.00927   0.00938

 Mulliken charges and spin densities:
               1          2
     1  Na   0.106801  -0.082612
     2  Na   0.081738  -0.027624
     3  Na   0.311959   0.006957
     4  Na  -0.394389   0.526417
     5  Na   0.143164  -0.024065
     6  Na  -0.431399   0.642961
     7  Na   0.182125  -0.042035
 Sum of Mulliken charges =  -0.00000   1.00000

 Dipole moment (field-independent basis, Debye):
    X=              0.0669    Y=              0.2325    Z=              0.0930  Tot=              0.2591
 Quadrupole moment (field-independent basis, Debye-Ang):
   XX=            -58.5385   YY=            -60.4166   ZZ=            -74.2322
   XY=              0.2912   XZ=              1.1496   YZ=             -0.6362

 Normal termination of Gaussian 16 at Wed Nov 29 01:06:47 2023.
