 Gaussian 16, Revision B.01,
 Gaussian 16:  ES64L-G16RevB.01 20-Dec-2017

 -------------------------
 #P B3LYP/6-311+g(d) force
 -------------------------

 -----
 DPGEN
 -----
 Symbolic Z-matrix:
 Charge =  0 Multiplicity = 2

                         Standard orientation:
 ---------------------------------------------------------------------
 Center     Atomic      Atomic             Coordinates (Angstroms)
 Number     Number       Type             X           Y           Z
 ---------------------------------------------------------------------
      1         11           0        0.279194    2.788715    0.473049
      2         11           0       -0.775236   -0.404903    2.251494
      3         11           0       -2.107874    2.232434   -1.611615
      4         11           0        0.077769   -2.344914   -0.928352
      5         11           0       -3.600293   -1.636985    0.071584
      6         11           0        2.840968    0.031356    1.377234
      7         11           0        3.285471   -0.665702   -1.633395
 ---------------------------------------------------------------------

 SCF Done:  E(UB3LYP) =  -1136.11960122     A.U. after   20 cycles

 The electronic state is 2-A.
 Alpha  occ. eigenvalues --  -38.44679 -38.44638 -38.44478 -38.44382 -38.44168
 Alpha  occ. eigenvalues --  -38.44062 -38.43130  -2.20447  -2.20433  -2.20223
 Alpha  occ. eigenvalues --   -2.20209  -2.19989  -2.19855  -2.18929  -1.14136
 Alpha  occ. eigenvalues --   -1.14132  -1.14115  -1.14097  -1.14046  -1.14027
 Alpha  occ. eigenvalues --   -1.13917  -1.13900  -1.13887  -1.13870  -1.13852
 Alpha  occ. eigenvalues --   -1.13852  -1.13638  -1.13628  -1.13613  -1.13514
 Alpha  occ. eigenvalues --   -1.13500  -1.13479  -1.12612  -1.12601  -1.12573
 Alpha  occ. eigenvalues --   -0.16970  -0.13107  -0.11964  -0.11318
 Alpha virt. eigenvalues --   -0.06402  -0.05083  -0.05051  -0.03546  -0.03182
 Alpha virt. eigenvalues --   -0.02776  -0.02080  -0.00969  -0.00791  -0.00339
 Alpha virt. eigenvalues --   -0.00097   0.00163   0.00230   0.00315   0.00559

  Beta  occ. eigenvalues --  -38.44665 -38.44562 -38.44480 -38.44364 -38.44136
  Beta  occ. eigenvalues --  -38.44005 -38.43138  -2.20408  -2.20308  -2.20227
  Beta  occ. eigenvalues --   -2.20179  -2.19929  -2.19748  -2.18948  -1.14114
  Beta  occ. eigenvalues --   -1.14104  -1.14031  -1.14008  -1.14004  -1.13937
  Beta  occ. eigenvalues --   -1.13897  -1.13889  -1.13886  -1.13855  -1.13851
  Beta  occ. eigenvalues --   -1.13822  -1.13595  -1.13589  -1.13572  -1.13442
  Beta  occ. eigenvalues --   -1.13431  -1.13405  -1.12625  -1.12615  -1.12562
  Beta  occ. eigenvalues --   -0.16291  -0.12857  -0.11670
  Beta virt. eigenvalues --   -0.07751  -0.06296  -0.04683  -0.04464  -0.03383
  Beta virt. eigenvalues --   -0.02645  -0.02263  -0.01983  -0.00743  -0.00510
  Beta virt. eigenvalues --   -0.00281   0.00017   0.00269   0.00397   0.00457

 Mulliken charges and spin densities:
               1          2
     1  Na  -0.295909   0.064945
     2  Na  -0.015581   0.337669
     3  Na   0.079292   0.199620
     4  Na  -0.528640   0.188736
     5  Na   0.250711   0.024502
     6  Na   0.260626  -0.009169
     7  Na   0.249502   0.193697
 Sum of Mulliken charges =  -0.00000   1.00000

 Dipole moment (field-independent basis, Debye):
    X=             -0.1054    Y=             -0.6254    Z=             -0.1517  Tot=              0.6521
 Quadrupole moment (field-independent basis, Debye-Ang):
   XX=            -56.6677   YY=            -76.3072   ZZ=            -65.6432
   XY=              3.1280   XZ=              1.1100   YZ=              0.3468

 Normal termination of Gaussian 16 at Mon Dec  4 05:12:24 2023.
