 Gaussian 16, Revision B.01,
 Gaussian 16:  ES64L-G16RevB.01 20-Dec-2017

 -------------------------
 #P B3LYP/6-311+g(d) force
 -------------------------

 -----
 DPGEN
 -----
 Symbolic Z-matrix:
 Charge =  0 Multiplicity = 2

                         Standard orientation:
 ---------------------------------------------------------------------
 Center     Atomic      Atomic             Coordinates (Angstroms)
 Number     Number       Type             X           Y           Z
 ---------------------------------------------------------------------
      1         11           0       -0.607915    2.960860   -0.801340
      2         11           0       -5.307086   -0.314100    1.697644
      3         11           0       -3.098217    0.505097   -0.820852
      4         11           0       -0.798765   -2.597079   -1.624711
      5         11           0        0.449214   -0.204696    0.201638
      6         11           0        3.313692   -0.670130    1.301821
      7         11           0        6.049077    0.320048    0.045800
 ---------------------------------------------------------------------

 SCF Done:  E(UB3LYP) =  -1136.10216619     A.U. after   24 cycles

 The electronic state is 2-A.
 Alpha  occ. eigenvalues --  -38.45588 -38.44754 -38.44442 -38.44124 -38.43878
 Alpha  occ. eigenvalues --  -38.43874 -38.43713  -2.21410  -2.20564  -2.20196
 Alpha  occ. eigenvalues --   -2.19904  -2.19759  -2.19718  -2.19522  -1.15046
 Alpha  occ. eigenvalues --   -1.15035  -1.15021  -1.14206  -1.14199  -1.14194
 Alpha  occ. eigenvalues --   -1.13880  -1.13867  -1.13865  -1.13551  -1.13548
 Alpha  occ. eigenvalues --   -1.13528  -1.13518  -1.13438  -1.13425  -1.13366
 Alpha  occ. eigenvalues --   -1.13356  -1.13303  -1.13219  -1.13212  -1.13154
 Alpha  occ. eigenvalues --   -0.16842  -0.13483  -0.12199  -0.11521
 Alpha virt. eigenvalues --   -0.07222  -0.05222  -0.04333  -0.03577  -0.03238
 Alpha virt. eigenvalues --   -0.02313  -0.02176  -0.01535  -0.01202  -0.00862
 Alpha virt. eigenvalues --   -0.00673  -0.00512   0.00241   0.00321   0.00471

  Beta  occ. eigenvalues --  -38.45473 -38.44676 -38.44486 -38.44051 -38.43893
  Beta  occ. eigenvalues --  -38.43866 -38.43722  -2.21196  -2.20419  -2.20277
  Beta  occ. eigenvalues --   -2.19793  -2.19768  -2.19699  -2.19547  -1.14900
  Beta  occ. eigenvalues --   -1.14889  -1.14880  -1.14108  -1.14106  -1.14095
  Beta  occ. eigenvalues --   -1.13931  -1.13922  -1.13920  -1.13538  -1.13463
  Beta  occ. eigenvalues --   -1.13459  -1.13455  -1.13439  -1.13408  -1.13351
  Beta  occ. eigenvalues --   -1.13343  -1.13321  -1.13241  -1.13205  -1.13149
  Beta  occ. eigenvalues --   -0.16167  -0.13488  -0.10870
  Beta virt. eigenvalues --   -0.08344  -0.07201  -0.04498  -0.04164  -0.03261
  Beta virt. eigenvalues --   -0.02932  -0.02104  -0.01703  -0.01511  -0.00980
  Beta virt. eigenvalues --   -0.00710  -0.00385  -0.00233   0.00316   0.00543

 Mulliken charges and spin densities:
               1          2
     1  Na   0.708588   0.459046
     2  Na   0.263206   0.396766
     3  Na   0.547131  -0.069734
     4  Na   0.672074   0.423550
     5  Na  -1.228664   0.070153
     6  Na  -1.071595  -0.041135
     7  Na   0.109261  -0.238646
 Sum of Mulliken charges =  -0.00000   1.00000

 Dipole moment (field-independent basis, Debye):
    X=              0.7109    Y=              0.2923    Z=             -0.8545  Tot=              1.1493
 Quadrupole moment (field-independent basis, Debye-Ang):
   XX=            -71.2046   YY=            -64.0725   ZZ=            -66.1091
   XY=              6.1525   XZ=             -4.0497   YZ=             -1.2970

 Normal termination of Gaussian 16 at Tue Nov 28 20:19:28 2023.
