 Gaussian 16, Revision B.01,
 Gaussian 16:  ES64L-G16RevB.01 20-Dec-2017

 -------------------------
 #P B3LYP/6-311+g(d) force
 -------------------------

 -----
 DPGEN
 -----
 Symbolic Z-matrix:
 Charge =  0 Multiplicity = 2

                         Standard orientation:
 ---------------------------------------------------------------------
 Center     Atomic      Atomic             Coordinates (Angstroms)
 Number     Number       Type             X           Y           Z
 ---------------------------------------------------------------------
      1         11           0       -0.129051    3.271712   -0.195950
      2         11           0       -1.369839   -2.744505   -0.188719
      3         11           0       -0.188215    0.066187   -1.553861
      4         11           0        2.757801   -2.038840   -0.181530
      5         11           0        2.702844    1.238917    0.187029
      6         11           0       -3.213836    0.352333   -0.188679
      7         11           0       -0.559705   -0.145802    2.121710
 ---------------------------------------------------------------------

 SCF Done:  E(UB3LYP) =  -1136.13429666     A.U. after   19 cycles

 The electronic state is 2-A.
 Alpha  occ. eigenvalues --  -38.44521 -38.44064 -38.43841 -38.43717 -38.43627
 Alpha  occ. eigenvalues --  -38.43583 -38.43213  -2.20342  -2.19888  -2.19627
 Alpha  occ. eigenvalues --   -2.19554  -2.19485  -2.19381  -2.19159  -1.14024
 Alpha  occ. eigenvalues --   -1.14007  -1.13969  -1.13577  -1.13558  -1.13509
 Alpha  occ. eigenvalues --   -1.13325  -1.13296  -1.13267  -1.13229  -1.13222
 Alpha  occ. eigenvalues --   -1.13174  -1.13144  -1.13113  -1.13101  -1.13058
 Alpha  occ. eigenvalues --   -1.13036  -1.13026  -1.12850  -1.12794  -1.12784
 Alpha  occ. eigenvalues --   -0.18145  -0.13103  -0.12184  -0.10474
 Alpha virt. eigenvalues --   -0.05994  -0.05213  -0.05023  -0.03168  -0.02642
 Alpha virt. eigenvalues --   -0.02491  -0.01684  -0.01356  -0.00715  -0.00555
 Alpha virt. eigenvalues --   -0.00032   0.00329   0.00733   0.00802   0.00851

  Beta  occ. eigenvalues --  -38.44513 -38.44056 -38.43843 -38.43715 -38.43582
  Beta  occ. eigenvalues --  -38.43525 -38.43156  -2.20332  -2.19877  -2.19633
  Beta  occ. eigenvalues --   -2.19552  -2.19383  -2.19297  -2.19056  -1.14012
  Beta  occ. eigenvalues --   -1.13977  -1.13966  -1.13567  -1.13525  -1.13506
  Beta  occ. eigenvalues --   -1.13330  -1.13289  -1.13272  -1.13225  -1.13207
  Beta  occ. eigenvalues --   -1.13179  -1.13049  -1.13032  -1.13029  -1.13017
  Beta  occ. eigenvalues --   -1.12980  -1.12967  -1.12777  -1.12717  -1.12708
  Beta  occ. eigenvalues --   -0.17438  -0.12912  -0.12001
  Beta virt. eigenvalues --   -0.06542  -0.05961  -0.05128  -0.05000  -0.02416
  Beta virt. eigenvalues --   -0.01979  -0.01625  -0.01397  -0.01275  -0.00772
  Beta virt. eigenvalues --   -0.00575   0.00139   0.00372   0.00741   0.00854

 Mulliken charges and spin densities:
               1          2
     1  Na   0.068109  -0.066088
     2  Na   0.139037  -0.040623
     3  Na  -0.038650   0.449355
     4  Na  -0.050990  -0.055917
     5  Na   0.041329  -0.007647
     6  Na   0.282587  -0.053264
     7  Na  -0.441423   0.774184
 Sum of Mulliken charges =  -0.00000   1.00000

 Dipole moment (field-independent basis, Debye):
    X=             -0.5355    Y=             -0.1444    Z=              0.0439  Tot=              0.5564
 Quadrupole moment (field-independent basis, Debye-Ang):
   XX=            -56.9167   YY=            -59.8359   ZZ=            -76.3801
   XY=             -0.6519   XZ=              0.9775   YZ=              0.6540

 Normal termination of Gaussian 16 at Thu Dec  7 19:11:52 2023.
