 Gaussian 16, Revision B.01,
 Gaussian 16:  ES64L-G16RevB.01 20-Dec-2017

 -------------------------
 #P B3LYP/6-311+g(d) force
 -------------------------

 -----
 DPGEN
 -----
 Symbolic Z-matrix:
 Charge =  0 Multiplicity = 2

                         Standard orientation:
 ---------------------------------------------------------------------
 Center     Atomic      Atomic             Coordinates (Angstroms)
 Number     Number       Type             X           Y           Z
 ---------------------------------------------------------------------
      1         11           0       -0.020082   -0.448317    2.181219
      2         11           0        0.642324    0.286658   -1.364618
      3         11           0        2.411393   -2.051917   -0.191526
      4         11           0       -1.234130   -2.218595   -0.885204
      5         11           0       -3.154942   -0.002463    0.580422
      6         11           0       -1.375738    2.459930   -0.729427
      7         11           0        2.731174    1.974704    0.409134
 ---------------------------------------------------------------------

 SCF Done:  E(UB3LYP) =  -1136.12922204     A.U. after   19 cycles

 The electronic state is 2-A.
 Alpha  occ. eigenvalues --  -38.44262 -38.44171 -38.44017 -38.43912 -38.43592
 Alpha  occ. eigenvalues --  -38.43465 -38.42887  -2.20051  -2.20020  -2.19845
 Alpha  occ. eigenvalues --   -2.19769  -2.19444  -2.19347  -2.18942  -1.13736
 Alpha  occ. eigenvalues --   -1.13710  -1.13686  -1.13681  -1.13650  -1.13638
 Alpha  occ. eigenvalues --   -1.13551  -1.13501  -1.13464  -1.13445  -1.13428
 Alpha  occ. eigenvalues --   -1.13422  -1.13187  -1.13086  -1.13070  -1.13049
 Alpha  occ. eigenvalues --   -1.12991  -1.12959  -1.12604  -1.12591  -1.12565
 Alpha  occ. eigenvalues --   -0.18537  -0.13148  -0.12032  -0.11083
 Alpha virt. eigenvalues --   -0.05771  -0.05524  -0.04083  -0.03454  -0.02860
 Alpha virt. eigenvalues --   -0.02703  -0.01634  -0.01251  -0.00423   0.00011
 Alpha virt. eigenvalues --    0.00042   0.00346   0.00692   0.00795   0.00820

  Beta  occ. eigenvalues --  -38.44258 -38.44078 -38.44014 -38.43904 -38.43576
  Beta  occ. eigenvalues --  -38.43443 -38.42837  -2.20044  -2.19848  -2.19842
  Beta  occ. eigenvalues --   -2.19758  -2.19418  -2.19309  -2.18855  -1.13730
  Beta  occ. eigenvalues --   -1.13699  -1.13676  -1.13573  -1.13545  -1.13533
  Beta  occ. eigenvalues --   -1.13514  -1.13489  -1.13457  -1.13440  -1.13422
  Beta  occ. eigenvalues --   -1.13390  -1.13160  -1.13062  -1.13036  -1.13033
  Beta  occ. eigenvalues --   -1.12949  -1.12936  -1.12549  -1.12521  -1.12492
  Beta  occ. eigenvalues --   -0.17809  -0.12957  -0.11780
  Beta virt. eigenvalues --   -0.07154  -0.05691  -0.05428  -0.03954  -0.02769
  Beta virt. eigenvalues --   -0.02209  -0.01686  -0.01504  -0.01175  -0.00336
  Beta virt. eigenvalues --   -0.00004   0.00139   0.00379   0.00794   0.00806

 Mulliken charges and spin densities:
               1          2
     1  Na  -0.437318   0.652486
     2  Na   0.067109  -0.131608
     3  Na   0.275332   0.014743
     4  Na   0.050539   0.112765
     5  Na   0.222125   0.145181
     6  Na  -0.072188   0.089190
     7  Na  -0.105600   0.117243
 Sum of Mulliken charges =  -0.00000   1.00000

 Dipole moment (field-independent basis, Debye):
    X=              0.3719    Y=             -0.1203    Z=              0.5090  Tot=              0.6418
 Quadrupole moment (field-independent basis, Debye-Ang):
   XX=            -54.8375   YY=            -66.0019   ZZ=            -72.3888
   XY=             -0.2960   XZ=              1.3036   YZ=              1.5539

 Normal termination of Gaussian 16 at Thu Dec  7 03:30:32 2023.
