 Gaussian 16, Revision B.01,
 Gaussian 16:  ES64L-G16RevB.01 20-Dec-2017

 -------------------------
 #P B3LYP/6-311+g(d) force
 -------------------------

 -----
 DPGEN
 -----
 Symbolic Z-matrix:
 Charge =  0 Multiplicity = 2

                         Standard orientation:
 ---------------------------------------------------------------------
 Center     Atomic      Atomic             Coordinates (Angstroms)
 Number     Number       Type             X           Y           Z
 ---------------------------------------------------------------------
      1         11           0       -0.587814   -2.501117   -1.529687
      2         11           0        0.303495   -1.186260    2.125387
      3         11           0        2.736159   -1.219771   -0.350681
      4         11           0        2.528025    2.230012    0.131462
      5         11           0       -2.650725   -0.935007    0.596268
      6         11           0        0.004531    1.086689   -0.687097
      7         11           0       -2.333670    2.525454   -0.285652
 ---------------------------------------------------------------------

 SCF Done:  E(UB3LYP) =  -1136.12338502     A.U. after   21 cycles

 The electronic state is 2-A.
 Alpha  occ. eigenvalues --  -38.44488 -38.44183 -38.44138 -38.43845 -38.43725
 Alpha  occ. eigenvalues --  -38.43622 -38.42933  -2.20327  -2.20017  -2.19990
 Alpha  occ. eigenvalues --   -2.19715  -2.19597  -2.19462  -2.19001  -1.14086
 Alpha  occ. eigenvalues --   -1.13968  -1.13934  -1.13804  -1.13698  -1.13688
 Alpha  occ. eigenvalues --   -1.13640  -1.13617  -1.13592  -1.13416  -1.13394
 Alpha  occ. eigenvalues --   -1.13339  -1.13256  -1.13224  -1.13203  -1.13124
 Alpha  occ. eigenvalues --   -1.13105  -1.13080  -1.12670  -1.12648  -1.12626
 Alpha  occ. eigenvalues --   -0.18373  -0.13197  -0.12507  -0.10733
 Alpha virt. eigenvalues --   -0.06087  -0.05296  -0.04537  -0.03284  -0.02890
 Alpha virt. eigenvalues --   -0.02353  -0.01541  -0.01345  -0.00554  -0.00194
 Alpha virt. eigenvalues --   -0.00017   0.00336   0.00592   0.00698   0.00874

  Beta  occ. eigenvalues --  -38.44491 -38.44175 -38.44139 -38.43832 -38.43637
  Beta  occ. eigenvalues --  -38.43562 -38.42916  -2.20332  -2.20006  -2.19994
  Beta  occ. eigenvalues --   -2.19695  -2.19433  -2.19350  -2.18973  -1.14089
  Beta  occ. eigenvalues --   -1.13966  -1.13939  -1.13804  -1.13686  -1.13669
  Beta  occ. eigenvalues --   -1.13628  -1.13614  -1.13596  -1.13395  -1.13354
  Beta  occ. eigenvalues --   -1.13325  -1.13148  -1.13107  -1.13094  -1.13044
  Beta  occ. eigenvalues --   -1.13024  -1.13006  -1.12647  -1.12615  -1.12606
  Beta  occ. eigenvalues --   -0.17740  -0.13040  -0.12245
  Beta virt. eigenvalues --   -0.06806  -0.06025  -0.05218  -0.04269  -0.02604
  Beta virt. eigenvalues --   -0.02322  -0.01511  -0.01507  -0.01220  -0.00453
  Beta virt. eigenvalues --   -0.00115   0.00148   0.00402   0.00700   0.00740

 Mulliken charges and spin densities:
               1          2
     1  Na  -0.149184   0.181949
     2  Na  -0.403273   0.336872
     3  Na   0.826206   0.146814
     4  Na   0.140636  -0.079104
     5  Na   0.575309   0.252001
     6  Na  -0.916620   0.390938
     7  Na  -0.073073  -0.229470
 Sum of Mulliken charges =  -0.00000   1.00000

 Dipole moment (field-independent basis, Debye):
    X=              0.3778    Y=              0.1286    Z=              0.2771  Tot=              0.4859
 Quadrupole moment (field-independent basis, Debye-Ang):
   XX=            -55.3098   YY=            -64.1006   ZZ=            -73.7062
   XY=              0.1235   XZ=              0.0119   YZ=              2.1720

 Normal termination of Gaussian 16 at Fri Dec  8 18:24:57 2023.
