 Gaussian 16, Revision B.01,
 Gaussian 16:  ES64L-G16RevB.01 20-Dec-2017

 -------------------------
 #P B3LYP/6-311+g(d) force
 -------------------------

 -----
 DPGEN
 -----
 Symbolic Z-matrix:
 Charge =  0 Multiplicity = 2

                         Standard orientation:
 ---------------------------------------------------------------------
 Center     Atomic      Atomic             Coordinates (Angstroms)
 Number     Number       Type             X           Y           Z
 ---------------------------------------------------------------------
      1         11           0       -1.325082   -2.238841    0.321857
      2         11           0        0.268780    0.200276    1.888922
      3         11           0        2.695807   -1.849423   -0.034822
      4         11           0        0.049770   -0.631963   -1.701804
      5         11           0       -3.550167    0.161862   -0.118063
      6         11           0       -0.735276    2.624397   -0.180907
      7         11           0        2.596168    1.733692   -0.175184
 ---------------------------------------------------------------------

 SCF Done:  E(UB3LYP) =  -1136.13243142     A.U. after   19 cycles

 The electronic state is 2-A.
 Alpha  occ. eigenvalues --  -38.44783 -38.44031 -38.43957 -38.43494 -38.43431
 Alpha  occ. eigenvalues --  -38.43269 -38.43052  -2.20572  -2.19851  -2.19794
 Alpha  occ. eigenvalues --   -2.19451  -2.19353  -2.19206  -2.18901  -1.14246
 Alpha  occ. eigenvalues --   -1.14233  -1.14211  -1.13531  -1.13514  -1.13494
 Alpha  occ. eigenvalues --   -1.13468  -1.13457  -1.13425  -1.13293  -1.13102
 Alpha  occ. eigenvalues --   -1.13045  -1.13032  -1.12960  -1.12938  -1.12880
 Alpha  occ. eigenvalues --   -1.12830  -1.12821  -1.12584  -1.12574  -1.12520
 Alpha  occ. eigenvalues --   -0.18673  -0.13294  -0.12174  -0.10562
 Alpha virt. eigenvalues --   -0.06291  -0.05339  -0.04141  -0.03246  -0.02741
 Alpha virt. eigenvalues --   -0.02333  -0.02080  -0.01238  -0.00382  -0.00114
 Alpha virt. eigenvalues --   -0.00046   0.00292   0.00714   0.00839   0.00863

  Beta  occ. eigenvalues --  -38.44785 -38.44028 -38.43952 -38.43431 -38.43416
  Beta  occ. eigenvalues --  -38.43179 -38.43046  -2.20576  -2.19848  -2.19788
  Beta  occ. eigenvalues --   -2.19345  -2.19321  -2.19042  -2.18892  -1.14247
  Beta  occ. eigenvalues --   -1.14226  -1.14214  -1.13523  -1.13504  -1.13487
  Beta  occ. eigenvalues --   -1.13456  -1.13443  -1.13422  -1.13238  -1.13024
  Beta  occ. eigenvalues --   -1.12986  -1.12967  -1.12922  -1.12900  -1.12775
  Beta  occ. eigenvalues --   -1.12715  -1.12705  -1.12576  -1.12543  -1.12517
  Beta  occ. eigenvalues --   -0.17938  -0.13094  -0.11936
  Beta virt. eigenvalues --   -0.06651  -0.06223  -0.05343  -0.04100  -0.02499
  Beta virt. eigenvalues --   -0.02017  -0.01960  -0.01305  -0.01180  -0.00413
  Beta virt. eigenvalues --   -0.00136   0.00107   0.00319   0.00772   0.00839

 Mulliken charges and spin densities:
               1          2
     1  Na   0.492597  -0.028276
     2  Na  -0.326123   0.660449
     3  Na   0.335152  -0.068415
     4  Na  -0.479075   0.650528
     5  Na  -0.067577  -0.065575
     6  Na  -0.000479  -0.083309
     7  Na   0.045506  -0.065403
 Sum of Mulliken charges =  -0.00000   1.00000

 Dipole moment (field-independent basis, Debye):
    X=             -0.0593    Y=             -0.0137    Z=             -0.0063  Tot=              0.0612
 Quadrupole moment (field-independent basis, Debye-Ang):
   XX=            -49.7354   YY=            -67.2891   ZZ=            -75.1672
   XY=             -1.0098   XZ=             -0.0568   YZ=             -1.6637

 Normal termination of Gaussian 16 at Tue Dec  5 11:36:00 2023.
