 Gaussian 16, Revision B.01,
 Gaussian 16:  ES64L-G16RevB.01 20-Dec-2017

 -------------------------
 #P B3LYP/6-311+g(d) force
 -------------------------

 -----
 DPGEN
 -----
 Symbolic Z-matrix:
 Charge =  0 Multiplicity = 2

                         Standard orientation:
 ---------------------------------------------------------------------
 Center     Atomic      Atomic             Coordinates (Angstroms)
 Number     Number       Type             X           Y           Z
 ---------------------------------------------------------------------
      1         11           0       -0.079929   -0.049683    1.879562
      2         11           0       -2.757364   -0.960368   -0.216832
      3         11           0        0.308026   -0.147827   -1.848244
      4         11           0        1.174981    2.570269    0.202840
      5         11           0       -1.920507    1.971545   -0.146686
      6         11           0       -0.039852   -2.795165    0.246587
      7         11           0        3.314645   -0.588771   -0.117226
 ---------------------------------------------------------------------

 SCF Done:  E(UB3LYP) =  -1136.13640605     A.U. after   19 cycles

 The electronic state is 2-A.
 Alpha  occ. eigenvalues --  -38.44313 -38.43595 -38.43445 -38.43420 -38.43395
 Alpha  occ. eigenvalues --  -38.43392 -38.43169  -2.20093  -2.19507  -2.19389
 Alpha  occ. eigenvalues --   -2.19384  -2.19276  -2.19275  -2.19109  -1.13773
 Alpha  occ. eigenvalues --   -1.13742  -1.13738  -1.13234  -1.13176  -1.13157
 Alpha  occ. eigenvalues --   -1.13092  -1.13080  -1.13052  -1.13041  -1.13004
 Alpha  occ. eigenvalues --   -1.12999  -1.12966  -1.12942  -1.12928  -1.12916
 Alpha  occ. eigenvalues --   -1.12903  -1.12882  -1.12767  -1.12749  -1.12734
 Alpha  occ. eigenvalues --   -0.19075  -0.12943  -0.12654  -0.10993
 Alpha virt. eigenvalues --   -0.05792  -0.04811  -0.04523  -0.03190  -0.03056
 Alpha virt. eigenvalues --   -0.02647  -0.01610  -0.00973  -0.00176  -0.00050
 Alpha virt. eigenvalues --   -0.00017   0.00356   0.00824   0.00940   0.00953

  Beta  occ. eigenvalues --  -38.44313 -38.43587 -38.43388 -38.43382 -38.43370
  Beta  occ. eigenvalues --  -38.43333 -38.43161  -2.20096  -2.19497  -2.19267
  Beta  occ. eigenvalues --   -2.19262  -2.19248  -2.19227  -2.19099  -1.13759
  Beta  occ. eigenvalues --   -1.13745  -1.13741  -1.13229  -1.13168  -1.13117
  Beta  occ. eigenvalues --   -1.13023  -1.13016  -1.12967  -1.12954  -1.12937
  Beta  occ. eigenvalues --   -1.12918  -1.12903  -1.12895  -1.12883  -1.12879
  Beta  occ. eigenvalues --   -1.12872  -1.12848  -1.12761  -1.12735  -1.12701
  Beta  occ. eigenvalues --   -0.18312  -0.12701  -0.12379
  Beta virt. eigenvalues --   -0.07052  -0.05761  -0.04780  -0.04523  -0.02415
  Beta virt. eigenvalues --   -0.02223  -0.01650  -0.01459  -0.00902  -0.00214
  Beta virt. eigenvalues --   -0.00105   0.00108   0.00372   0.00840   0.00932

 Mulliken charges and spin densities:
               1          2
     1  Na  -0.400880   0.597705
     2  Na   0.256076   0.033082
     3  Na  -0.475609   0.656979
     4  Na   0.169625  -0.068142
     5  Na   0.184433   0.022269
     6  Na   0.254617  -0.091750
     7  Na   0.011737  -0.150143
 Sum of Mulliken charges =  -0.00000   1.00000

 Dipole moment (field-independent basis, Debye):
    X=              0.5157    Y=             -0.1971    Z=             -0.0159  Tot=              0.5523
 Quadrupole moment (field-independent basis, Debye-Ang):
   XX=            -56.8806   YY=            -64.0130   ZZ=            -73.0914
   XY=              0.0929   XZ=              0.9641   YZ=             -0.1077

 Normal termination of Gaussian 16 at Thu Dec  7 17:20:11 2023.
