 Gaussian 16, Revision B.01,
 Gaussian 16:  ES64L-G16RevB.01 20-Dec-2017

 -------------------------
 #P B3LYP/6-311+g(d) force
 -------------------------

 -----
 DPGEN
 -----
 Symbolic Z-matrix:
 Charge =  0 Multiplicity = 2

                         Standard orientation:
 ---------------------------------------------------------------------
 Center     Atomic      Atomic             Coordinates (Angstroms)
 Number     Number       Type             X           Y           Z
 ---------------------------------------------------------------------
      1         11           0       -1.970849   -2.366140   -0.368574
      2         11           0       -0.167262    2.702870    0.421212
      3         11           0        0.264224   -0.229260   -1.626121
      4         11           0       -0.617636   -0.663482    1.654085
      5         11           0        2.526789   -1.628026    0.442893
      6         11           0        3.148815    1.027556   -0.314330
      7         11           0       -3.184081    1.156482   -0.209166
 ---------------------------------------------------------------------

 SCF Done:  E(UB3LYP) =  -1136.12566329     A.U. after   21 cycles

 The electronic state is 2-A.
 Alpha  occ. eigenvalues --  -38.44868 -38.44502 -38.44309 -38.43565 -38.43401
 Alpha  occ. eigenvalues --  -38.43129 -38.43001  -2.20667  -2.20387  -2.20211
 Alpha  occ. eigenvalues --   -2.19448  -2.19357  -2.19098  -2.18832  -1.14344
 Alpha  occ. eigenvalues --   -1.14318  -1.14307  -1.14254  -1.14032  -1.14004
 Alpha  occ. eigenvalues --   -1.13847  -1.13843  -1.13784  -1.13209  -1.13123
 Alpha  occ. eigenvalues --   -1.13062  -1.13054  -1.12986  -1.12966  -1.12770
 Alpha  occ. eigenvalues --   -1.12728  -1.12694  -1.12515  -1.12500  -1.12462
 Alpha  occ. eigenvalues --   -0.18731  -0.13917  -0.11982  -0.10360
 Alpha virt. eigenvalues --   -0.06487  -0.05515  -0.04144  -0.03517  -0.02579
 Alpha virt. eigenvalues --   -0.02140  -0.02047  -0.01294  -0.00470  -0.00160
 Alpha virt. eigenvalues --   -0.00025   0.00312   0.00706   0.00777   0.00799

  Beta  occ. eigenvalues --  -38.44866 -38.44497 -38.44295 -38.43555 -38.43336
  Beta  occ. eigenvalues --  -38.43061 -38.42993  -2.20666  -2.20381  -2.20189
  Beta  occ. eigenvalues --   -2.19433  -2.19238  -2.18973  -2.18820  -1.14332
  Beta  occ. eigenvalues --   -1.14318  -1.14304  -1.14251  -1.14013  -1.13995
  Beta  occ. eigenvalues --   -1.13835  -1.13804  -1.13770  -1.13191  -1.13086
  Beta  occ. eigenvalues --   -1.13050  -1.12970  -1.12905  -1.12879  -1.12686
  Beta  occ. eigenvalues --   -1.12643  -1.12600  -1.12507  -1.12474  -1.12453
  Beta  occ. eigenvalues --   -0.18039  -0.13696  -0.11743
  Beta virt. eigenvalues --   -0.06519  -0.06409  -0.05476  -0.04049  -0.02790
  Beta virt. eigenvalues --   -0.02097  -0.01836  -0.01231  -0.01093  -0.00491
  Beta virt. eigenvalues --   -0.00150   0.00143   0.00353   0.00764   0.00811

 Mulliken charges and spin densities:
               1          2
     1  Na   0.150150   0.005440
     2  Na  -0.205130  -0.014490
     3  Na  -0.212587   0.427079
     4  Na  -0.097182   0.487668
     5  Na   0.234927   0.046403
     6  Na   0.106822   0.048355
     7  Na   0.023001  -0.000455
 Sum of Mulliken charges =  -0.00000   1.00000

 Dipole moment (field-independent basis, Debye):
    X=             -0.1934    Y=              0.0277    Z=             -0.1216  Tot=              0.2301
 Quadrupole moment (field-independent basis, Debye-Ang):
   XX=            -49.3861   YY=            -67.3908   ZZ=            -76.1296
   XY=              0.7045   XZ=              1.6018   YZ=              0.1947

 Normal termination of Gaussian 16 at Tue Dec  5 10:55:51 2023.
