 Gaussian 16, Revision B.01,
 Gaussian 16:  ES64L-G16RevB.01 20-Dec-2017

 -------------------------
 #P B3LYP/6-311+g(d) force
 -------------------------

 -----
 DPGEN
 -----
 Symbolic Z-matrix:
 Charge =  0 Multiplicity = 2

                         Standard orientation:
 ---------------------------------------------------------------------
 Center     Atomic      Atomic             Coordinates (Angstroms)
 Number     Number       Type             X           Y           Z
 ---------------------------------------------------------------------
      1         11           0       -0.869969    2.875233   -0.455615
      2         11           0       -3.496828    0.204764    0.098001
      3         11           0       -1.574298   -2.442679   -0.217692
      4         11           0       -0.253844    0.040796    1.985085
      5         11           0        3.155285    1.410781    0.341313
      6         11           0        0.529249   -0.088226   -1.729557
      7         11           0        2.510403   -2.000668   -0.021535
 ---------------------------------------------------------------------

 SCF Done:  E(UB3LYP) =  -1136.13088432     A.U. after   21 cycles

 The electronic state is 2-A.
 Alpha  occ. eigenvalues --  -38.44849 -38.44783 -38.44016 -38.43999 -38.43299
 Alpha  occ. eigenvalues --  -38.43264 -38.43157  -2.20644  -2.20562  -2.19845
 Alpha  occ. eigenvalues --   -2.19839  -2.19219  -2.19107  -2.18952  -1.14320
 Alpha  occ. eigenvalues --   -1.14307  -1.14279  -1.14234  -1.14215  -1.14204
 Alpha  occ. eigenvalues --   -1.13538  -1.13525  -1.13498  -1.13477  -1.13470
 Alpha  occ. eigenvalues --   -1.13456  -1.12904  -1.12857  -1.12849  -1.12780
 Alpha  occ. eigenvalues --   -1.12773  -1.12740  -1.12631  -1.12614  -1.12585
 Alpha  occ. eigenvalues --   -0.18059  -0.13399  -0.11755  -0.10482
 Alpha virt. eigenvalues --   -0.06495  -0.05522  -0.04305  -0.03384  -0.02628
 Alpha virt. eigenvalues --   -0.02416  -0.02124  -0.01327  -0.00692  -0.00362
 Alpha virt. eigenvalues --   -0.00082   0.00310   0.00634   0.00700   0.00782

  Beta  occ. eigenvalues --  -38.44851 -38.44776 -38.44012 -38.43921 -38.43259
  Beta  occ. eigenvalues --  -38.43227 -38.43147  -2.20649  -2.20549  -2.19837
  Beta  occ. eigenvalues --   -2.19698  -2.19101  -2.19088  -2.18935  -1.14322
  Beta  occ. eigenvalues --   -1.14299  -1.14284  -1.14213  -1.14205  -1.14197
  Beta  occ. eigenvalues --   -1.13527  -1.13486  -1.13465  -1.13425  -1.13378
  Beta  occ. eigenvalues --   -1.13349  -1.12822  -1.12786  -1.12761  -1.12756
  Beta  occ. eigenvalues --   -1.12748  -1.12719  -1.12611  -1.12592  -1.12577
  Beta  occ. eigenvalues --   -0.17356  -0.13224  -0.11500
  Beta virt. eigenvalues --   -0.06718  -0.06317  -0.05528  -0.04223  -0.02689
  Beta virt. eigenvalues --   -0.02005  -0.01906  -0.01425  -0.01277  -0.00707
  Beta virt. eigenvalues --   -0.00392   0.00082   0.00340   0.00732   0.00784

 Mulliken charges and spin densities:
               1          2
     1  Na  -0.123438  -0.098872
     2  Na   0.129349  -0.017041
     3  Na   0.012117  -0.127097
     4  Na  -0.282224   0.691212
     5  Na   0.000213   0.012445
     6  Na   0.110197   0.610725
     7  Na   0.153786  -0.071373
 Sum of Mulliken charges =  -0.00000   1.00000

 Dipole moment (field-independent basis, Debye):
    X=              0.1804    Y=              0.0339    Z=              0.2398  Tot=              0.3019
 Quadrupole moment (field-independent basis, Debye-Ang):
   XX=            -50.0556   YY=            -66.9830   ZZ=            -75.6145
   XY=              0.1785   XZ=              1.3402   YZ=              0.0639

 Normal termination of Gaussian 16 at Tue Dec  5 22:40:36 2023.
