 Gaussian 16, Revision B.01,
 Gaussian 16:  ES64L-G16RevB.01 20-Dec-2017

 -------------------------
 #P B3LYP/6-311+g(d) force
 -------------------------

 -----
 DPGEN
 -----
 Symbolic Z-matrix:
 Charge =  0 Multiplicity = 2

                         Standard orientation:
 ---------------------------------------------------------------------
 Center     Atomic      Atomic             Coordinates (Angstroms)
 Number     Number       Type             X           Y           Z
 ---------------------------------------------------------------------
      1         11           0       -0.605185    0.438331   -1.703883
      2         11           0        0.844104    2.802950   -0.173765
      3         11           0       -2.438743    1.629099    0.425688
      4         11           0       -2.856394   -1.831984    0.150223
      5         11           0        0.643033   -0.594580    2.313120
      6         11           0        3.501622   -0.289798    0.006671
      7         11           0        0.911563   -2.154019   -1.018053
 ---------------------------------------------------------------------

 SCF Done:  E(UB3LYP) =  -1136.12845603     A.U. after   20 cycles

 The electronic state is 2-A.
 Alpha  occ. eigenvalues --  -38.44623 -38.44621 -38.43913 -38.43822 -38.43537
 Alpha  occ. eigenvalues --  -38.43436 -38.43083  -2.20425  -2.20407  -2.19779
 Alpha  occ. eigenvalues --   -2.19610  -2.19526  -2.19319  -2.18915  -1.14084
 Alpha  occ. eigenvalues --   -1.14080  -1.14069  -1.14064  -1.14054  -1.14028
 Alpha  occ. eigenvalues --   -1.13535  -1.13441  -1.13389  -1.13279  -1.13270
 Alpha  occ. eigenvalues --   -1.13260  -1.13246  -1.13179  -1.13135  -1.12994
 Alpha  occ. eigenvalues --   -1.12959  -1.12916  -1.12608  -1.12574  -1.12531
 Alpha  occ. eigenvalues --   -0.18174  -0.13124  -0.11899  -0.11198
 Alpha virt. eigenvalues --   -0.06127  -0.05109  -0.04197  -0.03637  -0.03005
 Alpha virt. eigenvalues --   -0.02870  -0.01812  -0.01037  -0.00353  -0.00124
 Alpha virt. eigenvalues --   -0.00007   0.00341   0.00552   0.00720   0.00845

  Beta  occ. eigenvalues --  -38.44627 -38.44531 -38.43906 -38.43823 -38.43477
  Beta  occ. eigenvalues --  -38.43400 -38.43081  -2.20417  -2.20256  -2.19767
  Beta  occ. eigenvalues --   -2.19614  -2.19419  -2.19256  -2.18912  -1.14084
  Beta  occ. eigenvalues --   -1.14063  -1.14061  -1.13964  -1.13948  -1.13915
  Beta  occ. eigenvalues --   -1.13518  -1.13422  -1.13382  -1.13275  -1.13267
  Beta  occ. eigenvalues --   -1.13257  -1.13176  -1.13103  -1.13062  -1.12942
  Beta  occ. eigenvalues --   -1.12897  -1.12877  -1.12598  -1.12564  -1.12532
  Beta  occ. eigenvalues --   -0.17447  -0.12967  -0.11706
  Beta virt. eigenvalues --   -0.07266  -0.05902  -0.05131  -0.04009  -0.03004
  Beta virt. eigenvalues --   -0.02249  -0.01954  -0.01689  -0.00993  -0.00324
  Beta virt. eigenvalues --   -0.00015   0.00052   0.00369   0.00742   0.00822

 Mulliken charges and spin densities:
               1          2
     1  Na   0.419286   0.175226
     2  Na  -0.014429  -0.042297
     3  Na  -0.044315   0.136194
     4  Na  -0.035138  -0.006605
     5  Na  -0.580621   0.690196
     6  Na   0.074984  -0.023498
     7  Na   0.180233   0.070784
 Sum of Mulliken charges =  -0.00000   1.00000

 Dipole moment (field-independent basis, Debye):
    X=              0.3255    Y=             -0.0998    Z=              0.5127  Tot=              0.6154
 Quadrupole moment (field-independent basis, Debye-Ang):
   XX=            -54.6186   YY=            -69.1273   ZZ=            -71.1862
   XY=              1.3873   XZ=             -1.8843   YZ=              1.2628

 Normal termination of Gaussian 16 at Thu Dec  7 16:36:29 2023.
