 Gaussian 16, Revision B.01,
 Gaussian 16:  ES64L-G16RevB.01 20-Dec-2017

 -------------------------
 #P B3LYP/6-311+g(d) force
 -------------------------

 -----
 DPGEN
 -----
 Symbolic Z-matrix:
 Charge =  0 Multiplicity = 2

                         Standard orientation:
 ---------------------------------------------------------------------
 Center     Atomic      Atomic             Coordinates (Angstroms)
 Number     Number       Type             X           Y           Z
 ---------------------------------------------------------------------
      1         11           0       -1.531619   -2.128214   -0.359807
      2         11           0        0.271050    0.242833   -1.738956
      3         11           0       -0.100742    2.842074    0.394366
      4         11           0        1.366881   -2.265567    0.307110
      5         11           0       -0.277994   -0.284929    1.738811
      6         11           0        3.169310    0.757558   -0.159206
      7         11           0       -2.896886    0.836244   -0.182318
 ---------------------------------------------------------------------

 SCF Done:  E(UB3LYP) =  -1136.13229717     A.U. after   19 cycles

 The electronic state is 2-A.
 Alpha  occ. eigenvalues --  -38.44027 -38.43725 -38.43555 -38.43299 -38.43296
 Alpha  occ. eigenvalues --  -38.43186 -38.43164  -2.19840  -2.19601  -2.19406
 Alpha  occ. eigenvalues --   -2.19347  -2.19274  -2.19181  -2.19166  -1.13523
 Alpha  occ. eigenvalues --   -1.13493  -1.13480  -1.13290  -1.13265  -1.13248
 Alpha  occ. eigenvalues --   -1.13218  -1.13101  -1.13085  -1.13036  -1.13018
 Alpha  occ. eigenvalues --   -1.12991  -1.12967  -1.12898  -1.12865  -1.12852
 Alpha  occ. eigenvalues --   -1.12832  -1.12793  -1.12786  -1.12763  -1.12738
 Alpha  occ. eigenvalues --   -0.19411  -0.13036  -0.12791  -0.10945
 Alpha virt. eigenvalues --   -0.05632  -0.04760  -0.04619  -0.03097  -0.03090
 Alpha virt. eigenvalues --   -0.02419  -0.01519  -0.00964  -0.00182  -0.00009
 Alpha virt. eigenvalues --    0.00108   0.00350   0.00880   0.00930   0.00976

  Beta  occ. eigenvalues --  -38.44026 -38.43719 -38.43545 -38.43283 -38.43218
  Beta  occ. eigenvalues --  -38.43149 -38.43113  -2.19840  -2.19594  -2.19391
  Beta  occ. eigenvalues --   -2.19259  -2.19196  -2.19143  -2.19048  -1.13511
  Beta  occ. eigenvalues --   -1.13492  -1.13481  -1.13287  -1.13249  -1.13229
  Beta  occ. eigenvalues --   -1.13165  -1.13086  -1.13053  -1.13012  -1.12987
  Beta  occ. eigenvalues --   -1.12932  -1.12887  -1.12847  -1.12808  -1.12774
  Beta  occ. eigenvalues --   -1.12756  -1.12740  -1.12719  -1.12703  -1.12677
  Beta  occ. eigenvalues --   -0.18658  -0.12773  -0.12510
  Beta virt. eigenvalues --   -0.06970  -0.05598  -0.04734  -0.04610  -0.02339
  Beta virt. eigenvalues --   -0.02265  -0.01482  -0.01330  -0.00889  -0.00195
  Beta virt. eigenvalues --    0.00028   0.00147   0.00375   0.00890   0.00940

 Mulliken charges and spin densities:
               1          2
     1  Na   0.331201   0.092651
     2  Na  -0.440213   0.591664
     3  Na  -0.058759  -0.090521
     4  Na   0.475942   0.054671
     5  Na  -0.366689   0.521121
     6  Na  -0.020327  -0.111470
     7  Na   0.078845  -0.058116
 Sum of Mulliken charges =  -0.00000   1.00000

 Dipole moment (field-independent basis, Debye):
    X=              0.1705    Y=              0.4532    Z=             -0.0449  Tot=              0.4863
 Quadrupole moment (field-independent basis, Debye-Ang):
   XX=            -56.4304   YY=            -63.5024   ZZ=            -73.5230
   XY=              0.0752   XZ=              1.2458   YZ=              1.0963

 Normal termination of Gaussian 16 at Tue Dec  5 21:38:22 2023.
