 Gaussian 16, Revision B.01,
 Gaussian 16:  ES64L-G16RevB.01 20-Dec-2017

 -------------------------
 #P B3LYP/6-311+g(d) force
 -------------------------

 -----
 DPGEN
 -----
 Symbolic Z-matrix:
 Charge =  0 Multiplicity = 2

                         Standard orientation:
 ---------------------------------------------------------------------
 Center     Atomic      Atomic             Coordinates (Angstroms)
 Number     Number       Type             X           Y           Z
 ---------------------------------------------------------------------
      1         11           0        4.308971    0.305573   -0.626035
      2         11           0        1.560435    2.478913   -0.188868
      3         11           0       -3.561296    0.255438   -0.928111
      4         11           0       -1.725496   -2.247559   -1.018646
      5         11           0       -1.490813    2.991963    0.641326
      6         11           0       -1.257207   -1.315285    1.667132
      7         11           0        2.165405   -2.469043    0.453202
 ---------------------------------------------------------------------

 SCF Done:  E(UB3LYP) =  -1136.11571168     A.U. after   20 cycles

 The electronic state is 2-A.
 Alpha  occ. eigenvalues --  -38.44871 -38.44670 -38.44660 -38.44317 -38.44202
 Alpha  occ. eigenvalues --  -38.43754 -38.43407  -2.20732  -2.20568  -2.20409
 Alpha  occ. eigenvalues --   -2.20170  -2.19987  -2.19551  -2.19218  -1.14576
 Alpha  occ. eigenvalues --   -1.14377  -1.14327  -1.14235  -1.14200  -1.14165
 Alpha  occ. eigenvalues --   -1.14105  -1.14080  -1.14030  -1.13834  -1.13802
 Alpha  occ. eigenvalues --   -1.13783  -1.13672  -1.13666  -1.13632  -1.13207
 Alpha  occ. eigenvalues --   -1.13196  -1.13179  -1.12885  -1.12874  -1.12851
 Alpha  occ. eigenvalues --   -0.17011  -0.13748  -0.12771  -0.10500
 Alpha virt. eigenvalues --   -0.06489  -0.06101  -0.04047  -0.03780  -0.03085
 Alpha virt. eigenvalues --   -0.02090  -0.01891  -0.01682  -0.01099  -0.00703
 Alpha virt. eigenvalues --   -0.00407   0.00114   0.00326   0.00410   0.00640

  Beta  occ. eigenvalues --  -38.44834 -38.44654 -38.44651 -38.44254 -38.44196
  Beta  occ. eigenvalues --  -38.43702 -38.43384  -2.20666  -2.20540  -2.20401
  Beta  occ. eigenvalues --   -2.20055  -2.19982  -2.19453  -2.19177  -1.14544
  Beta  occ. eigenvalues --   -1.14331  -1.14268  -1.14208  -1.14180  -1.14106
  Beta  occ. eigenvalues --   -1.14101  -1.14077  -1.14002  -1.13753  -1.13732
  Beta  occ. eigenvalues --   -1.13693  -1.13672  -1.13659  -1.13606  -1.13140
  Beta  occ. eigenvalues --   -1.13129  -1.13118  -1.12857  -1.12842  -1.12826
  Beta  occ. eigenvalues --   -0.16473  -0.13106  -0.12382
  Beta virt. eigenvalues --   -0.07146  -0.06537  -0.05756  -0.03837  -0.03198
  Beta virt. eigenvalues --   -0.02603  -0.01821  -0.01761  -0.01243  -0.01025
  Beta virt. eigenvalues --   -0.00609  -0.00078   0.00361   0.00419   0.00522

 Mulliken charges and spin densities:
               1          2
     1  Na   0.229395   0.281865
     2  Na  -0.391188   0.067288
     3  Na   0.141937   0.279482
     4  Na   0.236253   0.049338
     5  Na   0.092313   0.010549
     6  Na  -0.215131   0.364110
     7  Na  -0.093578  -0.052632
 Sum of Mulliken charges =  -0.00000   1.00000

 Dipole moment (field-independent basis, Debye):
    X=             -0.5680    Y=             -0.8702    Z=              0.0991  Tot=              1.0439
 Quadrupole moment (field-independent basis, Debye-Ang):
   XX=            -64.4603   YY=            -68.1131   ZZ=            -69.2166
   XY=             -3.9025   XZ=             -2.2516   YZ=              0.7243

 Normal termination of Gaussian 16 at Mon Dec  4 03:30:01 2023.
