 Gaussian 16, Revision B.01,
 Gaussian 16:  ES64L-G16RevB.01 20-Dec-2017

 -------------------------
 #P B3LYP/6-311+g(d) force
 -------------------------

 -----
 DPGEN
 -----
 Symbolic Z-matrix:
 Charge =  0 Multiplicity = 2

                         Standard orientation:
 ---------------------------------------------------------------------
 Center     Atomic      Atomic             Coordinates (Angstroms)
 Number     Number       Type             X           Y           Z
 ---------------------------------------------------------------------
      1         11           0       -8.167683   -1.022146   -0.358674
      2         11           0        1.230527    2.284377   -0.790300
      3         11           0        7.509197   -1.009522   -0.339704
      4         11           0        4.858922    0.014771    0.615694
      5         11           0       -1.380283    1.078040    0.804910
      6         11           0       -5.281783    0.077714    0.210437
      7         11           0        1.231105   -1.423233   -0.142363
 ---------------------------------------------------------------------

 SCF Done:  E(UB3LYP) =  -1136.10367646     A.U. after   24 cycles

 The electronic state is 2-A.
 Alpha  occ. eigenvalues --  -38.46735 -38.45048 -38.44673 -38.44379 -38.43797
 Alpha  occ. eigenvalues --  -38.43697 -38.43472  -2.22498  -2.20857  -2.20492
 Alpha  occ. eigenvalues --   -2.20167  -2.19579  -2.19516  -2.19286  -1.16181
 Alpha  occ. eigenvalues --   -1.16157  -1.16129  -1.14519  -1.14491  -1.14460
 Alpha  occ. eigenvalues --   -1.14163  -1.14154  -1.14106  -1.13827  -1.13816
 Alpha  occ. eigenvalues --   -1.13816  -1.13250  -1.13250  -1.13245  -1.13219
 Alpha  occ. eigenvalues --   -1.13152  -1.13151  -1.12958  -1.12945  -1.12900
 Alpha  occ. eigenvalues --   -0.16373  -0.13621  -0.12715  -0.10483
 Alpha virt. eigenvalues --   -0.08018  -0.05530  -0.04838  -0.03188  -0.02891
 Alpha virt. eigenvalues --   -0.02664  -0.02440  -0.02042  -0.01960  -0.01081
 Alpha virt. eigenvalues --   -0.00752  -0.00407  -0.00186   0.00076   0.00158

  Beta  occ. eigenvalues --  -38.46736 -38.44955 -38.44627 -38.44357 -38.43799
  Beta  occ. eigenvalues --  -38.43654 -38.43477  -2.22504  -2.20683  -2.20408
  Beta  occ. eigenvalues --   -2.20125  -2.19585  -2.19437  -2.19300  -1.16187
  Beta  occ. eigenvalues --   -1.16153  -1.16118  -1.14399  -1.14368  -1.14346
  Beta  occ. eigenvalues --   -1.14098  -1.14094  -1.14049  -1.13801  -1.13787
  Beta  occ. eigenvalues --   -1.13787  -1.13257  -1.13256  -1.13203  -1.13202
  Beta  occ. eigenvalues --   -1.13098  -1.13096  -1.12971  -1.12955  -1.12871
  Beta  occ. eigenvalues --   -0.15795  -0.13216  -0.12367
  Beta virt. eigenvalues --   -0.07703  -0.07094  -0.05183  -0.04595  -0.02802
  Beta virt. eigenvalues --   -0.02695  -0.02386  -0.02207  -0.01869  -0.01833
  Beta virt. eigenvalues --   -0.00769  -0.00454  -0.00096   0.00036   0.00214

 Mulliken charges and spin densities:
               1          2
     1  Na  -0.010342   0.138535
     2  Na   0.651862  -0.018756
     3  Na   0.899922   0.137558
     4  Na  -1.155411   0.064851
     5  Na  -0.107430   0.246615
     6  Na  -0.484509  -0.013919
     7  Na   0.205908   0.445116
 Sum of Mulliken charges =  -0.00000   1.00000

 Dipole moment (field-independent basis, Debye):
    X=             -0.2667    Y=              0.5610    Z=             -0.7869  Tot=              1.0025
 Quadrupole moment (field-independent basis, Debye-Ang):
   XX=            -72.2791   YY=            -66.0507   ZZ=            -71.5717
   XY=              7.2590   XZ=             -2.6757   YZ=             -1.7991

 Normal termination of Gaussian 16 at Mon Dec  4 00:56:43 2023.
