 Gaussian 16, Revision B.01,
 Gaussian 16:  ES64L-G16RevB.01 20-Dec-2017

 -------------------------
 #P B3LYP/6-311+g(d) force
 -------------------------

 -----
 DPGEN
 -----
 Symbolic Z-matrix:
 Charge =  0 Multiplicity = 2

                         Standard orientation:
 ---------------------------------------------------------------------
 Center     Atomic      Atomic             Coordinates (Angstroms)
 Number     Number       Type             X           Y           Z
 ---------------------------------------------------------------------
      1         11           0        4.024609   -2.238013   -0.732544
      2         11           0        2.681171    0.608145    1.888433
      3         11           0        0.121371    2.399413   -0.065859
      4         11           0        2.618775    1.167467   -1.807047
      5         11           0       -0.109594   -0.581516    1.256153
      6         11           0       -3.298892   -1.540753   -0.179696
      7         11           0       -6.037441    0.185257   -0.359441
 ---------------------------------------------------------------------

 SCF Done:  E(UB3LYP) =  -1136.10592303     A.U. after   26 cycles

 The electronic state is 2-A.
 Alpha  occ. eigenvalues --  -38.45660 -38.44836 -38.44421 -38.44142 -38.44116
 Alpha  occ. eigenvalues --  -38.43858 -38.43193  -2.21495  -2.20609  -2.20255
 Alpha  occ. eigenvalues --   -2.20005  -2.19926  -2.19733  -2.18933  -1.15219
 Alpha  occ. eigenvalues --   -1.15145  -1.15083  -1.14263  -1.14261  -1.14251
 Alpha  occ. eigenvalues --   -1.13937  -1.13920  -1.13849  -1.13680  -1.13657
 Alpha  occ. eigenvalues --   -1.13634  -1.13597  -1.13586  -1.13574  -1.13404
 Alpha  occ. eigenvalues --   -1.13380  -1.13347  -1.12621  -1.12604  -1.12568
 Alpha  occ. eigenvalues --   -0.17385  -0.13654  -0.11571  -0.10984
 Alpha virt. eigenvalues --   -0.07611  -0.05162  -0.04392  -0.03380  -0.03081
 Alpha virt. eigenvalues --   -0.02677  -0.02268  -0.01624  -0.01055  -0.00911
 Alpha virt. eigenvalues --   -0.00709   0.00034   0.00156   0.00437   0.00602

  Beta  occ. eigenvalues --  -38.45629 -38.44808 -38.44351 -38.44148 -38.44060
  Beta  occ. eigenvalues --  -38.43813 -38.43207  -2.21441  -2.20556  -2.20127
  Beta  occ. eigenvalues --   -2.19941  -2.19902  -2.19654  -2.18960  -1.15164
  Beta  occ. eigenvalues --   -1.15100  -1.15052  -1.14226  -1.14225  -1.14218
  Beta  occ. eigenvalues --   -1.13853  -1.13837  -1.13740  -1.13614  -1.13610
  Beta  occ. eigenvalues --   -1.13596  -1.13588  -1.13568  -1.13554  -1.13348
  Beta  occ. eigenvalues --   -1.13325  -1.13275  -1.12639  -1.12617  -1.12586
  Beta  occ. eigenvalues --   -0.16619  -0.13369  -0.11028
  Beta virt. eigenvalues --   -0.07703  -0.07095  -0.05006  -0.04115  -0.03055
  Beta virt. eigenvalues --   -0.02570  -0.02230  -0.02039  -0.01232  -0.00963
  Beta virt. eigenvalues --   -0.00650  -0.00547   0.00146   0.00252   0.00513

 Mulliken charges and spin densities:
               1          2
     1  Na  -0.097464  -0.140754
     2  Na   1.081275   0.338832
     3  Na  -0.027540   0.205258
     4  Na  -0.057056   0.265961
     5  Na  -1.031612   0.304218
     6  Na   0.019563  -0.110818
     7  Na   0.112835   0.137304
 Sum of Mulliken charges =  -0.00000   1.00000

 Dipole moment (field-independent basis, Debye):
    X=             -0.8839    Y=              1.1667    Z=              0.6302  Tot=              1.5936
 Quadrupole moment (field-independent basis, Debye-Ang):
   XX=            -66.2125   YY=            -65.7772   ZZ=            -69.7793
   XY=             -1.7199   XZ=              6.0160   YZ=              1.5626

 Normal termination of Gaussian 16 at Fri Dec  8 18:01:22 2023.
