 Gaussian 16, Revision B.01,
 Gaussian 16:  ES64L-G16RevB.01 20-Dec-2017

 -------------------------
 #P B3LYP/6-311+g(d) force
 -------------------------

 -----
 DPGEN
 -----
 Symbolic Z-matrix:
 Charge =  0 Multiplicity = 2

                         Standard orientation:
 ---------------------------------------------------------------------
 Center     Atomic      Atomic             Coordinates (Angstroms)
 Number     Number       Type             X           Y           Z
 ---------------------------------------------------------------------
      1         11           0        0.812524   -1.678411    1.371012
      2         11           0        4.479936   -3.038613   -0.639903
      3         11           0        2.457033    0.385203   -0.486966
      4         11           0        1.251129    4.465935   -0.422363
      5         11           0       -0.351264    1.791042    0.922508
      6         11           0       -2.449570   -0.763640   -0.216711
      7         11           0       -6.199788   -1.161517   -0.527577
 ---------------------------------------------------------------------

 SCF Done:  E(UB3LYP) =  -1136.11346576     A.U. after   21 cycles

 The electronic state is 2-A.
 Alpha  occ. eigenvalues --  -38.45085 -38.44870 -38.44828 -38.44801 -38.43947
 Alpha  occ. eigenvalues --  -38.43786 -38.43759  -2.20884  -2.20627  -2.20617
 Alpha  occ. eigenvalues --   -2.20600  -2.19812  -2.19568  -2.19530  -1.14629
 Alpha  occ. eigenvalues --   -1.14591  -1.14456  -1.14318  -1.14300  -1.14280
 Alpha  occ. eigenvalues --   -1.14276  -1.14240  -1.14239  -1.14216  -1.14207
 Alpha  occ. eigenvalues --   -1.14201  -1.13514  -1.13505  -1.13423  -1.13237
 Alpha  occ. eigenvalues --   -1.13229  -1.13228  -1.13224  -1.13183  -1.13154
 Alpha  occ. eigenvalues --   -0.16893  -0.13072  -0.12543  -0.11210
 Alpha virt. eigenvalues --   -0.06554  -0.05589  -0.05112  -0.03290  -0.02710
 Alpha virt. eigenvalues --   -0.02421  -0.02099  -0.01806  -0.01377  -0.01289
 Alpha virt. eigenvalues --   -0.00625  -0.00243  -0.00133   0.00385   0.00539

  Beta  occ. eigenvalues --  -38.45094 -38.44813 -38.44773 -38.44720 -38.43943
  Beta  occ. eigenvalues --  -38.43778 -38.43759  -2.20903  -2.20578  -2.20509
  Beta  occ. eigenvalues --   -2.20398  -2.19807  -2.19573  -2.19517  -1.14630
  Beta  occ. eigenvalues --   -1.14600  -1.14473  -1.14290  -1.14270  -1.14205
  Beta  occ. eigenvalues --   -1.14200  -1.14161  -1.14146  -1.14102  -1.14102
  Beta  occ. eigenvalues --   -1.14068  -1.13518  -1.13504  -1.13394  -1.13273
  Beta  occ. eigenvalues --   -1.13258  -1.13194  -1.13194  -1.13151  -1.13137
  Beta  occ. eigenvalues --   -0.16550  -0.12321  -0.12011
  Beta virt. eigenvalues --   -0.08044  -0.06091  -0.05373  -0.04857  -0.03089
  Beta virt. eigenvalues --   -0.02451  -0.02144  -0.01921  -0.01414  -0.00991
  Beta virt. eigenvalues --   -0.00948  -0.00314  -0.00044  -0.00001   0.00471

 Mulliken charges and spin densities:
               1          2
     1  Na   0.364308  -0.013307
     2  Na   0.347757   0.327799
     3  Na  -0.446581  -0.016991
     4  Na   0.567720   0.141134
     5  Na  -0.248180   0.016032
     6  Na  -0.411261   0.098886
     7  Na  -0.173763   0.446446
 Sum of Mulliken charges =  -0.00000   1.00000

 Dipole moment (field-independent basis, Debye):
    X=              0.7028    Y=             -0.5178    Z=              0.1957  Tot=              0.8946
 Quadrupole moment (field-independent basis, Debye-Ang):
   XX=            -63.6149   YY=            -62.9995   ZZ=            -69.5282
   XY=             -3.5468   XZ=             -1.8461   YZ=             -1.7165

 Normal termination of Gaussian 16 at Tue Nov 28 22:54:46 2023.
