 Gaussian 16, Revision B.01,
 Gaussian 16:  ES64L-G16RevB.01 20-Dec-2017

 -------------------------
 #P B3LYP/6-311+g(d) force
 -------------------------

 -----
 DPGEN
 -----
 Symbolic Z-matrix:
 Charge =  0 Multiplicity = 2

                         Standard orientation:
 ---------------------------------------------------------------------
 Center     Atomic      Atomic             Coordinates (Angstroms)
 Number     Number       Type             X           Y           Z
 ---------------------------------------------------------------------
      1         11           0        0.262840    0.812606    1.887326
      2         11           0        3.062403   -1.038088    0.210514
      3         11           0       -2.065305    2.011627    0.098752
      4         11           0        0.086654   -2.659027    0.217356
      5         11           0        1.714063    2.374173   -0.700084
      6         11           0       -2.975286   -1.090983   -0.033930
      7         11           0       -0.085368   -0.410308   -1.679933
 ---------------------------------------------------------------------

 SCF Done:  E(UB3LYP) =  -1136.13541983     A.U. after   19 cycles

 The electronic state is 2-A.
 Alpha  occ. eigenvalues --  -38.44201 -38.43856 -38.43638 -38.43619 -38.43418
 Alpha  occ. eigenvalues --  -38.43260 -38.43227  -2.20016  -2.19714  -2.19499
 Alpha  occ. eigenvalues --   -2.19480  -2.19332  -2.19251  -2.19132  -1.13687
 Alpha  occ. eigenvalues --   -1.13676  -1.13659  -1.13405  -1.13373  -1.13370
 Alpha  occ. eigenvalues --   -1.13220  -1.13166  -1.13154  -1.13151  -1.13121
 Alpha  occ. eigenvalues --   -1.13102  -1.13068  -1.12991  -1.12951  -1.12946
 Alpha  occ. eigenvalues --   -1.12899  -1.12849  -1.12779  -1.12753  -1.12732
 Alpha  occ. eigenvalues --   -0.18785  -0.13149  -0.12547  -0.10694
 Alpha virt. eigenvalues --   -0.05734  -0.05297  -0.04423  -0.03212  -0.03059
 Alpha virt. eigenvalues --   -0.02351  -0.01631  -0.01118  -0.00302  -0.00154
 Alpha virt. eigenvalues --   -0.00006   0.00357   0.00785   0.00868   0.00915

  Beta  occ. eigenvalues --  -38.44196 -38.43855 -38.43616 -38.43611 -38.43346
  Beta  occ. eigenvalues --  -38.43219 -38.43192  -2.20011  -2.19714  -2.19489
  Beta  occ. eigenvalues --   -2.19443  -2.19200  -2.19136  -2.19113  -1.13676
  Beta  occ. eigenvalues --   -1.13663  -1.13655  -1.13406  -1.13374  -1.13352
  Beta  occ. eigenvalues --   -1.13199  -1.13137  -1.13132  -1.13112  -1.13103
  Beta  occ. eigenvalues --   -1.13081  -1.13009  -1.12908  -1.12860  -1.12851
  Beta  occ. eigenvalues --   -1.12820  -1.12769  -1.12755  -1.12727  -1.12694
  Beta  occ. eigenvalues --   -0.18078  -0.12916  -0.12301
  Beta virt. eigenvalues --   -0.06815  -0.05693  -0.05255  -0.04338  -0.02489
  Beta virt. eigenvalues --   -0.02300  -0.01549  -0.01346  -0.01025  -0.00328
  Beta virt. eigenvalues --   -0.00178   0.00136   0.00391   0.00843   0.00872

 Mulliken charges and spin densities:
               1          2
     1  Na  -0.464660   0.567011
     2  Na   0.088131  -0.013382
     3  Na   0.389639   0.025944
     4  Na   0.174910   0.010667
     5  Na   0.054796  -0.009515
     6  Na   0.043571  -0.062457
     7  Na  -0.286387   0.481732
 Sum of Mulliken charges =  -0.00000   1.00000

 Dipole moment (field-independent basis, Debye):
    X=              0.1971    Y=              0.0627    Z=              0.1003  Tot=              0.2299
 Quadrupole moment (field-independent basis, Debye-Ang):
   XX=            -54.6317   YY=            -64.8572   ZZ=            -74.0193
   XY=              0.3309   XZ=             -0.3390   YZ=             -2.3874

 Normal termination of Gaussian 16 at Thu Dec  7 23:50:52 2023.
