 Gaussian 16, Revision B.01,
 Gaussian 16:  ES64L-G16RevB.01 20-Dec-2017

 -------------------------
 #P B3LYP/6-311+g(d) force
 -------------------------

 -----
 DPGEN
 -----
 Symbolic Z-matrix:
 Charge =  0 Multiplicity = 2

                         Standard orientation:
 ---------------------------------------------------------------------
 Center     Atomic      Atomic             Coordinates (Angstroms)
 Number     Number       Type             X           Y           Z
 ---------------------------------------------------------------------
      1         11           0       -2.901798   -0.127854   -0.224154
      2         11           0        2.425200   -1.677736    0.345907
      3         11           0        0.121142    0.449288   -2.033003
      4         11           0        2.448619    1.757773   -0.140809
      5         11           0       -0.991329    2.660882    0.441247
      6         11           0       -0.407446   -0.520507    2.292008
      7         11           0       -0.694387   -2.541846   -0.681196
 ---------------------------------------------------------------------

 SCF Done:  E(UB3LYP) =  -1136.13906804     A.U. after   17 cycles

 The electronic state is 2-A.
 Alpha  occ. eigenvalues --  -38.44443 -38.43991 -38.43470 -38.43422 -38.43417
 Alpha  occ. eigenvalues --  -38.43403 -38.43225  -2.20295  -2.19908  -2.19340
 Alpha  occ. eigenvalues --   -2.19260  -2.19253  -2.19244  -2.19116  -1.13949
 Alpha  occ. eigenvalues --   -1.13930  -1.13914  -1.13580  -1.13553  -1.13534
 Alpha  occ. eigenvalues --   -1.13023  -1.13004  -1.12999  -1.12951  -1.12939
 Alpha  occ. eigenvalues --   -1.12928  -1.12925  -1.12918  -1.12913  -1.12900
 Alpha  occ. eigenvalues --   -1.12872  -1.12856  -1.12798  -1.12763  -1.12739
 Alpha  occ. eigenvalues --   -0.18609  -0.12685  -0.12431  -0.11685
 Alpha virt. eigenvalues --   -0.05084  -0.04971  -0.04586  -0.03538  -0.03435
 Alpha virt. eigenvalues --   -0.03240  -0.01057  -0.00860  -0.00234  -0.00022
 Alpha virt. eigenvalues --    0.00073   0.00419   0.00810   0.00848   0.00924

  Beta  occ. eigenvalues --  -38.44353 -38.43918 -38.43465 -38.43422 -38.43413
  Beta  occ. eigenvalues --  -38.43395 -38.43208  -2.20128  -2.19775  -2.19335
  Beta  occ. eigenvalues --   -2.19260  -2.19248  -2.19232  -2.19089  -1.13840
  Beta  occ. eigenvalues --   -1.13815  -1.13790  -1.13495  -1.13448  -1.13443
  Beta  occ. eigenvalues --   -1.13021  -1.13001  -1.12971  -1.12949  -1.12927
  Beta  occ. eigenvalues --   -1.12924  -1.12921  -1.12898  -1.12896  -1.12889
  Beta  occ. eigenvalues --   -1.12869  -1.12851  -1.12773  -1.12738  -1.12713
  Beta  occ. eigenvalues --   -0.17816  -0.12473  -0.12225
  Beta virt. eigenvalues --   -0.07713  -0.05065  -0.04889  -0.04397  -0.02832
  Beta virt. eigenvalues --   -0.02649  -0.02242  -0.00982  -0.00788  -0.00125
  Beta virt. eigenvalues --    0.00016   0.00049   0.00447   0.00937   0.00957

 Mulliken charges and spin densities:
               1          2
     1  Na   0.290139  -0.036260
     2  Na   0.012459   0.012481
     3  Na  -0.230603   0.377555
     4  Na   0.163168  -0.032519
     5  Na   0.036545   0.033156
     6  Na  -0.527512   0.560269
     7  Na   0.255803   0.085317
 Sum of Mulliken charges =  -0.00000   1.00000

 Dipole moment (field-independent basis, Debye):
    X=             -0.0764    Y=              0.0610    Z=              0.2305  Tot=              0.2503
 Quadrupole moment (field-independent basis, Debye-Ang):
   XX=            -62.8195   YY=            -66.1283   ZZ=            -67.7080
   XY=             -0.0612   XZ=              0.8699   YZ=              1.4081

 Normal termination of Gaussian 16 at Tue Dec  5 16:20:26 2023.
