 Gaussian 16, Revision B.01,
 Gaussian 16:  ES64L-G16RevB.01 20-Dec-2017

 -------------------------
 #P B3LYP/6-311+g(d) force
 -------------------------

 -----
 DPGEN
 -----
 Symbolic Z-matrix:
 Charge =  0 Multiplicity = 2

                         Standard orientation:
 ---------------------------------------------------------------------
 Center     Atomic      Atomic             Coordinates (Angstroms)
 Number     Number       Type             X           Y           Z
 ---------------------------------------------------------------------
      1         11           0       -0.328043    2.872663    0.632363
      2         11           0       -2.236498   -2.281347   -0.091585
      3         11           0       -0.077267   -0.973773    2.031647
      4         11           0        2.444635    1.429111   -0.153717
      5         11           0        0.174093   -0.121276   -1.614861
      6         11           0       -2.824090    0.894501   -0.547533
      7         11           0        2.847170   -1.819878   -0.256315
 ---------------------------------------------------------------------

 SCF Done:  E(UB3LYP) =  -1136.13274688     A.U. after   19 cycles

 The electronic state is 2-A.
 Alpha  occ. eigenvalues --  -38.44075 -38.44027 -38.43821 -38.43799 -38.43762
 Alpha  occ. eigenvalues --  -38.43563 -38.42913  -2.19902  -2.19894  -2.19727
 Alpha  occ. eigenvalues --   -2.19651  -2.19619  -2.19526  -2.18767  -1.13587
 Alpha  occ. eigenvalues --   -1.13582  -1.13570  -1.13551  -1.13545  -1.13542
 Alpha  occ. eigenvalues --   -1.13467  -1.13384  -1.13355  -1.13342  -1.13310
 Alpha  occ. eigenvalues --   -1.13293  -1.13268  -1.13239  -1.13227  -1.13198
 Alpha  occ. eigenvalues --   -1.13156  -1.13139  -1.12440  -1.12423  -1.12409
 Alpha  occ. eigenvalues --   -0.18527  -0.13507  -0.12246  -0.10808
 Alpha virt. eigenvalues --   -0.05796  -0.05437  -0.04328  -0.03466  -0.03094
 Alpha virt. eigenvalues --   -0.02431  -0.01673  -0.01156  -0.00440  -0.00137
 Alpha virt. eigenvalues --    0.00054   0.00336   0.00716   0.00803   0.00911

  Beta  occ. eigenvalues --  -38.44072 -38.44012 -38.43815 -38.43796 -38.43672
  Beta  occ. eigenvalues --  -38.43506 -38.42900  -2.19898  -2.19869  -2.19719
  Beta  occ. eigenvalues --   -2.19650  -2.19452  -2.19423  -2.18746  -1.13584
  Beta  occ. eigenvalues --   -1.13564  -1.13559  -1.13535  -1.13531  -1.13516
  Beta  occ. eigenvalues --   -1.13454  -1.13357  -1.13338  -1.13330  -1.13305
  Beta  occ. eigenvalues --   -1.13276  -1.13165  -1.13126  -1.13122  -1.13121
  Beta  occ. eigenvalues --   -1.13091  -1.13061  -1.12427  -1.12409  -1.12381
  Beta  occ. eigenvalues --   -0.17843  -0.13227  -0.12008
  Beta virt. eigenvalues --   -0.06984  -0.05777  -0.05341  -0.04211  -0.02692
  Beta virt. eigenvalues --   -0.02344  -0.01596  -0.01496  -0.01076  -0.00467
  Beta virt. eigenvalues --   -0.00076   0.00157   0.00385   0.00803   0.00834

 Mulliken charges and spin densities:
               1          2
     1  Na  -0.191103   0.092373
     2  Na   0.102599   0.037624
     3  Na  -0.382220   0.549908
     4  Na   0.112887   0.145437
     5  Na   0.094904   0.009953
     6  Na   0.169050   0.144880
     7  Na   0.093882   0.019825
 Sum of Mulliken charges =  -0.00000   1.00000

 Dipole moment (field-independent basis, Debye):
    X=              0.0934    Y=             -0.5248    Z=              0.0119  Tot=              0.5332
 Quadrupole moment (field-independent basis, Debye-Ang):
   XX=            -56.5274   YY=            -64.6883   ZZ=            -73.5714
   XY=             -0.9854   XZ=              0.7963   YZ=              1.4427

 Normal termination of Gaussian 16 at Thu Dec  7 17:53:23 2023.
