 Gaussian 16, Revision B.01,
 Gaussian 16:  ES64L-G16RevB.01 20-Dec-2017

 -------------------------
 #P B3LYP/6-311+g(d) force
 -------------------------

 -----
 DPGEN
 -----
 Symbolic Z-matrix:
 Charge =  0 Multiplicity = 2

                         Standard orientation:
 ---------------------------------------------------------------------
 Center     Atomic      Atomic             Coordinates (Angstroms)
 Number     Number       Type             X           Y           Z
 ---------------------------------------------------------------------
      1         11           0       -1.456951   -2.955129    0.242552
      2         11           0       -0.806176    0.412222    2.080460
      3         11           0       -2.975961   -0.093020   -0.851864
      4         11           0       -1.275978    2.904944   -0.194460
      5         11           0        2.711394    1.762998   -0.159086
      6         11           0        3.507946   -1.470195    0.002868
      7         11           0        0.295726   -0.561820   -1.120471
 ---------------------------------------------------------------------

 SCF Done:  E(UB3LYP) =  -1136.13005734     A.U. after   20 cycles

 The electronic state is 2-A.
 Alpha  occ. eigenvalues --  -38.44716 -38.44563 -38.43914 -38.43551 -38.43419
 Alpha  occ. eigenvalues --  -38.43247 -38.43199  -2.20503  -2.20362  -2.19795
 Alpha  occ. eigenvalues --   -2.19381  -2.19366  -2.19124  -2.19020  -1.14174
 Alpha  occ. eigenvalues --   -1.14160  -1.14157  -1.14047  -1.14025  -1.13972
 Alpha  occ. eigenvalues --   -1.13487  -1.13450  -1.13414  -1.13109  -1.13068
 Alpha  occ. eigenvalues --   -1.13030  -1.13025  -1.13008  -1.12969  -1.12790
 Alpha  occ. eigenvalues --   -1.12770  -1.12736  -1.12681  -1.12676  -1.12661
 Alpha  occ. eigenvalues --   -0.18025  -0.13560  -0.12028  -0.10133
 Alpha virt. eigenvalues --   -0.06149  -0.05612  -0.04790  -0.03047  -0.02639
 Alpha virt. eigenvalues --   -0.02193  -0.01913  -0.01394  -0.00883  -0.00632
 Alpha virt. eigenvalues --   -0.00046   0.00278   0.00662   0.00704   0.00799

  Beta  occ. eigenvalues --  -38.44720 -38.44562 -38.43875 -38.43545 -38.43395
  Beta  occ. eigenvalues --  -38.43192 -38.43149  -2.20511  -2.20360  -2.19727
  Beta  occ. eigenvalues --   -2.19373  -2.19325  -2.19012  -2.18942  -1.14179
  Beta  occ. eigenvalues --   -1.14164  -1.14160  -1.14042  -1.14020  -1.13973
  Beta  occ. eigenvalues --   -1.13437  -1.13388  -1.13366  -1.13091  -1.13034
  Beta  occ. eigenvalues --   -1.13023  -1.12998  -1.12971  -1.12946  -1.12702
  Beta  occ. eigenvalues --   -1.12675  -1.12660  -1.12652  -1.12631  -1.12580
  Beta  occ. eigenvalues --   -0.17370  -0.13366  -0.11841
  Beta virt. eigenvalues --   -0.06232  -0.06051  -0.05545  -0.04723  -0.02538
  Beta virt. eigenvalues --   -0.01936  -0.01898  -0.01358  -0.01145  -0.00819
  Beta virt. eigenvalues --   -0.00582   0.00170   0.00360   0.00700   0.00766

 Mulliken charges and spin densities:
               1          2
     1  Na  -0.099011   0.034925
     2  Na  -0.548163   0.662643
     3  Na   0.514581   0.203257
     4  Na   0.001078  -0.006356
     5  Na   0.015885  -0.071447
     6  Na   0.124440  -0.040854
     7  Na  -0.008810   0.217831
 Sum of Mulliken charges =  -0.00000   1.00000

 Dipole moment (field-independent basis, Debye):
    X=              0.9974    Y=             -0.2938    Z=              0.1345  Tot=              1.0485
 Quadrupole moment (field-independent basis, Debye-Ang):
   XX=            -54.7266   YY=            -60.4831   ZZ=            -77.1107
   XY=             -0.1868   XZ=              1.3881   YZ=             -2.1488

 Normal termination of Gaussian 16 at Tue Dec  5 23:26:20 2023.
