 Gaussian 16, Revision B.01,
 Gaussian 16:  ES64L-G16RevB.01 20-Dec-2017

 -------------------------
 #P B3LYP/6-311+g(d) force
 -------------------------

 -----
 DPGEN
 -----
 Symbolic Z-matrix:
 Charge =  0 Multiplicity = 2

                         Standard orientation:
 ---------------------------------------------------------------------
 Center     Atomic      Atomic             Coordinates (Angstroms)
 Number     Number       Type             X           Y           Z
 ---------------------------------------------------------------------
      1         11           0       -0.264688    0.185555   -1.678210
      2         11           0       -1.654188    1.796361    0.139846
      3         11           0       -2.526562   -0.970676    0.177455
      4         11           0        0.143127    0.095639    1.695223
      5         11           0        2.493989   -0.920014    0.145846
      6         11           0        0.130928   -2.044932   -0.280978
      7         11           0        1.677395    1.858067   -0.199181
 ---------------------------------------------------------------------

 SCF Done:  E(UB3LYP) =  -1136.08779082     A.U. after   19 cycles

 The electronic state is 2-A.
 Alpha  occ. eigenvalues --  -38.44123 -38.44036 -38.43824 -38.43707 -38.43563
 Alpha  occ. eigenvalues --  -38.43523 -38.43356  -2.20301  -2.20213  -2.19940
 Alpha  occ. eigenvalues --   -2.19876  -2.19768  -2.19609  -2.19406  -1.14256
 Alpha  occ. eigenvalues --   -1.14167  -1.14070  -1.13945  -1.13907  -1.13815
 Alpha  occ. eigenvalues --   -1.13722  -1.13669  -1.13609  -1.13581  -1.13535
 Alpha  occ. eigenvalues --   -1.13467  -1.13316  -1.13295  -1.13237  -1.13227
 Alpha  occ. eigenvalues --   -1.13215  -1.13153  -1.13078  -1.13044  -1.12993
 Alpha  occ. eigenvalues --   -0.21406  -0.14112  -0.12752  -0.11919
 Alpha virt. eigenvalues --   -0.05371  -0.04615  -0.03903  -0.03710  -0.02970
 Alpha virt. eigenvalues --   -0.02587  -0.01281  -0.00597  -0.00037   0.00341
 Alpha virt. eigenvalues --    0.00642   0.00701   0.00940   0.01096   0.01114

  Beta  occ. eigenvalues --  -38.44114 -38.43944 -38.43814 -38.43620 -38.43542
  Beta  occ. eigenvalues --  -38.43510 -38.43345  -2.20201  -2.20137  -2.19864
  Beta  occ. eigenvalues --   -2.19784  -2.19734  -2.19590  -2.19391  -1.14209
  Beta  occ. eigenvalues --   -1.14108  -1.13972  -1.13921  -1.13809  -1.13758
  Beta  occ. eigenvalues --   -1.13656  -1.13630  -1.13545  -1.13524  -1.13461
  Beta  occ. eigenvalues --   -1.13399  -1.13271  -1.13229  -1.13218  -1.13197
  Beta  occ. eigenvalues --   -1.13151  -1.13141  -1.13065  -1.12994  -1.12983
  Beta  occ. eigenvalues --   -0.20604  -0.13748  -0.12404
  Beta virt. eigenvalues --   -0.07740  -0.05393  -0.04601  -0.03879  -0.02750
  Beta virt. eigenvalues --   -0.02074  -0.01502  -0.01195  -0.00561   0.00102
  Beta virt. eigenvalues --    0.00368   0.00605   0.00678   0.00976   0.01096

 Mulliken charges and spin densities:
               1          2
     1  Na  -0.391958   0.412132
     2  Na   0.124237  -0.002751
     3  Na  -0.013883  -0.018902
     4  Na  -0.422529   0.461780
     5  Na   0.044315  -0.011974
     6  Na   0.501040   0.157060
     7  Na   0.158777   0.002655
 Sum of Mulliken charges =  -0.00000   1.00000

 Dipole moment (field-independent basis, Debye):
    X=             -0.0674    Y=              0.2616    Z=              0.1419  Tot=              0.3052
 Quadrupole moment (field-independent basis, Debye-Ang):
   XX=            -57.1853   YY=            -69.1047   ZZ=            -70.3746
   XY=              0.5965   XZ=             -0.7430   YZ=             -0.2009

 Normal termination of Gaussian 16 at Fri Dec  8 06:12:18 2023.
