 Gaussian 16, Revision B.01,
 Gaussian 16:  ES64L-G16RevB.01 20-Dec-2017

 -------------------------
 #P B3LYP/6-311+g(d) force
 -------------------------

 -----
 DPGEN
 -----
 Symbolic Z-matrix:
 Charge =  0 Multiplicity = 2

                         Standard orientation:
 ---------------------------------------------------------------------
 Center     Atomic      Atomic             Coordinates (Angstroms)
 Number     Number       Type             X           Y           Z
 ---------------------------------------------------------------------
      1         11           0       -3.476617    0.787869   -0.190166
      2         11           0       -1.428304   -2.634870   -0.291806
      3         11           0        2.874281    0.902553    0.380419
      4         11           0       -0.505517   -0.588219    2.249648
      5         11           0        0.300208    3.301174   -0.018315
      6         11           0       -0.046135    0.374098   -1.645774
      7         11           0        2.282085   -2.142604   -0.484007
 ---------------------------------------------------------------------

 SCF Done:  E(UB3LYP) =  -1136.13106173     A.U. after   21 cycles

 The electronic state is 2-A.
 Alpha  occ. eigenvalues --  -38.44877 -38.43987 -38.43947 -38.43828 -38.43790
 Alpha  occ. eigenvalues --  -38.43561 -38.43448  -2.20616  -2.19803  -2.19775
 Alpha  occ. eigenvalues --   -2.19630  -2.19618  -2.19391  -2.19347  -1.14296
 Alpha  occ. eigenvalues --   -1.14268  -1.14256  -1.13507  -1.13481  -1.13424
 Alpha  occ. eigenvalues --   -1.13418  -1.13400  -1.13385  -1.13325  -1.13310
 Alpha  occ. eigenvalues --   -1.13297  -1.13289  -1.13270  -1.13240  -1.13062
 Alpha  occ. eigenvalues --   -1.13051  -1.13037  -1.13024  -1.12983  -1.12968
 Alpha  occ. eigenvalues --   -0.17846  -0.12824  -0.12252  -0.10620
 Alpha virt. eigenvalues --   -0.06284  -0.05137  -0.04832  -0.03306  -0.02872
 Alpha virt. eigenvalues --   -0.02592  -0.01813  -0.01246  -0.00628  -0.00590
 Alpha virt. eigenvalues --   -0.00063   0.00333   0.00698   0.00705   0.00808

  Beta  occ. eigenvalues --  -38.44876 -38.43980 -38.43846 -38.43830 -38.43784
  Beta  occ. eigenvalues --  -38.43553 -38.43396  -2.20616  -2.19794  -2.19623
  Beta  occ. eigenvalues --   -2.19620  -2.19587  -2.19379  -2.19252  -1.14284
  Beta  occ. eigenvalues --   -1.14269  -1.14258  -1.13487  -1.13451  -1.13421
  Beta  occ. eigenvalues --   -1.13320  -1.13311  -1.13295  -1.13286  -1.13276
  Beta  occ. eigenvalues --   -1.13273  -1.13269  -1.13255  -1.13241  -1.13049
  Beta  occ. eigenvalues --   -1.13027  -1.13019  -1.12970  -1.12914  -1.12898
  Beta  occ. eigenvalues --   -0.17157  -0.12634  -0.12068
  Beta virt. eigenvalues --   -0.06748  -0.06284  -0.04923  -0.04808  -0.02564
  Beta virt. eigenvalues --   -0.02215  -0.01748  -0.01577  -0.01167  -0.00644
  Beta virt. eigenvalues --   -0.00617   0.00112   0.00380   0.00720   0.00800

 Mulliken charges and spin densities:
               1          2
     1  Na  -0.018335  -0.109803
     2  Na   0.226626  -0.018685
     3  Na  -0.003629   0.078059
     4  Na  -0.476348   0.717542
     5  Na   0.010308  -0.063279
     6  Na   0.186904   0.353504
     7  Na   0.074475   0.042663
 Sum of Mulliken charges =  -0.00000   1.00000

 Dipole moment (field-independent basis, Debye):
    X=             -0.6100    Y=              0.1272    Z=              0.0520  Tot=              0.6253
 Quadrupole moment (field-independent basis, Debye-Ang):
   XX=            -57.2189   YY=            -61.8104   ZZ=            -74.9037
   XY=             -1.0547   XZ=              0.9975   YZ=              2.3508

 Normal termination of Gaussian 16 at Fri Dec  8 03:21:27 2023.
