 Gaussian 16, Revision B.01,
 Gaussian 16:  ES64L-G16RevB.01 20-Dec-2017

 -------------------------
 #P B3LYP/6-311+g(d) force
 -------------------------

 -----
 DPGEN
 -----
 Symbolic Z-matrix:
 Charge =  0 Multiplicity = 2

                         Standard orientation:
 ---------------------------------------------------------------------
 Center     Atomic      Atomic             Coordinates (Angstroms)
 Number     Number       Type             X           Y           Z
 ---------------------------------------------------------------------
      1         11           0       -1.352715    2.339029    1.151606
      2         11           0       -0.842353   -2.437191    0.067160
      3         11           0        3.142807   -0.893207    0.263152
      4         11           0        0.138135   -0.571154   -2.053193
      5         11           0       -3.437352   -0.007243   -0.582300
      6         11           0        1.921079    2.211484   -0.957361
      7         11           0        0.430399   -0.641719    2.110937
 ---------------------------------------------------------------------

 SCF Done:  E(UB3LYP) =  -1136.12385429     A.U. after   22 cycles

 The electronic state is 2-A.
 Alpha  occ. eigenvalues --  -38.44657 -38.44554 -38.44521 -38.44304 -38.43541
 Alpha  occ. eigenvalues --  -38.43377 -38.43163  -2.20429  -2.20417  -2.20364
 Alpha  occ. eigenvalues --   -2.20220  -2.19344  -2.19171  -2.19083  -1.14126
 Alpha  occ. eigenvalues --   -1.14109  -1.14080  -1.14072  -1.14072  -1.14059
 Alpha  occ. eigenvalues --   -1.14025  -1.14001  -1.13996  -1.13917  -1.13839
 Alpha  occ. eigenvalues --   -1.13823  -1.13032  -1.12994  -1.12977  -1.12856
 Alpha  occ. eigenvalues --   -1.12819  -1.12802  -1.12791  -1.12777  -1.12654
 Alpha  occ. eigenvalues --   -0.18227  -0.12971  -0.11839  -0.11779
 Alpha virt. eigenvalues --   -0.06230  -0.04866  -0.04072  -0.03620  -0.03412
 Alpha virt. eigenvalues --   -0.03249  -0.01857  -0.00702  -0.00354   0.00018
 Alpha virt. eigenvalues --    0.00092   0.00306   0.00394   0.00771   0.00812

  Beta  occ. eigenvalues --  -38.44659 -38.44550 -38.44444 -38.44217 -38.43527
  Beta  occ. eigenvalues --  -38.43352 -38.43156  -2.20433  -2.20360  -2.20275
  Beta  occ. eigenvalues --   -2.20060  -2.19320  -2.19126  -2.19075  -1.14108
  Beta  occ. eigenvalues --   -1.14083  -1.14071  -1.14053  -1.14030  -1.14009
  Beta  occ. eigenvalues --   -1.13990  -1.13961  -1.13907  -1.13813  -1.13736
  Beta  occ. eigenvalues --   -1.13703  -1.13006  -1.12980  -1.12957  -1.12815
  Beta  occ. eigenvalues --   -1.12789  -1.12780  -1.12774  -1.12744  -1.12649
  Beta  occ. eigenvalues --   -0.17443  -0.12752  -0.11509
  Beta virt. eigenvalues --   -0.07958  -0.06114  -0.04716  -0.03789  -0.02995
  Beta virt. eigenvalues --   -0.02723  -0.02401  -0.01782  -0.00641  -0.00146
  Beta virt. eigenvalues --   -0.00006   0.00115   0.00375   0.00541   0.00839

 Mulliken charges and spin densities:
               1          2
     1  Na   0.033705   0.073032
     2  Na   0.336523  -0.091947
     3  Na   0.143477  -0.055997
     4  Na   0.096305   0.422317
     5  Na  -0.225535  -0.013174
     6  Na  -0.441221   0.065808
     7  Na   0.056746   0.599960
 Sum of Mulliken charges =  -0.00000   1.00000

 Dipole moment (field-independent basis, Debye):
    X=              0.1252    Y=             -0.3179    Z=             -0.2609  Tot=              0.4299
 Quadrupole moment (field-independent basis, Debye-Ang):
   XX=            -56.0334   YY=            -72.1976   ZZ=            -68.1000
   XY=             -0.2961   XZ=              1.2755   YZ=              0.0128

 Normal termination of Gaussian 16 at Mon Dec  4 01:53:12 2023.
