 Gaussian 16, Revision B.01,
 Gaussian 16:  ES64L-G16RevB.01 20-Dec-2017

 -------------------------
 #P B3LYP/6-311+g(d) force
 -------------------------

 -----
 DPGEN
 -----
 Symbolic Z-matrix:
 Charge =  0 Multiplicity = 2

                         Standard orientation:
 ---------------------------------------------------------------------
 Center     Atomic      Atomic             Coordinates (Angstroms)
 Number     Number       Type             X           Y           Z
 ---------------------------------------------------------------------
      1         11           0        0.115642   -0.128608   -1.512956
      2         11           0       -1.124030   -2.543131   -0.131025
      3         11           0        2.507269    1.690376    0.329682
      4         11           0       -3.025480    0.261281    0.078374
      5         11           0        2.386957   -1.855631   -0.206033
      6         11           0       -0.679235    2.801731   -0.383773
      7         11           0       -0.181122   -0.226018    1.825730
 ---------------------------------------------------------------------

 SCF Done:  E(UB3LYP) =  -1136.13762801     A.U. after   20 cycles

 The electronic state is 2-A.
 Alpha  occ. eigenvalues --  -38.43706 -38.43690 -38.43675 -38.43436 -38.43340
 Alpha  occ. eigenvalues --  -38.43173 -38.42845  -2.19578  -2.19544  -2.19533
 Alpha  occ. eigenvalues --   -2.19373  -2.19209  -2.19151  -2.18922  -1.13261
 Alpha  occ. eigenvalues --   -1.13260  -1.13246  -1.13224  -1.13209  -1.13202
 Alpha  occ. eigenvalues --   -1.13196  -1.13188  -1.13153  -1.13112  -1.13060
 Alpha  occ. eigenvalues --   -1.12966  -1.12915  -1.12864  -1.12835  -1.12833
 Alpha  occ. eigenvalues --   -1.12765  -1.12754  -1.12595  -1.12543  -1.12531
 Alpha  occ. eigenvalues --   -0.19206  -0.13054  -0.12804  -0.10603
 Alpha virt. eigenvalues --   -0.05322  -0.05207  -0.04774  -0.03041  -0.02861
 Alpha virt. eigenvalues --   -0.02223  -0.01439  -0.01163  -0.00260  -0.00182
 Alpha virt. eigenvalues --    0.00050   0.00357   0.00856   0.00901   0.00921

  Beta  occ. eigenvalues --  -38.43701 -38.43684 -38.43669 -38.43425 -38.43331
  Beta  occ. eigenvalues --  -38.43088 -38.42778  -2.19573  -2.19536  -2.19524
  Beta  occ. eigenvalues --   -2.19358  -2.19195  -2.18994  -2.18802  -1.13257
  Beta  occ. eigenvalues --   -1.13249  -1.13234  -1.13205  -1.13199  -1.13189
  Beta  occ. eigenvalues --   -1.13178  -1.13172  -1.13146  -1.13101  -1.13010
  Beta  occ. eigenvalues --   -1.12958  -1.12897  -1.12839  -1.12828  -1.12736
  Beta  occ. eigenvalues --   -1.12659  -1.12639  -1.12510  -1.12455  -1.12445
  Beta  occ. eigenvalues --   -0.18486  -0.12794  -0.12515
  Beta virt. eigenvalues --   -0.06685  -0.05310  -0.05179  -0.04748  -0.02247
  Beta virt. eigenvalues --   -0.02085  -0.01361  -0.01185  -0.01087  -0.00279
  Beta virt. eigenvalues --   -0.00240   0.00167   0.00386   0.00897   0.00903

 Mulliken charges and spin densities:
               1          2
     1  Na  -0.402995   0.469085
     2  Na   0.352271  -0.077897
     3  Na   0.012115   0.002237
     4  Na   0.196732  -0.032873
     5  Na   0.193602  -0.065361
     6  Na   0.075899  -0.034113
     7  Na  -0.427625   0.738923
 Sum of Mulliken charges =  -0.00000   1.00000

 Dipole moment (field-independent basis, Debye):
    X=              0.0716    Y=             -0.0148    Z=              0.1720  Tot=              0.1869
 Quadrupole moment (field-independent basis, Debye-Ang):
   XX=            -56.1589   YY=            -60.8066   ZZ=            -75.2810
   XY=             -0.2732   XZ=              0.7108   YZ=              0.3056

 Normal termination of Gaussian 16 at Fri Dec  8 01:31:14 2023.
