 Gaussian 16, Revision B.01,
 Gaussian 16:  ES64L-G16RevB.01 20-Dec-2017

 -------------------------
 #P B3LYP/6-311+g(d) force
 -------------------------

 -----
 DPGEN
 -----
 Symbolic Z-matrix:
 Charge =  0 Multiplicity = 2

                         Standard orientation:
 ---------------------------------------------------------------------
 Center     Atomic      Atomic             Coordinates (Angstroms)
 Number     Number       Type             X           Y           Z
 ---------------------------------------------------------------------
      1         11           0        0.698153   -2.539287   -1.409371
      2         11           0        1.446809    1.614381   -2.133552
      3         11           0        3.027172   -0.418849    0.093359
      4         11           0        1.314816    0.512698    3.294156
      5         11           0       -3.192726   -2.531288    0.359309
      6         11           0       -0.851072    0.102981    0.066574
      7         11           0       -2.443154    3.259364   -0.270475
 ---------------------------------------------------------------------

 SCF Done:  E(UB3LYP) =  -1136.11198151     A.U. after   24 cycles

 The electronic state is 2-A.
 Alpha  occ. eigenvalues --  -38.46075 -38.45013 -38.44387 -38.43993 -38.43889
 Alpha  occ. eigenvalues --  -38.43715 -38.42582  -2.21862  -2.20808  -2.20181
 Alpha  occ. eigenvalues --   -2.19730  -2.19718  -2.19447  -2.18479  -1.15489
 Alpha  occ. eigenvalues --   -1.15478  -1.15470  -1.14484  -1.14468  -1.14407
 Alpha  occ. eigenvalues --   -1.13874  -1.13861  -1.13775  -1.13408  -1.13399
 Alpha  occ. eigenvalues --   -1.13392  -1.13386  -1.13368  -1.13358  -1.13123
 Alpha  occ. eigenvalues --   -1.13115  -1.13086  -1.12218  -1.12147  -1.12086
 Alpha  occ. eigenvalues --   -0.17277  -0.12631  -0.11916  -0.11317
 Alpha virt. eigenvalues --   -0.06294  -0.05525  -0.04964  -0.03312  -0.02888
 Alpha virt. eigenvalues --   -0.02758  -0.01735  -0.01416  -0.00988  -0.00270
 Alpha virt. eigenvalues --   -0.00009   0.00050   0.00218   0.00321   0.00603

  Beta  occ. eigenvalues --  -38.45932 -38.44964 -38.44367 -38.44001 -38.43887
  Beta  occ. eigenvalues --  -38.43727 -38.42573  -2.21596  -2.20717  -2.20146
  Beta  occ. eigenvalues --   -2.19746  -2.19719  -2.19471  -2.18466  -1.15307
  Beta  occ. eigenvalues --   -1.15297  -1.15288  -1.14419  -1.14411  -1.14339
  Beta  occ. eigenvalues --   -1.13848  -1.13839  -1.13748  -1.13419  -1.13409
  Beta  occ. eigenvalues --   -1.13393  -1.13391  -1.13369  -1.13333  -1.13139
  Beta  occ. eigenvalues --   -1.13131  -1.13101  -1.12183  -1.12145  -1.12081
  Beta  occ. eigenvalues --   -0.16547  -0.11914  -0.11266
  Beta virt. eigenvalues --   -0.08170  -0.06143  -0.05331  -0.04190  -0.02753
  Beta virt. eigenvalues --   -0.02536  -0.02230  -0.01650  -0.01386  -0.00516
  Beta virt. eigenvalues --   -0.00164   0.00123   0.00228   0.00339   0.00425

 Mulliken charges and spin densities:
               1          2
     1  Na   0.327456   0.186509
     2  Na   0.237052   0.476400
     3  Na   0.565894  -0.092339
     4  Na   0.222506   0.704582
     5  Na   0.579667  -0.126736
     6  Na  -2.388830  -0.119985
     7  Na   0.456255  -0.028432
 Sum of Mulliken charges =  -0.00000   1.00000

 Dipole moment (field-independent basis, Debye):
    X=              0.9586    Y=             -0.0971    Z=              0.3811  Tot=              1.0361
 Quadrupole moment (field-independent basis, Debye-Ang):
   XX=            -63.4475   YY=            -68.6702   ZZ=            -61.0823
   XY=              0.5365   XZ=             -2.2012   YZ=              0.5186

 Normal termination of Gaussian 16 at Tue Dec  5 13:53:18 2023.
