 Gaussian 16, Revision B.01,
 Gaussian 16:  ES64L-G16RevB.01 20-Dec-2017

 -------------------------
 #P B3LYP/6-311+g(d) force
 -------------------------

 -----
 DPGEN
 -----
 Symbolic Z-matrix:
 Charge =  0 Multiplicity = 2

                         Standard orientation:
 ---------------------------------------------------------------------
 Center     Atomic      Atomic             Coordinates (Angstroms)
 Number     Number       Type             X           Y           Z
 ---------------------------------------------------------------------
      1         11           0        2.336769   -1.584617   -0.552079
      2         11           0       -0.490857   -0.131213   -1.848472
      3         11           0        0.308749   -0.073886    2.037499
      4         11           0       -1.202850   -2.537439    0.415273
      5         11           0        2.574286    1.164164   -0.005744
      6         11           0       -0.430710    2.778167    0.046573
      7         11           0       -3.095388    0.384823   -0.093050
 ---------------------------------------------------------------------

 SCF Done:  E(UB3LYP) =  -1136.13425697     A.U. after   19 cycles

 The electronic state is 2-A.
 Alpha  occ. eigenvalues --  -38.44153 -38.43807 -38.43685 -38.43671 -38.43628
 Alpha  occ. eigenvalues --  -38.43247 -38.42986  -2.20001  -2.19736  -2.19631
 Alpha  occ. eigenvalues --   -2.19587  -2.19585  -2.19116  -2.18845  -1.13709
 Alpha  occ. eigenvalues --   -1.13656  -1.13626  -1.13569  -1.13412  -1.13388
 Alpha  occ. eigenvalues --   -1.13354  -1.13290  -1.13257  -1.13247  -1.13226
 Alpha  occ. eigenvalues --   -1.13212  -1.13202  -1.13187  -1.13108  -1.12800
 Alpha  occ. eigenvalues --   -1.12777  -1.12738  -1.12524  -1.12516  -1.12476
 Alpha  occ. eigenvalues --   -0.19068  -0.13362  -0.12274  -0.11323
 Alpha virt. eigenvalues --   -0.05661  -0.04742  -0.04433  -0.03569  -0.03006
 Alpha virt. eigenvalues --   -0.02919  -0.01443  -0.00839  -0.00139  -0.00010
 Alpha virt. eigenvalues --    0.00050   0.00386   0.00839   0.00950   0.00972

  Beta  occ. eigenvalues --  -38.44151 -38.43715 -38.43670 -38.43665 -38.43559
  Beta  occ. eigenvalues --  -38.43235 -38.42983  -2.19998  -2.19618  -2.19570
  Beta  occ. eigenvalues --   -2.19565  -2.19458  -2.19098  -2.18843  -1.13697
  Beta  occ. eigenvalues --   -1.13644  -1.13628  -1.13560  -1.13320  -1.13275
  Beta  occ. eigenvalues --   -1.13256  -1.13237  -1.13203  -1.13201  -1.13169
  Beta  occ. eigenvalues --   -1.13165  -1.13126  -1.13110  -1.13098  -1.12783
  Beta  occ. eigenvalues --   -1.12742  -1.12731  -1.12524  -1.12500  -1.12470
  Beta  occ. eigenvalues --   -0.18308  -0.13111  -0.12015
  Beta virt. eigenvalues --   -0.07370  -0.05595  -0.04739  -0.04369  -0.02776
  Beta virt. eigenvalues --   -0.02219  -0.01854  -0.01347  -0.00769  -0.00092
  Beta virt. eigenvalues --   -0.00042   0.00102   0.00412   0.00896   0.00959

 Mulliken charges and spin densities:
               1          2
     1  Na   0.280698   0.050832
     2  Na  -0.328133   0.521828
     3  Na  -0.448573   0.622672
     4  Na   0.135796  -0.016280
     5  Na   0.154325   0.003591
     6  Na   0.028822  -0.092910
     7  Na   0.177065  -0.089733
 Sum of Mulliken charges =  -0.00000   1.00000

 Dipole moment (field-independent basis, Debye):
    X=             -0.4109    Y=             -0.0714    Z=              0.0753  Tot=              0.4238
 Quadrupole moment (field-independent basis, Debye-Ang):
   XX=            -58.3943   YY=            -66.1794   ZZ=            -71.0637
   XY=             -0.2237   XZ=             -1.2954   YZ=              0.1208

 Normal termination of Gaussian 16 at Tue Dec  5 15:47:56 2023.
