 Gaussian 16, Revision B.01,
 Gaussian 16:  ES64L-G16RevB.01 20-Dec-2017

 -------------------------
 #P B3LYP/6-311+g(d) force
 -------------------------

 -----
 DPGEN
 -----
 Symbolic Z-matrix:
 Charge =  0 Multiplicity = 2

                         Standard orientation:
 ---------------------------------------------------------------------
 Center     Atomic      Atomic             Coordinates (Angstroms)
 Number     Number       Type             X           Y           Z
 ---------------------------------------------------------------------
      1         11           0       -1.602516   -0.122727    1.507667
      2         11           0        1.345691    0.185612    1.500158
      3         11           0        3.433048    0.064399   -0.489087
      4         11           0        0.620135    0.030956   -1.451249
      5         11           0       -0.347207   -2.246206    0.094661
      6         11           0       -0.852113    2.267088   -0.005123
      7         11           0       -2.597039   -0.179122   -1.157027
 ---------------------------------------------------------------------

 SCF Done:  E(UB3LYP) =  -1136.10008045     A.U. after   24 cycles

 The electronic state is 2-A.
 Alpha  occ. eigenvalues --  -38.44968 -38.44431 -38.44057 -38.43810 -38.43750
 Alpha  occ. eigenvalues --  -38.42351 -38.42308  -2.20870  -2.20443  -2.20245
 Alpha  occ. eigenvalues --   -2.19933  -2.19913  -2.18393  -2.18318  -1.14615
 Alpha  occ. eigenvalues --   -1.14568  -1.14452  -1.14292  -1.14128  -1.14020
 Alpha  occ. eigenvalues --   -1.14010  -1.13861  -1.13812  -1.13723  -1.13584
 Alpha  occ. eigenvalues --   -1.13575  -1.13560  -1.13485  -1.13467  -1.12117
 Alpha  occ. eigenvalues --   -1.12062  -1.12033  -1.11982  -1.11961  -1.11913
 Alpha  occ. eigenvalues --   -0.20643  -0.14111  -0.12289  -0.11627
 Alpha virt. eigenvalues --   -0.06328  -0.04395  -0.03546  -0.03393  -0.02861
 Alpha virt. eigenvalues --   -0.02562  -0.01942  -0.00610  -0.00256   0.00259
 Alpha virt. eigenvalues --    0.00450   0.00539   0.00786   0.00997   0.01015

  Beta  occ. eigenvalues --  -38.44959 -38.44397 -38.43995 -38.43750 -38.43691
  Beta  occ. eigenvalues --  -38.42339 -38.42298  -2.20854  -2.20381  -2.20138
  Beta  occ. eigenvalues --   -2.19829  -2.19809  -2.18377  -2.18306  -1.14605
  Beta  occ. eigenvalues --   -1.14541  -1.14443  -1.14246  -1.14061  -1.13970
  Beta  occ. eigenvalues --   -1.13929  -1.13786  -1.13734  -1.13657  -1.13511
  Beta  occ. eigenvalues --   -1.13487  -1.13474  -1.13404  -1.13393  -1.12111
  Beta  occ. eigenvalues --   -1.12031  -1.12017  -1.11950  -1.11942  -1.11892
  Beta  occ. eigenvalues --   -0.19801  -0.13933  -0.11317
  Beta virt. eigenvalues --   -0.07971  -0.06228  -0.03746  -0.03521  -0.03215
  Beta virt. eigenvalues --   -0.01978  -0.01796  -0.01711  -0.00258  -0.00232
  Beta virt. eigenvalues --    0.00281   0.00527   0.00681   0.00760   0.01035

 Mulliken charges and spin densities:
               1          2
     1  Na   0.622902   0.050821
     2  Na   0.032649  -0.015378
     3  Na  -0.170718   0.175222
     4  Na   0.446289   0.238428
     5  Na  -0.925190   0.192755
     6  Na  -0.787665   0.363507
     7  Na   0.781733  -0.005355
 Sum of Mulliken charges =  -0.00000   1.00000

 Dipole moment (field-independent basis, Debye):
    X=              0.5416    Y=             -0.0107    Z=             -0.3476  Tot=              0.6436
 Quadrupole moment (field-independent basis, Debye-Ang):
   XX=            -51.6842   YY=            -76.0406   ZZ=            -66.1614
   XY=              0.1829   XZ=              0.6881   YZ=              0.4665

 Normal termination of Gaussian 16 at Fri Dec  8 17:15:47 2023.
