 Gaussian 16, Revision B.01,
 Gaussian 16:  ES64L-G16RevB.01 20-Dec-2017

 -------------------------
 #P B3LYP/6-311+g(d) force
 -------------------------

 -----
 DPGEN
 -----
 Symbolic Z-matrix:
 Charge =  0 Multiplicity = 2

                         Standard orientation:
 ---------------------------------------------------------------------
 Center     Atomic      Atomic             Coordinates (Angstroms)
 Number     Number       Type             X           Y           Z
 ---------------------------------------------------------------------
      1         11           0        1.258591   -2.592790    1.023708
      2         11           0        3.274036   -0.595415   -0.916244
      3         11           0       -0.439296   -0.814037   -0.699873
      4         11           0        0.881477    1.320825    1.615073
      5         11           0        0.949710    2.431625   -0.968010
      6         11           0       -3.627826   -1.468784   -0.581525
      7         11           0       -2.296692    1.718576    0.526870
 ---------------------------------------------------------------------

 SCF Done:  E(UB3LYP) =  -1136.12504251     A.U. after   20 cycles

 The electronic state is 2-A.
 Alpha  occ. eigenvalues --  -38.44313 -38.44106 -38.43809 -38.43631 -38.43596
 Alpha  occ. eigenvalues --  -38.43581 -38.43128  -2.20131  -2.19960  -2.19614
 Alpha  occ. eigenvalues --   -2.19569  -2.19495  -2.19494  -2.19131  -1.13806
 Alpha  occ. eigenvalues --   -1.13774  -1.13763  -1.13662  -1.13644  -1.13562
 Alpha  occ. eigenvalues --   -1.13485  -1.13290  -1.13266  -1.13252  -1.13245
 Alpha  occ. eigenvalues --   -1.13232  -1.13160  -1.13143  -1.13122  -1.13106
 Alpha  occ. eigenvalues --   -1.13082  -1.13023  -1.12832  -1.12805  -1.12723
 Alpha  occ. eigenvalues --   -0.18489  -0.13355  -0.12457  -0.10347
 Alpha virt. eigenvalues --   -0.06001  -0.05465  -0.04570  -0.03167  -0.02885
 Alpha virt. eigenvalues --   -0.02040  -0.01693  -0.01292  -0.00573  -0.00200
 Alpha virt. eigenvalues --   -0.00044   0.00242   0.00621   0.00701   0.00801

  Beta  occ. eigenvalues --  -38.44280 -38.44096 -38.43794 -38.43599 -38.43559
  Beta  occ. eigenvalues --  -38.43549 -38.43115  -2.20070  -2.19945  -2.19586
  Beta  occ. eigenvalues --   -2.19493  -2.19447  -2.19436  -2.19112  -1.13762
  Beta  occ. eigenvalues --   -1.13736  -1.13708  -1.13651  -1.13625  -1.13545
  Beta  occ. eigenvalues --   -1.13441  -1.13269  -1.13245  -1.13230  -1.13208
  Beta  occ. eigenvalues --   -1.13178  -1.13112  -1.13094  -1.13070  -1.13068
  Beta  occ. eigenvalues --   -1.13039  -1.12970  -1.12799  -1.12774  -1.12716
  Beta  occ. eigenvalues --   -0.17865  -0.13055  -0.12200
  Beta virt. eigenvalues --   -0.06714  -0.05728  -0.05335  -0.04330  -0.02655
  Beta virt. eigenvalues --   -0.02330  -0.01892  -0.01297  -0.00953  -0.00353
  Beta virt. eigenvalues --   -0.00113   0.00095   0.00329   0.00716   0.00772

 Mulliken charges and spin densities:
               1          2
     1  Na   0.087819  -0.095495
     2  Na   0.532286   0.240853
     3  Na  -1.628954   0.368818
     4  Na  -0.059507   0.262584
     5  Na   0.271842   0.348202
     6  Na   0.711344  -0.015865
     7  Na   0.085170  -0.109098
 Sum of Mulliken charges =  -0.00000   1.00000

 Dipole moment (field-independent basis, Debye):
    X=              0.0154    Y=              0.1174    Z=              0.3938  Tot=              0.4112
 Quadrupole moment (field-independent basis, Debye-Ang):
   XX=            -55.6086   YY=            -65.2907   ZZ=            -71.8544
   XY=             -1.9095   XZ=             -0.7323   YZ=             -1.1493

 Normal termination of Gaussian 16 at Tue Dec  5 23:20:38 2023.
