 Gaussian 16, Revision B.01,
 Gaussian 16:  ES64L-G16RevB.01 20-Dec-2017

 -------------------------
 #P B3LYP/6-311+g(d) force
 -------------------------

 -----
 DPGEN
 -----
 Symbolic Z-matrix:
 Charge =  0 Multiplicity = 2

                         Standard orientation:
 ---------------------------------------------------------------------
 Center     Atomic      Atomic             Coordinates (Angstroms)
 Number     Number       Type             X           Y           Z
 ---------------------------------------------------------------------
      1         11           0       -2.834196    1.595703   -0.254517
      2         11           0        0.441653    0.081281   -1.753413
      3         11           0       -3.390029   -1.796094    0.302544
      4         11           0        0.658176    3.039010   -0.117530
      5         11           0        1.553830   -2.888035   -0.651076
      6         11           0        3.429841    0.270475    0.553202
      7         11           0        0.140725   -0.302340    1.920790
 ---------------------------------------------------------------------

 SCF Done:  E(UB3LYP) =  -1136.12724576     A.U. after   21 cycles

 The electronic state is 2-A.
 Alpha  occ. eigenvalues --  -38.44974 -38.44482 -38.44277 -38.44179 -38.43708
 Alpha  occ. eigenvalues --  -38.43573 -38.43075  -2.20760  -2.20296  -2.20028
 Alpha  occ. eigenvalues --   -2.19962  -2.19510  -2.19464  -2.18886  -1.14435
 Alpha  occ. eigenvalues --   -1.14408  -1.14389  -1.13981  -1.13939  -1.13907
 Alpha  occ. eigenvalues --   -1.13702  -1.13693  -1.13674  -1.13653  -1.13625
 Alpha  occ. eigenvalues --   -1.13577  -1.13207  -1.13162  -1.13147  -1.13136
 Alpha  occ. eigenvalues --   -1.13109  -1.13063  -1.12568  -1.12551  -1.12520
 Alpha  occ. eigenvalues --   -0.17623  -0.13059  -0.11814  -0.10590
 Alpha virt. eigenvalues --   -0.06413  -0.05484  -0.04754  -0.03164  -0.02704
 Alpha virt. eigenvalues --   -0.02470  -0.02125  -0.01344  -0.00976  -0.00586
 Alpha virt. eigenvalues --   -0.00136   0.00252   0.00560   0.00680   0.00705

  Beta  occ. eigenvalues --  -38.44951 -38.44417 -38.44277 -38.44178 -38.43682
  Beta  occ. eigenvalues --  -38.43503 -38.43075  -2.20720  -2.20176  -2.20029
  Beta  occ. eigenvalues --   -2.19962  -2.19465  -2.19336  -2.18888  -1.14389
  Beta  occ. eigenvalues --   -1.14384  -1.14362  -1.13898  -1.13860  -1.13812
  Beta  occ. eigenvalues --   -1.13702  -1.13691  -1.13674  -1.13646  -1.13626
  Beta  occ. eigenvalues --   -1.13575  -1.13159  -1.13126  -1.13111  -1.13057
  Beta  occ. eigenvalues --   -1.13024  -1.12968  -1.12563  -1.12553  -1.12512
  Beta  occ. eigenvalues --   -0.16949  -0.12861  -0.11543
  Beta virt. eigenvalues --   -0.06880  -0.06166  -0.05426  -0.04655  -0.02591
  Beta virt. eigenvalues --   -0.02099  -0.01982  -0.01509  -0.01255  -0.00922
  Beta virt. eigenvalues --   -0.00598   0.00025   0.00315   0.00678   0.00755

 Mulliken charges and spin densities:
               1          2
     1  Na  -0.077369  -0.053168
     2  Na   0.336239   0.453461
     3  Na  -0.044570  -0.031615
     4  Na  -0.147149  -0.080479
     5  Na  -0.113842   0.007022
     6  Na   0.174843   0.127908
     7  Na  -0.128154   0.576871
 Sum of Mulliken charges =  -0.00000   1.00000

 Dipole moment (field-independent basis, Debye):
    X=              0.3865    Y=             -0.1445    Z=              0.2142  Tot=              0.4650
 Quadrupole moment (field-independent basis, Debye-Ang):
   XX=            -54.8933   YY=            -64.0120   ZZ=            -75.1957
   XY=              0.6172   XZ=              1.0524   YZ=              0.4402

 Normal termination of Gaussian 16 at Thu Dec  7 13:32:33 2023.
