 Gaussian 16, Revision B.01,
 Gaussian 16:  ES64L-G16RevB.01 20-Dec-2017

 -------------------------
 #P B3LYP/6-311+g(d) force
 -------------------------

 -----
 DPGEN
 -----
 Symbolic Z-matrix:
 Charge =  0 Multiplicity = 2

                         Standard orientation:
 ---------------------------------------------------------------------
 Center     Atomic      Atomic             Coordinates (Angstroms)
 Number     Number       Type             X           Y           Z
 ---------------------------------------------------------------------
      1         11           0       -3.694439    0.369439   -0.623686
      2         11           0        0.258974   -0.561797   -1.829922
      3         11           0       -1.005373    2.649535    0.538572
      4         11           0        2.312311    2.418599   -0.111584
      5         11           0       -1.742731   -2.462636    0.459313
      6         11           0        0.675154   -0.794347    2.078423
      7         11           0        3.196104   -1.618792   -0.511116
 ---------------------------------------------------------------------

 SCF Done:  E(UB3LYP) =  -1136.12642956     A.U. after   20 cycles

 The electronic state is 2-A.
 Alpha  occ. eigenvalues --  -38.44499 -38.44488 -38.44390 -38.44067 -38.43982
 Alpha  occ. eigenvalues --  -38.43936 -38.43300  -2.20286  -2.20255  -2.20220
 Alpha  occ. eigenvalues --   -2.19843  -2.19798  -2.19779  -2.19091  -1.13970
 Alpha  occ. eigenvalues --   -1.13938  -1.13930  -1.13927  -1.13908  -1.13896
 Alpha  occ. eigenvalues --   -1.13890  -1.13872  -1.13826  -1.13523  -1.13510
 Alpha  occ. eigenvalues --   -1.13507  -1.13480  -1.13466  -1.13430  -1.13424
 Alpha  occ. eigenvalues --   -1.13402  -1.13386  -1.12769  -1.12765  -1.12724
 Alpha  occ. eigenvalues --   -0.17485  -0.12975  -0.12063  -0.10842
 Alpha virt. eigenvalues --   -0.06424  -0.05654  -0.04401  -0.03318  -0.03005
 Alpha virt. eigenvalues --   -0.02672  -0.02082  -0.01388  -0.00800  -0.00256
 Alpha virt. eigenvalues --   -0.00168   0.00248   0.00384   0.00669   0.00719

  Beta  occ. eigenvalues --  -38.44485 -38.44474 -38.44336 -38.44068 -38.43968
  Beta  occ. eigenvalues --  -38.43845 -38.43297  -2.20263  -2.20231  -2.20122
  Beta  occ. eigenvalues --   -2.19846  -2.19776  -2.19612  -2.19087  -1.13938
  Beta  occ. eigenvalues --   -1.13921  -1.13912  -1.13906  -1.13893  -1.13876
  Beta  occ. eigenvalues --   -1.13827  -1.13807  -1.13754  -1.13522  -1.13504
  Beta  occ. eigenvalues --   -1.13480  -1.13471  -1.13443  -1.13402  -1.13324
  Beta  occ. eigenvalues --   -1.13290  -1.13269  -1.12764  -1.12759  -1.12718
  Beta  occ. eigenvalues --   -0.16825  -0.12737  -0.11824
  Beta virt. eigenvalues --   -0.07100  -0.06261  -0.05600  -0.04151  -0.02831
  Beta virt. eigenvalues --   -0.02310  -0.01933  -0.01753  -0.01357  -0.00770
  Beta virt. eigenvalues --   -0.00186  -0.00025   0.00305   0.00534   0.00724

 Mulliken charges and spin densities:
               1          2
     1  Na   0.035570   0.090097
     2  Na   0.099185   0.437441
     3  Na  -0.249256  -0.024443
     4  Na  -0.086345  -0.015877
     5  Na  -0.007306  -0.005284
     6  Na   0.147825   0.543076
     7  Na   0.060326  -0.025010
 Sum of Mulliken charges =  -0.00000   1.00000

 Dipole moment (field-independent basis, Debye):
    X=              0.3210    Y=             -0.4177    Z=             -0.1891  Tot=              0.5597
 Quadrupole moment (field-independent basis, Debye-Ang):
   XX=            -53.0449   YY=            -69.3124   ZZ=            -73.0921
   XY=             -0.1959   XZ=              0.6608   YZ=             -0.2499

 Normal termination of Gaussian 16 at Mon Dec  4 05:08:30 2023.
