 Gaussian 16, Revision B.01,
 Gaussian 16:  ES64L-G16RevB.01 20-Dec-2017

 -------------------------
 #P B3LYP/6-311+g(d) force
 -------------------------

 -----
 DPGEN
 -----
 Symbolic Z-matrix:
 Charge =  0 Multiplicity = 2

                         Standard orientation:
 ---------------------------------------------------------------------
 Center     Atomic      Atomic             Coordinates (Angstroms)
 Number     Number       Type             X           Y           Z
 ---------------------------------------------------------------------
      1         11           0       -2.548006   -1.698995   -0.708340
      2         11           0       -0.431017   -0.058919    2.254764
      3         11           0        3.164268   -0.005119   -0.216109
      4         11           0        1.199703   -2.562811    0.212395
      5         11           0        0.025649   -0.087250   -1.327142
      6         11           0        0.992920    2.751575   -0.261473
      7         11           0       -2.403517    1.661519    0.045906
 ---------------------------------------------------------------------

 SCF Done:  E(UB3LYP) =  -1136.13527200     A.U. after   19 cycles

 The electronic state is 2-A.
 Alpha  occ. eigenvalues --  -38.43926 -38.43919 -38.43763 -38.43698 -38.43346
 Alpha  occ. eigenvalues --  -38.43179 -38.42869  -2.19791  -2.19780  -2.19622
 Alpha  occ. eigenvalues --   -2.19576  -2.19226  -2.19033  -2.18962  -1.13467
 Alpha  occ. eigenvalues --   -1.13449  -1.13439  -1.13423  -1.13421  -1.13405
 Alpha  occ. eigenvalues --   -1.13343  -1.13279  -1.13252  -1.13245  -1.13240
 Alpha  occ. eigenvalues --   -1.13186  -1.12948  -1.12882  -1.12847  -1.12770
 Alpha  occ. eigenvalues --   -1.12691  -1.12656  -1.12632  -1.12587  -1.12573
 Alpha  occ. eigenvalues --   -0.18835  -0.13228  -0.12350  -0.10982
 Alpha virt. eigenvalues --   -0.05482  -0.05190  -0.04505  -0.03237  -0.02783
 Alpha virt. eigenvalues --   -0.02718  -0.01519  -0.01068  -0.00259  -0.00219
 Alpha virt. eigenvalues --   -0.00007   0.00339   0.00800   0.00892   0.00914

  Beta  occ. eigenvalues --  -38.43924 -38.43810 -38.43741 -38.43691 -38.43340
  Beta  occ. eigenvalues --  -38.43176 -38.42824  -2.19779  -2.19590  -2.19582
  Beta  occ. eigenvalues --   -2.19568  -2.19218  -2.19029  -2.18882  -1.13465
  Beta  occ. eigenvalues --   -1.13429  -1.13423  -1.13328  -1.13305  -1.13285
  Beta  occ. eigenvalues --   -1.13267  -1.13254  -1.13235  -1.13216  -1.13201
  Beta  occ. eigenvalues --   -1.13177  -1.12941  -1.12851  -1.12847  -1.12756
  Beta  occ. eigenvalues --   -1.12680  -1.12650  -1.12571  -1.12533  -1.12518
  Beta  occ. eigenvalues --   -0.18136  -0.12980  -0.12109
  Beta virt. eigenvalues --   -0.06995  -0.05428  -0.05132  -0.04471  -0.02476
  Beta virt. eigenvalues --   -0.02061  -0.01620  -0.01412  -0.01000  -0.00258
  Beta virt. eigenvalues --   -0.00249   0.00142   0.00385   0.00880   0.00899

 Mulliken charges and spin densities:
               1          2
     1  Na   0.285133   0.097274
     2  Na  -0.553375   0.653860
     3  Na   0.134066   0.006505
     4  Na   0.312452   0.108799
     5  Na  -0.737010  -0.000869
     6  Na   0.177706   0.025393
     7  Na   0.381028   0.109037
 Sum of Mulliken charges =  -0.00000   1.00000

 Dipole moment (field-independent basis, Debye):
    X=             -0.0480    Y=             -0.0514    Z=              0.3318  Tot=              0.3392
 Quadrupole moment (field-independent basis, Debye-Ang):
   XX=            -56.2821   YY=            -63.6250   ZZ=            -73.5179
   XY=              0.0946   XZ=              0.8176   YZ=              0.1743

 Normal termination of Gaussian 16 at Tue Dec  5 22:07:30 2023.
