 Gaussian 16, Revision B.01,
 Gaussian 16:  ES64L-G16RevB.01 20-Dec-2017

 -------------------------
 #P B3LYP/6-311+g(d) force
 -------------------------

 -----
 DPGEN
 -----
 Symbolic Z-matrix:
 Charge =  0 Multiplicity = 2

                         Standard orientation:
 ---------------------------------------------------------------------
 Center     Atomic      Atomic             Coordinates (Angstroms)
 Number     Number       Type             X           Y           Z
 ---------------------------------------------------------------------
      1         11           0        2.130360   -1.933792   -1.581222
      2         11           0       -2.465901   -0.603794    1.104125
      3         11           0       -0.168749   -3.090822   -0.221779
      4         11           0       -4.396684    1.197074   -0.666464
      5         11           0        1.340590    2.063945   -1.873267
      6         11           0        1.886770    3.018252    1.007177
      7         11           0        1.673613   -0.650863    2.231430
 ---------------------------------------------------------------------

 SCF Done:  E(UB3LYP) =  -1136.11081695     A.U. after   19 cycles

 The electronic state is 2-A.
 Alpha  occ. eigenvalues --  -38.45135 -38.44527 -38.44458 -38.44373 -38.44136
 Alpha  occ. eigenvalues --  -38.44069 -38.43566  -2.20920  -2.20373  -2.20301
 Alpha  occ. eigenvalues --   -2.20175  -2.19931  -2.19844  -2.19366  -1.14583
 Alpha  occ. eigenvalues --   -1.14558  -1.14523  -1.14213  -1.14012  -1.14000
 Alpha  occ. eigenvalues --   -1.13943  -1.13930  -1.13875  -1.13866  -1.13822
 Alpha  occ. eigenvalues --   -1.13812  -1.13591  -1.13576  -1.13574  -1.13509
 Alpha  occ. eigenvalues --   -1.13499  -1.13496  -1.13042  -1.13034  -1.12996
 Alpha  occ. eigenvalues --   -0.16743  -0.12996  -0.12398  -0.11354
 Alpha virt. eigenvalues --   -0.06632  -0.05640  -0.04356  -0.03622  -0.03162
 Alpha virt. eigenvalues --   -0.03118  -0.01580  -0.01353  -0.00818  -0.00590
 Alpha virt. eigenvalues --   -0.00370  -0.00019   0.00242   0.00478   0.00511

  Beta  occ. eigenvalues --  -38.45038 -38.44487 -38.44457 -38.44337 -38.44140
  Beta  occ. eigenvalues --  -38.44060 -38.43564  -2.20740  -2.20313  -2.20287
  Beta  occ. eigenvalues --   -2.20106  -2.19942  -2.19828  -2.19364  -1.14458
  Beta  occ. eigenvalues --   -1.14438  -1.14395  -1.14182  -1.13968  -1.13959
  Beta  occ. eigenvalues --   -1.13928  -1.13909  -1.13842  -1.13839  -1.13775
  Beta  occ. eigenvalues --   -1.13763  -1.13600  -1.13579  -1.13562  -1.13500
  Beta  occ. eigenvalues --   -1.13488  -1.13485  -1.13042  -1.13034  -1.12983
  Beta  occ. eigenvalues --   -0.16062  -0.12874  -0.12210
  Beta virt. eigenvalues --   -0.07719  -0.06279  -0.05149  -0.03865  -0.03429
  Beta virt. eigenvalues --   -0.02965  -0.02358  -0.01359  -0.01262  -0.00602
  Beta virt. eigenvalues --   -0.00525  -0.00100   0.00174   0.00389   0.00570

 Mulliken charges and spin densities:
               1          2
     1  Na  -0.239880   0.202991
     2  Na  -0.542047   0.038772
     3  Na   0.452434   0.072254
     4  Na   0.286078  -0.025733
     5  Na  -0.191615   0.247888
     6  Na   0.163912  -0.066409
     7  Na   0.071118   0.530237
 Sum of Mulliken charges =  -0.00000   1.00000

 Dipole moment (field-independent basis, Debye):
    X=              0.6150    Y=             -0.0385    Z=             -0.2523  Tot=              0.6659
 Quadrupole moment (field-independent basis, Debye-Ang):
   XX=            -68.6544   YY=            -65.1488   ZZ=            -66.8423
   XY=             -2.3409   XZ=              3.9925   YZ=             -0.8797

 Normal termination of Gaussian 16 at Sun Dec  3 21:00:26 2023.
