 Gaussian 16, Revision B.01,
 Gaussian 16:  ES64L-G16RevB.01 20-Dec-2017

 -------------------------
 #P B3LYP/6-311+g(d) force
 -------------------------

 -----
 DPGEN
 -----
 Symbolic Z-matrix:
 Charge =  0 Multiplicity = 2

                         Standard orientation:
 ---------------------------------------------------------------------
 Center     Atomic      Atomic             Coordinates (Angstroms)
 Number     Number       Type             X           Y           Z
 ---------------------------------------------------------------------
      1         11           0       -0.343535    3.141487   -0.359819
      2         11           0        2.113774   -2.179150   -0.007240
      3         11           0       -1.544806   -2.733701   -0.101790
      4         11           0        0.498843   -0.172597   -1.819253
      5         11           0        2.849157    1.246554    0.242336
      6         11           0       -0.122815    0.121209    2.106698
      7         11           0       -3.450618    0.576197   -0.060931
 ---------------------------------------------------------------------

 SCF Done:  E(UB3LYP) =  -1136.13428439     A.U. after   19 cycles

 The electronic state is 2-A.
 Alpha  occ. eigenvalues --  -38.44456 -38.43919 -38.43881 -38.43822 -38.43809
 Alpha  occ. eigenvalues --  -38.43633 -38.43588  -2.20197  -2.19751  -2.19717
 Alpha  occ. eigenvalues --   -2.19609  -2.19586  -2.19499  -2.19489  -1.13879
 Alpha  occ. eigenvalues --   -1.13847  -1.13844  -1.13433  -1.13424  -1.13390
 Alpha  occ. eigenvalues --   -1.13381  -1.13348  -1.13334  -1.13292  -1.13280
 Alpha  occ. eigenvalues --   -1.13268  -1.13259  -1.13247  -1.13241  -1.13221
 Alpha  occ. eigenvalues --   -1.13160  -1.13138  -1.13122  -1.13106  -1.13085
 Alpha  occ. eigenvalues --   -0.18003  -0.12635  -0.12355  -0.10671
 Alpha virt. eigenvalues --   -0.05889  -0.05284  -0.05010  -0.03135  -0.02981
 Alpha virt. eigenvalues --   -0.02611  -0.01529  -0.01236  -0.00763  -0.00624
 Alpha virt. eigenvalues --   -0.00049   0.00361   0.00744   0.00815   0.00827

  Beta  occ. eigenvalues --  -38.44459 -38.43912 -38.43820 -38.43803 -38.43788
  Beta  occ. eigenvalues --  -38.43628 -38.43521  -2.20205  -2.19742  -2.19609
  Beta  occ. eigenvalues --   -2.19577  -2.19547  -2.19485  -2.19373  -1.13875
  Beta  occ. eigenvalues --   -1.13853  -1.13851  -1.13427  -1.13390  -1.13384
  Beta  occ. eigenvalues --   -1.13285  -1.13275  -1.13267  -1.13249  -1.13246
  Beta  occ. eigenvalues --   -1.13241  -1.13224  -1.13221  -1.13217  -1.13209
  Beta  occ. eigenvalues --   -1.13123  -1.13112  -1.13073  -1.13031  -1.13009
  Beta  occ. eigenvalues --   -0.17264  -0.12478  -0.12136
  Beta virt. eigenvalues --   -0.06783  -0.05872  -0.05286  -0.04838  -0.02408
  Beta virt. eigenvalues --   -0.02234  -0.01631  -0.01429  -0.01151  -0.00796
  Beta virt. eigenvalues --   -0.00688   0.00105   0.00394   0.00788   0.00830

 Mulliken charges and spin densities:
               1          2
     1  Na  -0.098757  -0.105871
     2  Na   0.312986  -0.023929
     3  Na  -0.053974  -0.138772
     4  Na   0.011987   0.622716
     5  Na   0.235126   0.010999
     6  Na  -0.313028   0.754393
     7  Na  -0.094341  -0.119537
 Sum of Mulliken charges =  -0.00000   1.00000

 Dipole moment (field-independent basis, Debye):
    X=             -0.0971    Y=              0.0401    Z=              0.0619  Tot=              0.1219
 Quadrupole moment (field-independent basis, Debye-Ang):
   XX=            -57.3471   YY=            -61.9428   ZZ=            -74.6470
   XY=             -0.0732   XZ=              1.3279   YZ=             -0.6115

 Normal termination of Gaussian 16 at Thu Dec  7 09:22:40 2023.
