 Gaussian 16, Revision B.01,
 Gaussian 16:  ES64L-G16RevB.01 20-Dec-2017

 -------------------------
 #P B3LYP/6-311+g(d) force
 -------------------------

 -----
 DPGEN
 -----
 Symbolic Z-matrix:
 Charge =  0 Multiplicity = 2

                         Standard orientation:
 ---------------------------------------------------------------------
 Center     Atomic      Atomic             Coordinates (Angstroms)
 Number     Number       Type             X           Y           Z
 ---------------------------------------------------------------------
      1         11           0       -3.863305   -0.855821   -0.504410
      2         11           0        3.888701   -0.969732   -0.725901
      3         11           0        0.079454    3.853348   -0.362319
      4         11           0        2.788441    2.593516    0.403036
      5         11           0       -3.207804    1.882764    0.601208
      6         11           0        1.814568   -3.255353    0.781459
      7         11           0       -1.500056   -3.248722   -0.193073
 ---------------------------------------------------------------------

 SCF Done:  E(UB3LYP) =  -1136.10833063     A.U. after   21 cycles

 The electronic state is 2-A.
 Alpha  occ. eigenvalues --  -38.44819 -38.44794 -38.44707 -38.44480 -38.44294
 Alpha  occ. eigenvalues --  -38.44224 -38.43989  -2.20610  -2.20561  -2.20525
 Alpha  occ. eigenvalues --   -2.20309  -2.20101  -2.20018  -2.19802  -1.14306
 Alpha  occ. eigenvalues --   -1.14275  -1.14257  -1.14251  -1.14244  -1.14237
 Alpha  occ. eigenvalues --   -1.14213  -1.14170  -1.14151  -1.13964  -1.13963
 Alpha  occ. eigenvalues --   -1.13945  -1.13756  -1.13752  -1.13735  -1.13668
 Alpha  occ. eigenvalues --   -1.13654  -1.13648  -1.13453  -1.13444  -1.13432
 Alpha  occ. eigenvalues --   -0.15680  -0.13965  -0.13662  -0.10716
 Alpha virt. eigenvalues --   -0.07630  -0.04901  -0.04173  -0.03580  -0.03275
 Alpha virt. eigenvalues --   -0.02630  -0.02462  -0.01749  -0.01527  -0.00608
 Alpha virt. eigenvalues --   -0.00283   0.00146   0.00197   0.00399   0.00562

  Beta  occ. eigenvalues --  -38.44803 -38.44800 -38.44656 -38.44475 -38.44264
  Beta  occ. eigenvalues --  -38.44154 -38.43922  -2.20587  -2.20579  -2.20433
  Beta  occ. eigenvalues --   -2.20306  -2.20049  -2.19887  -2.19676  -1.14280
  Beta  occ. eigenvalues --   -1.14263  -1.14262  -1.14254  -1.14218  -1.14195
  Beta  occ. eigenvalues --   -1.14182  -1.14109  -1.14087  -1.13967  -1.13961
  Beta  occ. eigenvalues --   -1.13899  -1.13720  -1.13718  -1.13690  -1.13578
  Beta  occ. eigenvalues --   -1.13567  -1.13561  -1.13367  -1.13360  -1.13352
  Beta  occ. eigenvalues --   -0.15150  -0.13227  -0.12938
  Beta virt. eigenvalues --   -0.07729  -0.07575  -0.04521  -0.03828  -0.03221
  Beta virt. eigenvalues --   -0.02855  -0.02405  -0.02185  -0.01631  -0.01426
  Beta virt. eigenvalues --   -0.00220  -0.00140   0.00208   0.00368   0.00384

 Mulliken charges and spin densities:
               1          2
     1  Na   0.216124   0.037212
     2  Na   0.018824   0.339196
     3  Na   0.004646   0.113352
     4  Na  -0.103667   0.049894
     5  Na  -0.181171   0.208257
     6  Na   0.098850  -0.063746
     7  Na  -0.053606   0.315835
 Sum of Mulliken charges =  -0.00000   1.00000

 Dipole moment (field-independent basis, Debye):
    X=             -0.0578    Y=              0.4085    Z=              0.0857  Tot=              0.4214
 Quadrupole moment (field-independent basis, Debye-Ang):
   XX=            -64.8707   YY=            -67.5251   ZZ=            -69.8005
   XY=             -0.4855   XZ=              1.7606   YZ=             -0.3525

 Normal termination of Gaussian 16 at Sun Dec  3 15:03:14 2023.
