 Gaussian 16, Revision B.01,
 Gaussian 16:  ES64L-G16RevB.01 20-Dec-2017

 -------------------------
 #P B3LYP/6-311+g(d) force
 -------------------------

 -----
 DPGEN
 -----
 Symbolic Z-matrix:
 Charge =  0 Multiplicity = 2

                         Standard orientation:
 ---------------------------------------------------------------------
 Center     Atomic      Atomic             Coordinates (Angstroms)
 Number     Number       Type             X           Y           Z
 ---------------------------------------------------------------------
      1         11           0       -3.175179   -0.248314   -0.515632
      2         11           0        0.020231   -0.049672    2.099965
      3         11           0        0.233693    0.012150   -1.559732
      4         11           0        2.845555   -1.500735   -0.135308
      5         11           0       -0.802091   -2.531471    0.108098
      6         11           0       -1.329282    2.284996    0.240145
      7         11           0        2.207074    2.033045   -0.237537
 ---------------------------------------------------------------------

 SCF Done:  E(UB3LYP) =  -1136.13600217     A.U. after   19 cycles

 The electronic state is 2-A.
 Alpha  occ. eigenvalues --  -38.44083 -38.44015 -38.43676 -38.43599 -38.43207
 Alpha  occ. eigenvalues --  -38.43067 -38.43015  -2.19903  -2.19875  -2.19598
 Alpha  occ. eigenvalues --   -2.19462  -2.19241  -2.18963  -2.18930  -1.13589
 Alpha  occ. eigenvalues --   -1.13563  -1.13547  -1.13536  -1.13533  -1.13520
 Alpha  occ. eigenvalues --   -1.13272  -1.13233  -1.13209  -1.13196  -1.13114
 Alpha  occ. eigenvalues --   -1.13081  -1.12935  -1.12895  -1.12853  -1.12648
 Alpha  occ. eigenvalues --   -1.12634  -1.12614  -1.12594  -1.12570  -1.12551
 Alpha  occ. eigenvalues --   -0.19032  -0.13270  -0.12270  -0.11020
 Alpha virt. eigenvalues --   -0.05735  -0.05169  -0.04120  -0.03271  -0.02870
 Alpha virt. eigenvalues --   -0.02691  -0.01707  -0.01054  -0.00215  -0.00013
 Alpha virt. eigenvalues --    0.00028   0.00334   0.00784   0.00899   0.00943

  Beta  occ. eigenvalues --  -38.44081 -38.44003 -38.43593 -38.43570 -38.43153
  Beta  occ. eigenvalues --  -38.43058 -38.43005  -2.19902  -2.19855  -2.19456
  Beta  occ. eigenvalues --   -2.19404  -2.19142  -2.18952  -2.18917  -1.13578
  Beta  occ. eigenvalues --   -1.13561  -1.13536  -1.13533  -1.13514  -1.13497
  Beta  occ. eigenvalues --   -1.13184  -1.13144  -1.13104  -1.13089  -1.13076
  Beta  occ. eigenvalues --   -1.13069  -1.12868  -1.12832  -1.12779  -1.12639
  Beta  occ. eigenvalues --   -1.12605  -1.12594  -1.12564  -1.12551  -1.12545
  Beta  occ. eigenvalues --   -0.18296  -0.13003  -0.12014
  Beta virt. eigenvalues --   -0.07063  -0.05678  -0.05154  -0.04110  -0.02525
  Beta virt. eigenvalues --   -0.02043  -0.01662  -0.01541  -0.01012  -0.00211
  Beta virt. eigenvalues --   -0.00033   0.00120   0.00364   0.00851   0.00895

 Mulliken charges and spin densities:
               1          2
     1  Na   0.036718   0.023267
     2  Na  -0.517570   0.629843
     3  Na  -0.554168   0.349520
     4  Na   0.126565  -0.073196
     5  Na   0.300218   0.027648
     6  Na   0.397153   0.090710
     7  Na   0.211084  -0.047792
 Sum of Mulliken charges =  -0.00000   1.00000

 Dipole moment (field-independent basis, Debye):
    X=              0.2810    Y=             -0.1152    Z=              0.1300  Tot=              0.3303
 Quadrupole moment (field-independent basis, Debye-Ang):
   XX=            -54.0794   YY=            -66.1948   ZZ=            -73.0096
   XY=             -0.1960   XZ=              1.0111   YZ=              0.1559

 Normal termination of Gaussian 16 at Thu Dec  7 06:38:24 2023.
