 Gaussian 16, Revision B.01,
 Gaussian 16:  ES64L-G16RevB.01 20-Dec-2017

 -------------------------
 #P B3LYP/6-311+g(d) force
 -------------------------

 -----
 DPGEN
 -----
 Symbolic Z-matrix:
 Charge =  0 Multiplicity = 2

                         Standard orientation:
 ---------------------------------------------------------------------
 Center     Atomic      Atomic             Coordinates (Angstroms)
 Number     Number       Type             X           Y           Z
 ---------------------------------------------------------------------
      1         11           0       -3.083853    1.971124   -0.109473
      2         11           0       -4.261359   -1.259443   -0.255662
      3         11           0       -0.775177   -1.718591   -0.137308
      4         11           0        2.694696   -2.164676   -0.902019
      5         11           0        3.527552    1.644591   -0.772807
      6         11           0        1.717576   -0.562425    2.101571
      7         11           0        0.180565    2.089420    0.075699
 ---------------------------------------------------------------------

 SCF Done:  E(UB3LYP) =  -1136.11875428     A.U. after   24 cycles

 The electronic state is 2-A.
 Alpha  occ. eigenvalues --  -38.45041 -38.44731 -38.44679 -38.44305 -38.44024
 Alpha  occ. eigenvalues --  -38.43883 -38.42830  -2.20865  -2.20519  -2.20475
 Alpha  occ. eigenvalues --   -2.20106  -2.19830  -2.19696  -2.18671  -1.14540
 Alpha  occ. eigenvalues --   -1.14502  -1.14487  -1.14211  -1.14166  -1.14159
 Alpha  occ. eigenvalues --   -1.14148  -1.14148  -1.14109  -1.13764  -1.13759
 Alpha  occ. eigenvalues --   -1.13736  -1.13497  -1.13461  -1.13458  -1.13408
 Alpha  occ. eigenvalues --   -1.13383  -1.13296  -1.12354  -1.12337  -1.12315
 Alpha  occ. eigenvalues --   -0.17312  -0.14116  -0.11724  -0.10518
 Alpha virt. eigenvalues --   -0.07113  -0.06356  -0.03565  -0.03488  -0.03123
 Alpha virt. eigenvalues --   -0.02613  -0.01927  -0.01766  -0.01280  -0.00666
 Alpha virt. eigenvalues --   -0.00051  -0.00018   0.00245   0.00419   0.00584

  Beta  occ. eigenvalues --  -38.44989 -38.44716 -38.44677 -38.44269 -38.43956
  Beta  occ. eigenvalues --  -38.43877 -38.42815  -2.20771  -2.20494  -2.20475
  Beta  occ. eigenvalues --   -2.20039  -2.19702  -2.19689  -2.18648  -1.14459
  Beta  occ. eigenvalues --   -1.14441  -1.14425  -1.14197  -1.14158  -1.14152
  Beta  occ. eigenvalues --   -1.14140  -1.14109  -1.14102  -1.13717  -1.13713
  Beta  occ. eigenvalues --   -1.13693  -1.13409  -1.13405  -1.13380  -1.13363
  Beta  occ. eigenvalues --   -1.13362  -1.13288  -1.12341  -1.12307  -1.12296
  Beta  occ. eigenvalues --   -0.16753  -0.13635  -0.11546
  Beta virt. eigenvalues --   -0.07043  -0.06719  -0.06224  -0.03371  -0.02941
  Beta virt. eigenvalues --   -0.02779  -0.02320  -0.01707  -0.01358  -0.01013
  Beta virt. eigenvalues --   -0.00226  -0.00019   0.00074   0.00339   0.00545

 Mulliken charges and spin densities:
               1          2
     1  Na  -0.112818  -0.014230
     2  Na   0.231756   0.207398
     3  Na  -0.774623  -0.062394
     4  Na   0.413619   0.213173
     5  Na   0.244865   0.471855
     6  Na   0.214228   0.191607
     7  Na  -0.217027  -0.007409
 Sum of Mulliken charges =  -0.00000   1.00000

 Dipole moment (field-independent basis, Debye):
    X=             -0.2061    Y=             -0.5690    Z=              0.7200  Tot=              0.9405
 Quadrupole moment (field-independent basis, Debye-Ang):
   XX=            -57.8528   YY=            -72.0767   ZZ=            -68.1377
   XY=             -4.2578   XZ=              2.6942   YZ=              0.9224

 Normal termination of Gaussian 16 at Sun Dec  3 12:10:12 2023.
