 Gaussian 16, Revision B.01,
 Gaussian 16:  ES64L-G16RevB.01 20-Dec-2017

 -------------------------
 #P B3LYP/6-311+g(d) force
 -------------------------

 -----
 DPGEN
 -----
 Symbolic Z-matrix:
 Charge =  0 Multiplicity = 2

                         Standard orientation:
 ---------------------------------------------------------------------
 Center     Atomic      Atomic             Coordinates (Angstroms)
 Number     Number       Type             X           Y           Z
 ---------------------------------------------------------------------
      1         11           0        2.818730   -2.129735   -0.408261
      2         11           0       -1.640297   -2.298661    0.641112
      3         11           0       -3.375299    0.332746   -0.876565
      4         11           0        2.267380    2.606165   -0.574042
      5         11           0       -0.991824    2.236485    1.077869
      6         11           0        0.914681   -0.363674    1.776801
      7         11           0        0.006630   -0.383326   -1.636914
 ---------------------------------------------------------------------

 SCF Done:  E(UB3LYP) =  -1136.13054837     A.U. after   20 cycles

 The electronic state is 2-A.
 Alpha  occ. eigenvalues --  -38.44211 -38.44170 -38.44149 -38.43887 -38.43631
 Alpha  occ. eigenvalues --  -38.43431 -38.43278  -2.20002  -2.19968  -2.19937
 Alpha  occ. eigenvalues --   -2.19705  -2.19532  -2.19268  -2.19207  -1.13692
 Alpha  occ. eigenvalues --   -1.13676  -1.13646  -1.13621  -1.13618  -1.13618
 Alpha  occ. eigenvalues --   -1.13603  -1.13592  -1.13573  -1.13375  -1.13358
 Alpha  occ. eigenvalues --   -1.13341  -1.13234  -1.13172  -1.13143  -1.12997
 Alpha  occ. eigenvalues --   -1.12924  -1.12887  -1.12879  -1.12838  -1.12807
 Alpha  occ. eigenvalues --   -0.18094  -0.12788  -0.12029  -0.10875
 Alpha virt. eigenvalues --   -0.06089  -0.05473  -0.04213  -0.03232  -0.03004
 Alpha virt. eigenvalues --   -0.02503  -0.01805  -0.01453  -0.00597  -0.00018
 Alpha virt. eigenvalues --    0.00036   0.00325   0.00450   0.00719   0.00728

  Beta  occ. eigenvalues --  -38.44205 -38.44153 -38.44145 -38.43872 -38.43578
  Beta  occ. eigenvalues --  -38.43407 -38.43207  -2.19974  -2.19958  -2.19932
  Beta  occ. eigenvalues --   -2.19677  -2.19436  -2.19228  -2.19080  -1.13675
  Beta  occ. eigenvalues --   -1.13634  -1.13633  -1.13612  -1.13608  -1.13599
  Beta  occ. eigenvalues --   -1.13597  -1.13585  -1.13568  -1.13346  -1.13338
  Beta  occ. eigenvalues --   -1.13325  -1.13164  -1.13105  -1.13069  -1.12950
  Beta  occ. eigenvalues --   -1.12885  -1.12856  -1.12809  -1.12735  -1.12718
  Beta  occ. eigenvalues --   -0.17361  -0.12566  -0.11838
  Beta virt. eigenvalues --   -0.07048  -0.05992  -0.05295  -0.04035  -0.02744
  Beta virt. eigenvalues --   -0.02402  -0.01707  -0.01513  -0.01363  -0.00400
  Beta virt. eigenvalues --   -0.00022   0.00105   0.00352   0.00560   0.00739

 Mulliken charges and spin densities:
               1          2
     1  Na   0.054658  -0.029596
     2  Na  -0.011107   0.050454
     3  Na   0.246848   0.028522
     4  Na  -0.059856   0.010452
     5  Na  -0.152104   0.103231
     6  Na   0.334115   0.303994
     7  Na  -0.412555   0.532942
 Sum of Mulliken charges =  -0.00000   1.00000

 Dipole moment (field-independent basis, Debye):
    X=              0.1714    Y=             -0.2346    Z=             -0.2033  Tot=              0.3546
 Quadrupole moment (field-independent basis, Debye-Ang):
   XX=            -55.1799   YY=            -64.8536   ZZ=            -72.3489
   XY=             -0.4452   XZ=             -1.5094   YZ=             -1.3821

 Normal termination of Gaussian 16 at Tue Dec  5 17:20:40 2023.
