 Gaussian 16, Revision B.01,
 Gaussian 16:  ES64L-G16RevB.01 20-Dec-2017

 -------------------------
 #P B3LYP/6-311+g(d) force
 -------------------------

 -----
 DPGEN
 -----
 Symbolic Z-matrix:
 Charge =  0 Multiplicity = 2

                         Standard orientation:
 ---------------------------------------------------------------------
 Center     Atomic      Atomic             Coordinates (Angstroms)
 Number     Number       Type             X           Y           Z
 ---------------------------------------------------------------------
      1         11           0       -0.120305   -0.131349    2.394806
      2         11           0       -3.464389   -1.249329   -0.230219
      3         11           0        0.066569   -3.071021    0.232922
      4         11           0        3.490116   -1.094126   -0.486642
      5         11           0       -0.077753    0.174054   -2.153001
      6         11           0        2.165591    2.545914    0.356135
      7         11           0       -2.059828    2.825857   -0.114002
 ---------------------------------------------------------------------

 SCF Done:  E(UB3LYP) =  -1136.11726116     A.U. after   20 cycles

 The electronic state is 2-A.
 Alpha  occ. eigenvalues --  -38.44882 -38.44880 -38.44649 -38.44418 -38.44392
 Alpha  occ. eigenvalues --  -38.44301 -38.43773  -2.20650  -2.20601  -2.20433
 Alpha  occ. eigenvalues --   -2.20153  -2.20126  -2.20028  -2.19537  -1.14323
 Alpha  occ. eigenvalues --   -1.14289  -1.14284  -1.14268  -1.14250  -1.14246
 Alpha  occ. eigenvalues --   -1.14084  -1.14066  -1.14050  -1.13831  -1.13809
 Alpha  occ. eigenvalues --   -1.13804  -1.13800  -1.13786  -1.13761  -1.13711
 Alpha  occ. eigenvalues --   -1.13687  -1.13672  -1.13224  -1.13211  -1.13164
 Alpha  occ. eigenvalues --   -0.16763  -0.12207  -0.11870  -0.10962
 Alpha virt. eigenvalues --   -0.06254  -0.05888  -0.05109  -0.03186  -0.03094
 Alpha virt. eigenvalues --   -0.02979  -0.01855  -0.01514  -0.01015  -0.00755
 Alpha virt. eigenvalues --   -0.00200   0.00294   0.00434   0.00545   0.00704

  Beta  occ. eigenvalues --  -38.44884 -38.44812 -38.44548 -38.44412 -38.44388
  Beta  occ. eigenvalues --  -38.44305 -38.43770  -2.20607  -2.20523  -2.20245
  Beta  occ. eigenvalues --   -2.20143  -2.20119  -2.20037  -2.19534  -1.14281
  Beta  occ. eigenvalues --   -1.14256  -1.14251  -1.14238  -1.14200  -1.14174
  Beta  occ. eigenvalues --   -1.13959  -1.13937  -1.13913  -1.13815  -1.13799
  Beta  occ. eigenvalues --   -1.13794  -1.13792  -1.13782  -1.13758  -1.13709
  Beta  occ. eigenvalues --   -1.13693  -1.13678  -1.13215  -1.13198  -1.13165
  Beta  occ. eigenvalues --   -0.16023  -0.12095  -0.11727
  Beta virt. eigenvalues --   -0.07143  -0.06200  -0.05779  -0.04755  -0.02557
  Beta virt. eigenvalues --   -0.02411  -0.02158  -0.01734  -0.01450  -0.01069
  Beta virt. eigenvalues --   -0.00746  -0.00044   0.00387   0.00648   0.00677

 Mulliken charges and spin densities:
               1          2
     1  Na  -0.079377   0.692721
     2  Na   0.048151  -0.113888
     3  Na   0.006672  -0.050810
     4  Na   0.014947   0.000468
     5  Na   0.045221   0.645583
     6  Na  -0.029294  -0.037024
     7  Na  -0.006320  -0.137051
 Sum of Mulliken charges =  -0.00000   1.00000

 Dipole moment (field-independent basis, Debye):
    X=             -0.2513    Y=              0.0582    Z=             -0.1060  Tot=              0.2789
 Quadrupole moment (field-independent basis, Debye-Ang):
   XX=            -57.4556   YY=            -65.5833   ZZ=            -72.9933
   XY=              0.2747   XZ=             -0.1861   YZ=              1.1822

 Normal termination of Gaussian 16 at Mon Dec  4 00:16:33 2023.
