 Gaussian 16, Revision B.01,
 Gaussian 16:  ES64L-G16RevB.01 20-Dec-2017

 -------------------------
 #P B3LYP/6-311+g(d) force
 -------------------------

 -----
 DPGEN
 -----
 Symbolic Z-matrix:
 Charge =  0 Multiplicity = 2

                         Standard orientation:
 ---------------------------------------------------------------------
 Center     Atomic      Atomic             Coordinates (Angstroms)
 Number     Number       Type             X           Y           Z
 ---------------------------------------------------------------------
      1         11           0        3.748530   -1.090711   -0.471629
      2         11           0       -0.115335   -0.906092   -1.787227
      3         11           0        2.131579    1.829664   -0.410415
      4         11           0       -1.034842    2.019912    0.464122
      5         11           0        1.343807   -0.489484    1.643350
      6         11           0       -4.217498   -0.127665   -0.741724
      7         11           0       -1.856242   -1.235624    1.303524
 ---------------------------------------------------------------------

 SCF Done:  E(UB3LYP) =  -1136.11766710     A.U. after   30 cycles

 The electronic state is 2-A.
 Alpha  occ. eigenvalues --  -38.46130 -38.45170 -38.43946 -38.43766 -38.43661
 Alpha  occ. eigenvalues --  -38.43433 -38.42111  -2.21898  -2.20951  -2.19859
 Alpha  occ. eigenvalues --   -2.19629  -2.19600  -2.19354  -2.17996  -1.15610
 Alpha  occ. eigenvalues --   -1.15571  -1.15491  -1.14627  -1.14606  -1.14574
 Alpha  occ. eigenvalues --   -1.13563  -1.13501  -1.13484  -1.13351  -1.13311
 Alpha  occ. eigenvalues --   -1.13282  -1.13268  -1.13234  -1.13190  -1.13031
 Alpha  occ. eigenvalues --   -1.13016  -1.12951  -1.11684  -1.11666  -1.11620
 Alpha  occ. eigenvalues --   -0.18615  -0.14255  -0.11338  -0.10709
 Alpha virt. eigenvalues --   -0.07647  -0.04869  -0.04644  -0.03147  -0.03125
 Alpha virt. eigenvalues --   -0.02335  -0.02196  -0.01328  -0.01064  -0.00214
 Alpha virt. eigenvalues --   -0.00085   0.00215   0.00287   0.00681   0.00732

  Beta  occ. eigenvalues --  -38.46107 -38.45151 -38.43890 -38.43770 -38.43594
  Beta  occ. eigenvalues --  -38.43409 -38.42104  -2.21857  -2.20915  -2.19762
  Beta  occ. eigenvalues --   -2.19608  -2.19510  -2.19310  -2.17985  -1.15571
  Beta  occ. eigenvalues --   -1.15536  -1.15462  -1.14602  -1.14580  -1.14550
  Beta  occ. eigenvalues --   -1.13491  -1.13440  -1.13386  -1.13320  -1.13271
  Beta  occ. eigenvalues --   -1.13245  -1.13225  -1.13198  -1.13123  -1.12991
  Beta  occ. eigenvalues --   -1.12985  -1.12920  -1.11680  -1.11638  -1.11614
  Beta  occ. eigenvalues --   -0.17889  -0.14093  -0.10539
  Beta virt. eigenvalues --   -0.07413  -0.07343  -0.04663  -0.04238  -0.02991
  Beta virt. eigenvalues --   -0.02777  -0.01757  -0.01540  -0.01105  -0.00714
  Beta virt. eigenvalues --   -0.00144  -0.00046   0.00314   0.00355   0.00747

 Mulliken charges and spin densities:
               1          2
     1  Na   0.622184  -0.000140
     2  Na  -0.538313   0.239654
     3  Na   0.159543   0.238995
     4  Na  -0.557279   0.104178
     5  Na  -0.272321   0.206600
     6  Na   0.472953   0.153450
     7  Na   0.113233   0.057263
 Sum of Mulliken charges =  -0.00000   1.00000

 Dipole moment (field-independent basis, Debye):
    X=             -0.7349    Y=              0.0853    Z=             -0.5330  Tot=              0.9118
 Quadrupole moment (field-independent basis, Debye-Ang):
   XX=            -50.6237   YY=            -77.3060   ZZ=            -68.8546
   XY=             -0.4070   XZ=              0.5181   YZ=             -2.3562

 Normal termination of Gaussian 16 at Thu Dec  7 12:00:54 2023.
