 Gaussian 16, Revision B.01,
 Gaussian 16:  ES64L-G16RevB.01 20-Dec-2017

 -------------------------
 #P B3LYP/6-311+g(d) force
 -------------------------

 -----
 DPGEN
 -----
 Symbolic Z-matrix:
 Charge =  0 Multiplicity = 2

                         Standard orientation:
 ---------------------------------------------------------------------
 Center     Atomic      Atomic             Coordinates (Angstroms)
 Number     Number       Type             X           Y           Z
 ---------------------------------------------------------------------
      1         11           0        1.539164   -0.509007    1.853964
      2         11           0        1.239290   -1.882075   -1.143378
      3         11           0        3.412089    0.278412   -0.715569
      4         11           0        0.974345    2.525403    0.308372
      5         11           0       -3.344025    2.043997   -0.460665
      6         11           0       -1.040197   -0.167121   -0.229015
      7         11           0       -2.780666   -2.289609    0.386292
 ---------------------------------------------------------------------

 SCF Done:  E(UB3LYP) =  -1136.11119997     A.U. after   24 cycles

 The electronic state is 2-A.
 Alpha  occ. eigenvalues --  -38.45199 -38.44419 -38.44244 -38.43940 -38.43739
 Alpha  occ. eigenvalues --  -38.43720 -38.42876  -2.21009  -2.20323  -2.20026
 Alpha  occ. eigenvalues --   -2.19879  -2.19674  -2.19548  -2.18975  -1.14772
 Alpha  occ. eigenvalues --   -1.14649  -1.14604  -1.14013  -1.13985  -1.13948
 Alpha  occ. eigenvalues --   -1.13698  -1.13684  -1.13649  -1.13568  -1.13526
 Alpha  occ. eigenvalues --   -1.13484  -1.13414  -1.13306  -1.13270  -1.13244
 Alpha  occ. eigenvalues --   -1.13221  -1.13160  -1.12690  -1.12630  -1.12582
 Alpha  occ. eigenvalues --   -0.18605  -0.13864  -0.11834  -0.10357
 Alpha virt. eigenvalues --   -0.06471  -0.06304  -0.03822  -0.03300  -0.02447
 Alpha virt. eigenvalues --   -0.02291  -0.01736  -0.01637  -0.00685  -0.00210
 Alpha virt. eigenvalues --   -0.00118   0.00131   0.00530   0.00629   0.00641

  Beta  occ. eigenvalues --  -38.45200 -38.44377 -38.44220 -38.43869 -38.43713
  Beta  occ. eigenvalues --  -38.43701 -38.42865  -2.21011  -2.20250  -2.19981
  Beta  occ. eigenvalues --   -2.19749  -2.19609  -2.19538  -2.18958  -1.14774
  Beta  occ. eigenvalues --   -1.14647  -1.14603  -1.13965  -1.13928  -1.13878
  Beta  occ. eigenvalues --   -1.13668  -1.13654  -1.13620  -1.13483  -1.13431
  Beta  occ. eigenvalues --   -1.13391  -1.13371  -1.13263  -1.13240  -1.13196
  Beta  occ. eigenvalues --   -1.13193  -1.13150  -1.12685  -1.12595  -1.12556
  Beta  occ. eigenvalues --   -0.17982  -0.13564  -0.11569
  Beta virt. eigenvalues --   -0.06649  -0.06321  -0.05983  -0.03763  -0.02745
  Beta virt. eigenvalues --   -0.02268  -0.01716  -0.01534  -0.01010  -0.00573
  Beta virt. eigenvalues --   -0.00081   0.00064   0.00241   0.00646   0.00706

 Mulliken charges and spin densities:
               1          2
     1  Na  -0.023185   0.228249
     2  Na   0.697971   0.120787
     3  Na   0.208659   0.179430
     4  Na   0.535140   0.034868
     5  Na   0.325642   0.091515
     6  Na  -2.134802   0.391395
     7  Na   0.390575  -0.046245
 Sum of Mulliken charges =  -0.00000   1.00000

 Dipole moment (field-independent basis, Debye):
    X=             -0.2975    Y=             -0.3444    Z=              0.6895  Tot=              0.8262
 Quadrupole moment (field-independent basis, Debye-Ang):
   XX=            -51.9936   YY=            -66.1410   ZZ=            -73.5599
   XY=              4.7098   XZ=              0.2896   YZ=             -2.4105

 Normal termination of Gaussian 16 at Thu Dec  7 10:18:12 2023.
