 Gaussian 16, Revision B.01,
 Gaussian 16:  ES64L-G16RevB.01 20-Dec-2017

 -------------------------
 #P B3LYP/6-311+g(d) force
 -------------------------

 -----
 DPGEN
 -----
 Symbolic Z-matrix:
 Charge =  0 Multiplicity = 2

                         Standard orientation:
 ---------------------------------------------------------------------
 Center     Atomic      Atomic             Coordinates (Angstroms)
 Number     Number       Type             X           Y           Z
 ---------------------------------------------------------------------
      1         11           0        1.827394    2.490858   -0.231699
      2         11           0       -1.856909    2.191972   -0.786625
      3         11           0       -2.517384   -1.719532   -1.274422
      4         11           0       -0.093830   -2.191364    1.466294
      5         11           0        0.384441   -0.717338   -1.389503
      6         11           0        3.567881   -0.986101   -0.136757
      7         11           0       -1.311593    0.931506    2.352712
 ---------------------------------------------------------------------

 SCF Done:  E(UB3LYP) =  -1136.12868273     A.U. after   19 cycles

 The electronic state is 2-A.
 Alpha  occ. eigenvalues --  -38.44530 -38.44063 -38.43964 -38.43950 -38.43856
 Alpha  occ. eigenvalues --  -38.43515 -38.43257  -2.20353  -2.19827  -2.19807
 Alpha  occ. eigenvalues --   -2.19796  -2.19629  -2.19328  -2.19216  -1.14016
 Alpha  occ. eigenvalues --   -1.13993  -1.13965  -1.13530  -1.13521  -1.13499
 Alpha  occ. eigenvalues --   -1.13492  -1.13448  -1.13439  -1.13432  -1.13427
 Alpha  occ. eigenvalues --   -1.13400  -1.13312  -1.13282  -1.13267  -1.13007
 Alpha  occ. eigenvalues --   -1.12997  -1.12954  -1.12910  -1.12854  -1.12841
 Alpha  occ. eigenvalues --   -0.17821  -0.12491  -0.12080  -0.11791
 Alpha virt. eigenvalues --   -0.05606  -0.05145  -0.04479  -0.03510  -0.03222
 Alpha virt. eigenvalues --   -0.03005  -0.01507  -0.01092  -0.00493  -0.00125
 Alpha virt. eigenvalues --   -0.00020   0.00333   0.00523   0.00726   0.00798

  Beta  occ. eigenvalues --  -38.44443 -38.44062 -38.43927 -38.43905 -38.43859
  Beta  occ. eigenvalues --  -38.43508 -38.43225  -2.20195  -2.19826  -2.19741
  Beta  occ. eigenvalues --   -2.19716  -2.19636  -2.19315  -2.19159  -1.13903
  Beta  occ. eigenvalues --   -1.13891  -1.13847  -1.13513  -1.13499  -1.13475
  Beta  occ. eigenvalues --   -1.13441  -1.13441  -1.13391  -1.13383  -1.13362
  Beta  occ. eigenvalues --   -1.13351  -1.13315  -1.13286  -1.13273  -1.12993
  Beta  occ. eigenvalues --   -1.12985  -1.12942  -1.12870  -1.12814  -1.12788
  Beta  occ. eigenvalues --   -0.17099  -0.12277  -0.11961
  Beta virt. eigenvalues --   -0.07688  -0.05565  -0.04978  -0.04061  -0.03089
  Beta virt. eigenvalues --   -0.02624  -0.02156  -0.01385  -0.01058  -0.00173
  Beta virt. eigenvalues --   -0.00099   0.00034   0.00384   0.00660   0.00767

 Mulliken charges and spin densities:
               1          2
     1  Na  -0.176767  -0.004845
     2  Na  -0.161940   0.099092
     3  Na   0.400771  -0.026935
     4  Na  -0.401364   0.457579
     5  Na   0.021815   0.280731
     6  Na   0.320228  -0.058163
     7  Na  -0.002743   0.252540
 Sum of Mulliken charges =  -0.00000   1.00000

 Dipole moment (field-independent basis, Debye):
    X=             -0.1083    Y=             -0.0043    Z=              0.3457  Tot=              0.3622
 Quadrupole moment (field-independent basis, Debye-Ang):
   XX=            -59.2222   YY=            -67.3904   ZZ=            -68.1629
   XY=              0.6245   XZ=              2.7468   YZ=             -0.9793

 Normal termination of Gaussian 16 at Mon Dec  4 03:12:53 2023.
