 Gaussian 16, Revision B.01,
 Gaussian 16:  ES64L-G16RevB.01 20-Dec-2017

 -------------------------
 #P B3LYP/6-311+g(d) force
 -------------------------

 -----
 DPGEN
 -----
 Symbolic Z-matrix:
 Charge =  0 Multiplicity = 2

                         Standard orientation:
 ---------------------------------------------------------------------
 Center     Atomic      Atomic             Coordinates (Angstroms)
 Number     Number       Type             X           Y           Z
 ---------------------------------------------------------------------
      1         11           0        1.296468    3.761493    0.351030
      2         11           0       -4.448259   -0.229404   -0.551564
      3         11           0        3.360776   -2.035690   -0.937112
      4         11           0       -2.236479   -2.091669    1.373482
      5         11           0        0.827002   -3.711016   -0.130888
      6         11           0       -2.162630    2.741187   -0.682945
      7         11           0        3.363122    1.565099    0.577997
 ---------------------------------------------------------------------

 SCF Done:  E(UB3LYP) =  -1136.10649519     A.U. after   22 cycles

 The electronic state is 2-A.
 Alpha  occ. eigenvalues --  -38.45192 -38.44768 -38.44698 -38.44479 -38.44251
 Alpha  occ. eigenvalues --  -38.44219 -38.44199  -2.20935  -2.20552  -2.20510
 Alpha  occ. eigenvalues --   -2.20251  -2.20042  -2.20030  -2.20007  -1.14621
 Alpha  occ. eigenvalues --   -1.14601  -1.14588  -1.14236  -1.14223  -1.14213
 Alpha  occ. eigenvalues --   -1.14206  -1.14162  -1.14141  -1.13914  -1.13899
 Alpha  occ. eigenvalues --   -1.13860  -1.13696  -1.13694  -1.13688  -1.13687
 Alpha  occ. eigenvalues --   -1.13670  -1.13662  -1.13659  -1.13652  -1.13644
 Alpha  occ. eigenvalues --   -0.15532  -0.13724  -0.13583  -0.10555
 Alpha virt. eigenvalues --   -0.07801  -0.05048  -0.04453  -0.03651  -0.03334
 Alpha virt. eigenvalues --   -0.02330  -0.01950  -0.01691  -0.01584  -0.01163
 Alpha virt. eigenvalues --   -0.00754  -0.00042   0.00105   0.00283   0.00675

  Beta  occ. eigenvalues --  -38.45211 -38.44764 -38.44660 -38.44399 -38.44213
  Beta  occ. eigenvalues --  -38.44182 -38.44159  -2.20975  -2.20550  -2.20442
  Beta  occ. eigenvalues --   -2.20103  -2.20026  -2.19935  -2.19912  -1.14652
  Beta  occ. eigenvalues --   -1.14630  -1.14586  -1.14230  -1.14226  -1.14176
  Beta  occ. eigenvalues --   -1.14162  -1.14117  -1.14090  -1.13813  -1.13798
  Beta  occ. eigenvalues --   -1.13765  -1.13689  -1.13687  -1.13640  -1.13610
  Beta  occ. eigenvalues --   -1.13605  -1.13605  -1.13600  -1.13591  -1.13580
  Beta  occ. eigenvalues --   -0.15012  -0.13177  -0.12904
  Beta virt. eigenvalues --   -0.07783  -0.07378  -0.04724  -0.03887  -0.03484
  Beta virt. eigenvalues --   -0.02926  -0.02209  -0.01832  -0.01537  -0.01435
  Beta virt. eigenvalues --   -0.00849  -0.00411   0.00158   0.00275   0.00415

 Mulliken charges and spin densities:
               1          2
     1  Na   0.499879   0.003501
     2  Na   0.342399  -0.112369
     3  Na   0.332299   0.181086
     4  Na  -0.386062   0.351803
     5  Na  -0.099519   0.010988
     6  Na  -0.402913   0.408715
     7  Na  -0.286082   0.156276
 Sum of Mulliken charges =  -0.00000   1.00000

 Dipole moment (field-independent basis, Debye):
    X=             -0.2280    Y=             -0.2286    Z=             -0.1524  Tot=              0.3570
 Quadrupole moment (field-independent basis, Debye-Ang):
   XX=            -60.2047   YY=            -68.6907   ZZ=            -71.9732
   XY=              1.3333   XZ=              1.8338   YZ=              0.3692

 Normal termination of Gaussian 16 at Mon Dec  4 02:09:47 2023.
