 Gaussian 16, Revision B.01,
 Gaussian 16:  ES64L-G16RevB.01 20-Dec-2017

 -------------------------
 #P B3LYP/6-311+g(d) force
 -------------------------

 -----
 DPGEN
 -----
 Symbolic Z-matrix:
 Charge =  0 Multiplicity = 2

                         Standard orientation:
 ---------------------------------------------------------------------
 Center     Atomic      Atomic             Coordinates (Angstroms)
 Number     Number       Type             X           Y           Z
 ---------------------------------------------------------------------
      1         11           0       -1.174684    2.827886   -0.022616
      2         11           0        2.517267    1.604825    0.084931
      3         11           0        2.584284   -1.582284   -1.020378
      4         11           0       -0.145698    0.045972   -1.255251
      5         11           0       -1.359843   -2.632961    0.404803
      6         11           0        0.782522   -0.262536    2.146905
      7         11           0       -3.203848   -0.000903   -0.338395
 ---------------------------------------------------------------------

 SCF Done:  E(UB3LYP) =  -1136.13348811     A.U. after   20 cycles

 The electronic state is 2-A.
 Alpha  occ. eigenvalues --  -38.44039 -38.43952 -38.43936 -38.43831 -38.43300
 Alpha  occ. eigenvalues --  -38.43220 -38.42932  -2.19900  -2.19811  -2.19811
 Alpha  occ. eigenvalues --   -2.19712  -2.19145  -2.19050  -2.18993  -1.13601
 Alpha  occ. eigenvalues --   -1.13560  -1.13530  -1.13526  -1.13511  -1.13487
 Alpha  occ. eigenvalues --   -1.13460  -1.13433  -1.13400  -1.13368  -1.13330
 Alpha  occ. eigenvalues --   -1.13322  -1.12829  -1.12806  -1.12785  -1.12780
 Alpha  occ. eigenvalues --   -1.12718  -1.12679  -1.12670  -1.12635  -1.12600
 Alpha  occ. eigenvalues --   -0.18607  -0.13478  -0.12089  -0.10901
 Alpha virt. eigenvalues --   -0.05638  -0.05273  -0.04564  -0.03282  -0.02723
 Alpha virt. eigenvalues --   -0.02551  -0.01629  -0.01109  -0.00379  -0.00286
 Alpha virt. eigenvalues --   -0.00010   0.00328   0.00765   0.00842   0.00890

  Beta  occ. eigenvalues --  -38.44037 -38.43927 -38.43910 -38.43734 -38.43293
  Beta  occ. eigenvalues --  -38.43223 -38.42893  -2.19898  -2.19799  -2.19736
  Beta  occ. eigenvalues --   -2.19532  -2.19136  -2.19057  -2.18925  -1.13596
  Beta  occ. eigenvalues --   -1.13552  -1.13527  -1.13511  -1.13458  -1.13449
  Beta  occ. eigenvalues --   -1.13431  -1.13375  -1.13367  -1.13250  -1.13213
  Beta  occ. eigenvalues --   -1.13191  -1.12824  -1.12785  -1.12776  -1.12772
  Beta  occ. eigenvalues --   -1.12717  -1.12675  -1.12620  -1.12583  -1.12560
  Beta  occ. eigenvalues --   -0.17939  -0.13209  -0.11871
  Beta virt. eigenvalues --   -0.06966  -0.05546  -0.05153  -0.04478  -0.02649
  Beta virt. eigenvalues --   -0.02051  -0.01622  -0.01436  -0.01002  -0.00313
  Beta virt. eigenvalues --   -0.00305   0.00140   0.00394   0.00857   0.00877

 Mulliken charges and spin densities:
               1          2
     1  Na  -0.112444  -0.003608
     2  Na   0.342689   0.128927
     3  Na   0.152574   0.151977
     4  Na  -0.088974   0.064225
     5  Na   0.011343   0.043018
     6  Na  -0.410556   0.606443
     7  Na   0.105367   0.009017
 Sum of Mulliken charges =  -0.00000   1.00000

 Dipole moment (field-independent basis, Debye):
    X=              0.1263    Y=             -0.0534    Z=              0.2687  Tot=              0.3017
 Quadrupole moment (field-independent basis, Debye-Ang):
   XX=            -55.6991   YY=            -64.0436   ZZ=            -73.6076
   XY=              0.3615   XZ=             -1.1354   YZ=              1.0240

 Normal termination of Gaussian 16 at Wed Nov 29 01:58:12 2023.
