 Gaussian 16, Revision B.01,
 Gaussian 16:  ES64L-G16RevB.01 20-Dec-2017

 -------------------------
 #P B3LYP/6-311+g(d) force
 -------------------------

 -----
 DPGEN
 -----
 Symbolic Z-matrix:
 Charge =  0 Multiplicity = 2

                         Standard orientation:
 ---------------------------------------------------------------------
 Center     Atomic      Atomic             Coordinates (Angstroms)
 Number     Number       Type             X           Y           Z
 ---------------------------------------------------------------------
      1         11           0        1.113741    2.878203   -0.118792
      2         11           0       -0.130369   -0.380013   -1.587083
      3         11           0        0.268465    0.189728    2.098425
      4         11           0        0.756798   -3.012891   -0.219653
      5         11           0        3.163090   -0.151005   -0.134994
      6         11           0       -2.394658    2.022878   -0.392221
      7         11           0       -2.777068   -1.546900    0.354317
 ---------------------------------------------------------------------

 SCF Done:  E(UB3LYP) =  -1136.13795344     A.U. after   18 cycles

 The electronic state is 2-A.
 Alpha  occ. eigenvalues --  -38.43993 -38.43990 -38.43780 -38.43725 -38.43668
 Alpha  occ. eigenvalues --  -38.43640 -38.43171  -2.19802  -2.19791  -2.19614
 Alpha  occ. eigenvalues --   -2.19534  -2.19497  -2.19482  -2.19127  -1.13481
 Alpha  occ. eigenvalues --   -1.13467  -1.13464  -1.13456  -1.13438  -1.13430
 Alpha  occ. eigenvalues --   -1.13342  -1.13266  -1.13230  -1.13217  -1.13197
 Alpha  occ. eigenvalues --   -1.13176  -1.13170  -1.13158  -1.13145  -1.13122
 Alpha  occ. eigenvalues --   -1.13114  -1.13105  -1.12810  -1.12765  -1.12745
 Alpha  occ. eigenvalues --   -0.18226  -0.12697  -0.12583  -0.10544
 Alpha virt. eigenvalues --   -0.05582  -0.05301  -0.05049  -0.03082  -0.02916
 Alpha virt. eigenvalues --   -0.02467  -0.01470  -0.01302  -0.00611  -0.00572
 Alpha virt. eigenvalues --   -0.00015   0.00351   0.00808   0.00824   0.00846

  Beta  occ. eigenvalues --  -38.43990 -38.43983 -38.43774 -38.43717 -38.43666
  Beta  occ. eigenvalues --  -38.43543 -38.43116  -2.19799  -2.19781  -2.19607
  Beta  occ. eigenvalues --   -2.19522  -2.19480  -2.19320  -2.19027  -1.13470
  Beta  occ. eigenvalues --   -1.13461  -1.13453  -1.13436  -1.13434  -1.13426
  Beta  occ. eigenvalues --   -1.13328  -1.13249  -1.13225  -1.13200  -1.13183
  Beta  occ. eigenvalues --   -1.13167  -1.13147  -1.13140  -1.13109  -1.13041
  Beta  occ. eigenvalues --   -1.13003  -1.12981  -1.12739  -1.12692  -1.12673
  Beta  occ. eigenvalues --   -0.17526  -0.12496  -0.12342
  Beta virt. eigenvalues --   -0.06686  -0.05557  -0.05293  -0.04924  -0.02337
  Beta virt. eigenvalues --   -0.02191  -0.01439  -0.01371  -0.01210  -0.00653
  Beta virt. eigenvalues --   -0.00620   0.00133   0.00385   0.00817   0.00844

 Mulliken charges and spin densities:
               1          2
     1  Na   0.057229  -0.062447
     2  Na  -0.058408   0.421015
     3  Na  -0.413992   0.788443
     4  Na   0.223898  -0.052777
     5  Na   0.107027  -0.087926
     6  Na   0.059393  -0.031939
     7  Na   0.024852   0.025631
 Sum of Mulliken charges =  -0.00000   1.00000

 Dipole moment (field-independent basis, Debye):
    X=              0.0590    Y=             -0.1269    Z=              0.1215  Tot=              0.1854
 Quadrupole moment (field-independent basis, Debye-Ang):
   XX=            -57.5268   YY=            -59.9961   ZZ=            -75.4283
   XY=              0.3003   XZ=             -0.9599   YZ=             -1.4154

 Normal termination of Gaussian 16 at Thu Dec  7 18:04:29 2023.
