 Gaussian 16, Revision B.01,
 Gaussian 16:  ES64L-G16RevB.01 20-Dec-2017

 -------------------------
 #P B3LYP/6-311+g(d) force
 -------------------------

 -----
 DPGEN
 -----
 Symbolic Z-matrix:
 Charge =  0 Multiplicity = 2

                         Standard orientation:
 ---------------------------------------------------------------------
 Center     Atomic      Atomic             Coordinates (Angstroms)
 Number     Number       Type             X           Y           Z
 ---------------------------------------------------------------------
      1         11           0        0.086294   -0.618117    2.327030
      2         11           0        0.960527    2.835062   -0.594849
      3         11           0       -3.432169   -1.335085   -0.085148
      4         11           0        2.742718    0.398327    0.505434
      5         11           0        2.067834   -2.527344   -0.710841
      6         11           0       -0.396440   -0.360364   -1.692532
      7         11           0       -2.028765    1.607522    0.250906
 ---------------------------------------------------------------------

 SCF Done:  E(UB3LYP) =  -1136.12981456     A.U. after   22 cycles

 The electronic state is 2-A.
 Alpha  occ. eigenvalues --  -38.44599 -38.44386 -38.43988 -38.43860 -38.43657
 Alpha  occ. eigenvalues --  -38.43548 -38.42639  -2.20429  -2.20184  -2.19878
 Alpha  occ. eigenvalues --   -2.19771  -2.19561  -2.19378  -2.18501  -1.14089
 Alpha  occ. eigenvalues --   -1.14055  -1.14046  -1.13858  -1.13846  -1.13829
 Alpha  occ. eigenvalues --   -1.13560  -1.13545  -1.13527  -1.13480  -1.13427
 Alpha  occ. eigenvalues --   -1.13388  -1.13245  -1.13232  -1.13169  -1.13043
 Alpha  occ. eigenvalues --   -1.13036  -1.13009  -1.12177  -1.12154  -1.12147
 Alpha  occ. eigenvalues --   -0.18345  -0.13405  -0.11866  -0.11336
 Alpha virt. eigenvalues --   -0.06070  -0.05187  -0.04236  -0.03656  -0.02957
 Alpha virt. eigenvalues --   -0.02800  -0.01800  -0.01072  -0.00356  -0.00201
 Alpha virt. eigenvalues --    0.00082   0.00348   0.00526   0.00778   0.00817

  Beta  occ. eigenvalues --  -38.44495 -38.44390 -38.43980 -38.43801 -38.43650
  Beta  occ. eigenvalues --  -38.43534 -38.42634  -2.20237  -2.20194  -2.19866
  Beta  occ. eigenvalues --   -2.19663  -2.19551  -2.19354  -2.18495  -1.13960
  Beta  occ. eigenvalues --   -1.13919  -1.13912  -1.13866  -1.13844  -1.13834
  Beta  occ. eigenvalues --   -1.13545  -1.13528  -1.13511  -1.13410  -1.13353
  Beta  occ. eigenvalues --   -1.13312  -1.13231  -1.13197  -1.13167  -1.13024
  Beta  occ. eigenvalues --   -1.13015  -1.12988  -1.12175  -1.12148  -1.12133
  Beta  occ. eigenvalues --   -0.17606  -0.13250  -0.11659
  Beta virt. eigenvalues --   -0.07359  -0.05939  -0.05063  -0.04067  -0.02962
  Beta virt. eigenvalues --   -0.02217  -0.02004  -0.01670  -0.00966  -0.00367
  Beta virt. eigenvalues --   -0.00060   0.00160   0.00379   0.00744   0.00826

 Mulliken charges and spin densities:
               1          2
     1  Na  -0.258029   0.390659
     2  Na  -0.107693  -0.072372
     3  Na   0.040803  -0.009597
     4  Na   0.246104   0.251878
     5  Na  -0.051268   0.005084
     6  Na  -0.045983   0.229734
     7  Na   0.176066   0.204613
 Sum of Mulliken charges =  -0.00000   1.00000

 Dipole moment (field-independent basis, Debye):
    X=             -0.5835    Y=             -0.6471    Z=              0.2485  Tot=              0.9060
 Quadrupole moment (field-independent basis, Debye-Ang):
   XX=            -57.4109   YY=            -67.1756   ZZ=            -71.0318
   XY=              1.8427   XZ=             -0.6847   YZ=              0.5587

 Normal termination of Gaussian 16 at Fri Dec  8 05:31:35 2023.
