 Gaussian 16, Revision B.01,
 Gaussian 16:  ES64L-G16RevB.01 20-Dec-2017

 -------------------------
 #P B3LYP/6-311+g(d) force
 -------------------------

 -----
 DPGEN
 -----
 Symbolic Z-matrix:
 Charge =  0 Multiplicity = 2

                         Standard orientation:
 ---------------------------------------------------------------------
 Center     Atomic      Atomic             Coordinates (Angstroms)
 Number     Number       Type             X           Y           Z
 ---------------------------------------------------------------------
      1         11           0        2.493151    1.832969   -0.133262
      2         11           0       -0.972399    0.625196    1.575100
      3         11           0       -2.075837   -2.666946   -0.196662
      4         11           0        1.465928   -1.461434   -0.428429
      5         11           0        4.690404   -1.104443    0.061466
      6         11           0       -4.553375   -0.208829   -0.249642
      7         11           0       -1.047871    2.983488   -0.628571
 ---------------------------------------------------------------------

 SCF Done:  E(UB3LYP) =  -1136.12370356     A.U. after   20 cycles

 The electronic state is 2-A.
 Alpha  occ. eigenvalues --  -38.44912 -38.44777 -38.43996 -38.43898 -38.43773
 Alpha  occ. eigenvalues --  -38.43617 -38.43536  -2.20729  -2.20572  -2.19790
 Alpha  occ. eigenvalues --   -2.19718  -2.19575  -2.19407  -2.19397  -1.14426
 Alpha  occ. eigenvalues --   -1.14407  -1.14334  -1.14287  -1.14267  -1.14151
 Alpha  occ. eigenvalues --   -1.13468  -1.13458  -1.13412  -1.13385  -1.13371
 Alpha  occ. eigenvalues --   -1.13339  -1.13229  -1.13211  -1.13195  -1.13094
 Alpha  occ. eigenvalues --   -1.13089  -1.13083  -1.13062  -1.13049  -1.12990
 Alpha  occ. eigenvalues --   -0.17006  -0.13888  -0.12154  -0.10358
 Alpha virt. eigenvalues --   -0.06296  -0.05832  -0.04810  -0.03364  -0.02741
 Alpha virt. eigenvalues --   -0.02349  -0.02028  -0.01477  -0.00950  -0.00716
 Alpha virt. eigenvalues --   -0.00398  -0.00157   0.00451   0.00555   0.00596

  Beta  occ. eigenvalues --  -38.44896 -38.44773 -38.43999 -38.43858 -38.43683
  Beta  occ. eigenvalues --  -38.43608 -38.43505  -2.20702  -2.20566  -2.19796
  Beta  occ. eigenvalues --   -2.19642  -2.19407  -2.19396  -2.19345  -1.14408
  Beta  occ. eigenvalues --   -1.14366  -1.14321  -1.14285  -1.14262  -1.14136
  Beta  occ. eigenvalues --   -1.13474  -1.13462  -1.13411  -1.13336  -1.13319
  Beta  occ. eigenvalues --   -1.13288  -1.13115  -1.13102  -1.13091  -1.13088
  Beta  occ. eigenvalues --   -1.13060  -1.13051  -1.13048  -1.13001  -1.12924
  Beta  occ. eigenvalues --   -0.16503  -0.13339  -0.11901
  Beta virt. eigenvalues --   -0.06854  -0.06185  -0.05637  -0.04309  -0.02973
  Beta virt. eigenvalues --   -0.02543  -0.02065  -0.01712  -0.01219  -0.00758
  Beta virt. eigenvalues --   -0.00510  -0.00126   0.00108   0.00576   0.00628

 Mulliken charges and spin densities:
               1          2
     1  Na  -0.001052   0.064295
     2  Na   0.073133   0.033527
     3  Na   0.244210  -0.055730
     4  Na  -1.096138   0.140452
     5  Na   0.843831   0.268668
     6  Na  -0.068000   0.548133
     7  Na   0.004017   0.000654
 Sum of Mulliken charges =  -0.00000   1.00000

 Dipole moment (field-independent basis, Debye):
    X=              1.0191    Y=              0.6224    Z=              0.1808  Tot=              1.2077
 Quadrupole moment (field-independent basis, Debye-Ang):
   XX=            -68.0680   YY=            -66.9802   ZZ=            -66.8815
   XY=             -1.1647   XZ=              1.3284   YZ=             -1.3528

 Normal termination of Gaussian 16 at Wed Nov 29 01:50:42 2023.
