 Gaussian 16, Revision B.01,
 Gaussian 16:  ES64L-G16RevB.01 20-Dec-2017

 -------------------------
 #P B3LYP/6-311+g(d) force
 -------------------------

 -----
 DPGEN
 -----
 Symbolic Z-matrix:
 Charge =  0 Multiplicity = 2

                         Standard orientation:
 ---------------------------------------------------------------------
 Center     Atomic      Atomic             Coordinates (Angstroms)
 Number     Number       Type             X           Y           Z
 ---------------------------------------------------------------------
      1         11           0       -6.046791    2.180368   -1.148536
      2         11           0       -5.589309    0.222881    1.275521
      3         11           0       -0.596892   -0.646632    0.970246
      4         11           0       -3.540581   -1.736790   -0.582446
      5         11           0        2.570880   -1.489669   -0.215311
      6         11           0        7.448430    1.928188    0.577299
      7         11           0        5.754262   -0.458346   -0.876773
 ---------------------------------------------------------------------

 SCF Done:  E(UB3LYP) =  -1136.10796211     A.U. after   19 cycles

 The electronic state is 2-A.
 Alpha  occ. eigenvalues --  -38.45017 -38.44979 -38.44776 -38.44278 -38.43945
 Alpha  occ. eigenvalues --  -38.43741 -38.43537  -2.20827  -2.20794  -2.20584
 Alpha  occ. eigenvalues --   -2.20070  -2.19710  -2.19549  -2.19330  -1.14510
 Alpha  occ. eigenvalues --   -1.14491  -1.14480  -1.14465  -1.14447  -1.14410
 Alpha  occ. eigenvalues --   -1.14227  -1.14224  -1.14192  -1.13712  -1.13711
 Alpha  occ. eigenvalues --   -1.13702  -1.13399  -1.13390  -1.13365  -1.13207
 Alpha  occ. eigenvalues --   -1.13203  -1.13167  -1.13006  -1.13000  -1.12986
 Alpha  occ. eigenvalues --   -0.15746  -0.14167  -0.12440  -0.10796
 Alpha virt. eigenvalues --   -0.06834  -0.05884  -0.04314  -0.03247  -0.02852
 Alpha virt. eigenvalues --   -0.02650  -0.02221  -0.01947  -0.01202  -0.01057
 Alpha virt. eigenvalues --   -0.00662  -0.00536  -0.00071   0.00293   0.00357

  Beta  occ. eigenvalues --  -38.44986 -38.44956 -38.44712 -38.44206 -38.43973
  Beta  occ. eigenvalues --  -38.43676 -38.43551  -2.20812  -2.20714  -2.20463
  Beta  occ. eigenvalues --   -2.19936  -2.19765  -2.19427  -2.19361  -1.14494
  Beta  occ. eigenvalues --   -1.14485  -1.14451  -1.14407  -1.14382  -1.14360
  Beta  occ. eigenvalues --   -1.14145  -1.14138  -1.14121  -1.13620  -1.13618
  Beta  occ. eigenvalues --   -1.13616  -1.13441  -1.13432  -1.13371  -1.13123
  Beta  occ. eigenvalues --   -1.13120  -1.13104  -1.13033  -1.13024  -1.12961
  Beta  occ. eigenvalues --   -0.15263  -0.13575  -0.11861
  Beta virt. eigenvalues --   -0.07758  -0.06231  -0.05675  -0.04066  -0.02983
  Beta virt. eigenvalues --   -0.02685  -0.02417  -0.01940  -0.01572  -0.01079
  Beta virt. eigenvalues --   -0.00753  -0.00466  -0.00290   0.00177   0.00371

 Mulliken charges and spin densities:
               1          2
     1  Na   0.094939   0.309836
     2  Na  -0.074030   0.015756
     3  Na  -0.415925  -0.048509
     4  Na   0.077626   0.212850
     5  Na   0.115508   0.240506
     6  Na   0.053357   0.338467
     7  Na   0.148526  -0.068907
 Sum of Mulliken charges =  -0.00000   1.00000

 Dipole moment (field-independent basis, Debye):
    X=             -2.6537    Y=              0.4704    Z=              0.0437  Tot=              2.6954
 Quadrupole moment (field-independent basis, Debye-Ang):
   XX=            -67.4720   YY=            -67.2691   ZZ=            -63.6577
   XY=              4.9677   XZ=              2.2890   YZ=              2.6388

 Normal termination of Gaussian 16 at Sun Dec  3 19:18:29 2023.
