 Gaussian 16, Revision B.01,
 Gaussian 16:  ES64L-G16RevB.01 20-Dec-2017

 -------------------------
 #P B3LYP/6-311+g(d) force
 -------------------------

 -----
 DPGEN
 -----
 Symbolic Z-matrix:
 Charge =  0 Multiplicity = 2

                         Standard orientation:
 ---------------------------------------------------------------------
 Center     Atomic      Atomic             Coordinates (Angstroms)
 Number     Number       Type             X           Y           Z
 ---------------------------------------------------------------------
      1         11           0       -3.294668   -1.589047   -1.396355
      2         11           0        2.571948    0.335233    0.699568
      3         11           0        5.167079   -1.581533    0.018714
      4         11           0       -0.672029   -2.109999   -0.462123
      5         11           0       -2.305917    1.848750   -0.507936
      6         11           0        1.470460    3.179637   -0.711981
      7         11           0       -2.936873   -0.083041    2.360114
 ---------------------------------------------------------------------

 SCF Done:  E(UB3LYP) =  -1136.10337544     A.U. after   23 cycles

 The electronic state is 2-A.
 Alpha  occ. eigenvalues --  -38.45116 -38.45057 -38.44830 -38.44798 -38.44551
 Alpha  occ. eigenvalues --  -38.43617 -38.43591  -2.20927  -2.20892  -2.20707
 Alpha  occ. eigenvalues --   -2.20551  -2.20332  -2.19401  -2.19399  -1.14741
 Alpha  occ. eigenvalues --   -1.14576  -1.14558  -1.14539  -1.14532  -1.14525
 Alpha  occ. eigenvalues --   -1.14341  -1.14308  -1.14280  -1.14254  -1.14235
 Alpha  occ. eigenvalues --   -1.14182  -1.13981  -1.13979  -1.13962  -1.13111
 Alpha  occ. eigenvalues --   -1.13085  -1.13075  -1.13057  -1.13018  -1.13003
 Alpha  occ. eigenvalues --   -0.16954  -0.13871  -0.11857  -0.11002
 Alpha virt. eigenvalues --   -0.07324  -0.05761  -0.04539  -0.03258  -0.03017
 Alpha virt. eigenvalues --   -0.02636  -0.02234  -0.01710  -0.01213  -0.00858
 Alpha virt. eigenvalues --   -0.00585  -0.00214  -0.00066   0.00407   0.00471

  Beta  occ. eigenvalues --  -38.45044 -38.45002 -38.44825 -38.44798 -38.44495
  Beta  occ. eigenvalues --  -38.43596 -38.43581  -2.20871  -2.20713  -2.20650
  Beta  occ. eigenvalues --   -2.20606  -2.20226  -2.19414  -2.19334  -1.14708
  Beta  occ. eigenvalues --   -1.14523  -1.14513  -1.14429  -1.14415  -1.14387
  Beta  occ. eigenvalues --   -1.14310  -1.14278  -1.14274  -1.14252  -1.14250
  Beta  occ. eigenvalues --   -1.14209  -1.13909  -1.13906  -1.13892  -1.13111
  Beta  occ. eigenvalues --   -1.13096  -1.13054  -1.13014  -1.12979  -1.12973
  Beta  occ. eigenvalues --   -0.16528  -0.13348  -0.11264
  Beta virt. eigenvalues --   -0.07595  -0.06995  -0.05605  -0.04373  -0.03044
  Beta virt. eigenvalues --   -0.02669  -0.02113  -0.01738  -0.01480  -0.01097
  Beta virt. eigenvalues --   -0.00516  -0.00367  -0.00042   0.00087   0.00480

 Mulliken charges and spin densities:
               1          2
     1  Na   0.983444   0.109649
     2  Na  -0.733580   0.032480
     3  Na   0.192431   0.263530
     4  Na  -0.726975   0.037110
     5  Na  -0.323064  -0.004773
     6  Na   0.492469   0.059114
     7  Na   0.115275   0.502889
 Sum of Mulliken charges =  -0.00000   1.00000

 Dipole moment (field-independent basis, Debye):
    X=             -1.1698    Y=             -0.8012    Z=             -0.2839  Tot=              1.4460
 Quadrupole moment (field-independent basis, Debye-Ang):
   XX=            -56.4375   YY=            -73.1698   ZZ=            -69.9669
   XY=             -0.0383   XZ=              1.7310   YZ=             -3.0814

 Normal termination of Gaussian 16 at Sun Dec  3 22:23:17 2023.
