 Gaussian 16, Revision B.01,
 Gaussian 16:  ES64L-G16RevB.01 20-Dec-2017

 -------------------------
 #P B3LYP/6-311+g(d) force
 -------------------------

 -----
 DPGEN
 -----
 Symbolic Z-matrix:
 Charge =  0 Multiplicity = 2

                         Standard orientation:
 ---------------------------------------------------------------------
 Center     Atomic      Atomic             Coordinates (Angstroms)
 Number     Number       Type             X           Y           Z
 ---------------------------------------------------------------------
      1         11           0        2.843569    0.804766    1.041976
      2         11           0        1.608654    3.541789   -0.354823
      3         11           0       -3.951787    0.797328   -0.861834
      4         11           0        4.321609   -2.095107   -0.135840
      5         11           0       -5.806567   -1.325551    0.768792
      6         11           0       -0.196414    1.047446    0.149308
      7         11           0        1.180937   -2.770671   -0.607580
 ---------------------------------------------------------------------

 SCF Done:  E(UB3LYP) =  -1136.11389626     A.U. after   19 cycles

 The electronic state is 2-A.
 Alpha  occ. eigenvalues --  -38.44563 -38.44404 -38.44296 -38.44069 -38.43999
 Alpha  occ. eigenvalues --  -38.43844 -38.43819  -2.20402  -2.20197  -2.20180
 Alpha  occ. eigenvalues --   -2.19856  -2.19818  -2.19734  -2.19588  -1.14084
 Alpha  occ. eigenvalues --   -1.14062  -1.14049  -1.13897  -1.13867  -1.13854
 Alpha  occ. eigenvalues --   -1.13844  -1.13839  -1.13766  -1.13505  -1.13503
 Alpha  occ. eigenvalues --   -1.13498  -1.13478  -1.13475  -1.13451  -1.13422
 Alpha  occ. eigenvalues --   -1.13386  -1.13335  -1.13266  -1.13252  -1.13231
 Alpha  occ. eigenvalues --   -0.16811  -0.13395  -0.12773  -0.10325
 Alpha virt. eigenvalues --   -0.06366  -0.06129  -0.04147  -0.03919  -0.02815
 Alpha virt. eigenvalues --   -0.02426  -0.02052  -0.01437  -0.01094  -0.00754
 Alpha virt. eigenvalues --   -0.00182  -0.00131  -0.00072   0.00370   0.00586

  Beta  occ. eigenvalues --  -38.44558 -38.44366 -38.44257 -38.44015 -38.43983
  Beta  occ. eigenvalues --  -38.43833 -38.43801  -2.20394  -2.20127  -2.20110
  Beta  occ. eigenvalues --   -2.19789  -2.19755  -2.19655  -2.19619  -1.14076
  Beta  occ. eigenvalues --   -1.14050  -1.14039  -1.13830  -1.13820  -1.13810
  Beta  occ. eigenvalues --   -1.13795  -1.13788  -1.13717  -1.13459  -1.13443
  Beta  occ. eigenvalues --   -1.13441  -1.13436  -1.13433  -1.13430  -1.13368
  Beta  occ. eigenvalues --   -1.13337  -1.13290  -1.13277  -1.13268  -1.13221
  Beta  occ. eigenvalues --   -0.16247  -0.13099  -0.12454
  Beta virt. eigenvalues --   -0.07059  -0.06025  -0.05577  -0.03822  -0.03564
  Beta virt. eigenvalues --   -0.02444  -0.02322  -0.01947  -0.01104  -0.01024
  Beta virt. eigenvalues --   -0.00402   0.00001   0.00108   0.00150   0.00524

 Mulliken charges and spin densities:
               1          2
     1  Na   0.542863   0.480746
     2  Na   1.054608   0.190322
     3  Na  -0.396486  -0.103796
     4  Na   0.527016   0.191070
     5  Na   0.071948   0.207143
     6  Na  -1.703261  -0.074381
     7  Na  -0.096688   0.108897
 Sum of Mulliken charges =  -0.00000   1.00000

 Dipole moment (field-independent basis, Debye):
    X=              1.1585    Y=              0.3816    Z=             -0.3117  Tot=              1.2589
 Quadrupole moment (field-independent basis, Debye-Ang):
   XX=            -70.6683   YY=            -57.7776   ZZ=            -69.5367
   XY=              2.6936   XZ=             -3.1205   YZ=             -4.2969

 Normal termination of Gaussian 16 at Wed Nov 29 00:34:39 2023.
