 Gaussian 16, Revision B.01,
 Gaussian 16:  ES64L-G16RevB.01 20-Dec-2017

 -------------------------
 #P B3LYP/6-311+g(d) force
 -------------------------

 -----
 DPGEN
 -----
 Symbolic Z-matrix:
 Charge =  0 Multiplicity = 2

                         Standard orientation:
 ---------------------------------------------------------------------
 Center     Atomic      Atomic             Coordinates (Angstroms)
 Number     Number       Type             X           Y           Z
 ---------------------------------------------------------------------
      1         11           0       -0.031217   -0.009893    2.164959
      2         11           0       -3.075606    1.017093   -0.061205
      3         11           0        0.117808   -0.047224   -1.690767
      4         11           0       -1.908386   -2.196801    0.004543
      5         11           0        3.118492    0.754385    0.206759
      6         11           0        1.614740   -2.406406   -0.313734
      7         11           0        0.164169    2.888846   -0.310555
 ---------------------------------------------------------------------

 SCF Done:  E(UB3LYP) =  -1136.13870914     A.U. after   18 cycles

 The electronic state is 2-A.
 Alpha  occ. eigenvalues --  -38.44115 -38.44036 -38.43919 -38.43401 -38.43327
 Alpha  occ. eigenvalues --  -38.43313 -38.43276  -2.19926  -2.19842  -2.19777
 Alpha  occ. eigenvalues --   -2.19262  -2.19257  -2.19186  -2.19162  -1.13598
 Alpha  occ. eigenvalues --   -1.13585  -1.13570  -1.13515  -1.13504  -1.13485
 Alpha  occ. eigenvalues --   -1.13437  -1.13406  -1.13393  -1.13019  -1.12958
 Alpha  occ. eigenvalues --   -1.12949  -1.12929  -1.12897  -1.12874  -1.12839
 Alpha  occ. eigenvalues --   -1.12829  -1.12819  -1.12802  -1.12797  -1.12778
 Alpha  occ. eigenvalues --   -0.18552  -0.12924  -0.12369  -0.10918
 Alpha virt. eigenvalues --   -0.05744  -0.05073  -0.04584  -0.03231  -0.02919
 Alpha virt. eigenvalues --   -0.02781  -0.01587  -0.01056  -0.00370  -0.00276
 Alpha virt. eigenvalues --   -0.00032   0.00361   0.00796   0.00885   0.00905

  Beta  occ. eigenvalues --  -38.44111 -38.44036 -38.43820 -38.43396 -38.43320
  Beta  occ. eigenvalues --  -38.43305 -38.43209  -2.19922  -2.19844  -2.19594
  Beta  occ. eigenvalues --   -2.19257  -2.19175  -2.19152  -2.19135  -1.13586
  Beta  occ. eigenvalues --   -1.13574  -1.13572  -1.13512  -1.13497  -1.13486
  Beta  occ. eigenvalues --   -1.13317  -1.13279  -1.13261  -1.12974  -1.12934
  Beta  occ. eigenvalues --   -1.12909  -1.12897  -1.12890  -1.12818  -1.12809
  Beta  occ. eigenvalues --   -1.12801  -1.12798  -1.12778  -1.12766  -1.12743
  Beta  occ. eigenvalues --   -0.17813  -0.12727  -0.12114
  Beta virt. eigenvalues --   -0.06979  -0.05688  -0.05091  -0.04529  -0.02456
  Beta virt. eigenvalues --   -0.02134  -0.01702  -0.01490  -0.00989  -0.00417
  Beta virt. eigenvalues --   -0.00331   0.00109   0.00378   0.00856   0.00873

 Mulliken charges and spin densities:
               1          2
     1  Na  -0.562099   0.782674
     2  Na   0.038924  -0.080313
     3  Na  -0.143821   0.437622
     4  Na   0.194651  -0.030941
     5  Na   0.095721  -0.005417
     6  Na   0.292963  -0.018752
     7  Na   0.083660  -0.084872
 Sum of Mulliken charges =  -0.00000   1.00000

 Dipole moment (field-independent basis, Debye):
    X=              0.0337    Y=              0.1264    Z=              0.2349  Tot=              0.2689
 Quadrupole moment (field-independent basis, Debye-Ang):
   XX=            -55.8932   YY=            -64.2461   ZZ=            -73.5908
   XY=             -0.1065   XZ=              0.4778   YZ=              0.0322

 Normal termination of Gaussian 16 at Thu Dec  7 19:02:50 2023.
