 Gaussian 16, Revision B.01,
 Gaussian 16:  ES64L-G16RevB.01 20-Dec-2017

 -------------------------
 #P B3LYP/6-311+g(d) force
 -------------------------

 -----
 DPGEN
 -----
 Symbolic Z-matrix:
 Charge =  0 Multiplicity = 2

                         Standard orientation:
 ---------------------------------------------------------------------
 Center     Atomic      Atomic             Coordinates (Angstroms)
 Number     Number       Type             X           Y           Z
 ---------------------------------------------------------------------
      1         11           0        0.476347   -2.705988    0.175056
      2         11           0        3.170384   -0.237793   -0.228834
      3         11           0        0.184928    0.049695    1.959484
      4         11           0        0.137078   -0.090649   -1.780476
      5         11           0        0.940177    2.634802    0.063134
      6         11           0       -2.325175    1.829629   -0.085986
      7         11           0       -2.583740   -1.479695   -0.102377
 ---------------------------------------------------------------------

 SCF Done:  E(UB3LYP) =  -1136.14076874     A.U. after   18 cycles

 The electronic state is 2-A.
 Alpha  occ. eigenvalues --  -38.43980 -38.43508 -38.43489 -38.43440 -38.43309
 Alpha  occ. eigenvalues --  -38.43298 -38.43230  -2.19808  -2.19427  -2.19379
 Alpha  occ. eigenvalues --   -2.19306  -2.19284  -2.19184  -2.19130  -1.13488
 Alpha  occ. eigenvalues --   -1.13462  -1.13450  -1.13113  -1.13089  -1.13073
 Alpha  occ. eigenvalues --   -1.13055  -1.13045  -1.13028  -1.12992  -1.12968
 Alpha  occ. eigenvalues --   -1.12962  -1.12942  -1.12938  -1.12894  -1.12855
 Alpha  occ. eigenvalues --   -1.12840  -1.12802  -1.12794  -1.12787  -1.12741
 Alpha  occ. eigenvalues --   -0.19019  -0.12953  -0.12671  -0.10952
 Alpha virt. eigenvalues --   -0.05513  -0.04916  -0.04667  -0.03140  -0.03048
 Alpha virt. eigenvalues --   -0.02659  -0.01486  -0.00983  -0.00154  -0.00142
 Alpha virt. eigenvalues --   -0.00012   0.00368   0.00846   0.00932   0.00940

  Beta  occ. eigenvalues --  -38.43975 -38.43505 -38.43437 -38.43398 -38.43291
  Beta  occ. eigenvalues --  -38.43235 -38.43221  -2.19802  -2.19377  -2.19304
  Beta  occ. eigenvalues --   -2.19259  -2.19176  -2.19149  -2.19118  -1.13471
  Beta  occ. eigenvalues --   -1.13450  -1.13448  -1.13075  -1.13058  -1.13016
  Beta  occ. eigenvalues --   -1.13008  -1.12982  -1.12963  -1.12948  -1.12938
  Beta  occ. eigenvalues --   -1.12916  -1.12888  -1.12876  -1.12826  -1.12807
  Beta  occ. eigenvalues --   -1.12797  -1.12785  -1.12777  -1.12744  -1.12735
  Beta  occ. eigenvalues --   -0.18266  -0.12707  -0.12407
  Beta virt. eigenvalues --   -0.07010  -0.05489  -0.04928  -0.04630  -0.02354
  Beta virt. eigenvalues --   -0.02207  -0.01584  -0.01401  -0.00918  -0.00209
  Beta virt. eigenvalues --   -0.00197   0.00113   0.00384   0.00893   0.00915

 Mulliken charges and spin densities:
               1          2
     1  Na   0.266707  -0.058912
     2  Na   0.187036  -0.098596
     3  Na  -0.438605   0.705947
     4  Na  -0.406961   0.672415
     5  Na   0.205857  -0.086345
     6  Na   0.080531  -0.072827
     7  Na   0.105435  -0.061682
 Sum of Mulliken charges =  -0.00000   1.00000

 Dipole moment (field-independent basis, Debye):
    X=              0.2425    Y=              0.0029    Z=              0.0360  Tot=              0.2452
 Quadrupole moment (field-independent basis, Debye-Ang):
   XX=            -56.9610   YY=            -63.6445   ZZ=            -73.2582
   XY=             -0.0725   XZ=             -0.1411   YZ=             -0.2634

 Normal termination of Gaussian 16 at Thu Dec  7 02:28:44 2023.
