 Gaussian 16, Revision B.01,
 Gaussian 16:  ES64L-G16RevB.01 20-Dec-2017

 -------------------------
 #P B3LYP/6-311+g(d) force
 -------------------------

 -----
 DPGEN
 -----
 Symbolic Z-matrix:
 Charge =  0 Multiplicity = 2

                         Standard orientation:
 ---------------------------------------------------------------------
 Center     Atomic      Atomic             Coordinates (Angstroms)
 Number     Number       Type             X           Y           Z
 ---------------------------------------------------------------------
      1         11           0        0.310180    0.257484   -1.445089
      2         11           0       -0.415641    2.262630    0.560405
      3         11           0        0.660984   -1.191964    2.050436
      4         11           0       -2.378079   -1.881689    0.197254
      5         11           0        3.102528    1.762072    0.141360
      6         11           0        2.453081   -2.069913   -1.011862
      7         11           0       -3.733053    0.861380   -0.492505
 ---------------------------------------------------------------------

 SCF Done:  E(UB3LYP) =  -1136.12267738     A.U. after   21 cycles

 The electronic state is 2-A.
 Alpha  occ. eigenvalues --  -38.44955 -38.44495 -38.44174 -38.43962 -38.43611
 Alpha  occ. eigenvalues --  -38.43422 -38.43340  -2.20732  -2.20306  -2.19993
 Alpha  occ. eigenvalues --   -2.19919  -2.19441  -2.19263  -2.19214  -1.14410
 Alpha  occ. eigenvalues --   -1.14379  -1.14372  -1.14006  -1.13965  -1.13931
 Alpha  occ. eigenvalues --   -1.13695  -1.13663  -1.13653  -1.13628  -1.13573
 Alpha  occ. eigenvalues --   -1.13520  -1.13121  -1.13080  -1.13062  -1.12945
 Alpha  occ. eigenvalues --   -1.12929  -1.12892  -1.12880  -1.12860  -1.12789
 Alpha  occ. eigenvalues --   -0.18038  -0.13587  -0.11670  -0.10663
 Alpha virt. eigenvalues --   -0.06620  -0.05711  -0.03831  -0.03251  -0.02935
 Alpha virt. eigenvalues --   -0.02441  -0.02195  -0.01574  -0.00519  -0.00273
 Alpha virt. eigenvalues --   -0.00017   0.00181   0.00552   0.00681   0.00716

  Beta  occ. eigenvalues --  -38.44953 -38.44485 -38.44169 -38.43925 -38.43576
  Beta  occ. eigenvalues --  -38.43339 -38.43327  -2.20731  -2.20287  -2.19987
  Beta  occ. eigenvalues --   -2.19853  -2.19378  -2.19193  -2.19109  -1.14400
  Beta  occ. eigenvalues --   -1.14380  -1.14367  -1.13996  -1.13948  -1.13919
  Beta  occ. eigenvalues --   -1.13656  -1.13647  -1.13627  -1.13612  -1.13533
  Beta  occ. eigenvalues --   -1.13475  -1.13070  -1.13041  -1.13013  -1.12928
  Beta  occ. eigenvalues --   -1.12833  -1.12820  -1.12785  -1.12774  -1.12771
  Beta  occ. eigenvalues --   -0.17412  -0.13326  -0.11415
  Beta virt. eigenvalues --   -0.06862  -0.06513  -0.05610  -0.03573  -0.02843
  Beta virt. eigenvalues --   -0.02346  -0.02213  -0.01472  -0.01333  -0.00461
  Beta virt. eigenvalues --   -0.00047   0.00008   0.00231   0.00667   0.00726

 Mulliken charges and spin densities:
               1          2
     1  Na  -0.201115   0.205992
     2  Na   0.079982   0.184706
     3  Na  -0.249289   0.439799
     4  Na  -0.009877   0.064634
     5  Na   0.121449  -0.003755
     6  Na   0.016448   0.056693
     7  Na   0.242401   0.051931
 Sum of Mulliken charges =  -0.00000   1.00000

 Dipole moment (field-independent basis, Debye):
    X=              0.2082    Y=              0.3398    Z=              0.1700  Tot=              0.4333
 Quadrupole moment (field-independent basis, Debye-Ang):
   XX=            -48.7722   YY=            -70.5022   ZZ=            -73.6741
   XY=              0.8448   XZ=              1.7645   YZ=              1.3830

 Normal termination of Gaussian 16 at Thu Dec  7 05:58:47 2023.
