 Gaussian 16, Revision B.01,
 Gaussian 16:  ES64L-G16RevB.01 20-Dec-2017

 -------------------------
 #P B3LYP/6-311+g(d) force
 -------------------------

 -----
 DPGEN
 -----
 Symbolic Z-matrix:
 Charge =  0 Multiplicity = 2

                         Standard orientation:
 ---------------------------------------------------------------------
 Center     Atomic      Atomic             Coordinates (Angstroms)
 Number     Number       Type             X           Y           Z
 ---------------------------------------------------------------------
      1         11           0        3.835355    0.212195   -0.386308
      2         11           0        2.140369   -2.277219    0.425351
      3         11           0       -2.324466    2.559118    0.671316
      4         11           0       -1.601544   -2.719484   -0.752286
      5         11           0        0.995411    2.506834   -1.530392
      6         11           0        0.694958    0.474742    1.878411
      7         11           0       -3.740082   -0.756186   -0.306092
 ---------------------------------------------------------------------

 SCF Done:  E(UB3LYP) =  -1136.11493871     A.U. after   19 cycles

 The electronic state is 2-A.
 Alpha  occ. eigenvalues --  -38.44892 -38.44630 -38.44628 -38.44246 -38.44198
 Alpha  occ. eigenvalues --  -38.44185 -38.43743  -2.20711  -2.20438  -2.20388
 Alpha  occ. eigenvalues --   -2.20072  -2.20024  -2.19959  -2.19557  -1.14404
 Alpha  occ. eigenvalues --   -1.14363  -1.14346  -1.14120  -1.14095  -1.14067
 Alpha  occ. eigenvalues --   -1.14046  -1.14041  -1.13999  -1.13820  -1.13721
 Alpha  occ. eigenvalues --   -1.13695  -1.13691  -1.13680  -1.13660  -1.13629
 Alpha  occ. eigenvalues --   -1.13617  -1.13598  -1.13219  -1.13209  -1.13185
 Alpha  occ. eigenvalues --   -0.16933  -0.13757  -0.12391  -0.10514
 Alpha virt. eigenvalues --   -0.06916  -0.06098  -0.04104  -0.03727  -0.03271
 Alpha virt. eigenvalues --   -0.02163  -0.01949  -0.01825  -0.01097  -0.00497
 Alpha virt. eigenvalues --   -0.00238   0.00157   0.00173   0.00465   0.00575

  Beta  occ. eigenvalues --  -38.44866 -38.44576 -38.44566 -38.44229 -38.44186
  Beta  occ. eigenvalues --  -38.44171 -38.43733  -2.20666  -2.20320  -2.20293
  Beta  occ. eigenvalues --   -2.20042  -2.20000  -2.19940  -2.19542  -1.14376
  Beta  occ. eigenvalues --   -1.14329  -1.14299  -1.14042  -1.14013  -1.14004
  Beta  occ. eigenvalues --   -1.13981  -1.13954  -1.13919  -1.13796  -1.13701
  Beta  occ. eigenvalues --   -1.13672  -1.13671  -1.13660  -1.13641  -1.13609
  Beta  occ. eigenvalues --   -1.13604  -1.13585  -1.13209  -1.13200  -1.13163
  Beta  occ. eigenvalues --   -0.16375  -0.13442  -0.12013
  Beta virt. eigenvalues --   -0.07016  -0.06809  -0.05875  -0.03744  -0.03276
  Beta virt. eigenvalues --   -0.02735  -0.02059  -0.01726  -0.01383  -0.00974
  Beta virt. eigenvalues --   -0.00421  -0.00008   0.00284   0.00434   0.00563

 Mulliken charges and spin densities:
               1          2
     1  Na   0.193303   0.153471
     2  Na   0.256395   0.048043
     3  Na   0.047733   0.130684
     4  Na  -0.141840   0.065626
     5  Na  -0.118936   0.267338
     6  Na  -0.254924   0.332821
     7  Na   0.018269   0.002017
 Sum of Mulliken charges =  -0.00000   1.00000

 Dipole moment (field-independent basis, Debye):
    X=              0.5851    Y=              0.2935    Z=              0.1228  Tot=              0.6660
 Quadrupole moment (field-independent basis, Debye-Ang):
   XX=            -57.8687   YY=            -69.6536   ZZ=            -72.9259
   XY=             -7.6695   XZ=             -0.3306   YZ=              0.2259

 Normal termination of Gaussian 16 at Sun Dec  3 18:50:35 2023.
