 Gaussian 16, Revision B.01,
 Gaussian 16:  ES64L-G16RevB.01 20-Dec-2017

 -------------------------
 #P B3LYP/6-311+g(d) force
 -------------------------

 -----
 DPGEN
 -----
 Symbolic Z-matrix:
 Charge =  0 Multiplicity = 2

                         Standard orientation:
 ---------------------------------------------------------------------
 Center     Atomic      Atomic             Coordinates (Angstroms)
 Number     Number       Type             X           Y           Z
 ---------------------------------------------------------------------
      1         11           0       -3.374085    0.807758   -0.561760
      2         11           0        0.557452   -1.056260    1.814253
      3         11           0       -0.342529    2.393593    0.870153
      4         11           0        0.025082    0.155212   -1.382505
      5         11           0       -2.379294   -1.956804    0.112614
      6         11           0        2.628849   -1.819723   -0.601072
      7         11           0        2.884525    1.476224   -0.251684
 ---------------------------------------------------------------------

 SCF Done:  E(UB3LYP) =  -1136.12849317     A.U. after   19 cycles

 The electronic state is 2-A.
 Alpha  occ. eigenvalues --  -38.44435 -38.44339 -38.43947 -38.43788 -38.43752
 Alpha  occ. eigenvalues --  -38.43194 -38.42718  -2.20292  -2.20193  -2.19808
 Alpha  occ. eigenvalues --   -2.19769  -2.19627  -2.19107  -2.18590  -1.14008
 Alpha  occ. eigenvalues --   -1.13946  -1.13914  -1.13879  -1.13852  -1.13830
 Alpha  occ. eigenvalues --   -1.13497  -1.13470  -1.13464  -1.13451  -1.13427
 Alpha  occ. eigenvalues --   -1.13390  -1.13296  -1.13278  -1.13260  -1.12779
 Alpha  occ. eigenvalues --   -1.12741  -1.12715  -1.12286  -1.12237  -1.12210
 Alpha  occ. eigenvalues --   -0.18683  -0.14074  -0.11671  -0.10701
 Alpha virt. eigenvalues --   -0.06309  -0.05649  -0.03877  -0.03403  -0.02815
 Alpha virt. eigenvalues --   -0.02259  -0.02103  -0.01232  -0.00449  -0.00184
 Alpha virt. eigenvalues --    0.00088   0.00275   0.00619   0.00729   0.00853

  Beta  occ. eigenvalues --  -38.44418 -38.44329 -38.43941 -38.43759 -38.43735
  Beta  occ. eigenvalues --  -38.43111 -38.42691  -2.20261  -2.20177  -2.19802
  Beta  occ. eigenvalues --   -2.19720  -2.19599  -2.18955  -2.18544  -1.13991
  Beta  occ. eigenvalues --   -1.13917  -1.13892  -1.13863  -1.13844  -1.13799
  Beta  occ. eigenvalues --   -1.13473  -1.13463  -1.13436  -1.13418  -1.13398
  Beta  occ. eigenvalues --   -1.13355  -1.13275  -1.13259  -1.13222  -1.12678
  Beta  occ. eigenvalues --   -1.12637  -1.12600  -1.12257  -1.12188  -1.12179
  Beta  occ. eigenvalues --   -0.18019  -0.13702  -0.11475
  Beta virt. eigenvalues --   -0.06927  -0.06100  -0.05633  -0.03619  -0.02890
  Beta virt. eigenvalues --   -0.02130  -0.02092  -0.01263  -0.01173  -0.00401
  Beta virt. eigenvalues --    0.00004   0.00129   0.00336   0.00707   0.00771

 Mulliken charges and spin densities:
               1          2
     1  Na   0.320605   0.096893
     2  Na  -0.074409   0.414848
     3  Na  -0.310620   0.167519
     4  Na  -0.259953   0.011639
     5  Na  -0.014708   0.094646
     6  Na   0.173398   0.119530
     7  Na   0.165687   0.094925
 Sum of Mulliken charges =  -0.00000   1.00000

 Dipole moment (field-independent basis, Debye):
    X=              0.0384    Y=              0.0486    Z=              0.0205  Tot=              0.0652
 Quadrupole moment (field-independent basis, Debye-Ang):
   XX=            -51.6195   YY=            -69.4429   ZZ=            -72.7983
   XY=             -0.2061   XZ=             -0.1310   YZ=              1.2543

 Normal termination of Gaussian 16 at Thu Dec  7 19:56:23 2023.
