 Gaussian 16, Revision B.01,
 Gaussian 16:  ES64L-G16RevB.01 20-Dec-2017

 -------------------------
 #P B3LYP/6-311+g(d) force
 -------------------------

 -----
 DPGEN
 -----
 Symbolic Z-matrix:
 Charge =  0 Multiplicity = 2

                         Standard orientation:
 ---------------------------------------------------------------------
 Center     Atomic      Atomic             Coordinates (Angstroms)
 Number     Number       Type             X           Y           Z
 ---------------------------------------------------------------------
      1         11           0        1.897859   -2.448191    0.080682
      2         11           0       -2.008817   -2.342100   -0.177322
      3         11           0        2.925217    0.946919   -0.353955
      4         11           0       -0.050399   -0.120077    2.170036
      5         11           0       -2.844524    1.100420   -0.210976
      6         11           0        0.096256    3.042429    0.105375
      7         11           0       -0.015592   -0.179400   -1.613839
 ---------------------------------------------------------------------

 SCF Done:  E(UB3LYP) =  -1136.14018102     A.U. after   17 cycles

 The electronic state is 2-A.
 Alpha  occ. eigenvalues --  -38.43772 -38.43760 -38.43742 -38.43735 -38.43725
 Alpha  occ. eigenvalues --  -38.43441 -38.43163  -2.19618  -2.19594  -2.19575
 Alpha  occ. eigenvalues --   -2.19570  -2.19554  -2.19265  -2.19135  -1.13291
 Alpha  occ. eigenvalues --   -1.13278  -1.13275  -1.13266  -1.13254  -1.13252
 Alpha  occ. eigenvalues --   -1.13244  -1.13237  -1.13232  -1.13230  -1.13221
 Alpha  occ. eigenvalues --   -1.13215  -1.13210  -1.13182  -1.13179  -1.12936
 Alpha  occ. eigenvalues --   -1.12931  -1.12906  -1.12817  -1.12766  -1.12762
 Alpha  occ. eigenvalues --   -0.18437  -0.12816  -0.12508  -0.10769
 Alpha virt. eigenvalues --   -0.05444  -0.05189  -0.04969  -0.03067  -0.02954
 Alpha virt. eigenvalues --   -0.02691  -0.01363  -0.01259  -0.00474  -0.00430
 Alpha virt. eigenvalues --   -0.00022   0.00359   0.00821   0.00858   0.00865

  Beta  occ. eigenvalues --  -38.43769 -38.43737 -38.43731 -38.43718 -38.43657
  Beta  occ. eigenvalues --  -38.43439 -38.43105  -2.19591  -2.19570  -2.19565
  Beta  occ. eigenvalues --   -2.19544  -2.19426  -2.19264  -2.19030  -1.13277
  Beta  occ. eigenvalues --   -1.13270  -1.13249  -1.13243  -1.13235  -1.13231
  Beta  occ. eigenvalues --   -1.13223  -1.13211  -1.13208  -1.13196  -1.13181
  Beta  occ. eigenvalues --   -1.13177  -1.13146  -1.13109  -1.13096  -1.12931
  Beta  occ. eigenvalues --   -1.12917  -1.12906  -1.12744  -1.12690  -1.12684
  Beta  occ. eigenvalues --   -0.17716  -0.12580  -0.12301
  Beta virt. eigenvalues --   -0.06831  -0.05461  -0.05176  -0.04872  -0.02303
  Beta virt. eigenvalues --   -0.02189  -0.01601  -0.01274  -0.01182  -0.00531
  Beta virt. eigenvalues --   -0.00483   0.00127   0.00387   0.00843   0.00872

 Mulliken charges and spin densities:
               1          2
     1  Na   0.152546  -0.040829
     2  Na   0.215403  -0.057079
     3  Na   0.129546  -0.024676
     4  Na  -0.543214   0.813926
     5  Na   0.139213  -0.037904
     6  Na   0.059470  -0.022367
     7  Na  -0.152965   0.368930
 Sum of Mulliken charges =  -0.00000   1.00000

 Dipole moment (field-independent basis, Debye):
    X=             -0.0190    Y=             -0.1802    Z=              0.1333  Tot=              0.2250
 Quadrupole moment (field-independent basis, Debye-Ang):
   XX=            -58.7208   YY=            -60.3197   ZZ=            -74.4802
   XY=             -0.0860   XZ=              0.0144   YZ=             -0.1605

 Normal termination of Gaussian 16 at Thu Dec  7 12:09:58 2023.
