 Gaussian 16, Revision B.01,
 Gaussian 16:  ES64L-G16RevB.01 20-Dec-2017

 -------------------------
 #P B3LYP/6-311+g(d) force
 -------------------------

 -----
 DPGEN
 -----
 Symbolic Z-matrix:
 Charge =  0 Multiplicity = 2

                         Standard orientation:
 ---------------------------------------------------------------------
 Center     Atomic      Atomic             Coordinates (Angstroms)
 Number     Number       Type             X           Y           Z
 ---------------------------------------------------------------------
      1         11           0        0.856868    0.374715    1.338044
      2         11           0       -1.921627   -1.727343    1.679781
      3         11           0       -1.142682   -1.563612   -1.397784
      4         11           0        2.546725   -1.727665   -0.942530
      5         11           0        3.919956    0.928022    0.229088
      6         11           0       -3.379449    0.558405   -0.475622
      7         11           0       -0.879791    3.157478   -0.430978
 ---------------------------------------------------------------------

 SCF Done:  E(UB3LYP) =  -1136.11959238     A.U. after   22 cycles

 The electronic state is 2-A.
 Alpha  occ. eigenvalues --  -38.45303 -38.44575 -38.44206 -38.43819 -38.43749
 Alpha  occ. eigenvalues --  -38.43728 -38.43315  -2.21118  -2.20418  -2.20041
 Alpha  occ. eigenvalues --   -2.19703  -2.19634  -2.19609  -2.19068  -1.14787
 Alpha  occ. eigenvalues --   -1.14776  -1.14761  -1.14116  -1.14075  -1.14027
 Alpha  occ. eigenvalues --   -1.13709  -1.13700  -1.13673  -1.13401  -1.13356
 Alpha  occ. eigenvalues --   -1.13346  -1.13324  -1.13271  -1.13270  -1.13261
 Alpha  occ. eigenvalues --   -1.13252  -1.13219  -1.12749  -1.12739  -1.12714
 Alpha  occ. eigenvalues --   -0.17825  -0.14255  -0.11450  -0.10692
 Alpha virt. eigenvalues --   -0.07097  -0.05479  -0.04474  -0.03504  -0.02671
 Alpha virt. eigenvalues --   -0.02437  -0.02170  -0.01434  -0.00652  -0.00461
 Alpha virt. eigenvalues --   -0.00224   0.00185   0.00271   0.00699   0.00755

  Beta  occ. eigenvalues --  -38.45299 -38.44549 -38.44176 -38.43761 -38.43699
  Beta  occ. eigenvalues --  -38.43695 -38.43334  -2.21112  -2.20371  -2.19987
  Beta  occ. eigenvalues --   -2.19597  -2.19550  -2.19542  -2.19103  -1.14775
  Beta  occ. eigenvalues --   -1.14772  -1.14757  -1.14075  -1.14035  -1.14003
  Beta  occ. eigenvalues --   -1.13672  -1.13659  -1.13631  -1.13339  -1.13274
  Beta  occ. eigenvalues --   -1.13272  -1.13255  -1.13232  -1.13212  -1.13198
  Beta  occ. eigenvalues --   -1.13186  -1.13164  -1.12772  -1.12762  -1.12731
  Beta  occ. eigenvalues --   -0.17195  -0.14060  -0.11289
  Beta virt. eigenvalues --   -0.06973  -0.06883  -0.04999  -0.04244  -0.03225
  Beta virt. eigenvalues --   -0.02428  -0.02086  -0.01436  -0.01177  -0.00374
  Beta virt. eigenvalues --   -0.00342  -0.00092   0.00247   0.00412   0.00790

 Mulliken charges and spin densities:
               1          2
     1  Na   0.268041   0.295164
     2  Na  -0.213361   0.079634
     3  Na   0.164194   0.367515
     4  Na  -0.518301   0.096560
     5  Na   0.353337   0.018810
     6  Na   0.238557   0.242706
     7  Na  -0.292467  -0.100389
 Sum of Mulliken charges =  -0.00000   1.00000

 Dipole moment (field-independent basis, Debye):
    X=              1.0251    Y=             -0.1869    Z=              0.0252  Tot=              1.0423
 Quadrupole moment (field-independent basis, Debye-Ang):
   XX=            -48.3858   YY=            -72.4823   ZZ=            -73.5435
   XY=              4.9074   XZ=             -1.8107   YZ=             -0.8545

 Normal termination of Gaussian 16 at Wed Nov 29 00:49:48 2023.
