 Gaussian 16, Revision B.01,
 Gaussian 16:  ES64L-G16RevB.01 20-Dec-2017

 -------------------------
 #P B3LYP/6-311+g(d) force
 -------------------------

 -----
 DPGEN
 -----
 Symbolic Z-matrix:
 Charge =  0 Multiplicity = 2

                         Standard orientation:
 ---------------------------------------------------------------------
 Center     Atomic      Atomic             Coordinates (Angstroms)
 Number     Number       Type             X           Y           Z
 ---------------------------------------------------------------------
      1         11           0        1.748984    2.316035   -0.639971
      2         11           0        0.883962   -2.499881   -0.988139
      3         11           0       -3.187573   -1.670557    0.573819
      4         11           0        0.231482   -0.267518    1.694502
      5         11           0        3.613742   -0.534786    0.550954
      6         11           0       -1.344212   -0.000755   -1.461126
      7         11           0       -1.946385    2.657462    0.269962
 ---------------------------------------------------------------------

 SCF Done:  E(UB3LYP) =  -1136.12869158     A.U. after   21 cycles

 The electronic state is 2-A.
 Alpha  occ. eigenvalues --  -38.44584 -38.44267 -38.44096 -38.43922 -38.43888
 Alpha  occ. eigenvalues --  -38.43669 -38.42981  -2.20375  -2.20063  -2.19876
 Alpha  occ. eigenvalues --   -2.19755  -2.19723  -2.19496  -2.18935  -1.14061
 Alpha  occ. eigenvalues --   -1.14018  -1.14008  -1.13734  -1.13720  -1.13705
 Alpha  occ. eigenvalues --   -1.13558  -1.13549  -1.13499  -1.13458  -1.13420
 Alpha  occ. eigenvalues --   -1.13405  -1.13382  -1.13359  -1.13345  -1.13183
 Alpha  occ. eigenvalues --   -1.13152  -1.13106  -1.12624  -1.12595  -1.12547
 Alpha  occ. eigenvalues --   -0.17937  -0.13210  -0.12040  -0.10236
 Alpha virt. eigenvalues --   -0.06354  -0.05686  -0.04527  -0.03231  -0.02733
 Alpha virt. eigenvalues --   -0.02100  -0.02029  -0.01392  -0.00911  -0.00249
 Alpha virt. eigenvalues --   -0.00062   0.00268   0.00509   0.00694   0.00719

  Beta  occ. eigenvalues --  -38.44568 -38.44260 -38.44091 -38.43921 -38.43834
  Beta  occ. eigenvalues --  -38.43628 -38.42935  -2.20346  -2.20052  -2.19867
  Beta  occ. eigenvalues --   -2.19725  -2.19654  -2.19423  -2.18853  -1.14039
  Beta  occ. eigenvalues --   -1.13993  -1.13985  -1.13720  -1.13708  -1.13699
  Beta  occ. eigenvalues --   -1.13545  -1.13539  -1.13491  -1.13419  -1.13386
  Beta  occ. eigenvalues --   -1.13379  -1.13342  -1.13334  -1.13282  -1.13131
  Beta  occ. eigenvalues --   -1.13088  -1.13057  -1.12572  -1.12516  -1.12487
  Beta  occ. eigenvalues --   -0.17290  -0.13018  -0.11782
  Beta virt. eigenvalues --   -0.06553  -0.06185  -0.05628  -0.04316  -0.02692
  Beta virt. eigenvalues --   -0.02162  -0.01909  -0.01361  -0.01208  -0.00718
  Beta virt. eigenvalues --   -0.00232   0.00094   0.00317   0.00629   0.00735

 Mulliken charges and spin densities:
               1          2
     1  Na  -0.206215  -0.026713
     2  Na  -0.164796   0.099948
     3  Na   0.119162   0.085368
     4  Na  -0.414347   0.506709
     5  Na   0.348593   0.051795
     6  Na   0.142828   0.291163
     7  Na   0.174774  -0.008270
 Sum of Mulliken charges =  -0.00000   1.00000

 Dipole moment (field-independent basis, Debye):
    X=              0.0660    Y=              0.0005    Z=              0.2284  Tot=              0.2378
 Quadrupole moment (field-independent basis, Debye-Ang):
   XX=            -51.4578   YY=            -65.4396   ZZ=            -75.0330
   XY=              0.1011   XZ=             -2.1222   YZ=             -0.0111

 Normal termination of Gaussian 16 at Thu Dec  7 22:13:13 2023.
