 Gaussian 16, Revision B.01,
 Gaussian 16:  ES64L-G16RevB.01 20-Dec-2017

 -------------------------
 #P B3LYP/6-311+g(d) force
 -------------------------

 -----
 DPGEN
 -----
 Symbolic Z-matrix:
 Charge =  0 Multiplicity = 2

                         Standard orientation:
 ---------------------------------------------------------------------
 Center     Atomic      Atomic             Coordinates (Angstroms)
 Number     Number       Type             X           Y           Z
 ---------------------------------------------------------------------
      1         11           0        2.787769   -1.764631    0.107188
      2         11           0       -0.664877    2.635208    0.606840
      3         11           0       -0.093477   -0.303456    2.031942
      4         11           0       -0.219613    0.156432   -1.851919
      5         11           0       -3.377861    0.155703   -0.311479
      6         11           0       -1.197169   -2.431545   -0.112736
      7         11           0        2.765229    1.552288   -0.469836
 ---------------------------------------------------------------------

 SCF Done:  E(UB3LYP) =  -1136.13420447     A.U. after   19 cycles

 The electronic state is 2-A.
 Alpha  occ. eigenvalues --  -38.44670 -38.43974 -38.43906 -38.43896 -38.43776
 Alpha  occ. eigenvalues --  -38.43133 -38.42900  -2.20484  -2.19805  -2.19766
 Alpha  occ. eigenvalues --   -2.19721  -2.19682  -2.19020  -2.18749  -1.14157
 Alpha  occ. eigenvalues --   -1.14138  -1.14123  -1.13495  -1.13460  -1.13452
 Alpha  occ. eigenvalues --   -1.13443  -1.13426  -1.13406  -1.13389  -1.13363
 Alpha  occ. eigenvalues --   -1.13355  -1.13345  -1.13330  -1.13288  -1.12713
 Alpha  occ. eigenvalues --   -1.12701  -1.12624  -1.12444  -1.12407  -1.12369
 Alpha  occ. eigenvalues --   -0.18449  -0.13217  -0.11901  -0.11102
 Alpha virt. eigenvalues --   -0.06138  -0.05155  -0.04073  -0.03389  -0.02962
 Alpha virt. eigenvalues --   -0.02810  -0.01950  -0.01027  -0.00283  -0.00205
 Alpha virt. eigenvalues --   -0.00033   0.00326   0.00732   0.00784   0.00869

  Beta  occ. eigenvalues --  -38.44663 -38.43976 -38.43899 -38.43831 -38.43681
  Beta  occ. eigenvalues --  -38.43125 -38.42883  -2.20474  -2.19771  -2.19709
  Beta  occ. eigenvalues --   -2.19685  -2.19508  -2.19009  -2.18721  -1.14138
  Beta  occ. eigenvalues --   -1.14133  -1.14113  -1.13463  -1.13432  -1.13416
  Beta  occ. eigenvalues --   -1.13408  -1.13387  -1.13364  -1.13358  -1.13340
  Beta  occ. eigenvalues --   -1.13319  -1.13242  -1.13203  -1.13163  -1.12709
  Beta  occ. eigenvalues --   -1.12666  -1.12613  -1.12419  -1.12372  -1.12354
  Beta  occ. eigenvalues --   -0.17703  -0.12985  -0.11646
  Beta virt. eigenvalues --   -0.07201  -0.06043  -0.05141  -0.04012  -0.02679
  Beta virt. eigenvalues --   -0.02195  -0.01845  -0.01763  -0.00976  -0.00291
  Beta virt. eigenvalues --   -0.00194   0.00067   0.00356   0.00816   0.00857

 Mulliken charges and spin densities:
               1          2
     1  Na  -0.034809  -0.101714
     2  Na  -0.033182   0.001692
     3  Na  -0.163989   0.659182
     4  Na  -0.165624   0.568543
     5  Na   0.257068  -0.023469
     6  Na   0.087121  -0.099389
     7  Na   0.053414  -0.004846
 Sum of Mulliken charges =  -0.00000   1.00000

 Dipole moment (field-independent basis, Debye):
    X=             -0.2590    Y=             -0.0465    Z=             -0.1188  Tot=              0.2887
 Quadrupole moment (field-independent basis, Debye-Ang):
   XX=            -53.1296   YY=            -68.4238   ZZ=            -72.3955
   XY=             -0.6093   XZ=             -0.0164   YZ=              0.3058

 Normal termination of Gaussian 16 at Tue Dec  5 10:52:59 2023.
