 Gaussian 16, Revision B.01,
 Gaussian 16:  ES64L-G16RevB.01 20-Dec-2017

 -------------------------
 #P B3LYP/6-311+g(d) force
 -------------------------

 -----
 DPGEN
 -----
 Symbolic Z-matrix:
 Charge =  0 Multiplicity = 2

                         Standard orientation:
 ---------------------------------------------------------------------
 Center     Atomic      Atomic             Coordinates (Angstroms)
 Number     Number       Type             X           Y           Z
 ---------------------------------------------------------------------
      1         11           0        3.422096   -1.415693    0.195805
      2         11           0       -1.361134    3.155610    0.153571
      3         11           0        0.569381   -1.256510   -1.327728
      4         11           0       -0.205873    0.240377    1.819722
      5         11           0       -2.100766   -2.903753    0.509889
      6         11           0       -2.384744    0.154830   -1.017984
      7         11           0        2.061040    2.025140   -0.333274
 ---------------------------------------------------------------------

 SCF Done:  E(UB3LYP) =  -1136.13210118     A.U. after   20 cycles

 The electronic state is 2-A.
 Alpha  occ. eigenvalues --  -38.44609 -38.44283 -38.44134 -38.43565 -38.43434
 Alpha  occ. eigenvalues --  -38.43374 -38.43217  -2.20405  -2.20075  -2.19932
 Alpha  occ. eigenvalues --   -2.19387  -2.19316  -2.19273  -2.19133  -1.14095
 Alpha  occ. eigenvalues --   -1.14089  -1.14011  -1.13763  -1.13732  -1.13706
 Alpha  occ. eigenvalues --   -1.13604  -1.13586  -1.13568  -1.13074  -1.13052
 Alpha  occ. eigenvalues --   -1.13035  -1.13012  -1.12983  -1.12955  -1.12921
 Alpha  occ. eigenvalues --   -1.12915  -1.12875  -1.12823  -1.12801  -1.12724
 Alpha  occ. eigenvalues --   -0.18082  -0.12998  -0.12559  -0.10114
 Alpha virt. eigenvalues --   -0.06047  -0.05670  -0.04721  -0.03099  -0.02822
 Alpha virt. eigenvalues --   -0.02086  -0.01809  -0.01657  -0.00571  -0.00445
 Alpha virt. eigenvalues --    0.00015   0.00294   0.00642   0.00735   0.00840

  Beta  occ. eigenvalues --  -38.44606 -38.44286 -38.44124 -38.43563 -38.43354
  Beta  occ. eigenvalues --  -38.43337 -38.43178  -2.20401  -2.20083  -2.19914
  Beta  occ. eigenvalues --   -2.19385  -2.19208  -2.19168  -2.19064  -1.14089
  Beta  occ. eigenvalues --   -1.14072  -1.14012  -1.13767  -1.13728  -1.13712
  Beta  occ. eigenvalues --   -1.13594  -1.13560  -1.13557  -1.13070  -1.13036
  Beta  occ. eigenvalues --   -1.13024  -1.12948  -1.12903  -1.12871  -1.12842
  Beta  occ. eigenvalues --   -1.12830  -1.12809  -1.12779  -1.12731  -1.12678
  Beta  occ. eigenvalues --   -0.17407  -0.12800  -0.12376
  Beta virt. eigenvalues --   -0.06346  -0.05975  -0.05486  -0.04664  -0.02474
  Beta virt. eigenvalues --   -0.02216  -0.01718  -0.01561  -0.01162  -0.00565
  Beta virt. eigenvalues --   -0.00326   0.00170   0.00360   0.00664   0.00806

 Mulliken charges and spin densities:
               1          2
     1  Na   0.095128  -0.088435
     2  Na   0.273691   0.017298
     3  Na   0.169637   0.260964
     4  Na  -0.270116   0.670020
     5  Na   0.001231   0.000280
     6  Na  -0.102253   0.177751
     7  Na  -0.167317  -0.037877
 Sum of Mulliken charges =  -0.00000   1.00000

 Dipole moment (field-independent basis, Debye):
    X=              0.5716    Y=             -0.1701    Z=              0.2241  Tot=              0.6371
 Quadrupole moment (field-independent basis, Debye-Ang):
   XX=            -57.4928   YY=            -57.4507   ZZ=            -76.5466
   XY=              0.7075   XZ=              0.6057   YZ=             -2.5429

 Normal termination of Gaussian 16 at Fri Dec  8 02:55:13 2023.
