 Gaussian 16, Revision B.01,
 Gaussian 16:  ES64L-G16RevB.01 20-Dec-2017

 -------------------------
 #P B3LYP/6-311+g(d) force
 -------------------------

 -----
 DPGEN
 -----
 Symbolic Z-matrix:
 Charge =  0 Multiplicity = 2

                         Standard orientation:
 ---------------------------------------------------------------------
 Center     Atomic      Atomic             Coordinates (Angstroms)
 Number     Number       Type             X           Y           Z
 ---------------------------------------------------------------------
      1         11           0       -1.425663   -1.234110    1.285139
      2         11           0        1.133560   -1.767014   -1.060885
      3         11           0       -3.565408    1.601499    0.248697
      4         11           0        1.752565   -0.615855    1.956394
      5         11           0        0.099084    1.649135   -0.112485
      6         11           0        3.857815    1.321939   -0.663218
      7         11           0       -1.851953   -0.955593   -1.653642
 ---------------------------------------------------------------------

 SCF Done:  E(UB3LYP) =  -1136.12558892     A.U. after   24 cycles

 The electronic state is 2-A.
 Alpha  occ. eigenvalues --  -38.44255 -38.44110 -38.44058 -38.43844 -38.43689
 Alpha  occ. eigenvalues --  -38.43611 -38.43165  -2.20018  -2.20007  -2.19905
 Alpha  occ. eigenvalues --   -2.19798  -2.19577  -2.19489  -2.19088  -1.13711
 Alpha  occ. eigenvalues --   -1.13689  -1.13684  -1.13667  -1.13639  -1.13627
 Alpha  occ. eigenvalues --   -1.13618  -1.13593  -1.13562  -1.13486  -1.13472
 Alpha  occ. eigenvalues --   -1.13377  -1.13263  -1.13218  -1.13168  -1.13154
 Alpha  occ. eigenvalues --   -1.13145  -1.13115  -1.12787  -1.12748  -1.12683
 Alpha  occ. eigenvalues --   -0.18764  -0.13670  -0.11472  -0.11308
 Alpha virt. eigenvalues --   -0.06418  -0.05241  -0.04503  -0.03206  -0.02604
 Alpha virt. eigenvalues --   -0.02382  -0.02198  -0.01324  -0.00717  -0.00069
 Alpha virt. eigenvalues --    0.00111   0.00333   0.00478   0.00581   0.00662

  Beta  occ. eigenvalues --  -38.44239 -38.44050 -38.44047 -38.43795 -38.43688
  Beta  occ. eigenvalues --  -38.43575 -38.43136  -2.19988  -2.19896  -2.19892
  Beta  occ. eigenvalues --   -2.19710  -2.19516  -2.19488  -2.19037  -1.13665
  Beta  occ. eigenvalues --   -1.13663  -1.13644  -1.13619  -1.13604  -1.13594
  Beta  occ. eigenvalues --   -1.13577  -1.13515  -1.13507  -1.13471  -1.13408
  Beta  occ. eigenvalues --   -1.13310  -1.13215  -1.13159  -1.13152  -1.13151
  Beta  occ. eigenvalues --   -1.13124  -1.13101  -1.12745  -1.12694  -1.12650
  Beta  occ. eigenvalues --   -0.18040  -0.13488  -0.11058
  Beta virt. eigenvalues --   -0.07462  -0.06221  -0.05160  -0.03938  -0.02905
  Beta virt. eigenvalues --   -0.02321  -0.01868  -0.01687  -0.01135  -0.00296
  Beta virt. eigenvalues --   -0.00008   0.00157   0.00357   0.00640   0.00683

 Mulliken charges and spin densities:
               1          2
     1  Na  -0.153789   0.352386
     2  Na  -0.351003   0.341342
     3  Na   0.587538  -0.102526
     4  Na   0.424354   0.047559
     5  Na  -1.366456   0.284794
     6  Na   0.400018   0.002421
     7  Na   0.459336   0.074024
 Sum of Mulliken charges =  -0.00000   1.00000

 Dipole moment (field-independent basis, Debye):
    X=              0.1434    Y=             -0.2718    Z=              0.0767  Tot=              0.3167
 Quadrupole moment (field-independent basis, Debye-Ang):
   XX=            -52.3266   YY=            -74.6700   ZZ=            -67.6882
   XY=             -0.8908   XZ=             -0.4784   YZ=             -0.6923

 Normal termination of Gaussian 16 at Thu Dec  7 02:38:15 2023.
