 Gaussian 16, Revision B.01,
 Gaussian 16:  ES64L-G16RevB.01 20-Dec-2017

 -------------------------
 #P B3LYP/6-311+g(d) force
 -------------------------

 -----
 DPGEN
 -----
 Symbolic Z-matrix:
 Charge =  0 Multiplicity = 2

                         Standard orientation:
 ---------------------------------------------------------------------
 Center     Atomic      Atomic             Coordinates (Angstroms)
 Number     Number       Type             X           Y           Z
 ---------------------------------------------------------------------
      1         11           0       -0.753579    0.176316   -1.948075
      2         11           0        2.299756    0.372498    0.340602
      3         11           0       -2.472059    0.955242    2.160651
      4         11           0       -1.353236    3.037375   -1.042757
      5         11           0        0.032126   -2.569777   -1.161131
      6         11           0       -2.775415   -2.017604    0.843107
      7         11           0        5.022407    0.045950    0.807602
 ---------------------------------------------------------------------

 SCF Done:  E(UB3LYP) =  -1136.10953327     A.U. after   22 cycles

 The electronic state is 2-A.
 Alpha  occ. eigenvalues --  -38.45441 -38.44665 -38.44493 -38.44139 -38.43745
 Alpha  occ. eigenvalues --  -38.43685 -38.43404  -2.21240  -2.20485  -2.20435
 Alpha  occ. eigenvalues --   -2.19987  -2.19614  -2.19538  -2.19225  -1.14911
 Alpha  occ. eigenvalues --   -1.14899  -1.14831  -1.14162  -1.14158  -1.14152
 Alpha  occ. eigenvalues --   -1.14098  -1.14081  -1.14054  -1.13816  -1.13603
 Alpha  occ. eigenvalues --   -1.13600  -1.13317  -1.13247  -1.13209  -1.13188
 Alpha  occ. eigenvalues --   -1.13168  -1.13150  -1.12926  -1.12867  -1.12841
 Alpha  occ. eigenvalues --   -0.17374  -0.13591  -0.12253  -0.12027
 Alpha virt. eigenvalues --   -0.06155  -0.04887  -0.04682  -0.03810  -0.02877
 Alpha virt. eigenvalues --   -0.02665  -0.02169  -0.01068  -0.00848  -0.00615
 Alpha virt. eigenvalues --   -0.00401   0.00087   0.00292   0.00538   0.00601

  Beta  occ. eigenvalues --  -38.45363 -38.44629 -38.44426 -38.44108 -38.43720
  Beta  occ. eigenvalues --  -38.43685 -38.43387  -2.21097  -2.20422  -2.20314
  Beta  occ. eigenvalues --   -2.19930  -2.19569  -2.19542  -2.19197  -1.14806
  Beta  occ. eigenvalues --   -1.14805  -1.14728  -1.14116  -1.14111  -1.14056
  Beta  occ. eigenvalues --   -1.14038  -1.14001  -1.13978  -1.13781  -1.13565
  Beta  occ. eigenvalues --   -1.13562  -1.13268  -1.13219  -1.13192  -1.13189
  Beta  occ. eigenvalues --   -1.13169  -1.13130  -1.12894  -1.12849  -1.12824
  Beta  occ. eigenvalues --   -0.16648  -0.12744  -0.11870
  Beta virt. eigenvalues --   -0.08702  -0.05802  -0.04485  -0.04334  -0.03330
  Beta virt. eigenvalues --   -0.02731  -0.02196  -0.01970  -0.00972  -0.00586
  Beta virt. eigenvalues --   -0.00304  -0.00184   0.00153   0.00488   0.00594

 Mulliken charges and spin densities:
               1          2
     1  Na   0.405667   0.336567
     2  Na  -0.555924   0.031949
     3  Na   0.455900   0.404426
     4  Na   0.479878  -0.119597
     5  Na   1.308013   0.071061
     6  Na  -0.534801   0.043921
     7  Na  -1.558733   0.231673
 Sum of Mulliken charges =  -0.00000   1.00000

 Dipole moment (field-independent basis, Debye):
    X=             -0.5995    Y=             -0.3937    Z=              0.5644  Tot=              0.9127
 Quadrupole moment (field-independent basis, Debye-Ang):
   XX=            -61.8214   YY=            -68.6630   ZZ=            -66.6309
   XY=             -1.0145   XZ=             -1.6386   YZ=              1.2112

 Normal termination of Gaussian 16 at Mon Dec  4 04:41:19 2023.
