 Gaussian 16, Revision B.01,
 Gaussian 16:  ES64L-G16RevB.01 20-Dec-2017

 -------------------------
 #P B3LYP/6-311+g(d) force
 -------------------------

 -----
 DPGEN
 -----
 Symbolic Z-matrix:
 Charge =  0 Multiplicity = 2

                         Standard orientation:
 ---------------------------------------------------------------------
 Center     Atomic      Atomic             Coordinates (Angstroms)
 Number     Number       Type             X           Y           Z
 ---------------------------------------------------------------------
      1         11           0       -0.988479    0.798868    1.419780
      2         11           0        0.871070    2.095108   -0.094089
      3         11           0        2.160788   -0.549342   -1.075556
      4         11           0       -0.284871   -2.090763    0.050259
      5         11           0       -2.845553   -0.159156   -0.249543
      6         11           0       -0.408468    0.396615   -1.675284
      7         11           0        1.495513   -0.491330    1.624432
 ---------------------------------------------------------------------

 SCF Done:  E(UB3LYP) =  -1136.07596719     A.U. after   22 cycles

 The electronic state is 2-A.
 Alpha  occ. eigenvalues --  -38.44555 -38.44504 -38.44400 -38.44288 -38.44176
 Alpha  occ. eigenvalues --  -38.43118 -38.42517  -2.20846  -2.20688  -2.20641
 Alpha  occ. eigenvalues --   -2.20304  -2.20294  -2.19259  -2.18621  -1.14737
 Alpha  occ. eigenvalues --   -1.14692  -1.14617  -1.14515  -1.14471  -1.14433
 Alpha  occ. eigenvalues --   -1.14313  -1.14237  -1.14131  -1.13981  -1.13906
 Alpha  occ. eigenvalues --   -1.13865  -1.13857  -1.13837  -1.13827  -1.12948
 Alpha  occ. eigenvalues --   -1.12902  -1.12790  -1.12350  -1.12299  -1.12195
 Alpha  occ. eigenvalues --   -0.21635  -0.13820  -0.13158  -0.12270
 Alpha virt. eigenvalues --   -0.05328  -0.04189  -0.03990  -0.03648  -0.03250
 Alpha virt. eigenvalues --   -0.03190  -0.01052  -0.00380  -0.00250   0.00311
 Alpha virt. eigenvalues --    0.00794   0.00895   0.01081   0.01112   0.01233

  Beta  occ. eigenvalues --  -38.44471 -38.44437 -38.44335 -38.44283 -38.44139
  Beta  occ. eigenvalues --  -38.43105 -38.42504  -2.20696  -2.20571  -2.20527
  Beta  occ. eigenvalues --   -2.20295  -2.20232  -2.19242  -2.18604  -1.14640
  Beta  occ. eigenvalues --   -1.14597  -1.14524  -1.14417  -1.14392  -1.14348
  Beta  occ. eigenvalues --   -1.14233  -1.14156  -1.14043  -1.13936  -1.13861
  Beta  occ. eigenvalues --   -1.13845  -1.13814  -1.13796  -1.13781  -1.12941
  Beta  occ. eigenvalues --   -1.12830  -1.12788  -1.12345  -1.12238  -1.12188
  Beta  occ. eigenvalues --   -0.20783  -0.13610  -0.11956
  Beta virt. eigenvalues --   -0.08695  -0.05269  -0.03656  -0.03540  -0.03433
  Beta virt. eigenvalues --   -0.02370  -0.02297  -0.01019  -0.00243  -0.00108
  Beta virt. eigenvalues --    0.00342   0.00861   0.01015   0.01125   0.01188

 Mulliken charges and spin densities:
               1          2
     1  Na  -0.525818   0.181570
     2  Na  -0.008513   0.099586
     3  Na   0.120630   0.010845
     4  Na  -0.876395   0.125250
     5  Na   0.869875   0.036761
     6  Na  -0.289766   0.355223
     7  Na   0.709987   0.190765
 Sum of Mulliken charges =  -0.00000   1.00000

 Dipole moment (field-independent basis, Debye):
    X=             -0.0995    Y=             -0.2104    Z=             -0.0327  Tot=              0.2350
 Quadrupole moment (field-independent basis, Debye-Ang):
   XX=            -59.8567   YY=            -74.3151   ZZ=            -63.7899
   XY=              0.4582   XZ=             -0.0086   YZ=              0.7055

 Normal termination of Gaussian 16 at Fri Dec  8 17:58:42 2023.
