 Gaussian 16, Revision B.01,
 Gaussian 16:  ES64L-G16RevB.01 20-Dec-2017

 -------------------------
 #P B3LYP/6-311+g(d) force
 -------------------------

 -----
 DPGEN
 -----
 Symbolic Z-matrix:
 Charge =  0 Multiplicity = 2

                         Standard orientation:
 ---------------------------------------------------------------------
 Center     Atomic      Atomic             Coordinates (Angstroms)
 Number     Number       Type             X           Y           Z
 ---------------------------------------------------------------------
      1         11           0        2.673137   -2.129125   -0.527569
      2         11           0       -3.367912   -1.146509   -0.453326
      3         11           0       -0.205931   -1.951538    1.021144
      4         11           0        0.184402   -0.012664   -1.787658
      5         11           0        1.666380    2.754117   -0.439149
      6         11           0       -1.830529    1.972499    0.284006
      7         11           0        0.880453    0.513219    1.902551
 ---------------------------------------------------------------------

 SCF Done:  E(UB3LYP) =  -1136.13074878     A.U. after   19 cycles

 The electronic state is 2-A.
 Alpha  occ. eigenvalues --  -38.43936 -38.43934 -38.43811 -38.43783 -38.43592
 Alpha  occ. eigenvalues --  -38.43563 -38.43316  -2.19780  -2.19776  -2.19751
 Alpha  occ. eigenvalues --   -2.19700  -2.19429  -2.19356  -2.19280  -1.13600
 Alpha  occ. eigenvalues --   -1.13483  -1.13476  -1.13429  -1.13416  -1.13403
 Alpha  occ. eigenvalues --   -1.13390  -1.13379  -1.13374  -1.13359  -1.13337
 Alpha  occ. eigenvalues --   -1.13310  -1.13099  -1.13087  -1.13054  -1.13026
 Alpha  occ. eigenvalues --   -1.13022  -1.12994  -1.12969  -1.12918  -1.12839
 Alpha  occ. eigenvalues --   -0.18621  -0.12673  -0.12394  -0.11303
 Alpha virt. eigenvalues --   -0.05446  -0.05411  -0.04139  -0.03316  -0.03012
 Alpha virt. eigenvalues --   -0.02880  -0.01536  -0.01394  -0.00309   0.00051
 Alpha virt. eigenvalues --    0.00201   0.00331   0.00742   0.00854   0.00913

  Beta  occ. eigenvalues --  -38.43930 -38.43925 -38.43724 -38.43714 -38.43586
  Beta  occ. eigenvalues --  -38.43563 -38.43282  -2.19770  -2.19737  -2.19622
  Beta  occ. eigenvalues --   -2.19574  -2.19420  -2.19357  -2.19224  -1.13494
  Beta  occ. eigenvalues --   -1.13469  -1.13445  -1.13413  -1.13394  -1.13381
  Beta  occ. eigenvalues --   -1.13378  -1.13309  -1.13276  -1.13259  -1.13247
  Beta  occ. eigenvalues --   -1.13220  -1.13083  -1.13071  -1.13048  -1.13026
  Beta  occ. eigenvalues --   -1.13017  -1.12994  -1.12919  -1.12846  -1.12809
  Beta  occ. eigenvalues --   -0.17851  -0.12448  -0.12229
  Beta virt. eigenvalues --   -0.07285  -0.05380  -0.05290  -0.04039  -0.02597
  Beta virt. eigenvalues --   -0.02447  -0.01832  -0.01419  -0.01335  -0.00083
  Beta virt. eigenvalues --    0.00018   0.00242   0.00362   0.00751   0.00923

 Mulliken charges and spin densities:
               1          2
     1  Na  -0.061593  -0.068053
     2  Na   0.203683  -0.101379
     3  Na  -0.148118   0.257402
     4  Na  -0.236284   0.725516
     5  Na  -0.047249  -0.082450
     6  Na  -0.253173   0.067986
     7  Na   0.542733   0.200978
 Sum of Mulliken charges =  -0.00000   1.00000

 Dipole moment (field-independent basis, Debye):
    X=              0.3487    Y=              0.2455    Z=             -0.3163  Tot=              0.5309
 Quadrupole moment (field-independent basis, Debye-Ang):
   XX=            -58.3168   YY=            -63.7892   ZZ=            -71.3864
   XY=             -0.1360   XZ=             -1.0786   YZ=              0.6209

 Normal termination of Gaussian 16 at Wed Nov 29 16:36:34 2023.
