 Gaussian 16, Revision B.01,
 Gaussian 16:  ES64L-G16RevB.01 20-Dec-2017

 -------------------------
 #P B3LYP/6-311+g(d) force
 -------------------------

 -----
 DPGEN
 -----
 Symbolic Z-matrix:
 Charge =  0 Multiplicity = 2

                         Standard orientation:
 ---------------------------------------------------------------------
 Center     Atomic      Atomic             Coordinates (Angstroms)
 Number     Number       Type             X           Y           Z
 ---------------------------------------------------------------------
      1         11           0       -3.944767    0.464533   -0.074105
      2         11           0        4.185516   -2.198501   -0.075644
      3         11           0        2.856990    0.722306   -0.523485
      4         11           0        0.102416   -1.935471   -0.254893
      5         11           0       -1.308122    2.534924   -1.308105
      6         11           0        1.248108    3.140050    1.562560
      7         11           0       -3.140141   -2.727841    0.673672
 ---------------------------------------------------------------------

 SCF Done:  E(UB3LYP) =  -1136.11697422     A.U. after   21 cycles

 The electronic state is 2-A.
 Alpha  occ. eigenvalues --  -38.45405 -38.44440 -38.44276 -38.44261 -38.44054
 Alpha  occ. eigenvalues --  -38.43942 -38.43719  -2.21155  -2.20237  -2.20100
 Alpha  occ. eigenvalues --   -2.20026  -2.19858  -2.19726  -2.19536  -1.14865
 Alpha  occ. eigenvalues --   -1.14848  -1.14735  -1.13912  -1.13895  -1.13869
 Alpha  occ. eigenvalues --   -1.13804  -1.13786  -1.13725  -1.13716  -1.13698
 Alpha  occ. eigenvalues --   -1.13633  -1.13517  -1.13510  -1.13465  -1.13385
 Alpha  occ. eigenvalues --   -1.13382  -1.13337  -1.13193  -1.13190  -1.13174
 Alpha  occ. eigenvalues --   -0.16153  -0.13901  -0.12700  -0.10382
 Alpha virt. eigenvalues --   -0.06908  -0.05387  -0.04703  -0.03275  -0.02869
 Alpha virt. eigenvalues --   -0.02721  -0.02153  -0.01585  -0.01153  -0.00927
 Alpha virt. eigenvalues --   -0.00280  -0.00045   0.00391   0.00547   0.00574

  Beta  occ. eigenvalues --  -38.45387 -38.44402 -38.44267 -38.44232 -38.44018
  Beta  occ. eigenvalues --  -38.43889 -38.43692  -2.21124  -2.20169  -2.20087
  Beta  occ. eigenvalues --   -2.19977  -2.19791  -2.19627  -2.19487  -1.14844
  Beta  occ. eigenvalues --   -1.14829  -1.14702  -1.13869  -1.13848  -1.13806
  Beta  occ. eigenvalues --   -1.13799  -1.13781  -1.13689  -1.13688  -1.13667
  Beta  occ. eigenvalues --   -1.13575  -1.13472  -1.13464  -1.13424  -1.13318
  Beta  occ. eigenvalues --   -1.13309  -1.13276  -1.13160  -1.13153  -1.13140
  Beta  occ. eigenvalues --   -0.15785  -0.13399  -0.12026
  Beta virt. eigenvalues --   -0.07065  -0.06724  -0.05201  -0.04390  -0.02999
  Beta virt. eigenvalues --   -0.02698  -0.02323  -0.01855  -0.01317  -0.00884
  Beta virt. eigenvalues --   -0.00801  -0.00011   0.00193   0.00491   0.00634

 Mulliken charges and spin densities:
               1          2
     1  Na  -0.467269   0.196321
     2  Na   0.501105   0.216268
     3  Na  -0.685083   0.105721
     4  Na  -0.952964   0.158646
     5  Na   0.227901   0.107473
     6  Na   0.336005   0.217499
     7  Na   1.040304  -0.001930
 Sum of Mulliken charges =  -0.00000   1.00000

 Dipole moment (field-independent basis, Debye):
    X=              0.2261    Y=             -0.5270    Z=              0.3883  Tot=              0.6926
 Quadrupole moment (field-independent basis, Debye-Ang):
   XX=            -60.6636   YY=            -69.6848   ZZ=            -68.6401
   XY=              0.5748   XZ=             -1.9828   YZ=             -0.2977

 Normal termination of Gaussian 16 at Mon Dec  4 05:25:09 2023.
