 Gaussian 16, Revision B.01,
 Gaussian 16:  ES64L-G16RevB.01 20-Dec-2017

 -------------------------
 #P B3LYP/6-311+g(d) force
 -------------------------

 -----
 DPGEN
 -----
 Symbolic Z-matrix:
 Charge =  0 Multiplicity = 2

                         Standard orientation:
 ---------------------------------------------------------------------
 Center     Atomic      Atomic             Coordinates (Angstroms)
 Number     Number       Type             X           Y           Z
 ---------------------------------------------------------------------
      1         11           0        5.307076    0.555459   -0.330965
      2         11           0        2.408244    0.665432    1.246606
      3         11           0       -4.565107   -0.990808    0.033120
      4         11           0       -0.496441    0.326292   -1.382104
      5         11           0       -1.227403   -0.904730    0.947204
      6         11           0        1.763122   -1.799239   -0.455712
      7         11           0       -3.189492    2.147594   -0.058149
 ---------------------------------------------------------------------

 SCF Done:  E(UB3LYP) =  -1136.10991112     A.U. after   24 cycles

 The electronic state is 2-A.
 Alpha  occ. eigenvalues --  -38.44585 -38.44478 -38.44409 -38.44120 -38.43765
 Alpha  occ. eigenvalues --  -38.43723 -38.42916  -2.20454  -2.20396  -2.20391
 Alpha  occ. eigenvalues --   -2.20099  -2.19599  -2.19554  -2.18704  -1.14338
 Alpha  occ. eigenvalues --   -1.14238  -1.14135  -1.14097  -1.14067  -1.14026
 Alpha  occ. eigenvalues --   -1.14014  -1.13985  -1.13920  -1.13769  -1.13719
 Alpha  occ. eigenvalues --   -1.13630  -1.13276  -1.13254  -1.13242  -1.13208
 Alpha  occ. eigenvalues --   -1.13206  -1.13150  -1.12371  -1.12370  -1.12341
 Alpha  occ. eigenvalues --   -0.18207  -0.14555  -0.11029  -0.10642
 Alpha virt. eigenvalues --   -0.06901  -0.05505  -0.04902  -0.03461  -0.02582
 Alpha virt. eigenvalues --   -0.02109  -0.01904  -0.01316  -0.01213  -0.00771
 Alpha virt. eigenvalues --   -0.00379   0.00120   0.00402   0.00466   0.00557

  Beta  occ. eigenvalues --  -38.44584 -38.44470 -38.44366 -38.44092 -38.43732
  Beta  occ. eigenvalues --  -38.43660 -38.42916  -2.20452  -2.20381  -2.20316
  Beta  occ. eigenvalues --   -2.20051  -2.19542  -2.19438  -2.18703  -1.14291
  Beta  occ. eigenvalues --   -1.14233  -1.14128  -1.14082  -1.14060  -1.14007
  Beta  occ. eigenvalues --   -1.13966  -1.13961  -1.13871  -1.13726  -1.13663
  Beta  occ. eigenvalues --   -1.13594  -1.13240  -1.13213  -1.13179  -1.13129
  Beta  occ. eigenvalues --   -1.13117  -1.13081  -1.12370  -1.12369  -1.12340
  Beta  occ. eigenvalues --   -0.17671  -0.14186  -0.10940
  Beta virt. eigenvalues --   -0.06864  -0.06726  -0.05227  -0.04446  -0.03212
  Beta virt. eigenvalues --   -0.02319  -0.01823  -0.01504  -0.01065  -0.00747
  Beta virt. eigenvalues --   -0.00668  -0.00151   0.00277   0.00460   0.00548

 Mulliken charges and spin densities:
               1          2
     1  Na   0.120864   0.000130
     2  Na  -0.202137  -0.070340
     3  Na   0.289344   0.162696
     4  Na  -0.458816   0.437778
     5  Na  -0.325978   0.292190
     6  Na   0.442667   0.072366
     7  Na   0.134057   0.105181
 Sum of Mulliken charges =  -0.00000   1.00000

 Dipole moment (field-independent basis, Debye):
    X=             -0.4228    Y=             -0.4833    Z=             -0.5105  Tot=              0.8204
 Quadrupole moment (field-independent basis, Debye-Ang):
   XX=            -75.3938   YY=            -69.6517   ZZ=            -64.0230
   XY=             -5.2983   XZ=             -2.6478   YZ=              4.3520

 Normal termination of Gaussian 16 at Tue Dec  5 23:19:32 2023.
