 Gaussian 16, Revision B.01,
 Gaussian 16:  ES64L-G16RevB.01 20-Dec-2017

 -------------------------
 #P B3LYP/6-311+g(d) force
 -------------------------

 -----
 DPGEN
 -----
 Symbolic Z-matrix:
 Charge =  0 Multiplicity = 2

                         Standard orientation:
 ---------------------------------------------------------------------
 Center     Atomic      Atomic             Coordinates (Angstroms)
 Number     Number       Type             X           Y           Z
 ---------------------------------------------------------------------
      1         11           0        0.267028   -0.345774   -1.729372
      2         11           0        0.755994   -2.744097    0.018410
      3         11           0       -0.185456   -0.127913    1.943961
      4         11           0        1.085934    2.932952    0.334149
      5         11           0        3.118456   -0.136571   -0.157676
      6         11           0       -2.653154   -1.477876    0.154766
      7         11           0       -2.388802    1.899280   -0.564238
 ---------------------------------------------------------------------

 SCF Done:  E(UB3LYP) =  -1136.13769067     A.U. after   19 cycles

 The electronic state is 2-A.
 Alpha  occ. eigenvalues --  -38.43926 -38.43728 -38.43658 -38.43617 -38.43517
 Alpha  occ. eigenvalues --  -38.43454 -38.43415  -2.19762  -2.19542  -2.19513
 Alpha  occ. eigenvalues --   -2.19432  -2.19409  -2.19387  -2.19360  -1.13462
 Alpha  occ. eigenvalues --   -1.13423  -1.13391  -1.13232  -1.13220  -1.13209
 Alpha  occ. eigenvalues --   -1.13200  -1.13187  -1.13165  -1.13134  -1.13110
 Alpha  occ. eigenvalues --   -1.13093  -1.13072  -1.13061  -1.13049  -1.13040
 Alpha  occ. eigenvalues --   -1.13033  -1.13000  -1.12996  -1.12959  -1.12940
 Alpha  occ. eigenvalues --   -0.18644  -0.12932  -0.12509  -0.10802
 Alpha virt. eigenvalues --   -0.05447  -0.05173  -0.04882  -0.03199  -0.02982
 Alpha virt. eigenvalues --   -0.02544  -0.01413  -0.01133  -0.00437  -0.00299
 Alpha virt. eigenvalues --   -0.00002   0.00364   0.00837   0.00873   0.00893

  Beta  occ. eigenvalues --  -38.43923 -38.43715 -38.43653 -38.43613 -38.43446
  Beta  occ. eigenvalues --  -38.43430 -38.43346  -2.19759  -2.19520  -2.19507
  Beta  occ. eigenvalues --   -2.19404  -2.19353  -2.19272  -2.19259  -1.13451
  Beta  occ. eigenvalues --   -1.13415  -1.13386  -1.13219  -1.13191  -1.13185
  Beta  occ. eigenvalues --   -1.13170  -1.13166  -1.13147  -1.13124  -1.13072
  Beta  occ. eigenvalues --   -1.13063  -1.13048  -1.13028  -1.12981  -1.12962
  Beta  occ. eigenvalues --   -1.12945  -1.12940  -1.12916  -1.12904  -1.12873
  Beta  occ. eigenvalues --   -0.17916  -0.12668  -0.12266
  Beta virt. eigenvalues --   -0.06933  -0.05424  -0.05134  -0.04793  -0.02430
  Beta virt. eigenvalues --   -0.02232  -0.01525  -0.01333  -0.01054  -0.00445
  Beta virt. eigenvalues --   -0.00356   0.00124   0.00392   0.00862   0.00889

 Mulliken charges and spin densities:
               1          2
     1  Na  -0.126704   0.569679
     2  Na   0.311007  -0.111410
     3  Na  -0.290125   0.720488
     4  Na  -0.094329  -0.051816
     5  Na   0.059635  -0.100691
     6  Na   0.225843  -0.034885
     7  Na  -0.085326   0.008635
 Sum of Mulliken charges =  -0.00000   1.00000

 Dipole moment (field-independent basis, Debye):
    X=              0.0827    Y=             -0.0388    Z=              0.0675  Tot=              0.1136
 Quadrupole moment (field-independent basis, Debye-Ang):
   XX=            -57.9577   YY=            -61.8030   ZZ=            -73.9719
   XY=              0.3007   XZ=              0.9784   YZ=             -0.5810

 Normal termination of Gaussian 16 at Thu Dec  7 22:14:31 2023.
