 Gaussian 16, Revision B.01,
 Gaussian 16:  ES64L-G16RevB.01 20-Dec-2017

 -------------------------
 #P B3LYP/6-311+g(d) force
 -------------------------

 -----
 DPGEN
 -----
 Symbolic Z-matrix:
 Charge =  0 Multiplicity = 2

                         Standard orientation:
 ---------------------------------------------------------------------
 Center     Atomic      Atomic             Coordinates (Angstroms)
 Number     Number       Type             X           Y           Z
 ---------------------------------------------------------------------
      1         11           0        0.524252   -0.975861    1.438457
      2         11           0        2.240881   -2.992093   -0.672215
      3         11           0        3.978893   -0.608584   -0.181492
      4         11           0       -0.480665    1.507054   -0.731391
      5         11           0       -2.920956    0.277413    0.996834
      6         11           0        2.327431    3.376566   -0.098274
      7         11           0       -5.669837   -0.584495   -0.751919
 ---------------------------------------------------------------------

 SCF Done:  E(UB3LYP) =  -1136.11606372     A.U. after   20 cycles

 The electronic state is 2-A.
 Alpha  occ. eigenvalues --  -38.44957 -38.44807 -38.44358 -38.44296 -38.44056
 Alpha  occ. eigenvalues --  -38.43474 -38.43220  -2.20786  -2.20657  -2.20159
 Alpha  occ. eigenvalues --   -2.20148  -2.19898  -2.19315  -2.18993  -1.14492
 Alpha  occ. eigenvalues --   -1.14443  -1.14405  -1.14348  -1.14319  -1.14255
 Alpha  occ. eigenvalues --   -1.13815  -1.13794  -1.13794  -1.13793  -1.13779
 Alpha  occ. eigenvalues --   -1.13778  -1.13588  -1.13579  -1.13520  -1.13013
 Alpha  occ. eigenvalues --   -1.12983  -1.12957  -1.12661  -1.12647  -1.12632
 Alpha  occ. eigenvalues --   -0.16995  -0.14088  -0.12022  -0.11023
 Alpha virt. eigenvalues --   -0.06141  -0.05775  -0.04661  -0.03733  -0.02766
 Alpha virt. eigenvalues --   -0.02428  -0.01973  -0.01577  -0.01093  -0.00738
 Alpha virt. eigenvalues --   -0.00387  -0.00077   0.00345   0.00430   0.00557

  Beta  occ. eigenvalues --  -38.44921 -38.44751 -38.44295 -38.44257 -38.44054
  Beta  occ. eigenvalues --  -38.43476 -38.43206  -2.20720  -2.20556  -2.20147
  Beta  occ. eigenvalues --   -2.19970  -2.19897  -2.19327  -2.18965  -1.14447
  Beta  occ. eigenvalues --   -1.14399  -1.14358  -1.14280  -1.14253  -1.14173
  Beta  occ. eigenvalues --   -1.13805  -1.13789  -1.13779  -1.13666  -1.13664
  Beta  occ. eigenvalues --   -1.13655  -1.13591  -1.13562  -1.13524  -1.13031
  Beta  occ. eigenvalues --   -1.12999  -1.12903  -1.12643  -1.12627  -1.12615
  Beta  occ. eigenvalues --   -0.16467  -0.13558  -0.11529
  Beta virt. eigenvalues --   -0.07724  -0.05918  -0.05179  -0.04478  -0.03500
  Beta virt. eigenvalues --   -0.02547  -0.01947  -0.01822  -0.01155  -0.00929
  Beta virt. eigenvalues --   -0.00377  -0.00233   0.00098   0.00471   0.00502

 Mulliken charges and spin densities:
               1          2
     1  Na  -0.341797   0.210759
     2  Na   0.348334   0.015147
     3  Na   0.024231   0.251544
     4  Na  -0.806452  -0.171191
     5  Na   0.384012   0.032461
     6  Na   0.421744   0.152011
     7  Na  -0.030072   0.509269
 Sum of Mulliken charges =  -0.00000   1.00000

 Dipole moment (field-independent basis, Debye):
    X=              0.9505    Y=             -1.3166    Z=             -0.0956  Tot=              1.6266
 Quadrupole moment (field-independent basis, Debye-Ang):
   XX=            -66.0984   YY=            -69.5890   ZZ=            -66.3846
   XY=             -0.4187   XZ=              3.0151   YZ=              3.3744

 Normal termination of Gaussian 16 at Wed Nov 29 03:18:14 2023.
