 Gaussian 16, Revision B.01,
 Gaussian 16:  ES64L-G16RevB.01 20-Dec-2017

 -------------------------
 #P B3LYP/6-311+g(d) force
 -------------------------

 -----
 DPGEN
 -----
 Symbolic Z-matrix:
 Charge =  0 Multiplicity = 2

                         Standard orientation:
 ---------------------------------------------------------------------
 Center     Atomic      Atomic             Coordinates (Angstroms)
 Number     Number       Type             X           Y           Z
 ---------------------------------------------------------------------
      1         11           0        0.704158   -3.350122   -0.809723
      2         11           0        3.625358   -0.946760   -1.016794
      3         11           0        3.128725    1.048233    1.602938
      4         11           0       -1.951039   -2.761743    1.075069
      5         11           0       -2.035150    2.150781   -1.330823
      6         11           0        0.479005    3.781023    0.118332
      7         11           0       -3.951057    0.078589    0.361002
 ---------------------------------------------------------------------

 SCF Done:  E(UB3LYP) =  -1136.10664970     A.U. after   24 cycles

 The electronic state is 2-A.
 Alpha  occ. eigenvalues --  -38.44978 -38.44971 -38.44684 -38.44506 -38.44141
 Alpha  occ. eigenvalues --  -38.43828 -38.43703  -2.20745  -2.20741  -2.20458
 Alpha  occ. eigenvalues --   -2.20302  -2.19930  -2.19627  -2.19526  -1.14445
 Alpha  occ. eigenvalues --   -1.14418  -1.14407  -1.14392  -1.14380  -1.14341
 Alpha  occ. eigenvalues --   -1.14140  -1.14134  -1.14106  -1.13981  -1.13970
 Alpha  occ. eigenvalues --   -1.13962  -1.13585  -1.13574  -1.13558  -1.13283
 Alpha  occ. eigenvalues --   -1.13278  -1.13254  -1.13177  -1.13168  -1.13153
 Alpha  occ. eigenvalues --   -0.15628  -0.13700  -0.13244  -0.10379
 Alpha virt. eigenvalues --   -0.07651  -0.05001  -0.04351  -0.03662  -0.03596
 Alpha virt. eigenvalues --   -0.01991  -0.01827  -0.01647  -0.01221  -0.00988
 Alpha virt. eigenvalues --   -0.00941   0.00032   0.00144   0.00278   0.00584

  Beta  occ. eigenvalues --  -38.44968 -38.44937 -38.44684 -38.44500 -38.44085
  Beta  occ. eigenvalues --  -38.43772 -38.43637  -2.20731  -2.20680  -2.20464
  Beta  occ. eigenvalues --   -2.20296  -2.19828  -2.19525  -2.19404  -1.14416
  Beta  occ. eigenvalues --   -1.14409  -1.14379  -1.14362  -1.14339  -1.14301
  Beta  occ. eigenvalues --   -1.14149  -1.14138  -1.14074  -1.13981  -1.13972
  Beta  occ. eigenvalues --   -1.13918  -1.13517  -1.13507  -1.13484  -1.13214
  Beta  occ. eigenvalues --   -1.13210  -1.13185  -1.13097  -1.13086  -1.13073
  Beta  occ. eigenvalues --   -0.15145  -0.13039  -0.12435
  Beta virt. eigenvalues --   -0.07777  -0.07306  -0.04594  -0.03871  -0.03492
  Beta virt. eigenvalues --   -0.03370  -0.01752  -0.01456  -0.01437  -0.01002
  Beta virt. eigenvalues --   -0.00779  -0.00682   0.00123   0.00219   0.00366

 Mulliken charges and spin densities:
               1          2
     1  Na  -0.116255   0.218384
     2  Na   0.090988   0.057823
     3  Na  -0.076895   0.166723
     4  Na   0.019853  -0.002727
     5  Na  -0.271059   0.031966
     6  Na   0.095791   0.222203
     7  Na   0.257576   0.305628
 Sum of Mulliken charges =  -0.00000   1.00000

 Dipole moment (field-independent basis, Debye):
    X=              0.8582    Y=              0.1222    Z=              0.2043  Tot=              0.8906
 Quadrupole moment (field-independent basis, Debye-Ang):
   XX=            -68.7228   YY=            -73.0392   ZZ=            -62.2891
   XY=              0.9335   XZ=             -1.9402   YZ=              1.9094

 Normal termination of Gaussian 16 at Mon Dec  4 03:53:29 2023.
