 Gaussian 16, Revision B.01,
 Gaussian 16:  ES64L-G16RevB.01 20-Dec-2017

 -------------------------
 #P B3LYP/6-311+g(d) force
 -------------------------

 -----
 DPGEN
 -----
 Symbolic Z-matrix:
 Charge =  0 Multiplicity = 2

                         Standard orientation:
 ---------------------------------------------------------------------
 Center     Atomic      Atomic             Coordinates (Angstroms)
 Number     Number       Type             X           Y           Z
 ---------------------------------------------------------------------
      1         11           0       -2.966704   -0.989806    0.329846
      2         11           0        1.789053    2.385415   -0.618344
      3         11           0        2.906863   -1.113318    0.075587
      4         11           0        0.605216   -0.300992    2.312178
      5         11           0       -0.160520   -2.730398   -0.746403
      6         11           0       -1.624684    2.523644    0.369258
      7         11           0       -0.549224    0.225455   -1.722122
 ---------------------------------------------------------------------

 SCF Done:  E(UB3LYP) =  -1136.13609137     A.U. after   19 cycles

 The electronic state is 2-A.
 Alpha  occ. eigenvalues --  -38.44317 -38.43792 -38.43667 -38.43656 -38.43591
 Alpha  occ. eigenvalues --  -38.43447 -38.43424  -2.20149  -2.19614  -2.19494
 Alpha  occ. eigenvalues --   -2.19478  -2.19416  -2.19410  -2.19293  -1.13800
 Alpha  occ. eigenvalues --   -1.13780  -1.13778  -1.13294  -1.13281  -1.13259
 Alpha  occ. eigenvalues --   -1.13211  -1.13176  -1.13164  -1.13140  -1.13133
 Alpha  occ. eigenvalues --   -1.13119  -1.13097  -1.13092  -1.13071  -1.13056
 Alpha  occ. eigenvalues --   -1.13055  -1.13025  -1.12949  -1.12934  -1.12897
 Alpha  occ. eigenvalues --   -0.18276  -0.12668  -0.12518  -0.11225
 Alpha virt. eigenvalues --   -0.05278  -0.05186  -0.04696  -0.03519  -0.03186
 Alpha virt. eigenvalues --   -0.02931  -0.01252  -0.01056  -0.00353  -0.00177
 Alpha virt. eigenvalues --   -0.00043   0.00381   0.00801   0.00868   0.00885

  Beta  occ. eigenvalues --  -38.44224 -38.43788 -38.43662 -38.43643 -38.43591
  Beta  occ. eigenvalues --  -38.43405 -38.43391  -2.19976  -2.19608  -2.19486
  Beta  occ. eigenvalues --   -2.19456  -2.19418  -2.19311  -2.19260  -1.13685
  Beta  occ. eigenvalues --   -1.13659  -1.13654  -1.13288  -1.13272  -1.13245
  Beta  occ. eigenvalues --   -1.13194  -1.13155  -1.13146  -1.13123  -1.13108
  Beta  occ. eigenvalues --   -1.13090  -1.13083  -1.13075  -1.13062  -1.13054
  Beta  occ. eigenvalues --   -1.12992  -1.12957  -1.12908  -1.12900  -1.12874
  Beta  occ. eigenvalues --   -0.17557  -0.12459  -0.12288
  Beta virt. eigenvalues --   -0.07344  -0.05237  -0.05032  -0.04577  -0.02777
  Beta virt. eigenvalues --   -0.02502  -0.01953  -0.01153  -0.00982  -0.00320
  Beta virt. eigenvalues --   -0.00195   0.00096   0.00417   0.00881   0.00894

 Mulliken charges and spin densities:
               1          2
     1  Na  -0.025232   0.079742
     2  Na   0.147052  -0.051738
     3  Na   0.125123   0.006091
     4  Na  -0.563834   0.643367
     5  Na   0.282382  -0.023590
     6  Na  -0.038880   0.079641
     7  Na   0.073390   0.266487
 Sum of Mulliken charges =  -0.00000   1.00000

 Dipole moment (field-independent basis, Debye):
    X=             -0.0784    Y=              0.0743    Z=              0.3194  Tot=              0.3371
 Quadrupole moment (field-independent basis, Debye-Ang):
   XX=            -60.3901   YY=            -64.1728   ZZ=            -70.8748
   XY=              0.1933   XZ=             -2.9696   YZ=              1.0050

 Normal termination of Gaussian 16 at Thu Dec  7 21:00:36 2023.
