 Gaussian 16, Revision B.01,
 Gaussian 16:  ES64L-G16RevB.01 20-Dec-2017

 -------------------------
 #P B3LYP/6-311+g(d) force
 -------------------------

 -----
 DPGEN
 -----
 Symbolic Z-matrix:
 Charge =  0 Multiplicity = 2

                         Standard orientation:
 ---------------------------------------------------------------------
 Center     Atomic      Atomic             Coordinates (Angstroms)
 Number     Number       Type             X           Y           Z
 ---------------------------------------------------------------------
      1         11           0       -0.786300   -3.428214    0.040575
      2         11           0       -2.412212   -0.148295    2.169857
      3         11           0       -2.967083   -0.538478   -1.918850
      4         11           0        3.889402    0.401092   -0.571495
      5         11           0        2.766267   -2.312964    0.272126
      6         11           0       -2.063616    2.555917   -0.283303
      7         11           0        1.573541    3.470942    0.291090
 ---------------------------------------------------------------------

 SCF Done:  E(UB3LYP) =  -1136.10403248     A.U. after   25 cycles

 The electronic state is 2-A.
 Alpha  occ. eigenvalues --  -38.45260 -38.45225 -38.44880 -38.44693 -38.44674
 Alpha  occ. eigenvalues --  -38.44581 -38.44020  -2.20980  -2.20946  -2.20645
 Alpha  occ. eigenvalues --   -2.20460  -2.20456  -2.20370  -2.19820  -1.14661
 Alpha  occ. eigenvalues --   -1.14641  -1.14625  -1.14616  -1.14614  -1.14590
 Alpha  occ. eigenvalues --   -1.14308  -1.14282  -1.14272  -1.14223  -1.14140
 Alpha  occ. eigenvalues --   -1.14128  -1.14124  -1.14095  -1.14094  -1.14033
 Alpha  occ. eigenvalues --   -1.14018  -1.13971  -1.13475  -1.13451  -1.13437
 Alpha  occ. eigenvalues --   -0.15956  -0.13700  -0.12553  -0.10292
 Alpha virt. eigenvalues --   -0.07715  -0.06779  -0.03725  -0.03633  -0.03077
 Alpha virt. eigenvalues --   -0.02643  -0.02213  -0.02116  -0.01419  -0.01159
 Alpha virt. eigenvalues --   -0.00453  -0.00292   0.00166   0.00349   0.00454

  Beta  occ. eigenvalues --  -38.45255 -38.45228 -38.44806 -38.44689 -38.44673
  Beta  occ. eigenvalues --  -38.44580 -38.43922  -2.20971  -2.20954  -2.20507
  Beta  occ. eigenvalues --   -2.20458  -2.20453  -2.20369  -2.19638  -1.14654
  Beta  occ. eigenvalues --   -1.14635  -1.14625  -1.14614  -1.14610  -1.14597
  Beta  occ. eigenvalues --   -1.14221  -1.14212  -1.14190  -1.14176  -1.14137
  Beta  occ. eigenvalues --   -1.14123  -1.14119  -1.14093  -1.14073  -1.14032
  Beta  occ. eigenvalues --   -1.14018  -1.13968  -1.13351  -1.13326  -1.13312
  Beta  occ. eigenvalues --   -0.15491  -0.13350  -0.12493
  Beta virt. eigenvalues --   -0.07579  -0.06687  -0.06335  -0.03569  -0.03370
  Beta virt. eigenvalues --   -0.02613  -0.02353  -0.02089  -0.01608  -0.01226
  Beta virt. eigenvalues --   -0.01105  -0.00137   0.00053   0.00334   0.00418

 Mulliken charges and spin densities:
               1          2
     1  Na  -0.083959   0.052354
     2  Na   0.085892   0.402776
     3  Na  -0.052107   0.436066
     4  Na   0.032696   0.003837
     5  Na  -0.010414  -0.029198
     6  Na   0.056869   0.160597
     7  Na  -0.028977  -0.026432
 Sum of Mulliken charges =  -0.00000   1.00000

 Dipole moment (field-independent basis, Debye):
    X=              0.7103    Y=              0.0506    Z=              0.2305  Tot=              0.7484
 Quadrupole moment (field-independent basis, Debye-Ang):
   XX=            -65.9717   YY=            -59.9309   ZZ=            -76.3455
   XY=              1.9595   XZ=             -2.1449   YZ=              0.6022

 Normal termination of Gaussian 16 at Sun Dec  3 14:49:54 2023.
