 Gaussian 16, Revision B.01,
 Gaussian 16:  ES64L-G16RevB.01 20-Dec-2017

 -------------------------
 #P B3LYP/6-311+g(d) force
 -------------------------

 -----
 DPGEN
 -----
 Symbolic Z-matrix:
 Charge =  0 Multiplicity = 2

                         Standard orientation:
 ---------------------------------------------------------------------
 Center     Atomic      Atomic             Coordinates (Angstroms)
 Number     Number       Type             X           Y           Z
 ---------------------------------------------------------------------
      1         11           0        1.515776    1.480513   -0.321023
      2         11           0       -0.955250    0.164308    1.118548
      3         11           0       -1.890216   -2.760405   -0.445941
      4         11           0        2.312598   -1.724423    0.501626
      5         11           0        4.871450    0.025018   -0.445738
      6         11           0       -4.507458   -0.111561   -0.371667
      7         11           0       -1.346899    2.926550   -0.035805
 ---------------------------------------------------------------------

 SCF Done:  E(UB3LYP) =  -1136.12465382     A.U. after   20 cycles

 The electronic state is 2-A.
 Alpha  occ. eigenvalues --  -38.44274 -38.44148 -38.43965 -38.43954 -38.43765
 Alpha  occ. eigenvalues --  -38.43617 -38.43368  -2.20062  -2.19985  -2.19791
 Alpha  occ. eigenvalues --   -2.19734  -2.19678  -2.19583  -2.19242  -1.13723
 Alpha  occ. eigenvalues --   -1.13699  -1.13680  -1.13672  -1.13670  -1.13626
 Alpha  occ. eigenvalues --   -1.13449  -1.13436  -1.13433  -1.13420  -1.13415
 Alpha  occ. eigenvalues --   -1.13395  -1.13363  -1.13362  -1.13309  -1.13269
 Alpha  occ. eigenvalues --   -1.13249  -1.13187  -1.12900  -1.12889  -1.12858
 Alpha  occ. eigenvalues --   -0.17451  -0.14140  -0.12123  -0.10761
 Alpha virt. eigenvalues --   -0.05918  -0.05190  -0.04944  -0.03835  -0.02627
 Alpha virt. eigenvalues --   -0.02184  -0.01709  -0.01659  -0.00789  -0.00497
 Alpha virt. eigenvalues --   -0.00448   0.00072   0.00504   0.00592   0.00672

  Beta  occ. eigenvalues --  -38.44193 -38.44135 -38.43968 -38.43891 -38.43758
  Beta  occ. eigenvalues --  -38.43589 -38.43368  -2.19968  -2.19909  -2.19744
  Beta  occ. eigenvalues --   -2.19672  -2.19667  -2.19535  -2.19242  -1.13671
  Beta  occ. eigenvalues --   -1.13664  -1.13618  -1.13593  -1.13573  -1.13571
  Beta  occ. eigenvalues --   -1.13430  -1.13423  -1.13410  -1.13361  -1.13356
  Beta  occ. eigenvalues --   -1.13350  -1.13347  -1.13327  -1.13296  -1.13235
  Beta  occ. eigenvalues --   -1.13205  -1.13156  -1.12899  -1.12888  -1.12848
  Beta  occ. eigenvalues --   -0.16882  -0.13540  -0.11927
  Beta virt. eigenvalues --   -0.07296  -0.05741  -0.04869  -0.04301  -0.03649
  Beta virt. eigenvalues --   -0.02304  -0.01811  -0.01539  -0.01242  -0.00552
  Beta virt. eigenvalues --   -0.00384  -0.00159   0.00242   0.00640   0.00695

 Mulliken charges and spin densities:
               1          2
     1  Na  -1.395044  -0.161683
     2  Na  -0.209481   0.048462
     3  Na   0.003715   0.016006
     4  Na  -0.126285   0.067555
     5  Na   0.934583   0.297877
     6  Na   0.041539   0.453960
     7  Na   0.750971   0.277824
 Sum of Mulliken charges =  -0.00000   1.00000

 Dipole moment (field-independent basis, Debye):
    X=              0.3623    Y=              0.0637    Z=             -0.3070  Tot=              0.4792
 Quadrupole moment (field-independent basis, Debye-Ang):
   XX=            -62.5531   YY=            -65.4068   ZZ=            -69.6722
   XY=             -2.5133   XZ=              0.1826   YZ=             -0.6923

 Normal termination of Gaussian 16 at Wed Nov 29 01:39:40 2023.
