 Gaussian 16, Revision B.01,
 Gaussian 16:  ES64L-G16RevB.01 20-Dec-2017

 -------------------------
 #P B3LYP/6-311+g(d) force
 -------------------------

 -----
 DPGEN
 -----
 Symbolic Z-matrix:
 Charge =  0 Multiplicity = 2

                         Standard orientation:
 ---------------------------------------------------------------------
 Center     Atomic      Atomic             Coordinates (Angstroms)
 Number     Number       Type             X           Y           Z
 ---------------------------------------------------------------------
      1         11           0        0.114397   -1.608670    1.631944
      2         11           0        2.309911   -1.731608   -1.691682
      3         11           0       -2.117805    2.358728   -0.997406
      4         11           0       -3.141292   -0.008388    1.067814
      5         11           0       -1.458253   -2.133606   -0.951598
      6         11           0        1.548491    2.116283   -0.830100
      7         11           0        2.744551    1.007261    1.771029
 ---------------------------------------------------------------------

 SCF Done:  E(UB3LYP) =  -1136.12260012     A.U. after   21 cycles

 The electronic state is 2-A.
 Alpha  occ. eigenvalues --  -38.44729 -38.44297 -38.44241 -38.44231 -38.43928
 Alpha  occ. eigenvalues --  -38.43745 -38.43546  -2.20503  -2.20143  -2.20071
 Alpha  occ. eigenvalues --   -2.20062  -2.19783  -2.19557  -2.19334  -1.14170
 Alpha  occ. eigenvalues --   -1.14130  -1.14128  -1.13880  -1.13802  -1.13785
 Alpha  occ. eigenvalues --   -1.13767  -1.13736  -1.13716  -1.13714  -1.13694
 Alpha  occ. eigenvalues --   -1.13684  -1.13456  -1.13435  -1.13400  -1.13241
 Alpha  occ. eigenvalues --   -1.13219  -1.13186  -1.13005  -1.12993  -1.12973
 Alpha  occ. eigenvalues --   -0.17344  -0.13409  -0.12136  -0.11161
 Alpha virt. eigenvalues --   -0.05835  -0.05627  -0.04995  -0.03664  -0.03138
 Alpha virt. eigenvalues --   -0.02623  -0.01560  -0.00969  -0.00585  -0.00237
 Alpha virt. eigenvalues --   -0.00104   0.00075   0.00234   0.00423   0.00677

  Beta  occ. eigenvalues --  -38.44658 -38.44293 -38.44225 -38.44193 -38.43894
  Beta  occ. eigenvalues --  -38.43740 -38.43535  -2.20372  -2.20136  -2.20053
  Beta  occ. eigenvalues --   -2.19982  -2.19723  -2.19551  -2.19314  -1.14073
  Beta  occ. eigenvalues --   -1.14045  -1.14036  -1.13875  -1.13798  -1.13767
  Beta  occ. eigenvalues --   -1.13728  -1.13712  -1.13706  -1.13674  -1.13644
  Beta  occ. eigenvalues --   -1.13635  -1.13419  -1.13381  -1.13355  -1.13224
  Beta  occ. eigenvalues --   -1.13209  -1.13183  -1.12990  -1.12980  -1.12960
  Beta  occ. eigenvalues --   -0.16788  -0.13174  -0.11836
  Beta virt. eigenvalues --   -0.07581  -0.05648  -0.05359  -0.04323  -0.03494
  Beta virt. eigenvalues --   -0.02676  -0.01962  -0.01352  -0.00760  -0.00330
  Beta virt. eigenvalues --   -0.00153  -0.00071   0.00214   0.00412   0.00501

 Mulliken charges and spin densities:
               1          2
     1  Na  -0.058523   0.173098
     2  Na  -0.293037   0.224887
     3  Na  -0.175355  -0.080237
     4  Na   0.119416  -0.033271
     5  Na   0.340122   0.337832
     6  Na  -0.182214   0.274537
     7  Na   0.249591   0.103153
 Sum of Mulliken charges =  -0.00000   1.00000

 Dipole moment (field-independent basis, Debye):
    X=              0.0197    Y=             -0.6281    Z=              0.1191  Tot=              0.6396
 Quadrupole moment (field-independent basis, Debye-Ang):
   XX=            -59.8975   YY=            -72.5432   ZZ=            -66.3081
   XY=              0.8375   XZ=             -0.7942   YZ=              1.3310

 Normal termination of Gaussian 16 at Mon Dec  4 00:09:22 2023.
