 Gaussian 16, Revision B.01,
 Gaussian 16:  ES64L-G16RevB.01 20-Dec-2017

 -------------------------
 #P B3LYP/6-311+g(d) force
 -------------------------

 -----
 DPGEN
 -----
 Symbolic Z-matrix:
 Charge =  0 Multiplicity = 2

                         Standard orientation:
 ---------------------------------------------------------------------
 Center     Atomic      Atomic             Coordinates (Angstroms)
 Number     Number       Type             X           Y           Z
 ---------------------------------------------------------------------
      1         11           0       -1.421456    2.990197    0.000733
      2         11           0        0.014462   -3.227454   -0.129210
      3         11           0        2.902405   -1.217708    0.342115
      4         11           0       -1.118021   -0.044833    2.047485
      5         11           0       -0.044261   -0.071321   -1.501895
      6         11           0       -2.939050   -0.664367   -0.579101
      7         11           0        2.605921    2.235486   -0.180128
 ---------------------------------------------------------------------

 SCF Done:  E(UB3LYP) =  -1136.13144351     A.U. after   19 cycles

 The electronic state is 2-A.
 Alpha  occ. eigenvalues --  -38.44464 -38.44118 -38.44018 -38.43974 -38.43840
 Alpha  occ. eigenvalues --  -38.43562 -38.43147  -2.20233  -2.19990  -2.19788
 Alpha  occ. eigenvalues --   -2.19778  -2.19642  -2.19428  -2.19100  -1.13913
 Alpha  occ. eigenvalues --   -1.13894  -1.13870  -1.13705  -1.13665  -1.13591
 Alpha  occ. eigenvalues --   -1.13467  -1.13459  -1.13452  -1.13443  -1.13429
 Alpha  occ. eigenvalues --   -1.13417  -1.13317  -1.13307  -1.13270  -1.13082
 Alpha  occ. eigenvalues --   -1.13076  -1.13030  -1.12788  -1.12747  -1.12717
 Alpha  occ. eigenvalues --   -0.17998  -0.12916  -0.12437  -0.10326
 Alpha virt. eigenvalues --   -0.06088  -0.05308  -0.05121  -0.03077  -0.02748
 Alpha virt. eigenvalues --   -0.02327  -0.01626  -0.01411  -0.00827  -0.00696
 Alpha virt. eigenvalues --   -0.00020   0.00334   0.00714   0.00758   0.00828

  Beta  occ. eigenvalues --  -38.44462 -38.44097 -38.44020 -38.43972 -38.43836
  Beta  occ. eigenvalues --  -38.43472 -38.43087  -2.20232  -2.19957  -2.19793
  Beta  occ. eigenvalues --   -2.19777  -2.19636  -2.19262  -2.18993  -1.13897
  Beta  occ. eigenvalues --   -1.13891  -1.13870  -1.13680  -1.13609  -1.13571
  Beta  occ. eigenvalues --   -1.13463  -1.13456  -1.13455  -1.13434  -1.13428
  Beta  occ. eigenvalues --   -1.13416  -1.13304  -1.13303  -1.13268  -1.12972
  Beta  occ. eigenvalues --   -1.12961  -1.12911  -1.12718  -1.12657  -1.12639
  Beta  occ. eigenvalues --   -0.17319  -0.12710  -0.12255
  Beta virt. eigenvalues --   -0.06451  -0.06064  -0.05273  -0.04955  -0.02411
  Beta virt. eigenvalues --   -0.02113  -0.01553  -0.01402  -0.01228  -0.00859
  Beta virt. eigenvalues --   -0.00707   0.00168   0.00390   0.00722   0.00834

 Mulliken charges and spin densities:
               1          2
     1  Na  -0.046242  -0.079199
     2  Na   0.073114  -0.000039
     3  Na  -0.186426  -0.004334
     4  Na  -0.472873   0.788871
     5  Na   0.320297   0.400304
     6  Na   0.402971  -0.054465
     7  Na  -0.090840  -0.051138
 Sum of Mulliken charges =  -0.00000   1.00000

 Dipole moment (field-independent basis, Debye):
    X=             -0.2019    Y=              0.1399    Z=              0.0478  Tot=              0.2503
 Quadrupole moment (field-independent basis, Debye-Ang):
   XX=            -59.4030   YY=            -57.0203   ZZ=            -76.6853
   XY=             -0.1214   XZ=              2.2158   YZ=             -0.2950

 Normal termination of Gaussian 16 at Sun Dec  3 13:55:56 2023.
