 Gaussian 16, Revision B.01,
 Gaussian 16:  ES64L-G16RevB.01 20-Dec-2017

 -------------------------
 #P B3LYP/6-311+g(d) force
 -------------------------

 -----
 DPGEN
 -----
 Symbolic Z-matrix:
 Charge =  0 Multiplicity = 2

                         Standard orientation:
 ---------------------------------------------------------------------
 Center     Atomic      Atomic             Coordinates (Angstroms)
 Number     Number       Type             X           Y           Z
 ---------------------------------------------------------------------
      1         11           0       -1.120560   -2.320067   -0.486130
      2         11           0        3.617572   -0.399391   -1.005925
      3         11           0        1.778960   -2.628957    0.584896
      4         11           0       -2.183397    1.360283    0.200348
      5         11           0       -4.756529   -0.322750   -0.095843
      6         11           0        0.899201    3.062685   -0.714956
      7         11           0        1.764753    1.248196    1.517611
 ---------------------------------------------------------------------

 SCF Done:  E(UB3LYP) =  -1136.12006899     A.U. after   19 cycles

 The electronic state is 2-A.
 Alpha  occ. eigenvalues --  -38.45108 -38.44129 -38.44034 -38.43968 -38.43784
 Alpha  occ. eigenvalues --  -38.43609 -38.43353  -2.20949  -2.19965  -2.19852
 Alpha  occ. eigenvalues --   -2.19809  -2.19620  -2.19444  -2.19216  -1.14666
 Alpha  occ. eigenvalues --   -1.14609  -1.14573  -1.13641  -1.13617  -1.13594
 Alpha  occ. eigenvalues --   -1.13536  -1.13520  -1.13471  -1.13457  -1.13448
 Alpha  occ. eigenvalues --   -1.13435  -1.13319  -1.13314  -1.13288  -1.13082
 Alpha  occ. eigenvalues --   -1.13078  -1.13039  -1.12888  -1.12884  -1.12853
 Alpha  occ. eigenvalues --   -0.17039  -0.13823  -0.12962  -0.10172
 Alpha virt. eigenvalues --   -0.06414  -0.05510  -0.04748  -0.03292  -0.02709
 Alpha virt. eigenvalues --   -0.02587  -0.01898  -0.01179  -0.01023  -0.00728
 Alpha virt. eigenvalues --   -0.00408   0.00058   0.00317   0.00544   0.00721

  Beta  occ. eigenvalues --  -38.45106 -38.44124 -38.43987 -38.43888 -38.43777
  Beta  occ. eigenvalues --  -38.43546 -38.43341  -2.20949  -2.19958  -2.19769
  Beta  occ. eigenvalues --   -2.19659  -2.19613  -2.19326  -2.19201  -1.14672
  Beta  occ. eigenvalues --   -1.14608  -1.14551  -1.13640  -1.13613  -1.13578
  Beta  occ. eigenvalues --   -1.13472  -1.13465  -1.13410  -1.13355  -1.13349
  Beta  occ. eigenvalues --   -1.13333  -1.13319  -1.13292  -1.13257  -1.13001
  Beta  occ. eigenvalues --   -1.12996  -1.12970  -1.12882  -1.12869  -1.12806
  Beta  occ. eigenvalues --   -0.16607  -0.13141  -0.12451
  Beta virt. eigenvalues --   -0.06820  -0.06237  -0.05432  -0.04427  -0.02850
  Beta virt. eigenvalues --   -0.02485  -0.02311  -0.01356  -0.01018  -0.00854
  Beta virt. eigenvalues --   -0.00523  -0.00063   0.00250   0.00430   0.00639

 Mulliken charges and spin densities:
               1          2
     1  Na  -0.102231   0.214539
     2  Na   0.013264   0.430985
     3  Na  -0.215444  -0.103969
     4  Na  -0.974720  -0.028699
     5  Na   0.458681   0.405531
     6  Na   0.400530  -0.098229
     7  Na   0.419919   0.179841
 Sum of Mulliken charges =  -0.00000   1.00000

 Dipole moment (field-independent basis, Debye):
    X=              0.4660    Y=              0.5693    Z=             -0.0825  Tot=              0.7403
 Quadrupole moment (field-independent basis, Debye-Ang):
   XX=            -71.3868   YY=            -69.0404   ZZ=            -63.2027
   XY=              3.7385   XZ=              1.1848   YZ=             -1.8869

 Normal termination of Gaussian 16 at Mon Dec  4 05:39:43 2023.
