 Gaussian 16, Revision B.01,
 Gaussian 16:  ES64L-G16RevB.01 20-Dec-2017

 -------------------------
 #P B3LYP/6-311+g(d) force
 -------------------------

 -----
 DPGEN
 -----
 Symbolic Z-matrix:
 Charge =  0 Multiplicity = 2

                         Standard orientation:
 ---------------------------------------------------------------------
 Center     Atomic      Atomic             Coordinates (Angstroms)
 Number     Number       Type             X           Y           Z
 ---------------------------------------------------------------------
      1         11           0        3.029953    0.519735    0.792720
      2         11           0       -3.028365   -1.642586   -0.330157
      3         11           0        2.179208   -1.900518   -0.956139
      4         11           0       -0.312770   -0.313129   -1.548884
      5         11           0        0.397323    2.761127   -0.728729
      6         11           0       -2.216620    1.648817    0.635632
      7         11           0       -0.048729   -1.073446    2.135555
 ---------------------------------------------------------------------

 SCF Done:  E(UB3LYP) =  -1136.12699160     A.U. after   21 cycles

 The electronic state is 2-A.
 Alpha  occ. eigenvalues --  -38.44580 -38.44430 -38.44088 -38.43991 -38.43806
 Alpha  occ. eigenvalues --  -38.43386 -38.42539  -2.20410  -2.20251  -2.19901
 Alpha  occ. eigenvalues --   -2.19879  -2.19677  -2.19387  -2.18406  -1.14105
 Alpha  occ. eigenvalues --   -1.14070  -1.14042  -1.13922  -1.13895  -1.13855
 Alpha  occ. eigenvalues --   -1.13621  -1.13593  -1.13555  -1.13538  -1.13510
 Alpha  occ. eigenvalues --   -1.13491  -1.13365  -1.13346  -1.13300  -1.13047
 Alpha  occ. eigenvalues --   -1.13032  -1.13013  -1.12093  -1.12064  -1.12035
 Alpha  occ. eigenvalues --   -0.18430  -0.13460  -0.11793  -0.11314
 Alpha virt. eigenvalues --   -0.06077  -0.05323  -0.03998  -0.03728  -0.02933
 Alpha virt. eigenvalues --   -0.02837  -0.01793  -0.00994  -0.00371  -0.00062
 Alpha virt. eigenvalues --    0.00155   0.00340   0.00493   0.00732   0.00773

  Beta  occ. eigenvalues --  -38.44568 -38.44349 -38.44090 -38.43967 -38.43799
  Beta  occ. eigenvalues --  -38.43318 -38.42535  -2.20389  -2.20101  -2.19907
  Beta  occ. eigenvalues --   -2.19838  -2.19664  -2.19266  -2.18400  -1.14092
  Beta  occ. eigenvalues --   -1.14044  -1.14023  -1.13821  -1.13789  -1.13746
  Beta  occ. eigenvalues --   -1.13591  -1.13573  -1.13560  -1.13537  -1.13484
  Beta  occ. eigenvalues --   -1.13453  -1.13358  -1.13321  -1.13296  -1.12969
  Beta  occ. eigenvalues --   -1.12935  -1.12927  -1.12084  -1.12054  -1.12030
  Beta  occ. eigenvalues --   -0.17704  -0.13290  -0.11603
  Beta virt. eigenvalues --   -0.07375  -0.05874  -0.05186  -0.03871  -0.03098
  Beta virt. eigenvalues --   -0.02302  -0.01933  -0.01634  -0.00869  -0.00268
  Beta virt. eigenvalues --    0.00011   0.00214   0.00382   0.00668   0.00813

 Mulliken charges and spin densities:
               1          2
     1  Na  -0.170111   0.163358
     2  Na   0.065359   0.053077
     3  Na   0.160273   0.077928
     4  Na   0.069838   0.122455
     5  Na   0.130941   0.034123
     6  Na   0.028445   0.070424
     7  Na  -0.284744   0.478635
 Sum of Mulliken charges =  -0.00000   1.00000

 Dipole moment (field-independent basis, Debye):
    X=              0.0281    Y=             -0.4789    Z=              0.5718  Tot=              0.7464
 Quadrupole moment (field-independent basis, Debye-Ang):
   XX=            -54.8958   YY=            -69.8165   ZZ=            -70.4235
   XY=              1.5430   XZ=             -0.1662   YZ=              1.8962

 Normal termination of Gaussian 16 at Thu Dec  7 21:24:28 2023.
