 Gaussian 16, Revision B.01,
 Gaussian 16:  ES64L-G16RevB.01 20-Dec-2017

 -------------------------
 #P B3LYP/6-311+g(d) force
 -------------------------

 -----
 DPGEN
 -----
 Symbolic Z-matrix:
 Charge =  0 Multiplicity = 2

                         Standard orientation:
 ---------------------------------------------------------------------
 Center     Atomic      Atomic             Coordinates (Angstroms)
 Number     Number       Type             X           Y           Z
 ---------------------------------------------------------------------
      1         11           0        1.780114   -0.920931    1.967946
      2         11           0       -1.629047    1.753071    1.397379
      3         11           0        2.558976    2.170923   -0.391454
      4         11           0        2.227594   -1.266877   -1.202948
      5         11           0       -0.623739   -2.103579    0.288711
      6         11           0       -4.013307   -0.150913   -0.542892
      7         11           0       -0.300589    0.518306   -1.516741
 ---------------------------------------------------------------------

 SCF Done:  E(UB3LYP) =  -1136.12439147     A.U. after   23 cycles

 The electronic state is 2-A.
 Alpha  occ. eigenvalues --  -38.45233 -38.44525 -38.43863 -38.43816 -38.43631
 Alpha  occ. eigenvalues --  -38.43093 -38.42683  -2.20990  -2.20320  -2.19763
 Alpha  occ. eigenvalues --   -2.19751  -2.19589  -2.18893  -2.18601  -1.14668
 Alpha  occ. eigenvalues --   -1.14652  -1.14614  -1.14003  -1.13978  -1.13925
 Alpha  occ. eigenvalues --   -1.13518  -1.13485  -1.13426  -1.13364  -1.13355
 Alpha  occ. eigenvalues --   -1.13331  -1.13289  -1.13244  -1.13174  -1.12563
 Alpha  occ. eigenvalues --   -1.12554  -1.12544  -1.12319  -1.12282  -1.12190
 Alpha  occ. eigenvalues --   -0.18439  -0.13548  -0.11295  -0.11196
 Alpha virt. eigenvalues --   -0.06608  -0.05115  -0.04195  -0.03194  -0.02795
 Alpha virt. eigenvalues --   -0.02655  -0.02284  -0.00932  -0.00670  -0.00127
 Alpha virt. eigenvalues --    0.00201   0.00235   0.00377   0.00698   0.00797

  Beta  occ. eigenvalues --  -38.45234 -38.44486 -38.43798 -38.43786 -38.43581
  Beta  occ. eigenvalues --  -38.43098 -38.42672  -2.20992  -2.20246  -2.19710
  Beta  occ. eigenvalues --   -2.19630  -2.19501  -2.18904  -2.18586  -1.14666
  Beta  occ. eigenvalues --   -1.14650  -1.14616  -1.13955  -1.13921  -1.13873
  Beta  occ. eigenvalues --   -1.13468  -1.13422  -1.13341  -1.13320  -1.13277
  Beta  occ. eigenvalues --   -1.13263  -1.13237  -1.13157  -1.13112  -1.12570
  Beta  occ. eigenvalues --   -1.12556  -1.12545  -1.12312  -1.12228  -1.12187
  Beta  occ. eigenvalues --   -0.17682  -0.13393  -0.11067
  Beta virt. eigenvalues --   -0.07342  -0.06400  -0.04846  -0.03832  -0.03051
  Beta virt. eigenvalues --   -0.02204  -0.02055  -0.01833  -0.00802  -0.00291
  Beta virt. eigenvalues --   -0.00048   0.00216   0.00270   0.00517   0.00780

 Mulliken charges and spin densities:
               1          2
     1  Na  -0.206630   0.538299
     2  Na  -0.264788   0.236669
     3  Na  -0.240885  -0.011379
     4  Na   0.607302  -0.053230
     5  Na  -0.058757   0.055592
     6  Na   0.291710  -0.033837
     7  Na  -0.127953   0.267886
 Sum of Mulliken charges =  -0.00000   1.00000

 Dipole moment (field-independent basis, Debye):
    X=             -1.1644    Y=             -0.0482    Z=              0.1560  Tot=              1.1758
 Quadrupole moment (field-independent basis, Debye-Ang):
   XX=            -49.0933   YY=            -74.6351   ZZ=            -68.8149
   XY=             -0.1133   XZ=              1.5864   YZ=              3.7452

 Normal termination of Gaussian 16 at Wed Nov 29 16:02:19 2023.
