 Gaussian 16, Revision B.01,
 Gaussian 16:  ES64L-G16RevB.01 20-Dec-2017

 -------------------------
 #P B3LYP/6-311+g(d) force
 -------------------------

 -----
 DPGEN
 -----
 Symbolic Z-matrix:
 Charge =  0 Multiplicity = 2

                         Standard orientation:
 ---------------------------------------------------------------------
 Center     Atomic      Atomic             Coordinates (Angstroms)
 Number     Number       Type             X           Y           Z
 ---------------------------------------------------------------------
      1         11           0       -0.881663   -0.719167   -1.549885
      2         11           0        2.322426   -1.770804   -1.415575
      3         11           0       -0.211826   -0.285099    2.047090
      4         11           0        1.314961    2.064832   -0.248194
      5         11           0       -3.400668   -1.671286    0.759650
      6         11           0       -2.534090    2.203558   -0.655637
      7         11           0        3.390860    0.177966    1.062551
 ---------------------------------------------------------------------

 SCF Done:  E(UB3LYP) =  -1136.12194398     A.U. after   26 cycles

 The electronic state is 2-A.
 Alpha  occ. eigenvalues --  -38.45123 -38.44659 -38.44370 -38.43923 -38.43710
 Alpha  occ. eigenvalues --  -38.43695 -38.43278  -2.20938  -2.20521  -2.20148
 Alpha  occ. eigenvalues --   -2.19707  -2.19596  -2.19530  -2.19131  -1.14622
 Alpha  occ. eigenvalues --   -1.14585  -1.14540  -1.14213  -1.14168  -1.14157
 Alpha  occ. eigenvalues --   -1.13816  -1.13805  -1.13785  -1.13394  -1.13355
 Alpha  occ. eigenvalues --   -1.13336  -1.13305  -1.13247  -1.13225  -1.13179
 Alpha  occ. eigenvalues --   -1.13166  -1.13162  -1.12820  -1.12805  -1.12763
 Alpha  occ. eigenvalues --   -0.18042  -0.13823  -0.11587  -0.11067
 Alpha virt. eigenvalues --   -0.06591  -0.05544  -0.04742  -0.03301  -0.02617
 Alpha virt. eigenvalues --   -0.02560  -0.02290  -0.01382  -0.00873  -0.00023
 Alpha virt. eigenvalues --    0.00105   0.00181   0.00210   0.00453   0.00634

  Beta  occ. eigenvalues --  -38.45054 -38.44645 -38.44358 -38.43904 -38.43662
  Beta  occ. eigenvalues --  -38.43653 -38.43279  -2.20810  -2.20498  -2.20127
  Beta  occ. eigenvalues --   -2.19673  -2.19511  -2.19454  -2.19136  -1.14536
  Beta  occ. eigenvalues --   -1.14502  -1.14437  -1.14201  -1.14148  -1.14131
  Beta  occ. eigenvalues --   -1.13799  -1.13787  -1.13771  -1.13361  -1.13332
  Beta  occ. eigenvalues --   -1.13316  -1.13249  -1.13176  -1.13162  -1.13122
  Beta  occ. eigenvalues --   -1.13117  -1.13104  -1.12826  -1.12788  -1.12766
  Beta  occ. eigenvalues --   -0.17358  -0.13629  -0.10731
  Beta virt. eigenvalues --   -0.07781  -0.06353  -0.05428  -0.04160  -0.02940
  Beta virt. eigenvalues --   -0.02305  -0.02042  -0.01800  -0.01233  -0.00515
  Beta virt. eigenvalues --   -0.00039   0.00170   0.00198   0.00346   0.00586

 Mulliken charges and spin densities:
               1          2
     1  Na  -0.133302   0.458349
     2  Na  -0.251038   0.069086
     3  Na  -0.500813   0.395877
     4  Na  -0.450987  -0.014589
     5  Na   0.334272  -0.023082
     6  Na   0.015956  -0.060063
     7  Na   0.985911   0.174423
 Sum of Mulliken charges =  -0.00000   1.00000

 Dipole moment (field-independent basis, Debye):
    X=             -0.1195    Y=             -0.0346    Z=              0.7044  Tot=              0.7153
 Quadrupole moment (field-independent basis, Debye-Ang):
   XX=            -49.7442   YY=            -76.1785   ZZ=            -69.5564
   XY=             -0.2849   XZ=              1.4854   YZ=             -0.6992

 Normal termination of Gaussian 16 at Wed Nov 29 00:17:09 2023.
