 Gaussian 16, Revision B.01,
 Gaussian 16:  ES64L-G16RevB.01 20-Dec-2017

 -------------------------
 #P B3LYP/6-311+g(d) force
 -------------------------

 -----
 DPGEN
 -----
 Symbolic Z-matrix:
 Charge =  0 Multiplicity = 2

                         Standard orientation:
 ---------------------------------------------------------------------
 Center     Atomic      Atomic             Coordinates (Angstroms)
 Number     Number       Type             X           Y           Z
 ---------------------------------------------------------------------
      1         11           0        0.976232    0.837688    1.790876
      2         11           0        3.007140    0.943685   -0.950709
      3         11           0       -1.537558   -1.589205    1.338436
      4         11           0        0.117693   -0.389010   -1.629804
      5         11           0       -3.725138   -0.497317   -0.921296
      6         11           0        2.569320   -1.742186    0.113842
      7         11           0       -1.407691    2.436345    0.258655
 ---------------------------------------------------------------------

 SCF Done:  E(UB3LYP) =  -1136.12222627     A.U. after   24 cycles

 The electronic state is 2-A.
 Alpha  occ. eigenvalues --  -38.44819 -38.44585 -38.44362 -38.44076 -38.43979
 Alpha  occ. eigenvalues --  -38.42788 -38.42698  -2.20739  -2.20377  -2.20265
 Alpha  occ. eigenvalues --   -2.19924  -2.19892  -2.18636  -2.18611  -1.14459
 Alpha  occ. eigenvalues --   -1.14411  -1.14340  -1.14056  -1.14026  -1.14014
 Alpha  occ. eigenvalues --   -1.13975  -1.13915  -1.13882  -1.13603  -1.13564
 Alpha  occ. eigenvalues --   -1.13561  -1.13552  -1.13538  -1.13526  -1.12349
 Alpha  occ. eigenvalues --   -1.12301  -1.12293  -1.12280  -1.12248  -1.12208
 Alpha  occ. eigenvalues --   -0.18725  -0.14075  -0.11450  -0.10875
 Alpha virt. eigenvalues --   -0.06642  -0.05322  -0.04554  -0.03033  -0.02697
 Alpha virt. eigenvalues --   -0.02544  -0.02345  -0.01016  -0.00686  -0.00162
 Alpha virt. eigenvalues --    0.00192   0.00237   0.00419   0.00672   0.00748

  Beta  occ. eigenvalues --  -38.44790 -38.44575 -38.44323 -38.44029 -38.43970
  Beta  occ. eigenvalues --  -38.42785 -38.42651  -2.20686  -2.20358  -2.20195
  Beta  occ. eigenvalues --   -2.19880  -2.19838  -2.18606  -2.18552  -1.14431
  Beta  occ. eigenvalues --   -1.14360  -1.14301  -1.14041  -1.14013  -1.13999
  Beta  occ. eigenvalues --   -1.13917  -1.13863  -1.13830  -1.13557  -1.13545
  Beta  occ. eigenvalues --   -1.13531  -1.13504  -1.13485  -1.13475  -1.12323
  Beta  occ. eigenvalues --   -1.12272  -1.12247  -1.12243  -1.12222  -1.12158
  Beta  occ. eigenvalues --   -0.17953  -0.13862  -0.10753
  Beta virt. eigenvalues --   -0.07524  -0.06437  -0.04998  -0.04113  -0.02842
  Beta virt. eigenvalues --   -0.02320  -0.02013  -0.01719  -0.00755  -0.00495
  Beta virt. eigenvalues --   -0.00087   0.00246   0.00323   0.00478   0.00767

 Mulliken charges and spin densities:
               1          2
     1  Na   0.071119   0.448370
     2  Na   0.577946  -0.018490
     3  Na  -0.193300   0.096140
     4  Na  -0.505090   0.384160
     5  Na   0.290151   0.082986
     6  Na   0.220472   0.111703
     7  Na  -0.461299  -0.104869
 Sum of Mulliken charges =  -0.00000   1.00000

 Dipole moment (field-independent basis, Debye):
    X=              0.1001    Y=             -0.0282    Z=             -0.4007  Tot=              0.4140
 Quadrupole moment (field-independent basis, Debye-Ang):
   XX=            -50.5532   YY=            -74.5793   ZZ=            -69.7772
   XY=             -0.2371   XZ=              1.3082   YZ=             -5.7927

 Normal termination of Gaussian 16 at Tue Dec  5 16:25:41 2023.
