 Gaussian 16, Revision B.01,
 Gaussian 16:  ES64L-G16RevB.01 20-Dec-2017

 -------------------------
 #P B3LYP/6-311+g(d) force
 -------------------------

 -----
 DPGEN
 -----
 Symbolic Z-matrix:
 Charge =  0 Multiplicity = 2

                         Standard orientation:
 ---------------------------------------------------------------------
 Center     Atomic      Atomic             Coordinates (Angstroms)
 Number     Number       Type             X           Y           Z
 ---------------------------------------------------------------------
      1         11           0       -3.376924    0.252199   -0.213079
      2         11           0        0.334894   -0.320315   -1.764522
      3         11           0        2.924152   -1.222447   -0.217056
      4         11           0       -0.149062   -0.493109    1.964186
      5         11           0        2.319067    2.169537    0.299482
      6         11           0       -1.211573    2.413896   -0.124902
      7         11           0       -0.840555   -2.799761    0.055891
 ---------------------------------------------------------------------

 SCF Done:  E(UB3LYP) =  -1136.13259714     A.U. after   20 cycles

 The electronic state is 2-A.
 Alpha  occ. eigenvalues --  -38.44480 -38.44428 -38.43687 -38.43575 -38.43514
 Alpha  occ. eigenvalues --  -38.43425 -38.43122  -2.20298  -2.20264  -2.19500
 Alpha  occ. eigenvalues --   -2.19481  -2.19455  -2.19291  -2.18998  -1.14001
 Alpha  occ. eigenvalues --   -1.13973  -1.13955  -1.13921  -1.13918  -1.13883
 Alpha  occ. eigenvalues --   -1.13210  -1.13166  -1.13162  -1.13150  -1.13137
 Alpha  occ. eigenvalues --   -1.13117  -1.13097  -1.13091  -1.13086  -1.12947
 Alpha  occ. eigenvalues --   -1.12941  -1.12897  -1.12677  -1.12658  -1.12641
 Alpha  occ. eigenvalues --   -0.18511  -0.13183  -0.12345  -0.10719
 Alpha virt. eigenvalues --   -0.06103  -0.05236  -0.04371  -0.03268  -0.02898
 Alpha virt. eigenvalues --   -0.02543  -0.01860  -0.01156  -0.00493  -0.00153
 Alpha virt. eigenvalues --   -0.00033   0.00327   0.00761   0.00813   0.00874

  Beta  occ. eigenvalues --  -38.44477 -38.44419 -38.43682 -38.43487 -38.43444
  Beta  occ. eigenvalues --  -38.43418 -38.43116  -2.20295  -2.20251  -2.19492
  Beta  occ. eigenvalues --   -2.19328  -2.19319  -2.19281  -2.18992  -1.14001
  Beta  occ. eigenvalues --   -1.13953  -1.13938  -1.13920  -1.13895  -1.13880
  Beta  occ. eigenvalues --   -1.13159  -1.13151  -1.13140  -1.13126  -1.13051
  Beta  occ. eigenvalues --   -1.13013  -1.13006  -1.12995  -1.12980  -1.12917
  Beta  occ. eigenvalues --   -1.12896  -1.12886  -1.12674  -1.12650  -1.12621
  Beta  occ. eigenvalues --   -0.17803  -0.12959  -0.12081
  Beta virt. eigenvalues --   -0.06868  -0.06037  -0.05181  -0.04334  -0.02525
  Beta virt. eigenvalues --   -0.02128  -0.01766  -0.01513  -0.01085  -0.00542
  Beta virt. eigenvalues --   -0.00177   0.00111   0.00368   0.00788   0.00857

 Mulliken charges and spin densities:
               1          2
     1  Na   0.079386  -0.063728
     2  Na  -0.178485   0.601588
     3  Na   0.376697  -0.070240
     4  Na  -0.405268   0.725682
     5  Na  -0.098559   0.007776
     6  Na  -0.023148  -0.018159
     7  Na   0.249377  -0.182920
 Sum of Mulliken charges =  -0.00000   1.00000

 Dipole moment (field-independent basis, Debye):
    X=              0.0894    Y=             -0.3345    Z=              0.0392  Tot=              0.3484
 Quadrupole moment (field-independent basis, Debye-Ang):
   XX=            -53.9489   YY=            -65.5797   ZZ=            -74.4710
   XY=              0.8517   XZ=              1.2182   YZ=              0.7907

 Normal termination of Gaussian 16 at Thu Dec  7 11:17:20 2023.
