 Gaussian 16, Revision B.01,
 Gaussian 16:  ES64L-G16RevB.01 20-Dec-2017

 -------------------------
 #P B3LYP/6-311+g(d) force
 -------------------------

 -----
 DPGEN
 -----
 Symbolic Z-matrix:
 Charge =  0 Multiplicity = 2

                         Standard orientation:
 ---------------------------------------------------------------------
 Center     Atomic      Atomic             Coordinates (Angstroms)
 Number     Number       Type             X           Y           Z
 ---------------------------------------------------------------------
      1         11           0        1.979768    2.671129   -0.230716
      2         11           0        2.805353   -1.620354   -0.086450
      3         11           0       -1.746141    2.320454    0.195408
      4         11           0       -0.603540   -2.811265   -0.150439
      5         11           0        0.330544   -0.145434    2.105583
      6         11           0        0.234917    0.128775   -1.621877
      7         11           0       -3.000901   -0.543305   -0.211509
 ---------------------------------------------------------------------

 SCF Done:  E(UB3LYP) =  -1136.13704349     A.U. after   19 cycles

 The electronic state is 2-A.
 Alpha  occ. eigenvalues --  -38.44189 -38.44032 -38.43695 -38.43655 -38.43568
 Alpha  occ. eigenvalues --  -38.43386 -38.43149  -2.19993  -2.19820  -2.19551
 Alpha  occ. eigenvalues --   -2.19521  -2.19433  -2.19258  -2.19107  -1.13671
 Alpha  occ. eigenvalues --   -1.13654  -1.13631  -1.13502  -1.13472  -1.13460
 Alpha  occ. eigenvalues --   -1.13258  -1.13217  -1.13193  -1.13184  -1.13150
 Alpha  occ. eigenvalues --   -1.13139  -1.13127  -1.13099  -1.13066  -1.12916
 Alpha  occ. eigenvalues --   -1.12905  -1.12899  -1.12792  -1.12738  -1.12732
 Alpha  occ. eigenvalues --   -0.18487  -0.12815  -0.12585  -0.10677
 Alpha virt. eigenvalues --   -0.05853  -0.05174  -0.04717  -0.03101  -0.02919
 Alpha virt. eigenvalues --   -0.02577  -0.01463  -0.01424  -0.00414  -0.00358
 Alpha virt. eigenvalues --   -0.00017   0.00351   0.00799   0.00825   0.00914

  Beta  occ. eigenvalues --  -38.44186 -38.44029 -38.43689 -38.43560 -38.43557
  Beta  occ. eigenvalues --  -38.43383 -38.43089  -2.19992  -2.19817  -2.19544
  Beta  occ. eigenvalues --   -2.19423  -2.19339  -2.19255  -2.18997  -1.13659
  Beta  occ. eigenvalues --   -1.13643  -1.13632  -1.13488  -1.13467  -1.13461
  Beta  occ. eigenvalues --   -1.13256  -1.13189  -1.13185  -1.13128  -1.13078
  Beta  occ. eigenvalues --   -1.13069  -1.13051  -1.13017  -1.13004  -1.12914
  Beta  occ. eigenvalues --   -1.12901  -1.12882  -1.12716  -1.12661  -1.12650
  Beta  occ. eigenvalues --   -0.17764  -0.12604  -0.12354
  Beta virt. eigenvalues --   -0.06762  -0.05854  -0.05077  -0.04708  -0.02316
  Beta virt. eigenvalues --   -0.02183  -0.01533  -0.01386  -0.01326  -0.00458
  Beta virt. eigenvalues --   -0.00402   0.00132   0.00378   0.00795   0.00861

 Mulliken charges and spin densities:
               1          2
     1  Na   0.089386  -0.099684
     2  Na   0.180925  -0.107507
     3  Na   0.209061   0.049409
     4  Na   0.290584   0.035369
     5  Na  -0.512893   0.715980
     6  Na  -0.264584   0.412762
     7  Na   0.007520  -0.006329
 Sum of Mulliken charges =  -0.00000   1.00000

 Dipole moment (field-independent basis, Debye):
    X=              0.5377    Y=              0.0362    Z=              0.1170  Tot=              0.5515
 Quadrupole moment (field-independent basis, Debye-Ang):
   XX=            -58.1143   YY=            -60.2770   ZZ=            -74.9601
   XY=             -0.0654   XZ=             -0.1650   YZ=              0.7346

 Normal termination of Gaussian 16 at Fri Dec  8 01:42:53 2023.
