 Gaussian 16, Revision B.01,
 Gaussian 16:  ES64L-G16RevB.01 20-Dec-2017

 -------------------------
 #P B3LYP/6-311+g(d) force
 -------------------------

 -----
 DPGEN
 -----
 Symbolic Z-matrix:
 Charge =  0 Multiplicity = 2

                         Standard orientation:
 ---------------------------------------------------------------------
 Center     Atomic      Atomic             Coordinates (Angstroms)
 Number     Number       Type             X           Y           Z
 ---------------------------------------------------------------------
      1         11           0       -0.857415   -2.694077    0.033452
      2         11           0       -3.238998    0.074307   -0.136443
      3         11           0       -0.790317    2.566227    0.355683
      4         11           0        0.268034   -0.271741    1.880343
      5         11           0        2.486988   -1.669283   -0.087346
      6         11           0       -0.000721    0.032852   -1.848610
      7         11           0        2.132429    1.961715   -0.197078
 ---------------------------------------------------------------------

 SCF Done:  E(UB3LYP) =  -1136.13893788     A.U. after   19 cycles

 The electronic state is 2-A.
 Alpha  occ. eigenvalues --  -38.43773 -38.43615 -38.43557 -38.43426 -38.43409
 Alpha  occ. eigenvalues --  -38.43390 -38.43253  -2.19578  -2.19483  -2.19430
 Alpha  occ. eigenvalues --   -2.19387  -2.19348  -2.19317  -2.19169  -1.13250
 Alpha  occ. eigenvalues --   -1.13239  -1.13229  -1.13201  -1.13162  -1.13147
 Alpha  occ. eigenvalues --   -1.13122  -1.13107  -1.13100  -1.13042  -1.13032
 Alpha  occ. eigenvalues --   -1.13025  -1.13001  -1.12999  -1.12991  -1.12969
 Alpha  occ. eigenvalues --   -1.12947  -1.12930  -1.12829  -1.12814  -1.12770
 Alpha  occ. eigenvalues --   -0.19041  -0.12894  -0.12724  -0.10979
 Alpha virt. eigenvalues --   -0.05408  -0.04970  -0.04711  -0.03212  -0.03028
 Alpha virt. eigenvalues --   -0.02653  -0.01373  -0.01072  -0.00178  -0.00100
 Alpha virt. eigenvalues --    0.00014   0.00369   0.00868   0.00908   0.00953

  Beta  occ. eigenvalues --  -38.43774 -38.43609 -38.43551 -38.43402 -38.43342
  Beta  occ. eigenvalues --  -38.43309 -38.43243  -2.19582  -2.19476  -2.19422
  Beta  occ. eigenvalues --   -2.19309  -2.19234  -2.19201  -2.19154  -1.13245
  Beta  occ. eigenvalues --   -1.13235  -1.13232  -1.13184  -1.13140  -1.13123
  Beta  occ. eigenvalues --   -1.13109  -1.13082  -1.13080  -1.13031  -1.12976
  Beta  occ. eigenvalues --   -1.12956  -1.12935  -1.12912  -1.12899  -1.12888
  Beta  occ. eigenvalues --   -1.12873  -1.12844  -1.12809  -1.12775  -1.12765
  Beta  occ. eigenvalues --   -0.18279  -0.12623  -0.12495
  Beta virt. eigenvalues --   -0.07029  -0.05400  -0.04945  -0.04683  -0.02354
  Beta virt. eigenvalues --   -0.02271  -0.01589  -0.01300  -0.01003  -0.00229
  Beta virt. eigenvalues --   -0.00119   0.00116   0.00381   0.00885   0.00923

 Mulliken charges and spin densities:
               1          2
     1  Na   0.114735  -0.131465
     2  Na  -0.044467  -0.100344
     3  Na   0.134477  -0.000933
     4  Na  -0.293900   0.648424
     5  Na   0.241611  -0.101449
     6  Na  -0.390654   0.724603
     7  Na   0.238198  -0.038835
 Sum of Mulliken charges =  -0.00000   1.00000

 Dipole moment (field-independent basis, Debye):
    X=             -0.0156    Y=             -0.2520    Z=             -0.0300  Tot=              0.2543
 Quadrupole moment (field-independent basis, Debye-Ang):
   XX=            -58.0841   YY=            -62.8565   ZZ=            -73.1072
   XY=             -0.0794   XZ=             -0.6039   YZ=              0.6087

 Normal termination of Gaussian 16 at Fri Dec  8 04:39:12 2023.
