 Gaussian 16, Revision B.01,
 Gaussian 16:  ES64L-G16RevB.01 20-Dec-2017

 -------------------------
 #P B3LYP/6-311+g(d) force
 -------------------------

 -----
 DPGEN
 -----
 Symbolic Z-matrix:
 Charge =  0 Multiplicity = 2

                         Standard orientation:
 ---------------------------------------------------------------------
 Center     Atomic      Atomic             Coordinates (Angstroms)
 Number     Number       Type             X           Y           Z
 ---------------------------------------------------------------------
      1         11           0        1.402357    1.997805    0.301413
      2         11           0       -3.734335   -0.904751   -1.061901
      3         11           0        3.794697    0.139999   -0.994518
      4         11           0        1.952901   -1.655068    1.191803
      5         11           0       -0.114697   -0.767699   -1.737605
      6         11           0       -2.144801    2.217048    0.486554
      7         11           0       -1.156122   -1.027335    1.814254
 ---------------------------------------------------------------------

 SCF Done:  E(UB3LYP) =  -1136.12361913     A.U. after   26 cycles

 The electronic state is 2-A.
 Alpha  occ. eigenvalues --  -38.45379 -38.45039 -38.44876 -38.43783 -38.43388
 Alpha  occ. eigenvalues --  -38.43105 -38.42927  -2.21175  -2.20823  -2.20706
 Alpha  occ. eigenvalues --   -2.19650  -2.19265  -2.18911  -2.18766  -1.14870
 Alpha  occ. eigenvalues --   -1.14832  -1.14789  -1.14487  -1.14467  -1.14442
 Alpha  occ. eigenvalues --   -1.14372  -1.14356  -1.14337  -1.13351  -1.13281
 Alpha  occ. eigenvalues --   -1.13279  -1.12949  -1.12912  -1.12894  -1.12593
 Alpha  occ. eigenvalues --   -1.12575  -1.12545  -1.12462  -1.12445  -1.12389
 Alpha  occ. eigenvalues --   -0.18024  -0.14055  -0.11423  -0.10974
 Alpha virt. eigenvalues --   -0.06962  -0.05172  -0.04884  -0.03259  -0.02801
 Alpha virt. eigenvalues --   -0.02529  -0.02328  -0.01280  -0.00910  -0.00191
 Alpha virt. eigenvalues --    0.00054   0.00179   0.00330   0.00478   0.00676

  Beta  occ. eigenvalues --  -38.45349 -38.44993 -38.44852 -38.43723 -38.43358
  Beta  occ. eigenvalues --  -38.43094 -38.42927  -2.21118  -2.20737  -2.20661
  Beta  occ. eigenvalues --   -2.19542  -2.19215  -2.18892  -2.18768  -1.14825
  Beta  occ. eigenvalues --   -1.14797  -1.14741  -1.14422  -1.14407  -1.14389
  Beta  occ. eigenvalues --   -1.14342  -1.14327  -1.14306  -1.13273  -1.13201
  Beta  occ. eigenvalues --   -1.13196  -1.12903  -1.12884  -1.12843  -1.12570
  Beta  occ. eigenvalues --   -1.12564  -1.12531  -1.12466  -1.12439  -1.12380
  Beta  occ. eigenvalues --   -0.17412  -0.13717  -0.10663
  Beta virt. eigenvalues --   -0.07732  -0.06694  -0.05060  -0.04371  -0.02972
  Beta virt. eigenvalues --   -0.02509  -0.01985  -0.01681  -0.01041  -0.00723
  Beta virt. eigenvalues --   -0.00128   0.00106   0.00263   0.00385   0.00636

 Mulliken charges and spin densities:
               1          2
     1  Na  -0.668303   0.010800
     2  Na   0.461579   0.193828
     3  Na   1.055592   0.149699
     4  Na  -0.008881   0.029254
     5  Na  -0.670734   0.287347
     6  Na  -0.104216   0.013752
     7  Na  -0.065037   0.315319
 Sum of Mulliken charges =  -0.00000   1.00000

 Dipole moment (field-independent basis, Debye):
    X=              0.0142    Y=             -0.6919    Z=             -0.7331  Tot=              1.0081
 Quadrupole moment (field-independent basis, Debye-Ang):
   XX=            -46.1169   YY=            -80.6401   ZZ=            -68.0829
   XY=             -0.3239   XZ=             -1.8232   YZ=              0.6877

 Normal termination of Gaussian 16 at Thu Dec  7 18:12:22 2023.
