 Gaussian 16, Revision B.01,
 Gaussian 16:  ES64L-G16RevB.01 20-Dec-2017

 -------------------------
 #P B3LYP/6-311+g(d) force
 -------------------------

 -----
 DPGEN
 -----
 Symbolic Z-matrix:
 Charge =  0 Multiplicity = 2

                         Standard orientation:
 ---------------------------------------------------------------------
 Center     Atomic      Atomic             Coordinates (Angstroms)
 Number     Number       Type             X           Y           Z
 ---------------------------------------------------------------------
      1         11           0       -1.281874    2.519805   -0.045063
      2         11           0       -0.867772   -2.706981   -0.552606
      3         11           0        1.897228    2.029260    0.108646
      4         11           0        0.111351    0.090498   -1.705341
      5         11           0        0.177466   -0.740214    1.918438
      6         11           0        3.043320   -1.064800   -0.007222
      7         11           0       -3.079719   -0.127568    0.283148
 ---------------------------------------------------------------------

 SCF Done:  E(UB3LYP) =  -1136.13605457     A.U. after   19 cycles

 The electronic state is 2-A.
 Alpha  occ. eigenvalues --  -38.44192 -38.44104 -38.43543 -38.43454 -38.43429
 Alpha  occ. eigenvalues --  -38.43169 -38.43020  -2.20026  -2.19952  -2.19446
 Alpha  occ. eigenvalues --   -2.19340  -2.19329  -2.19173  -2.18920  -1.13697
 Alpha  occ. eigenvalues --   -1.13693  -1.13667  -1.13633  -1.13614  -1.13591
 Alpha  occ. eigenvalues --   -1.13132  -1.13101  -1.13070  -1.13061  -1.13042
 Alpha  occ. eigenvalues --   -1.13005  -1.12972  -1.12969  -1.12944  -1.12843
 Alpha  occ. eigenvalues --   -1.12801  -1.12783  -1.12586  -1.12571  -1.12562
 Alpha  occ. eigenvalues --   -0.18936  -0.13235  -0.12524  -0.10822
 Alpha virt. eigenvalues --   -0.05869  -0.04970  -0.04497  -0.03291  -0.02981
 Alpha virt. eigenvalues --   -0.02487  -0.01651  -0.00966  -0.00315  -0.00084
 Alpha virt. eigenvalues --    0.00012   0.00362   0.00838   0.00868   0.00920

  Beta  occ. eigenvalues --  -38.44189 -38.44098 -38.43468 -38.43436 -38.43424
  Beta  occ. eigenvalues --  -38.43092 -38.43016  -2.20024  -2.19943  -2.19333
  Beta  occ. eigenvalues --   -2.19307  -2.19301  -2.19034  -2.18916  -1.13699
  Beta  occ. eigenvalues --   -1.13673  -1.13663  -1.13629  -1.13590  -1.13585
  Beta  occ. eigenvalues --   -1.13058  -1.13054  -1.13006  -1.12998  -1.12990
  Beta  occ. eigenvalues --   -1.12962  -1.12951  -1.12928  -1.12921  -1.12754
  Beta  occ. eigenvalues --   -1.12710  -1.12688  -1.12576  -1.12571  -1.12536
  Beta  occ. eigenvalues --   -0.18213  -0.12998  -0.12270
  Beta virt. eigenvalues --   -0.06912  -0.05817  -0.04952  -0.04446  -0.02505
  Beta virt. eigenvalues --   -0.02225  -0.01578  -0.01415  -0.00898  -0.00354
  Beta virt. eigenvalues --   -0.00098   0.00142   0.00392   0.00864   0.00888

 Mulliken charges and spin densities:
               1          2
     1  Na   0.049974  -0.006686
     2  Na   0.195643  -0.065243
     3  Na   0.109469   0.036592
     4  Na  -0.263350   0.457194
     5  Na  -0.516518   0.585025
     6  Na   0.307472  -0.057382
     7  Na   0.117311   0.050500
 Sum of Mulliken charges =  -0.00000   1.00000

 Dipole moment (field-independent basis, Debye):
    X=              0.1729    Y=             -0.3796    Z=              0.1784  Tot=              0.4537
 Quadrupole moment (field-independent basis, Debye-Ang):
   XX=            -55.5349   YY=            -64.6290   ZZ=            -73.7644
   XY=             -0.4339   XZ=             -0.4873   YZ=              1.4962

 Normal termination of Gaussian 16 at Thu Dec  7 17:59:00 2023.
