 Gaussian 16, Revision B.01,
 Gaussian 16:  ES64L-G16RevB.01 20-Dec-2017

 -------------------------
 #P B3LYP/6-311+g(d) force
 -------------------------

 -----
 DPGEN
 -----
 Symbolic Z-matrix:
 Charge =  0 Multiplicity = 2

                         Standard orientation:
 ---------------------------------------------------------------------
 Center     Atomic      Atomic             Coordinates (Angstroms)
 Number     Number       Type             X           Y           Z
 ---------------------------------------------------------------------
      1         11           0        2.839458    2.302722    1.050348
      2         11           0       -3.602142    2.464523   -0.559703
      3         11           0        2.026011   -2.446401   -0.703694
      4         11           0        4.796591   -0.796857   -0.338149
      5         11           0       -4.202852   -1.507628    0.244725
      6         11           0       -0.172457    3.143742   -0.268533
      7         11           0       -1.684609   -3.160102    0.575006
 ---------------------------------------------------------------------

 SCF Done:  E(UB3LYP) =  -1136.10630524     A.U. after   22 cycles

 The electronic state is 2-A.
 Alpha  occ. eigenvalues --  -38.45211 -38.45196 -38.45004 -38.44442 -38.44097
 Alpha  occ. eigenvalues --  -38.44056 -38.43942  -2.20997  -2.20965  -2.20788
 Alpha  occ. eigenvalues --   -2.20238  -2.19909  -2.19824  -2.19731  -1.14696
 Alpha  occ. eigenvalues --   -1.14660  -1.14637  -1.14632  -1.14627  -1.14620
 Alpha  occ. eigenvalues --   -1.14451  -1.14430  -1.14422  -1.13893  -1.13888
 Alpha  occ. eigenvalues --   -1.13854  -1.13573  -1.13556  -1.13548  -1.13511
 Alpha  occ. eigenvalues --   -1.13509  -1.13474  -1.13382  -1.13365  -1.13352
 Alpha  occ. eigenvalues --   -0.15500  -0.13997  -0.13252  -0.10895
 Alpha virt. eigenvalues --   -0.07736  -0.04813  -0.04608  -0.03565  -0.03489
 Alpha virt. eigenvalues --   -0.02486  -0.02370  -0.01699  -0.01132  -0.01013
 Alpha virt. eigenvalues --   -0.00836  -0.00446   0.00101   0.00428   0.00565

  Beta  occ. eigenvalues --  -38.45205 -38.45171 -38.44988 -38.44364 -38.44071
  Beta  occ. eigenvalues --  -38.44060 -38.43863  -2.20989  -2.20922  -2.20762
  Beta  occ. eigenvalues --   -2.20096  -2.19862  -2.19840  -2.19583  -1.14681
  Beta  occ. eigenvalues --   -1.14659  -1.14613  -1.14610  -1.14602  -1.14577
  Beta  occ. eigenvalues --   -1.14435  -1.14411  -1.14391  -1.13798  -1.13791
  Beta  occ. eigenvalues --   -1.13756  -1.13541  -1.13529  -1.13526  -1.13525
  Beta  occ. eigenvalues --   -1.13515  -1.13432  -1.13281  -1.13266  -1.13258
  Beta  occ. eigenvalues --   -0.15010  -0.13359  -0.12463
  Beta virt. eigenvalues --   -0.07870  -0.07703  -0.04389  -0.04165  -0.03355
  Beta virt. eigenvalues --   -0.03192  -0.02262  -0.02199  -0.01432  -0.00895
  Beta virt. eigenvalues --   -0.00709  -0.00565  -0.00278   0.00247   0.00512

 Mulliken charges and spin densities:
               1          2
     1  Na   0.192856   0.300706
     2  Na   0.194012   0.435345
     3  Na  -0.472630   0.169315
     4  Na   0.544227   0.003233
     5  Na   0.162196   0.044197
     6  Na  -0.528724  -0.051595
     7  Na  -0.091938   0.098799
 Sum of Mulliken charges =  -0.00000   1.00000

 Dipole moment (field-independent basis, Debye):
    X=              0.8748    Y=             -0.9027    Z=              0.0273  Tot=              1.2573
 Quadrupole moment (field-independent basis, Debye-Ang):
   XX=            -50.7073   YY=            -75.3455   ZZ=            -73.1662
   XY=              2.1118   XZ=              1.0321   YZ=              0.0549

 Normal termination of Gaussian 16 at Mon Dec  4 05:31:54 2023.
