 Gaussian 16, Revision B.01,
 Gaussian 16:  ES64L-G16RevB.01 20-Dec-2017

 -------------------------
 #P B3LYP/6-311+g(d) force
 -------------------------

 -----
 DPGEN
 -----
 Symbolic Z-matrix:
 Charge =  0 Multiplicity = 2

                         Standard orientation:
 ---------------------------------------------------------------------
 Center     Atomic      Atomic             Coordinates (Angstroms)
 Number     Number       Type             X           Y           Z
 ---------------------------------------------------------------------
      1         11           0        0.022890    2.822942   -0.831902
      2         11           0        3.447729    1.907411    1.028003
      3         11           0       -4.514804    0.217651    0.880031
      4         11           0        1.020598   -2.708087   -0.684593
      5         11           0        3.800839   -1.072799   -0.448416
      6         11           0       -1.041726   -1.186372    1.775051
      7         11           0       -2.735525    0.019253   -1.718174
 ---------------------------------------------------------------------

 SCF Done:  E(UB3LYP) =  -1136.10379125     A.U. after   26 cycles

 The electronic state is 2-A.
 Alpha  occ. eigenvalues --  -38.46345 -38.45513 -38.44437 -38.44130 -38.44112
 Alpha  occ. eigenvalues --  -38.43635 -38.43318  -2.22094  -2.21302  -2.20249
 Alpha  occ. eigenvalues --   -2.19966  -2.19855  -2.19408  -2.19125  -1.15773
 Alpha  occ. eigenvalues --   -1.15752  -1.15704  -1.14995  -1.14950  -1.14946
 Alpha  occ. eigenvalues --   -1.13924  -1.13912  -1.13887  -1.13629  -1.13600
 Alpha  occ. eigenvalues --   -1.13581  -1.13535  -1.13517  -1.13462  -1.13087
 Alpha  occ. eigenvalues --   -1.13078  -1.13040  -1.12799  -1.12789  -1.12774
 Alpha  occ. eigenvalues --   -0.16479  -0.13974  -0.11752  -0.10492
 Alpha virt. eigenvalues --   -0.07721  -0.05569  -0.04434  -0.03604  -0.03169
 Alpha virt. eigenvalues --   -0.02527  -0.02152  -0.01713  -0.01186  -0.00502
 Alpha virt. eigenvalues --   -0.00385  -0.00244   0.00098   0.00324   0.00465

  Beta  occ. eigenvalues --  -38.46308 -38.45496 -38.44420 -38.44067 -38.44057
  Beta  occ. eigenvalues --  -38.43629 -38.43320  -2.22029  -2.21275  -2.20217
  Beta  occ. eigenvalues --   -2.19831  -2.19772  -2.19399  -2.19130  -1.15731
  Beta  occ. eigenvalues --   -1.15704  -1.15646  -1.14964  -1.14935  -1.14902
  Beta  occ. eigenvalues --   -1.13900  -1.13891  -1.13865  -1.13538  -1.13507
  Beta  occ. eigenvalues --   -1.13492  -1.13479  -1.13459  -1.13405  -1.13083
  Beta  occ. eigenvalues --   -1.13066  -1.13029  -1.12807  -1.12789  -1.12769
  Beta  occ. eigenvalues --   -0.15867  -0.13543  -0.11460
  Beta virt. eigenvalues --   -0.07560  -0.07076  -0.05219  -0.04101  -0.03337
  Beta virt. eigenvalues --   -0.02779  -0.02368  -0.01833  -0.01443  -0.00762
  Beta virt. eigenvalues --   -0.00373  -0.00272   0.00082   0.00205   0.00409

 Mulliken charges and spin densities:
               1          2
     1  Na  -0.190407   0.150862
     2  Na   0.133289  -0.031409
     3  Na   0.291000   0.361675
     4  Na   0.092673  -0.075196
     5  Na  -0.008855   0.220614
     6  Na  -0.195456   0.145603
     7  Na  -0.122244   0.227851
 Sum of Mulliken charges =  -0.00000   1.00000

 Dipole moment (field-independent basis, Debye):
    X=             -1.1515    Y=             -0.5967    Z=              0.2521  Tot=              1.3212
 Quadrupole moment (field-independent basis, Debye-Ang):
   XX=            -69.1542   YY=            -75.8129   ZZ=            -61.5770
   XY=             -2.3319   XZ=              1.2717   YZ=              4.3637

 Normal termination of Gaussian 16 at Sun Dec  3 14:25:26 2023.
