 Gaussian 16, Revision B.01,
 Gaussian 16:  ES64L-G16RevB.01 20-Dec-2017

 -------------------------
 #P B3LYP/6-311+g(d) force
 -------------------------

 -----
 DPGEN
 -----
 Symbolic Z-matrix:
 Charge =  0 Multiplicity = 2

                         Standard orientation:
 ---------------------------------------------------------------------
 Center     Atomic      Atomic             Coordinates (Angstroms)
 Number     Number       Type             X           Y           Z
 ---------------------------------------------------------------------
      1         11           0        4.609721   -0.051498    0.257361
      2         11           0        3.161339    2.679738   -0.112058
      3         11           0        3.091547   -2.476112   -0.530199
      4         11           0        1.492987    0.092454    0.011212
      5         11           0       -1.394542   -0.200715    0.259497
      6         11           0       -4.401999   -0.595628    0.881346
      7         11           0       -6.559054    0.551763   -0.767160
 ---------------------------------------------------------------------

 SCF Done:  E(UB3LYP) =  -1136.09761951     A.U. after   27 cycles

 The electronic state is 2-A.
 Alpha  occ. eigenvalues --  -38.45516 -38.44336 -38.44304 -38.44299 -38.43867
 Alpha  occ. eigenvalues --  -38.43449 -38.43288  -2.21422  -2.20297  -2.20198
 Alpha  occ. eigenvalues --   -2.20113  -2.19738  -2.19515  -2.19173  -1.15132
 Alpha  occ. eigenvalues --   -1.15040  -1.15024  -1.14014  -1.13991  -1.13940
 Alpha  occ. eigenvalues --   -1.13880  -1.13849  -1.13819  -1.13771  -1.13751
 Alpha  occ. eigenvalues --   -1.13748  -1.13432  -1.13376  -1.13365  -1.13279
 Alpha  occ. eigenvalues --   -1.13174  -1.13158  -1.12826  -1.12796  -1.12765
 Alpha  occ. eigenvalues --   -0.17945  -0.14479  -0.12457  -0.11341
 Alpha virt. eigenvalues --   -0.06441  -0.04921  -0.04167  -0.03844  -0.03282
 Alpha virt. eigenvalues --   -0.02338  -0.02075  -0.01337  -0.01180  -0.00638
 Alpha virt. eigenvalues --   -0.00231   0.00022   0.00446   0.00634   0.00668

  Beta  occ. eigenvalues --  -38.45420 -38.44316 -38.44276 -38.44239 -38.43870
  Beta  occ. eigenvalues --  -38.43426 -38.43261  -2.21248  -2.20270  -2.20077
  Beta  occ. eigenvalues --   -2.20069  -2.19745  -2.19479  -2.19124  -1.15011
  Beta  occ. eigenvalues --   -1.14921  -1.14905  -1.13997  -1.13930  -1.13914
  Beta  occ. eigenvalues --   -1.13822  -1.13790  -1.13737  -1.13722  -1.13719
  Beta  occ. eigenvalues --   -1.13699  -1.13428  -1.13382  -1.13362  -1.13230
  Beta  occ. eigenvalues --   -1.13142  -1.13117  -1.12791  -1.12761  -1.12739
  Beta  occ. eigenvalues --   -0.17073  -0.14219  -0.11008
  Beta virt. eigenvalues --   -0.08580  -0.06158  -0.04518  -0.03676  -0.03545
  Beta virt. eigenvalues --   -0.02988  -0.02156  -0.01650  -0.01082  -0.00807
  Beta virt. eigenvalues --   -0.00297  -0.00159   0.00112   0.00556   0.00672

 Mulliken charges and spin densities:
               1          2
     1  Na   2.469881   0.136386
     2  Na   0.598087  -0.024534
     3  Na   0.716707   0.510970
     4  Na  -2.910329   0.199937
     5  Na  -1.485117  -0.016760
     6  Na   0.440739   0.096598
     7  Na   0.170032   0.097402
 Sum of Mulliken charges =  -0.00000   1.00000

 Dipole moment (field-independent basis, Debye):
    X=              1.2004    Y=             -0.0905    Z=             -0.5498  Tot=              1.3234
 Quadrupole moment (field-independent basis, Debye-Ang):
   XX=            -60.4358   YY=            -63.5486   ZZ=            -69.5035
   XY=             -6.4479   XZ=              3.0580   YZ=             -1.2555

 Normal termination of Gaussian 16 at Sat Dec  9 06:35:58 2023.
