 Gaussian 16, Revision B.01,
 Gaussian 16:  ES64L-G16RevB.01 20-Dec-2017

 -------------------------
 #P B3LYP/6-311+g(d) force
 -------------------------

 -----
 DPGEN
 -----
 Symbolic Z-matrix:
 Charge =  0 Multiplicity = 2

                         Standard orientation:
 ---------------------------------------------------------------------
 Center     Atomic      Atomic             Coordinates (Angstroms)
 Number     Number       Type             X           Y           Z
 ---------------------------------------------------------------------
      1         11           0       -1.810908   -1.246568    1.479000
      2         11           0       -3.777830    1.571327   -0.131466
      3         11           0        3.502851    0.797754    0.445734
      4         11           0       -3.830763   -1.890847   -0.728464
      5         11           0        6.058515   -0.701456   -0.328867
      6         11           0       -0.677139    2.388600   -0.178273
      7         11           0        0.535275   -0.918809   -0.557664
 ---------------------------------------------------------------------

 SCF Done:  E(UB3LYP) =  -1136.11297840     A.U. after   23 cycles

 The electronic state is 2-A.
 Alpha  occ. eigenvalues --  -38.45029 -38.44906 -38.44656 -38.44021 -38.43885
 Alpha  occ. eigenvalues --  -38.43747 -38.42757  -2.20892  -2.20803  -2.20517
 Alpha  occ. eigenvalues --   -2.19832  -2.19707  -2.19585  -2.18587  -1.14640
 Alpha  occ. eigenvalues --   -1.14535  -1.14495  -1.14460  -1.14442  -1.14410
 Alpha  occ. eigenvalues --   -1.14182  -1.14164  -1.14119  -1.13554  -1.13472
 Alpha  occ. eigenvalues --   -1.13469  -1.13379  -1.13376  -1.13296  -1.13255
 Alpha  occ. eigenvalues --   -1.13242  -1.13231  -1.12272  -1.12262  -1.12224
 Alpha  occ. eigenvalues --   -0.17598  -0.14079  -0.11848  -0.11338
 Alpha virt. eigenvalues --   -0.06295  -0.05427  -0.04755  -0.03482  -0.02997
 Alpha virt. eigenvalues --   -0.02598  -0.01799  -0.01536  -0.01035  -0.00600
 Alpha virt. eigenvalues --   -0.00509  -0.00001   0.00371   0.00469   0.00518

  Beta  occ. eigenvalues --  -38.44959 -38.44872 -38.44571 -38.43976 -38.43887
  Beta  occ. eigenvalues --  -38.43746 -38.42755  -2.20766  -2.20746  -2.20360
  Beta  occ. eigenvalues --   -2.19750  -2.19713  -2.19585  -2.18587  -1.14548
  Beta  occ. eigenvalues --   -1.14460  -1.14427  -1.14407  -1.14382  -1.14354
  Beta  occ. eigenvalues --   -1.14075  -1.14063  -1.14004  -1.13510  -1.13420
  Beta  occ. eigenvalues --   -1.13416  -1.13383  -1.13377  -1.13270  -1.13257
  Beta  occ. eigenvalues --   -1.13245  -1.13212  -1.12273  -1.12263  -1.12203
  Beta  occ. eigenvalues --   -0.16819  -0.13615  -0.11046
  Beta virt. eigenvalues --   -0.08257  -0.06014  -0.05124  -0.04204  -0.03106
  Beta virt. eigenvalues --   -0.02802  -0.02278  -0.01357  -0.01315  -0.00738
  Beta virt. eigenvalues --   -0.00454  -0.00401   0.00114   0.00491   0.00506

 Mulliken charges and spin densities:
               1          2
     1  Na   0.143417   0.269609
     2  Na   0.051401   0.359395
     3  Na  -0.131728   0.117765
     4  Na   0.341974  -0.055944
     5  Na   0.312050   0.113217
     6  Na  -0.162744  -0.000809
     7  Na  -0.554370   0.196767
 Sum of Mulliken charges =  -0.00000   1.00000

 Dipole moment (field-independent basis, Debye):
    X=             -0.6469    Y=             -0.6108    Z=             -0.1173  Tot=              0.8973
 Quadrupole moment (field-independent basis, Debye-Ang):
   XX=            -64.8214   YY=            -72.9440   ZZ=            -65.3047
   XY=             -3.6093   XZ=             -0.0753   YZ=              3.5460

 Normal termination of Gaussian 16 at Wed Nov 29 03:53:40 2023.
