 Gaussian 16, Revision B.01,
 Gaussian 16:  ES64L-G16RevB.01 20-Dec-2017

 -------------------------
 #P B3LYP/6-311+g(d) force
 -------------------------

 -----
 DPGEN
 -----
 Symbolic Z-matrix:
 Charge =  0 Multiplicity = 2

                         Standard orientation:
 ---------------------------------------------------------------------
 Center     Atomic      Atomic             Coordinates (Angstroms)
 Number     Number       Type             X           Y           Z
 ---------------------------------------------------------------------
      1         11           0        3.263994    1.019726    0.117941
      2         11           0       -0.721256   -2.936283    0.535026
      3         11           0       -0.213791   -0.087540   -0.432378
      4         11           0        1.256520    3.405079    0.248305
      5         11           0       -2.872079    2.299582   -0.122296
      6         11           0       -3.430264   -1.124930   -0.030407
      7         11           0        2.716876   -2.575634   -0.316192
 ---------------------------------------------------------------------

 SCF Done:  E(UB3LYP) =  -1136.12698526     A.U. after   21 cycles

 The electronic state is 2-A.
 Alpha  occ. eigenvalues --  -38.44332 -38.44317 -38.44298 -38.43806 -38.43691
 Alpha  occ. eigenvalues --  -38.43394 -38.43341  -2.20204  -2.20175  -2.20171
 Alpha  occ. eigenvalues --   -2.19635  -2.19587  -2.19223  -2.19167  -1.13954
 Alpha  occ. eigenvalues --   -1.13901  -1.13858  -1.13855  -1.13850  -1.13846
 Alpha  occ. eigenvalues --   -1.13820  -1.13814  -1.13784  -1.13293  -1.13288
 Alpha  occ. eigenvalues --   -1.13281  -1.13262  -1.13241  -1.13189  -1.12875
 Alpha  occ. eigenvalues --   -1.12857  -1.12853  -1.12827  -1.12816  -1.12788
 Alpha  occ. eigenvalues --   -0.17360  -0.14044  -0.13241  -0.09836
 Alpha virt. eigenvalues --   -0.06416  -0.05745  -0.04388  -0.03032  -0.02682
 Alpha virt. eigenvalues --   -0.02240  -0.02021  -0.01891  -0.01443  -0.00144
 Alpha virt. eigenvalues --    0.00082   0.00273   0.00541   0.00685   0.00725

  Beta  occ. eigenvalues --  -38.44315 -38.44312 -38.44299 -38.43774 -38.43660
  Beta  occ. eigenvalues --  -38.43324 -38.43287  -2.20227  -2.20150  -2.20146
  Beta  occ. eigenvalues --   -2.19578  -2.19534  -2.19093  -2.19065  -1.13964
  Beta  occ. eigenvalues --   -1.13915  -1.13870  -1.13840  -1.13836  -1.13835
  Beta  occ. eigenvalues --   -1.13796  -1.13759  -1.13745  -1.13255  -1.13252
  Beta  occ. eigenvalues --   -1.13245  -1.13214  -1.13208  -1.13123  -1.12786
  Beta  occ. eigenvalues --   -1.12770  -1.12769  -1.12757  -1.12746  -1.12724
  Beta  occ. eigenvalues --   -0.17089  -0.13285  -0.12590
  Beta virt. eigenvalues --   -0.06583  -0.06425  -0.05473  -0.04246  -0.02396
  Beta virt. eigenvalues --   -0.02283  -0.02076  -0.01831  -0.01484  -0.01268
  Beta virt. eigenvalues --   -0.00044   0.00358   0.00506   0.00563   0.00708

 Mulliken charges and spin densities:
               1          2
     1  Na   0.571199   0.100625
     2  Na   0.771340   0.152880
     3  Na  -3.253916  -0.214499
     4  Na   0.255639   0.153274
     5  Na   1.010694   0.385856
     6  Na   0.305858   0.076188
     7  Na   0.339186   0.345676
 Sum of Mulliken charges =  -0.00000   1.00000

 Dipole moment (field-independent basis, Debye):
    X=             -0.2351    Y=             -0.2016    Z=              0.2714  Tot=              0.4117
 Quadrupole moment (field-independent basis, Debye-Ang):
   XX=            -61.3696   YY=            -64.4900   ZZ=            -72.0396
   XY=              1.5508   XZ=             -0.1283   YZ=              0.0332

 Normal termination of Gaussian 16 at Tue Dec  5 22:55:22 2023.
