 Gaussian 16, Revision B.01,
 Gaussian 16:  ES64L-G16RevB.01 20-Dec-2017

 -------------------------
 #P B3LYP/6-311+g(d) force
 -------------------------

 -----
 DPGEN
 -----
 Symbolic Z-matrix:
 Charge =  0 Multiplicity = 2

                         Standard orientation:
 ---------------------------------------------------------------------
 Center     Atomic      Atomic             Coordinates (Angstroms)
 Number     Number       Type             X           Y           Z
 ---------------------------------------------------------------------
      1         11           0       -1.615263    3.065915   -0.428455
      2         11           0        3.730232    0.711531    0.437104
      3         11           0       -4.370388    0.131199   -0.474579
      4         11           0        1.137154    3.791503    0.336196
      5         11           0       -3.211775   -2.544412    1.007916
      6         11           0        0.414068   -3.020525   -0.541752
      7         11           0        3.915972   -2.135211   -0.336429
 ---------------------------------------------------------------------

 SCF Done:  E(UB3LYP) =  -1136.10512136     A.U. after   22 cycles

 The electronic state is 2-A.
 Alpha  occ. eigenvalues --  -38.45095 -38.44778 -38.44740 -38.44412 -38.44356
 Alpha  occ. eigenvalues --  -38.44187 -38.44055  -2.20849  -2.20582  -2.20564
 Alpha  occ. eigenvalues --   -2.20193  -2.20185  -2.19987  -2.19879  -1.14531
 Alpha  occ. eigenvalues --   -1.14520  -1.14503  -1.14301  -1.14295  -1.14239
 Alpha  occ. eigenvalues --   -1.14223  -1.14209  -1.14188  -1.13850  -1.13842
 Alpha  occ. eigenvalues --   -1.13838  -1.13837  -1.13831  -1.13782  -1.13638
 Alpha  occ. eigenvalues --   -1.13628  -1.13621  -1.13544  -1.13520  -1.13511
 Alpha  occ. eigenvalues --   -0.15560  -0.14008  -0.13462  -0.10645
 Alpha virt. eigenvalues --   -0.07672  -0.04950  -0.04486  -0.03615  -0.03327
 Alpha virt. eigenvalues --   -0.02349  -0.02311  -0.01796  -0.01565  -0.00830
 Alpha virt. eigenvalues --   -0.00575  -0.00158   0.00277   0.00352   0.00595

  Beta  occ. eigenvalues --  -38.45109 -38.44767 -38.44687 -38.44354 -38.44317
  Beta  occ. eigenvalues --  -38.44131 -38.44040  -2.20879  -2.20565  -2.20468
  Beta  occ. eigenvalues --   -2.20188  -2.20016  -2.19883  -2.19853  -1.14556
  Beta  occ. eigenvalues --   -1.14542  -1.14492  -1.14274  -1.14234  -1.14230
  Beta  occ. eigenvalues --   -1.14208  -1.14144  -1.14117  -1.13845  -1.13836
  Beta  occ. eigenvalues --   -1.13790  -1.13728  -1.13718  -1.13677  -1.13565
  Beta  occ. eigenvalues --   -1.13557  -1.13556  -1.13521  -1.13504  -1.13492
  Beta  occ. eigenvalues --   -0.15034  -0.13456  -0.12905
  Beta virt. eigenvalues --   -0.07614  -0.07329  -0.04630  -0.04038  -0.03392
  Beta virt. eigenvalues --   -0.02897  -0.02203  -0.02094  -0.01695  -0.01451
  Beta virt. eigenvalues --   -0.00413  -0.00285  -0.00031   0.00286   0.00488

 Mulliken charges and spin densities:
               1          2
     1  Na  -0.706171   0.070988
     2  Na  -0.423794   0.239722
     3  Na  -0.111214   0.274257
     4  Na   0.830665   0.024791
     5  Na   0.032104  -0.098842
     6  Na  -0.518509   0.481888
     7  Na   0.896920   0.007196
 Sum of Mulliken charges =  -0.00000   1.00000

 Dipole moment (field-independent basis, Debye):
    X=              0.0375    Y=             -0.0496    Z=              0.1701  Tot=              0.1811
 Quadrupole moment (field-independent basis, Debye-Ang):
   XX=            -64.3897   YY=            -66.5493   ZZ=            -70.9285
   XY=              0.4442   XZ=              0.4460   YZ=             -1.2869

 Normal termination of Gaussian 16 at Mon Dec  4 00:49:37 2023.
