 Gaussian 16, Revision B.01,
 Gaussian 16:  ES64L-G16RevB.01 20-Dec-2017

 -------------------------
 #P B3LYP/6-311+g(d) force
 -------------------------

 -----
 DPGEN
 -----
 Symbolic Z-matrix:
 Charge =  0 Multiplicity = 2

                         Standard orientation:
 ---------------------------------------------------------------------
 Center     Atomic      Atomic             Coordinates (Angstroms)
 Number     Number       Type             X           Y           Z
 ---------------------------------------------------------------------
      1         11           0        4.055633   -1.174311   -0.365262
      2         11           0        0.422004    3.401805   -0.493765
      3         11           0       -2.958405    2.245502   -1.055344
      4         11           0       -2.341809   -3.167111    0.120800
      5         11           0       -3.290613   -0.481499    1.133783
      6         11           0        2.638264    1.878059    1.382398
      7         11           0        1.474925   -2.702445   -0.722610
 ---------------------------------------------------------------------

 SCF Done:  E(UB3LYP) =  -1136.10978203     A.U. after   20 cycles

 The electronic state is 2-A.
 Alpha  occ. eigenvalues --  -38.44895 -38.44692 -38.44419 -38.44360 -38.44353
 Alpha  occ. eigenvalues --  -38.44013 -38.43934  -2.20707  -2.20492  -2.20193
 Alpha  occ. eigenvalues --   -2.20183  -2.20159  -2.19840  -2.19740  -1.14410
 Alpha  occ. eigenvalues --   -1.14371  -1.14353  -1.14207  -1.14155  -1.14135
 Alpha  occ. eigenvalues --   -1.13905  -1.13875  -1.13848  -1.13832  -1.13826
 Alpha  occ. eigenvalues --   -1.13815  -1.13808  -1.13783  -1.13762  -1.13505
 Alpha  occ. eigenvalues --   -1.13478  -1.13467  -1.13390  -1.13379  -1.13364
 Alpha  occ. eigenvalues --   -0.15823  -0.14018  -0.13336  -0.10711
 Alpha virt. eigenvalues --   -0.07228  -0.04713  -0.04582  -0.03690  -0.03448
 Alpha virt. eigenvalues --   -0.02141  -0.01838  -0.01744  -0.01348  -0.00990
 Alpha virt. eigenvalues --   -0.00662  -0.00110   0.00205   0.00420   0.00676

  Beta  occ. eigenvalues --  -38.44888 -38.44666 -38.44418 -38.44337 -38.44287
  Beta  occ. eigenvalues --  -38.43973 -38.43860  -2.20701  -2.20449  -2.20199
  Beta  occ. eigenvalues --   -2.20145  -2.20038  -2.19766  -2.19600  -1.14396
  Beta  occ. eigenvalues --   -1.14369  -1.14327  -1.14166  -1.14129  -1.14098
  Beta  occ. eigenvalues --   -1.13888  -1.13884  -1.13821  -1.13808  -1.13799
  Beta  occ. eigenvalues --   -1.13770  -1.13730  -1.13711  -1.13683  -1.13454
  Beta  occ. eigenvalues --   -1.13428  -1.13418  -1.13294  -1.13286  -1.13274
  Beta  occ. eigenvalues --   -0.15328  -0.13314  -0.12566
  Beta virt. eigenvalues --   -0.07558  -0.07342  -0.04431  -0.04070  -0.03497
  Beta virt. eigenvalues --   -0.03014  -0.01976  -0.01590  -0.01539  -0.00932
  Beta virt. eigenvalues --   -0.00888  -0.00404   0.00122   0.00340   0.00414

 Mulliken charges and spin densities:
               1          2
     1  Na   0.302033   0.005450
     2  Na  -0.173617  -0.020566
     3  Na   0.158388   0.350784
     4  Na   0.250093   0.207330
     5  Na  -0.232500   0.012138
     6  Na  -0.073078   0.317467
     7  Na  -0.231320   0.127398
 Sum of Mulliken charges =  -0.00000   1.00000

 Dipole moment (field-independent basis, Debye):
    X=              0.3225    Y=             -0.3133    Z=              0.0657  Tot=              0.4544
 Quadrupole moment (field-independent basis, Debye-Ang):
   XX=            -63.0317   YY=            -71.0268   ZZ=            -68.3266
   XY=              1.3235   XZ=              0.1963   YZ=              0.2844

 Normal termination of Gaussian 16 at Sun Dec  3 17:44:21 2023.
