 Gaussian 16, Revision B.01,
 Gaussian 16:  ES64L-G16RevB.01 20-Dec-2017

 -------------------------
 #P B3LYP/6-311+g(d) force
 -------------------------

 -----
 DPGEN
 -----
 Symbolic Z-matrix:
 Charge =  0 Multiplicity = 2

                         Standard orientation:
 ---------------------------------------------------------------------
 Center     Atomic      Atomic             Coordinates (Angstroms)
 Number     Number       Type             X           Y           Z
 ---------------------------------------------------------------------
      1         11           0       -1.276092   -0.890090   -0.900957
      2         11           0        2.152177   -1.321253    0.669960
      3         11           0        1.073549    2.306654   -0.270380
      4         11           0        5.304960    1.502347    0.352026
      5         11           0       -7.592128    0.294079   -0.459884
      6         11           0       -5.026865   -0.350511    1.051698
      7         11           0        5.364400   -1.541226   -0.442463
 ---------------------------------------------------------------------

 SCF Done:  E(UB3LYP) =  -1136.10906231     A.U. after   19 cycles

 The electronic state is 2-A.
 Alpha  occ. eigenvalues --  -38.44734 -38.44729 -38.44687 -38.44379 -38.44313
 Alpha  occ. eigenvalues --  -38.44137 -38.44006  -2.20529  -2.20493  -2.20482
 Alpha  occ. eigenvalues --   -2.20122  -2.20102  -2.19931  -2.19845  -1.14231
 Alpha  occ. eigenvalues --   -1.14202  -1.14167  -1.14161  -1.14147  -1.14138
 Alpha  occ. eigenvalues --   -1.14126  -1.14121  -1.14087  -1.13824  -1.13804
 Alpha  occ. eigenvalues --   -1.13792  -1.13755  -1.13754  -1.13740  -1.13590
 Alpha  occ. eigenvalues --   -1.13583  -1.13537  -1.13500  -1.13496  -1.13484
 Alpha  occ. eigenvalues --   -0.16018  -0.13664  -0.12151  -0.10849
 Alpha virt. eigenvalues --   -0.06901  -0.05336  -0.05014  -0.03473  -0.02944
 Alpha virt. eigenvalues --   -0.02754  -0.02277  -0.01809  -0.01162  -0.00996
 Alpha virt. eigenvalues --   -0.00389  -0.00252  -0.00179   0.00299   0.00346

  Beta  occ. eigenvalues --  -38.44694 -38.44661 -38.44651 -38.44373 -38.44312
  Beta  occ. eigenvalues --  -38.44137 -38.43983  -2.20457  -2.20433  -2.20348
  Beta  occ. eigenvalues --   -2.20111  -2.20101  -2.19931  -2.19802  -1.14179
  Beta  occ. eigenvalues --   -1.14142  -1.14129  -1.14103  -1.14078  -1.14073
  Beta  occ. eigenvalues --   -1.14069  -1.14047  -1.13979  -1.13823  -1.13796
  Beta  occ. eigenvalues --   -1.13778  -1.13754  -1.13753  -1.13735  -1.13590
  Beta  occ. eigenvalues --   -1.13583  -1.13537  -1.13469  -1.13460  -1.13455
  Beta  occ. eigenvalues --   -0.15320  -0.13620  -0.12020
  Beta virt. eigenvalues --   -0.07135  -0.06596  -0.04986  -0.04588  -0.03242
  Beta virt. eigenvalues --   -0.02687  -0.02402  -0.01952  -0.01764  -0.01012
  Beta virt. eigenvalues --   -0.00591  -0.00112  -0.00087   0.00084   0.00364

 Mulliken charges and spin densities:
               1          2
     1  Na  -0.030233  -0.007275
     2  Na  -0.701982   0.459700
     3  Na   0.052107   0.422261
     4  Na   0.099482   0.149151
     5  Na   0.341709   0.004305
     6  Na  -0.331969   0.001833
     7  Na   0.570887  -0.029976
 Sum of Mulliken charges =  -0.00000   1.00000

 Dipole moment (field-independent basis, Debye):
    X=              0.2834    Y=              0.0599    Z=             -0.3506  Tot=              0.4548
 Quadrupole moment (field-independent basis, Debye-Ang):
   XX=            -55.2380   YY=            -70.5132   ZZ=            -68.9525
   XY=             -2.1767   XZ=              4.6251   YZ=              0.5197

 Normal termination of Gaussian 16 at Mon Dec  4 02:43:01 2023.
