 Gaussian 16, Revision B.01,
 Gaussian 16:  ES64L-G16RevB.01 20-Dec-2017

 -------------------------
 #P B3LYP/6-311+g(d) force
 -------------------------

 -----
 DPGEN
 -----
 Symbolic Z-matrix:
 Charge =  0 Multiplicity = 2

                         Standard orientation:
 ---------------------------------------------------------------------
 Center     Atomic      Atomic             Coordinates (Angstroms)
 Number     Number       Type             X           Y           Z
 ---------------------------------------------------------------------
      1         11           0        3.154556    0.239365    0.040066
      2         11           0       -2.264733   -2.103319    0.216947
      3         11           0        1.201642   -2.361608   -0.058765
      4         11           0        0.307198    0.285447    1.627517
      5         11           0       -2.586881    0.922150   -0.163020
      6         11           0       -0.115471    3.100142   -0.044918
      7         11           0        0.303690   -0.082177   -1.617827
 ---------------------------------------------------------------------

 SCF Done:  E(UB3LYP) =  -1136.13195670     A.U. after   20 cycles

 The electronic state is 2-A.
 Alpha  occ. eigenvalues --  -38.44190 -38.43618 -38.43578 -38.43518 -38.43454
 Alpha  occ. eigenvalues --  -38.43039 -38.42914  -2.20070  -2.19544  -2.19543
 Alpha  occ. eigenvalues --   -2.19374  -2.19322  -2.19091  -2.18940  -1.13755
 Alpha  occ. eigenvalues --   -1.13735  -1.13708  -1.13342  -1.13270  -1.13222
 Alpha  occ. eigenvalues --   -1.13206  -1.13201  -1.13138  -1.13050  -1.13029
 Alpha  occ. eigenvalues --   -1.13014  -1.12968  -1.12967  -1.12955  -1.12789
 Alpha  occ. eigenvalues --   -1.12706  -1.12683  -1.12618  -1.12559  -1.12551
 Alpha  occ. eigenvalues --   -0.19356  -0.13443  -0.12670  -0.10458
 Alpha virt. eigenvalues --   -0.05710  -0.05006  -0.04774  -0.03151  -0.02700
 Alpha virt. eigenvalues --   -0.02033  -0.01616  -0.01200  -0.00209  -0.00116
 Alpha virt. eigenvalues --    0.00056   0.00346   0.00836   0.00894   0.00927

  Beta  occ. eigenvalues --  -38.44183 -38.43611 -38.43565 -38.43516 -38.43451
  Beta  occ. eigenvalues --  -38.42962 -38.42840  -2.20061  -2.19535  -2.19525
  Beta  occ. eigenvalues --   -2.19372  -2.19320  -2.18951  -2.18805  -1.13752
  Beta  occ. eigenvalues --   -1.13708  -1.13694  -1.13318  -1.13268  -1.13218
  Beta  occ. eigenvalues --   -1.13166  -1.13154  -1.13132  -1.13044  -1.13016
  Beta  occ. eigenvalues --   -1.13009  -1.12969  -1.12955  -1.12943  -1.12696
  Beta  occ. eigenvalues --   -1.12605  -1.12583  -1.12524  -1.12461  -1.12451
  Beta  occ. eigenvalues --   -0.18628  -0.13160  -0.12422
  Beta virt. eigenvalues --   -0.06526  -0.05685  -0.04991  -0.04756  -0.02304
  Beta virt. eigenvalues --   -0.01957  -0.01542  -0.01153  -0.01018  -0.00259
  Beta virt. eigenvalues --   -0.00139   0.00185   0.00378   0.00853   0.00894

 Mulliken charges and spin densities:
               1          2
     1  Na   0.290722  -0.112483
     2  Na  -0.067153  -0.019427
     3  Na   0.434981   0.102988
     4  Na  -0.527140   0.633493
     5  Na   0.175626   0.036482
     6  Na   0.144446  -0.124764
     7  Na  -0.451483   0.483710
 Sum of Mulliken charges =  -0.00000   1.00000

 Dipole moment (field-independent basis, Debye):
    X=              0.4045    Y=              0.2112    Z=              0.0382  Tot=              0.4579
 Quadrupole moment (field-independent basis, Debye-Ang):
   XX=            -55.8708   YY=            -60.1373   ZZ=            -76.2034
   XY=              1.1565   XZ=             -0.0257   YZ=             -0.9692

 Normal termination of Gaussian 16 at Fri Dec  8 19:32:31 2023.
