 Gaussian 16, Revision B.01,
 Gaussian 16:  ES64L-G16RevB.01 20-Dec-2017

 -------------------------
 #P B3LYP/6-311+g(d) force
 -------------------------

 -----
 DPGEN
 -----
 Symbolic Z-matrix:
 Charge =  0 Multiplicity = 2

                         Standard orientation:
 ---------------------------------------------------------------------
 Center     Atomic      Atomic             Coordinates (Angstroms)
 Number     Number       Type             X           Y           Z
 ---------------------------------------------------------------------
      1         11           0        2.618329   -0.470723    0.795378
      2         11           0        3.551324    2.962216   -0.306981
      3         11           0       -3.544206    0.272409    0.505303
      4         11           0        4.686902   -2.662250   -0.454699
      5         11           0       -6.370268   -0.527258   -0.463946
      6         11           0       -0.148409    1.758843   -0.132310
      7         11           0       -0.793672   -1.333237    0.057255
 ---------------------------------------------------------------------

 SCF Done:  E(UB3LYP) =  -1136.11144843     A.U. after   23 cycles

 The electronic state is 2-A.
 Alpha  occ. eigenvalues --  -38.45627 -38.45618 -38.44312 -38.44136 -38.43772
 Alpha  occ. eigenvalues --  -38.43314 -38.43271  -2.21493  -2.21411  -2.20129
 Alpha  occ. eigenvalues --   -2.19976  -2.19647  -2.19126  -2.19079  -1.15152
 Alpha  occ. eigenvalues --   -1.15136  -1.15122  -1.15056  -1.15039  -1.15014
 Alpha  occ. eigenvalues --   -1.13804  -1.13761  -1.13759  -1.13678  -1.13659
 Alpha  occ. eigenvalues --   -1.13595  -1.13343  -1.13316  -1.13274  -1.12825
 Alpha  occ. eigenvalues --   -1.12823  -1.12784  -1.12745  -1.12741  -1.12678
 Alpha  occ. eigenvalues --   -0.17168  -0.14297  -0.12038  -0.11373
 Alpha virt. eigenvalues --   -0.06235  -0.05866  -0.04799  -0.03577  -0.02791
 Alpha virt. eigenvalues --   -0.02657  -0.02323  -0.01462  -0.01004  -0.00808
 Alpha virt. eigenvalues --   -0.00678  -0.00216  -0.00120   0.00387   0.00709

  Beta  occ. eigenvalues --  -38.45564 -38.45518 -38.44244 -38.44142 -38.43771
  Beta  occ. eigenvalues --  -38.43327 -38.43263  -2.21393  -2.21208  -2.20004
  Beta  occ. eigenvalues --   -2.19991  -2.19652  -2.19113  -2.19104  -1.15088
  Beta  occ. eigenvalues --   -1.15069  -1.15048  -1.14918  -1.14899  -1.14879
  Beta  occ. eigenvalues --   -1.13721  -1.13688  -1.13676  -1.13674  -1.13674
  Beta  occ. eigenvalues --   -1.13578  -1.13349  -1.13324  -1.13234  -1.12824
  Beta  occ. eigenvalues --   -1.12802  -1.12774  -1.12761  -1.12756  -1.12686
  Beta  occ. eigenvalues --   -0.16626  -0.13539  -0.11024
  Beta virt. eigenvalues --   -0.08626  -0.06014  -0.05258  -0.04604  -0.03213
  Beta virt. eigenvalues --   -0.02519  -0.02326  -0.01877  -0.01224  -0.00768
  Beta virt. eigenvalues --   -0.00577  -0.00405  -0.00087  -0.00020   0.00476

 Mulliken charges and spin densities:
               1          2
     1  Na  -0.343258   0.022428
     2  Na   0.758131   0.362708
     3  Na  -0.056441   0.250407
     4  Na   0.159511  -0.075483
     5  Na  -0.005609   0.185550
     6  Na  -0.441554   0.111815
     7  Na  -0.070782   0.142575
 Sum of Mulliken charges =  -0.00000   1.00000

 Dipole moment (field-independent basis, Debye):
    X=             -0.3581    Y=              0.9071    Z=             -0.6085  Tot=              1.1495
 Quadrupole moment (field-independent basis, Debye-Ang):
   XX=            -65.5376   YY=            -65.1470   ZZ=            -71.6769
   XY=              7.6879   XZ=             -1.0111   YZ=              1.4591

 Normal termination of Gaussian 16 at Tue Nov 28 21:14:06 2023.
