 Gaussian 16, Revision B.01,
 Gaussian 16:  ES64L-G16RevB.01 20-Dec-2017

 -------------------------
 #P B3LYP/6-311+g(d) force
 -------------------------

 -----
 DPGEN
 -----
 Symbolic Z-matrix:
 Charge =  0 Multiplicity = 2

                         Standard orientation:
 ---------------------------------------------------------------------
 Center     Atomic      Atomic             Coordinates (Angstroms)
 Number     Number       Type             X           Y           Z
 ---------------------------------------------------------------------
      1         11           0        1.565809    3.417886    0.680220
      2         11           0       -2.387937   -1.374539    1.700154
      3         11           0       -0.168525   -3.293394   -0.058799
      4         11           0        3.374599   -2.122017   -0.433843
      5         11           0        4.265222    0.881746   -0.393487
      6         11           0       -4.467475    0.155685   -1.254374
      7         11           0       -2.181694    2.334633   -0.239872
 ---------------------------------------------------------------------

 SCF Done:  E(UB3LYP) =  -1136.10908271     A.U. after   21 cycles

 The electronic state is 2-A.
 Alpha  occ. eigenvalues --  -38.45331 -38.44938 -38.44714 -38.44359 -38.44235
 Alpha  occ. eigenvalues --  -38.44035 -38.43980  -2.21100  -2.20702  -2.20523
 Alpha  occ. eigenvalues --   -2.20145  -2.20037  -2.19797  -2.19746  -1.14778
 Alpha  occ. eigenvalues --   -1.14762  -1.14713  -1.14400  -1.14380  -1.14340
 Alpha  occ. eigenvalues --   -1.14174  -1.14160  -1.14130  -1.13876  -1.13816
 Alpha  occ. eigenvalues --   -1.13783  -1.13699  -1.13682  -1.13644  -1.13460
 Alpha  occ. eigenvalues --   -1.13444  -1.13422  -1.13418  -1.13416  -1.13384
 Alpha  occ. eigenvalues --   -0.15745  -0.13987  -0.12696  -0.10924
 Alpha virt. eigenvalues --   -0.07008  -0.05946  -0.04140  -0.03350  -0.03149
 Alpha virt. eigenvalues --   -0.02510  -0.02312  -0.01693  -0.01329  -0.01030
 Alpha virt. eigenvalues --   -0.00667  -0.00254   0.00134   0.00413   0.00584

  Beta  occ. eigenvalues --  -38.45297 -38.44925 -38.44647 -38.44351 -38.44201
  Beta  occ. eigenvalues --  -38.43976 -38.43972  -2.21039  -2.20685  -2.20398
  Beta  occ. eigenvalues --   -2.20135  -2.19977  -2.19742  -2.19679  -1.14737
  Beta  occ. eigenvalues --   -1.14721  -1.14660  -1.14391  -1.14373  -1.14286
  Beta  occ. eigenvalues --   -1.14089  -1.14069  -1.14052  -1.13849  -1.13813
  Beta  occ. eigenvalues --   -1.13768  -1.13659  -1.13646  -1.13600  -1.13421
  Beta  occ. eigenvalues --   -1.13413  -1.13380  -1.13372  -1.13364  -1.13338
  Beta  occ. eigenvalues --   -0.15213  -0.13403  -0.11993
  Beta virt. eigenvalues --   -0.07702  -0.07122  -0.05492  -0.03779  -0.03124
  Beta virt. eigenvalues --   -0.02812  -0.02257  -0.02060  -0.01428  -0.01045
  Beta virt. eigenvalues --   -0.00853  -0.00431   0.00009   0.00277   0.00459

 Mulliken charges and spin densities:
               1          2
     1  Na  -0.086101   0.275558
     2  Na  -0.047230   0.166626
     3  Na  -0.186422  -0.046609
     4  Na   0.290518   0.172983
     5  Na  -0.148030  -0.024783
     6  Na   0.537160   0.298737
     7  Na  -0.359894   0.157487
 Sum of Mulliken charges =  -0.00000   1.00000

 Dipole moment (field-independent basis, Debye):
    X=             -1.3409    Y=             -0.4774    Z=             -0.0481  Tot=              1.4242
 Quadrupole moment (field-independent basis, Debye-Ang):
   XX=            -61.1000   YY=            -70.9075   ZZ=            -68.6786
   XY=              3.4397   XZ=             -0.3772   YZ=              2.4028

 Normal termination of Gaussian 16 at Sun Dec  3 21:46:37 2023.
