 Gaussian 16, Revision B.01,
 Gaussian 16:  ES64L-G16RevB.01 20-Dec-2017

 -------------------------
 #P B3LYP/6-311+g(d) force
 -------------------------

 -----
 DPGEN
 -----
 Symbolic Z-matrix:
 Charge =  0 Multiplicity = 2

                         Standard orientation:
 ---------------------------------------------------------------------
 Center     Atomic      Atomic             Coordinates (Angstroms)
 Number     Number       Type             X           Y           Z
 ---------------------------------------------------------------------
      1         11           0       -4.137671    0.459608    0.787707
      2         11           0        1.791250    3.270320   -0.114614
      3         11           0       -1.578401    0.352520   -1.521270
      4         11           0        1.703436   -0.121092   -1.452690
      5         11           0       -0.105203    0.207073    1.883256
      6         11           0        2.950337   -1.614911    1.118209
      7         11           0       -0.623748   -2.553518   -0.700598
 ---------------------------------------------------------------------

 SCF Done:  E(UB3LYP) =  -1136.11981225     A.U. after   23 cycles

 The electronic state is 2-A.
 Alpha  occ. eigenvalues --  -38.45023 -38.44844 -38.44577 -38.43791 -38.43758
 Alpha  occ. eigenvalues --  -38.43540 -38.43020  -2.20828  -2.20606  -2.20390
 Alpha  occ. eigenvalues --   -2.19665  -2.19639  -2.19470  -2.18771  -1.14521
 Alpha  occ. eigenvalues --   -1.14468  -1.14444  -1.14275  -1.14260  -1.14229
 Alpha  occ. eigenvalues --   -1.14078  -1.14037  -1.14000  -1.13439  -1.13330
 Alpha  occ. eigenvalues --   -1.13310  -1.13290  -1.13278  -1.13229  -1.13173
 Alpha  occ. eigenvalues --   -1.13136  -1.13047  -1.12445  -1.12438  -1.12409
 Alpha  occ. eigenvalues --   -0.18068  -0.13068  -0.11527  -0.11186
 Alpha virt. eigenvalues --   -0.06717  -0.05077  -0.04517  -0.03061  -0.02938
 Alpha virt. eigenvalues --   -0.02510  -0.02349  -0.01161  -0.01065  -0.00175
 Alpha virt. eigenvalues --    0.00073   0.00165   0.00218   0.00695   0.00721

  Beta  occ. eigenvalues --  -38.44970 -38.44819 -38.44544 -38.43769 -38.43718
  Beta  occ. eigenvalues --  -38.43502 -38.43024  -2.20731  -2.20560  -2.20329
  Beta  occ. eigenvalues --   -2.19605  -2.19595  -2.19406  -2.18780  -1.14456
  Beta  occ. eigenvalues --   -1.14398  -1.14368  -1.14244  -1.14227  -1.14199
  Beta  occ. eigenvalues --   -1.14038  -1.13986  -1.13962  -1.13392  -1.13287
  Beta  occ. eigenvalues --   -1.13263  -1.13253  -1.13222  -1.13195  -1.13115
  Beta  occ. eigenvalues --   -1.13083  -1.13002  -1.12449  -1.12442  -1.12414
  Beta  occ. eigenvalues --   -0.17285  -0.12770  -0.11041
  Beta virt. eigenvalues --   -0.07713  -0.06423  -0.04954  -0.04002  -0.02964
  Beta virt. eigenvalues --   -0.02180  -0.02131  -0.01888  -0.01017  -0.00734
  Beta virt. eigenvalues --   -0.00128   0.00143   0.00207   0.00320   0.00743

 Mulliken charges and spin densities:
               1          2
     1  Na   0.009724   0.133717
     2  Na  -0.112022   0.005679
     3  Na   0.148999   0.097112
     4  Na   0.273659  -0.069371
     5  Na  -0.432137   0.522077
     6  Na   0.143967   0.200337
     7  Na  -0.032189   0.110449
 Sum of Mulliken charges =  -0.00000   1.00000

 Dipole moment (field-independent basis, Debye):
    X=             -0.5895    Y=             -0.8367    Z=              0.6538  Tot=              1.2145
 Quadrupole moment (field-independent basis, Debye-Ang):
   XX=            -54.9560   YY=            -70.8110   ZZ=            -68.2297
   XY=             -2.7468   XZ=             -0.3974   YZ=             -0.3507

 Normal termination of Gaussian 16 at Fri Dec  8 02:47:35 2023.
