 Gaussian 16, Revision B.01,
 Gaussian 16:  ES64L-G16RevB.01 20-Dec-2017

 -------------------------
 #P B3LYP/6-311+g(d) force
 -------------------------

 -----
 DPGEN
 -----
 Symbolic Z-matrix:
 Charge =  0 Multiplicity = 2

                         Standard orientation:
 ---------------------------------------------------------------------
 Center     Atomic      Atomic             Coordinates (Angstroms)
 Number     Number       Type             X           Y           Z
 ---------------------------------------------------------------------
      1         11           0       -2.949282   -0.011187   -0.019261
      2         11           0       -0.342190   -0.268777    1.995972
      3         11           0       -0.937117   -2.867155   -0.507709
      4         11           0        2.454990   -1.473137    0.604611
      5         11           0        0.158609   -0.060680   -1.851525
      6         11           0       -1.028482    3.148075    0.123407
      7         11           0        2.643472    1.532860   -0.345496
 ---------------------------------------------------------------------

 SCF Done:  E(UB3LYP) =  -1136.13681640     A.U. after   19 cycles

 The electronic state is 2-A.
 Alpha  occ. eigenvalues --  -38.43830 -38.43825 -38.43777 -38.43695 -38.43621
 Alpha  occ. eigenvalues --  -38.43517 -38.43483  -2.19724  -2.19678  -2.19549
 Alpha  occ. eigenvalues --   -2.19543  -2.19540  -2.19395  -2.19334  -1.13429
 Alpha  occ. eigenvalues --   -1.13394  -1.13355  -1.13338  -1.13320  -1.13294
 Alpha  occ. eigenvalues --   -1.13275  -1.13234  -1.13225  -1.13221  -1.13200
 Alpha  occ. eigenvalues --   -1.13189  -1.13180  -1.13167  -1.13152  -1.13067
 Alpha  occ. eigenvalues --   -1.13034  -1.13015  -1.13006  -1.12978  -1.12968
 Alpha  occ. eigenvalues --   -0.18494  -0.12981  -0.12277  -0.11100
 Alpha virt. eigenvalues --   -0.05457  -0.05039  -0.04858  -0.03369  -0.02996
 Alpha virt. eigenvalues --   -0.02808  -0.01278  -0.01226  -0.00384  -0.00252
 Alpha virt. eigenvalues --   -0.00009   0.00375   0.00830   0.00863   0.00886

  Beta  occ. eigenvalues --  -38.43824 -38.43781 -38.43741 -38.43691 -38.43546
  Beta  occ. eigenvalues --  -38.43500 -38.43470  -2.19672  -2.19569  -2.19552
  Beta  occ. eigenvalues --   -2.19535  -2.19409  -2.19368  -2.19313  -1.13387
  Beta  occ. eigenvalues --   -1.13336  -1.13293  -1.13290  -1.13256  -1.13240
  Beta  occ. eigenvalues --   -1.13229  -1.13220  -1.13208  -1.13200  -1.13192
  Beta  occ. eigenvalues --   -1.13170  -1.13136  -1.13081  -1.13072  -1.13036
  Beta  occ. eigenvalues --   -1.13005  -1.12996  -1.12972  -1.12962  -1.12945
  Beta  occ. eigenvalues --   -0.17746  -0.12741  -0.12054
  Beta virt. eigenvalues --   -0.07175  -0.05461  -0.04887  -0.04825  -0.02592
  Beta virt. eigenvalues --   -0.02286  -0.01786  -0.01184  -0.01141  -0.00384
  Beta virt. eigenvalues --   -0.00287   0.00106   0.00405   0.00849   0.00905

 Mulliken charges and spin densities:
               1          2
     1  Na   0.100170  -0.079473
     2  Na  -0.131006   0.618167
     3  Na   0.188437   0.012483
     4  Na   0.106654   0.064420
     5  Na  -0.051447   0.583711
     6  Na  -0.196479  -0.116320
     7  Na  -0.016329  -0.082988
 Sum of Mulliken charges =  -0.00000   1.00000

 Dipole moment (field-independent basis, Debye):
    X=             -0.1383    Y=             -0.0020    Z=              0.0493  Tot=              0.1469
 Quadrupole moment (field-independent basis, Debye-Ang):
   XX=            -61.0393   YY=            -61.1170   ZZ=            -72.5979
   XY=              0.6257   XZ=              0.8156   YZ=              0.2820

 Normal termination of Gaussian 16 at Wed Dec  6 00:36:12 2023.
