 Gaussian 16, Revision B.01,
 Gaussian 16:  ES64L-G16RevB.01 20-Dec-2017

 -------------------------
 #P B3LYP/6-311+g(d) force
 -------------------------

 -----
 DPGEN
 -----
 Symbolic Z-matrix:
 Charge =  0 Multiplicity = 2

                         Standard orientation:
 ---------------------------------------------------------------------
 Center     Atomic      Atomic             Coordinates (Angstroms)
 Number     Number       Type             X           Y           Z
 ---------------------------------------------------------------------
      1         11           0        2.063706   -0.379269    1.672681
      2         11           0       -1.061924   -1.705274    1.889575
      3         11           0       -2.223062    1.596783    0.692107
      4         11           0        0.222684   -0.620452   -0.992704
      5         11           0       -3.132287   -0.748539   -1.588111
      6         11           0        1.145081    2.840621   -0.182965
      7         11           0        2.985803   -0.983870   -1.490584
 ---------------------------------------------------------------------

 SCF Done:  E(UB3LYP) =  -1136.12078300     A.U. after   23 cycles

 The electronic state is 2-A.
 Alpha  occ. eigenvalues --  -38.44751 -38.44735 -38.44382 -38.43867 -38.43771
 Alpha  occ. eigenvalues --  -38.43323 -38.42391  -2.20618  -2.20568  -2.20266
 Alpha  occ. eigenvalues --   -2.19719  -2.19594  -2.19370  -2.18181  -1.14394
 Alpha  occ. eigenvalues --   -1.14243  -1.14236  -1.14212  -1.14204  -1.14180
 Alpha  occ. eigenvalues --   -1.13970  -1.13911  -1.13879  -1.13409  -1.13371
 Alpha  occ. eigenvalues --   -1.13326  -1.13282  -1.13266  -1.13208  -1.13078
 Alpha  occ. eigenvalues --   -1.13031  -1.12965  -1.11862  -1.11847  -1.11816
 Alpha  occ. eigenvalues --   -0.18324  -0.13692  -0.11835  -0.10987
 Alpha virt. eigenvalues --   -0.05802  -0.05677  -0.04358  -0.03445  -0.02795
 Alpha virt. eigenvalues --   -0.02480  -0.01847  -0.01174  -0.00569  -0.00090
 Alpha virt. eigenvalues --    0.00125   0.00344   0.00487   0.00512   0.00693

  Beta  occ. eigenvalues --  -38.44708 -38.44688 -38.44350 -38.43811 -38.43769
  Beta  occ. eigenvalues --  -38.43290 -38.42392  -2.20533  -2.20488  -2.20209
  Beta  occ. eigenvalues --   -2.19619  -2.19591  -2.19315  -2.18185  -1.14327
  Beta  occ. eigenvalues --   -1.14182  -1.14180  -1.14158  -1.14146  -1.14131
  Beta  occ. eigenvalues --   -1.13931  -1.13856  -1.13833  -1.13341  -1.13303
  Beta  occ. eigenvalues --   -1.13268  -1.13263  -1.13243  -1.13209  -1.13002
  Beta  occ. eigenvalues --   -1.12988  -1.12935  -1.11860  -1.11849  -1.11819
  Beta  occ. eigenvalues --   -0.17622  -0.13400  -0.10794
  Beta virt. eigenvalues --   -0.07985  -0.05569  -0.05070  -0.04211  -0.03166
  Beta virt. eigenvalues --   -0.02134  -0.01952  -0.01718  -0.00733  -0.00457
  Beta virt. eigenvalues --    0.00125   0.00239   0.00390   0.00560   0.00659

 Mulliken charges and spin densities:
               1          2
     1  Na   0.566494   0.236239
     2  Na  -0.322129   0.234085
     3  Na   0.097935   0.175552
     4  Na  -0.536682   0.308275
     5  Na   0.445570  -0.049234
     6  Na  -0.347916  -0.091190
     7  Na   0.096729   0.186273
 Sum of Mulliken charges =  -0.00000   1.00000

 Dipole moment (field-independent basis, Debye):
    X=             -0.1491    Y=             -0.7445    Z=             -0.0650  Tot=              0.7620
 Quadrupole moment (field-independent basis, Debye-Ang):
   XX=            -51.9852   YY=            -77.6726   ZZ=            -63.6448
   XY=              0.2844   XZ=              0.5027   YZ=              1.6794

 Normal termination of Gaussian 16 at Thu Dec  7 18:03:30 2023.
