 Gaussian 16, Revision B.01,
 Gaussian 16:  ES64L-G16RevB.01 20-Dec-2017

 -------------------------
 #P B3LYP/6-311+g(d) force
 -------------------------

 -----
 DPGEN
 -----
 Symbolic Z-matrix:
 Charge =  0 Multiplicity = 2

                         Standard orientation:
 ---------------------------------------------------------------------
 Center     Atomic      Atomic             Coordinates (Angstroms)
 Number     Number       Type             X           Y           Z
 ---------------------------------------------------------------------
      1         11           0       -0.211935   -0.262461    2.226395
      2         11           0        2.212340    1.526922    0.029025
      3         11           0        4.107373   -1.056761   -0.087469
      4         11           0       -0.950701    2.562424   -0.139452
      5         11           0       -1.131237   -2.458365   -0.193023
      6         11           0       -3.571434   -0.134826    0.134127
      7         11           0       -0.454407   -0.176933   -1.969602
 ---------------------------------------------------------------------

 SCF Done:  E(UB3LYP) =  -1136.11865741     A.U. after   24 cycles

 The electronic state is 2-A.
 Alpha  occ. eigenvalues --  -38.45867 -38.44756 -38.44605 -38.44257 -38.43307
 Alpha  occ. eigenvalues --  -38.43233 -38.42256  -2.21656  -2.20504  -2.20447
 Alpha  occ. eigenvalues --   -2.20182  -2.19209  -2.19105  -2.18128  -1.15327
 Alpha  occ. eigenvalues --   -1.15304  -1.15300  -1.14194  -1.14171  -1.14150
 Alpha  occ. eigenvalues --   -1.14115  -1.14070  -1.14063  -1.13902  -1.13809
 Alpha  occ. eigenvalues --   -1.13790  -1.12917  -1.12857  -1.12813  -1.12788
 Alpha  occ. eigenvalues --   -1.12786  -1.12731  -1.11812  -1.11784  -1.11775
 Alpha  occ. eigenvalues --   -0.18339  -0.13269  -0.11488  -0.11263
 Alpha virt. eigenvalues --   -0.07376  -0.04668  -0.03773  -0.03530  -0.03150
 Alpha virt. eigenvalues --   -0.02706  -0.02622  -0.01229  -0.00370  -0.00230
 Alpha virt. eigenvalues --   -0.00053   0.00131   0.00231   0.00735   0.00841

  Beta  occ. eigenvalues --  -38.45860 -38.44786 -38.44504 -38.44173 -38.43283
  Beta  occ. eigenvalues --  -38.43233 -38.42252  -2.21646  -2.20561  -2.20261
  Beta  occ. eigenvalues --   -2.20029  -2.19171  -2.19103  -2.18125  -1.15299
  Beta  occ. eigenvalues --   -1.15297  -1.15296  -1.14233  -1.14207  -1.14187
  Beta  occ. eigenvalues --   -1.13990  -1.13938  -1.13929  -1.13795  -1.13698
  Beta  occ. eigenvalues --   -1.13679  -1.12884  -1.12796  -1.12792  -1.12786
  Beta  occ. eigenvalues --   -1.12764  -1.12749  -1.11810  -1.11776  -1.11758
  Beta  occ. eigenvalues --   -0.17477  -0.13317  -0.11241
  Beta virt. eigenvalues --   -0.07228  -0.07195  -0.04686  -0.03707  -0.02836
  Beta virt. eigenvalues --   -0.02565  -0.02018  -0.01861  -0.01266  -0.00216
  Beta virt. eigenvalues --   -0.00197  -0.00067   0.00125   0.00455   0.00783

 Mulliken charges and spin densities:
               1          2
     1  Na  -0.250870   0.636436
     2  Na  -0.184809  -0.075449
     3  Na   0.115909  -0.192724
     4  Na  -0.105351   0.074350
     5  Na   0.151389  -0.062473
     6  Na   0.213842   0.027655
     7  Na   0.059889   0.592206
 Sum of Mulliken charges =  -0.00000   1.00000

 Dipole moment (field-independent basis, Debye):
    X=             -0.8969    Y=             -0.3972    Z=              0.2283  Tot=              1.0072
 Quadrupole moment (field-independent basis, Debye-Ang):
   XX=            -50.0468   YY=            -72.8775   ZZ=            -71.7411
   XY=             -3.2534   XZ=             -0.8670   YZ=              0.2932

 Normal termination of Gaussian 16 at Fri Dec  8 02:34:48 2023.
