 Gaussian 16, Revision B.01,
 Gaussian 16:  ES64L-G16RevB.01 20-Dec-2017

 -------------------------
 #P B3LYP/6-311+g(d) force
 -------------------------

 -----
 DPGEN
 -----
 Symbolic Z-matrix:
 Charge =  0 Multiplicity = 2

                         Standard orientation:
 ---------------------------------------------------------------------
 Center     Atomic      Atomic             Coordinates (Angstroms)
 Number     Number       Type             X           Y           Z
 ---------------------------------------------------------------------
      1         11           0        1.628603    1.890472    1.914085
      2         11           0        2.754586   -1.775229   -1.831311
      3         11           0        1.242773   -1.740290    2.172519
      4         11           0       -0.775129   -1.829067   -0.157764
      5         11           0       -4.479522   -0.693474   -0.391362
      6         11           0       -1.903386    2.009814    0.009942
      7         11           0        1.532077    2.137774   -1.716108
 ---------------------------------------------------------------------

 SCF Done:  E(UB3LYP) =  -1136.11803253     A.U. after   20 cycles

 The electronic state is 2-A.
 Alpha  occ. eigenvalues --  -38.45144 -38.44490 -38.44277 -38.44249 -38.44080
 Alpha  occ. eigenvalues --  -38.44002 -38.43797  -2.20905  -2.20276  -2.20045
 Alpha  occ. eigenvalues --   -2.20004  -2.19833  -2.19824  -2.19610  -1.14569
 Alpha  occ. eigenvalues --   -1.14546  -1.14509  -1.13949  -1.13933  -1.13890
 Alpha  occ. eigenvalues --   -1.13725  -1.13710  -1.13705  -1.13700  -1.13663
 Alpha  occ. eigenvalues --   -1.13589  -1.13569  -1.13502  -1.13490  -1.13471
 Alpha  occ. eigenvalues --   -1.13452  -1.13449  -1.13311  -1.13296  -1.13183
 Alpha  occ. eigenvalues --   -0.16769  -0.12564  -0.11982  -0.11776
 Alpha virt. eigenvalues --   -0.06279  -0.05504  -0.04678  -0.03582  -0.03194
 Alpha virt. eigenvalues --   -0.02838  -0.01929  -0.01432  -0.00644  -0.00294
 Alpha virt. eigenvalues --   -0.00177   0.00103   0.00239   0.00404   0.00619

  Beta  occ. eigenvalues --  -38.45064 -38.44444 -38.44250 -38.44249 -38.44088
  Beta  occ. eigenvalues --  -38.43956 -38.43799  -2.20756  -2.20191  -2.20004
  Beta  occ. eigenvalues --   -2.19995  -2.19840  -2.19750  -2.19614  -1.14466
  Beta  occ. eigenvalues --   -1.14441  -1.14409  -1.13891  -1.13875  -1.13823
  Beta  occ. eigenvalues --   -1.13708  -1.13701  -1.13687  -1.13672  -1.13621
  Beta  occ. eigenvalues --   -1.13592  -1.13523  -1.13513  -1.13502  -1.13462
  Beta  occ. eigenvalues --   -1.13412  -1.13386  -1.13301  -1.13289  -1.13192
  Beta  occ. eigenvalues --   -0.16133  -0.12270  -0.11942
  Beta virt. eigenvalues --   -0.07933  -0.05952  -0.05177  -0.04236  -0.03320
  Beta virt. eigenvalues --   -0.02687  -0.02350  -0.01711  -0.01295  -0.00386
  Beta virt. eigenvalues --   -0.00139  -0.00032   0.00231   0.00300   0.00519

 Mulliken charges and spin densities:
               1          2
     1  Na   0.057994   0.094993
     2  Na   0.128873   0.334285
     3  Na   0.453599   0.198358
     4  Na  -0.821473   0.177464
     5  Na   0.295452  -0.108560
     6  Na  -0.084046   0.012661
     7  Na  -0.030399   0.290800
 Sum of Mulliken charges =  -0.00000   1.00000

 Dipole moment (field-independent basis, Debye):
    X=              0.4576    Y=              0.0281    Z=             -0.0313  Tot=              0.4595
 Quadrupole moment (field-independent basis, Debye-Ang):
   XX=            -59.0622   YY=            -70.7776   ZZ=            -65.9441
   XY=             -0.2761   XZ=             -0.3371   YZ=              1.5700

 Normal termination of Gaussian 16 at Sun Dec  3 18:19:59 2023.
