 Gaussian 16, Revision B.01,
 Gaussian 16:  ES64L-G16RevB.01 20-Dec-2017

 -------------------------
 #P B3LYP/6-311+g(d) force
 -------------------------

 -----
 DPGEN
 -----
 Symbolic Z-matrix:
 Charge =  0 Multiplicity = 2

                         Standard orientation:
 ---------------------------------------------------------------------
 Center     Atomic      Atomic             Coordinates (Angstroms)
 Number     Number       Type             X           Y           Z
 ---------------------------------------------------------------------
      1         11           0        1.808617   -1.722391   -0.778542
      2         11           0        0.479008   -0.465551    2.026422
      3         11           0        0.987586    1.951970   -0.827929
      4         11           0       -1.399628   -1.574153   -1.175724
      5         11           0       -3.631513   -0.717174    0.573224
      6         11           0       -2.206631    2.173999   -0.156875
      7         11           0        3.962560    0.353299    0.339425
 ---------------------------------------------------------------------

 SCF Done:  E(UB3LYP) =  -1136.11663085     A.U. after   28 cycles

 The electronic state is 2-A.
 Alpha  occ. eigenvalues --  -38.45808 -38.45182 -38.45108 -38.43505 -38.43281
 Alpha  occ. eigenvalues --  -38.43256 -38.42958  -2.21619  -2.20997  -2.20956
 Alpha  occ. eigenvalues --   -2.19425  -2.19189  -2.19091  -2.18803  -1.15301
 Alpha  occ. eigenvalues --   -1.15267  -1.15246  -1.14682  -1.14674  -1.14646
 Alpha  occ. eigenvalues --   -1.14599  -1.14597  -1.14586  -1.13138  -1.13077
 Alpha  occ. eigenvalues --   -1.13060  -1.12870  -1.12843  -1.12807  -1.12776
 Alpha  occ. eigenvalues --   -1.12756  -1.12742  -1.12493  -1.12469  -1.12423
 Alpha  occ. eigenvalues --   -0.18343  -0.14412  -0.11422  -0.10534
 Alpha virt. eigenvalues --   -0.07680  -0.05390  -0.04309  -0.03345  -0.03155
 Alpha virt. eigenvalues --   -0.02361  -0.02185  -0.01242  -0.00859  -0.00354
 Alpha virt. eigenvalues --   -0.00024   0.00165   0.00297   0.00677   0.00749

  Beta  occ. eigenvalues --  -38.45794 -38.45109 -38.45109 -38.43468 -38.43259
  Beta  occ. eigenvalues --  -38.43245 -38.42943  -2.21593  -2.20957  -2.20861
  Beta  occ. eigenvalues --   -2.19364  -2.19128  -2.19098  -2.18777  -1.15288
  Beta  occ. eigenvalues --   -1.15240  -1.15223  -1.14679  -1.14598  -1.14584
  Beta  occ. eigenvalues --   -1.14580  -1.14555  -1.14495  -1.13087  -1.13019
  Beta  occ. eigenvalues --   -1.13000  -1.12808  -1.12801  -1.12783  -1.12762
  Beta  occ. eigenvalues --   -1.12751  -1.12745  -1.12479  -1.12433  -1.12413
  Beta  occ. eigenvalues --   -0.17648  -0.14273  -0.11165
  Beta virt. eigenvalues --   -0.07451  -0.06753  -0.05405  -0.03705  -0.03162
  Beta virt. eigenvalues --   -0.02908  -0.01760  -0.01375  -0.01184  -0.00515
  Beta virt. eigenvalues --   -0.00297   0.00042   0.00181   0.00475   0.00711

 Mulliken charges and spin densities:
               1          2
     1  Na  -0.083009   0.193280
     2  Na  -0.562557   0.374829
     3  Na  -0.497660   0.083964
     4  Na  -0.489506   0.005447
     5  Na   0.890031   0.159665
     6  Na  -0.362434  -0.004203
     7  Na   1.105136   0.187017
 Sum of Mulliken charges =  -0.00000   1.00000

 Dipole moment (field-independent basis, Debye):
    X=              0.8185    Y=             -0.1683    Z=              0.5814  Tot=              1.0180
 Quadrupole moment (field-independent basis, Debye-Ang):
   XX=            -42.2761   YY=            -78.3466   ZZ=            -73.1849
   XY=              1.2546   XZ=             -1.6215   YZ=              1.0228

 Normal termination of Gaussian 16 at Thu Dec  7 03:48:37 2023.
