 Gaussian 16, Revision B.01,
 Gaussian 16:  ES64L-G16RevB.01 20-Dec-2017

 -------------------------
 #P B3LYP/6-311+g(d) force
 -------------------------

 -----
 DPGEN
 -----
 Symbolic Z-matrix:
 Charge =  0 Multiplicity = 2

                         Standard orientation:
 ---------------------------------------------------------------------
 Center     Atomic      Atomic             Coordinates (Angstroms)
 Number     Number       Type             X           Y           Z
 ---------------------------------------------------------------------
      1         11           0       -2.761064   -1.754191   -0.675853
      2         11           0        1.240902    1.944635   -0.264861
      3         11           0        0.959968   -2.314671   -0.051248
      4         11           0        4.165564   -0.324109   -1.206621
      5         11           0       -4.979071   -0.037347    0.746022
      6         11           0        3.115396    0.094485    2.014058
      7         11           0       -1.741696    2.391198   -0.561497
 ---------------------------------------------------------------------

 SCF Done:  E(UB3LYP) =  -1136.10897488     A.U. after   24 cycles

 The electronic state is 2-A.
 Alpha  occ. eigenvalues --  -38.46672 -38.46200 -38.43846 -38.43751 -38.43590
 Alpha  occ. eigenvalues --  -38.43097 -38.42401  -2.22463  -2.21984  -2.19649
 Alpha  occ. eigenvalues --   -2.19570  -2.19380  -2.18904  -2.18270  -1.16133
 Alpha  occ. eigenvalues --   -1.16119  -1.16088  -1.15656  -1.15633  -1.15599
 Alpha  occ. eigenvalues --   -1.13326  -1.13300  -1.13257  -1.13244  -1.13211
 Alpha  occ. eigenvalues --   -1.13196  -1.13062  -1.13044  -1.13011  -1.12616
 Alpha  occ. eigenvalues --   -1.12572  -1.12527  -1.11956  -1.11936  -1.11898
 Alpha  occ. eigenvalues --   -0.17011  -0.14054  -0.11350  -0.10604
 Alpha virt. eigenvalues --   -0.07578  -0.05538  -0.04814  -0.03248  -0.02874
 Alpha virt. eigenvalues --   -0.02195  -0.02018  -0.01588  -0.01295  -0.00716
 Alpha virt. eigenvalues --   -0.00553  -0.00027   0.00141   0.00405   0.00544

  Beta  occ. eigenvalues --  -38.46660 -38.46171 -38.43762 -38.43684 -38.43594
  Beta  occ. eigenvalues --  -38.43095 -38.42395  -2.22442  -2.21932  -2.19494
  Beta  occ. eigenvalues --   -2.19443  -2.19393  -2.18901  -2.18262  -1.16110
  Beta  occ. eigenvalues --   -1.16097  -1.16076  -1.15616  -1.15588  -1.15567
  Beta  occ. eigenvalues --   -1.13222  -1.13193  -1.13186  -1.13137  -1.13124
  Beta  occ. eigenvalues --   -1.13111  -1.13073  -1.13053  -1.12966  -1.12603
  Beta  occ. eigenvalues --   -1.12571  -1.12527  -1.11952  -1.11919  -1.11892
  Beta  occ. eigenvalues --   -0.16514  -0.13481  -0.10877
  Beta virt. eigenvalues --   -0.07430  -0.07246  -0.05464  -0.04258  -0.02984
  Beta virt. eigenvalues --   -0.02596  -0.01831  -0.01647  -0.01450  -0.00875
  Beta virt. eigenvalues --   -0.00487  -0.00373   0.00079   0.00204   0.00517

 Mulliken charges and spin densities:
               1          2
     1  Na  -0.337740  -0.023346
     2  Na  -0.752766  -0.066488
     3  Na  -0.489182   0.333939
     4  Na   0.627488   0.184521
     5  Na   0.243474   0.328256
     6  Na   0.864779   0.205246
     7  Na  -0.156053   0.037872
 Sum of Mulliken charges =  -0.00000   1.00000

 Dipole moment (field-independent basis, Debye):
    X=              2.9615    Y=             -0.3057    Z=              0.7898  Tot=              3.0803
 Quadrupole moment (field-independent basis, Debye-Ang):
   XX=            -58.0028   YY=            -81.8551   ZZ=            -58.3168
   XY=             -4.2660   XZ=             -2.2062   YZ=              1.9809

 Normal termination of Gaussian 16 at Sun Dec  3 22:40:57 2023.
