 Gaussian 16, Revision B.01,
 Gaussian 16:  ES64L-G16RevB.01 20-Dec-2017

 -------------------------
 #P B3LYP/6-311+g(d) force
 -------------------------

 -----
 DPGEN
 -----
 Symbolic Z-matrix:
 Charge =  0 Multiplicity = 2

                         Standard orientation:
 ---------------------------------------------------------------------
 Center     Atomic      Atomic             Coordinates (Angstroms)
 Number     Number       Type             X           Y           Z
 ---------------------------------------------------------------------
      1         11           0        0.509519    0.059207    1.324998
      2         11           0       -1.315372    2.557329   -0.141115
      3         11           0        3.561247   -0.609118   -0.189949
      4         11           0       -2.199296   -1.893930    0.683160
      5         11           0        1.269921   -2.925911   -0.758918
      6         11           0        2.305039    2.590318   -0.234782
      7         11           0       -4.131058    0.222105   -0.683395
 ---------------------------------------------------------------------

 SCF Done:  E(UB3LYP) =  -1136.12563889     A.U. after   20 cycles

 The electronic state is 2-A.
 Alpha  occ. eigenvalues --  -38.44554 -38.44507 -38.44204 -38.44127 -38.43684
 Alpha  occ. eigenvalues --  -38.43578 -38.43445  -2.20346  -2.20295  -2.20020
 Alpha  occ. eigenvalues --   -2.19962  -2.19609  -2.19444  -2.19288  -1.14037
 Alpha  occ. eigenvalues --   -1.14032  -1.13977  -1.13963  -1.13959  -1.13932
 Alpha  occ. eigenvalues --   -1.13700  -1.13693  -1.13655  -1.13653  -1.13633
 Alpha  occ. eigenvalues --   -1.13606  -1.13300  -1.13279  -1.13208  -1.13106
 Alpha  occ. eigenvalues --   -1.13089  -1.13071  -1.12942  -1.12926  -1.12903
 Alpha  occ. eigenvalues --   -0.17488  -0.14009  -0.12708  -0.10114
 Alpha virt. eigenvalues --   -0.06788  -0.05883  -0.04003  -0.03752  -0.02910
 Alpha virt. eigenvalues --   -0.02112  -0.02023  -0.01292  -0.01079  -0.00828
 Alpha virt. eigenvalues --   -0.00098   0.00342   0.00467   0.00612   0.00701

  Beta  occ. eigenvalues --  -38.44547 -38.44509 -38.44200 -38.44113 -38.43631
  Beta  occ. eigenvalues --  -38.43529 -38.43368  -2.20337  -2.20301  -2.20017
  Beta  occ. eigenvalues --   -2.19942  -2.19513  -2.19353  -2.19144  -1.14033
  Beta  occ. eigenvalues --   -1.14019  -1.13984  -1.13970  -1.13938  -1.13915
  Beta  occ. eigenvalues --   -1.13701  -1.13693  -1.13629  -1.13626  -1.13625
  Beta  occ. eigenvalues --   -1.13563  -1.13237  -1.13210  -1.13132  -1.13041
  Beta  occ. eigenvalues --   -1.13030  -1.13007  -1.12846  -1.12827  -1.12808
  Beta  occ. eigenvalues --   -0.16952  -0.13303  -0.12474
  Beta virt. eigenvalues --   -0.06695  -0.06638  -0.05748  -0.03898  -0.03019
  Beta virt. eigenvalues --   -0.02444  -0.01911  -0.01690  -0.01132  -0.00855
  Beta virt. eigenvalues --   -0.00666   0.00185   0.00486   0.00572   0.00692

 Mulliken charges and spin densities:
               1          2
     1  Na   0.207068   0.146509
     2  Na  -0.355239  -0.018367
     3  Na   0.043291   0.370139
     4  Na  -0.146753   0.015405
     5  Na  -0.101125  -0.017534
     6  Na   0.223504   0.029336
     7  Na   0.129254   0.474512
 Sum of Mulliken charges =  -0.00000   1.00000

 Dipole moment (field-independent basis, Debye):
    X=              0.6143    Y=              0.1204    Z=             -0.1840  Tot=              0.6525
 Quadrupole moment (field-independent basis, Debye-Ang):
   XX=            -71.4797   YY=            -60.1409   ZZ=            -70.0844
   XY=              2.3407   XZ=             -0.6541   YZ=             -0.1045

 Normal termination of Gaussian 16 at Tue Nov 28 20:47:34 2023.
