 Gaussian 16, Revision B.01,
 Gaussian 16:  ES64L-G16RevB.01 20-Dec-2017

 -------------------------
 #P B3LYP/6-311+g(d) force
 -------------------------

 -----
 DPGEN
 -----
 Symbolic Z-matrix:
 Charge =  0 Multiplicity = 2

                         Standard orientation:
 ---------------------------------------------------------------------
 Center     Atomic      Atomic             Coordinates (Angstroms)
 Number     Number       Type             X           Y           Z
 ---------------------------------------------------------------------
      1         11           0        0.124042   -0.076579   -1.504743
      2         11           0        2.624040    1.806640   -0.088756
      3         11           0       -0.677218    2.788491    0.141368
      4         11           0       -0.309614   -0.435171    2.211926
      5         11           0        2.612097   -1.942624   -0.146875
      6         11           0       -1.207035   -2.389400   -0.182164
      7         11           0       -3.166311    0.248644   -0.430755
 ---------------------------------------------------------------------

 SCF Done:  E(UB3LYP) =  -1136.13505780     A.U. after   19 cycles

 The electronic state is 2-A.
 Alpha  occ. eigenvalues --  -38.43974 -38.43949 -38.43905 -38.43808 -38.43408
 Alpha  occ. eigenvalues --  -38.43231 -38.43169  -2.19821  -2.19750  -2.19716
 Alpha  occ. eigenvalues --   -2.19682  -2.19345  -2.19187  -2.19072  -1.13497
 Alpha  occ. eigenvalues --   -1.13479  -1.13467  -1.13432  -1.13412  -1.13398
 Alpha  occ. eigenvalues --   -1.13389  -1.13379  -1.13357  -1.13347  -1.13313
 Alpha  occ. eigenvalues --   -1.13287  -1.13142  -1.13003  -1.12935  -1.12864
 Alpha  occ. eigenvalues --   -1.12817  -1.12791  -1.12739  -1.12736  -1.12702
 Alpha  occ. eigenvalues --   -0.18640  -0.13004  -0.12410  -0.10839
 Alpha virt. eigenvalues --   -0.05590  -0.05410  -0.04507  -0.03086  -0.02871
 Alpha virt. eigenvalues --   -0.02685  -0.01648  -0.01152  -0.00350  -0.00274
 Alpha virt. eigenvalues --   -0.00035   0.00326   0.00759   0.00856   0.00899

  Beta  occ. eigenvalues --  -38.43964 -38.43948 -38.43905 -38.43699 -38.43394
  Beta  occ. eigenvalues --  -38.43227 -38.43117  -2.19805  -2.19750  -2.19719
  Beta  occ. eigenvalues --   -2.19481  -2.19327  -2.19093  -2.19067  -1.13483
  Beta  occ. eigenvalues --   -1.13464  -1.13445  -1.13423  -1.13409  -1.13394
  Beta  occ. eigenvalues --   -1.13389  -1.13375  -1.13351  -1.13232  -1.13171
  Beta  occ. eigenvalues --   -1.13147  -1.13112  -1.12954  -1.12923  -1.12804
  Beta  occ. eigenvalues --   -1.12772  -1.12724  -1.12719  -1.12706  -1.12702
  Beta  occ. eigenvalues --   -0.17915  -0.12780  -0.12197
  Beta virt. eigenvalues --   -0.06844  -0.05548  -0.05399  -0.04453  -0.02362
  Beta virt. eigenvalues --   -0.02101  -0.01626  -0.01498  -0.01108  -0.00396
  Beta virt. eigenvalues --   -0.00300   0.00134   0.00368   0.00834   0.00853

 Mulliken charges and spin densities:
               1          2
     1  Na  -0.339286   0.231548
     2  Na   0.024500  -0.045390
     3  Na   0.055304   0.013782
     4  Na  -0.664071   0.736457
     5  Na   0.147079  -0.054315
     6  Na   0.561351   0.067266
     7  Na   0.215123   0.050652
 Sum of Mulliken charges =  -0.00000   1.00000

 Dipole moment (field-independent basis, Debye):
    X=              0.1681    Y=             -0.0320    Z=              0.2042  Tot=              0.2664
 Quadrupole moment (field-independent basis, Debye-Ang):
   XX=            -55.0747   YY=            -64.2203   ZZ=            -74.1188
   XY=             -0.9144   XZ=              1.1210   YZ=              0.6562

 Normal termination of Gaussian 16 at Thu Dec  7 23:43:08 2023.
