 Gaussian 16, Revision B.01,
 Gaussian 16:  ES64L-G16RevB.01 20-Dec-2017

 -------------------------
 #P B3LYP/6-311+g(d) force
 -------------------------

 -----
 DPGEN
 -----
 Symbolic Z-matrix:
 Charge =  0 Multiplicity = 2

                         Standard orientation:
 ---------------------------------------------------------------------
 Center     Atomic      Atomic             Coordinates (Angstroms)
 Number     Number       Type             X           Y           Z
 ---------------------------------------------------------------------
      1         11           0       -2.062899    1.878703   -0.251545
      2         11           0        0.702440    2.106113    1.103154
      3         11           0        4.314691    0.129955   -0.627402
      4         11           0        1.652995   -1.799758    0.451217
      5         11           0       -1.187203   -1.256584    1.433324
      6         11           0       -3.561971   -0.936535   -0.720412
      7         11           0        0.141946   -0.121893   -1.388337
 ---------------------------------------------------------------------

 SCF Done:  E(UB3LYP) =  -1136.11580371     A.U. after   24 cycles

 The electronic state is 2-A.
 Alpha  occ. eigenvalues --  -38.45401 -38.44961 -38.43915 -38.43474 -38.43345
 Alpha  occ. eigenvalues --  -38.42993 -38.42858  -2.21365  -2.20746  -2.19788
 Alpha  occ. eigenvalues --   -2.19446  -2.19293  -2.18950  -2.18742  -1.15128
 Alpha  occ. eigenvalues --   -1.15034  -1.14955  -1.14405  -1.14390  -1.14352
 Alpha  occ. eigenvalues --   -1.13467  -1.13441  -1.13421  -1.13203  -1.13085
 Alpha  occ. eigenvalues --   -1.13059  -1.13018  -1.12920  -1.12870  -1.12664
 Alpha  occ. eigenvalues --   -1.12637  -1.12581  -1.12400  -1.12389  -1.12353
 Alpha  occ. eigenvalues --   -0.18938  -0.14122  -0.11552  -0.11009
 Alpha virt. eigenvalues --   -0.07211  -0.04654  -0.04257  -0.03325  -0.03067
 Alpha virt. eigenvalues --   -0.02443  -0.01814  -0.01175  -0.00976  -0.00165
 Alpha virt. eigenvalues --   -0.00064   0.00261   0.00413   0.00772   0.00833

  Beta  occ. eigenvalues --  -38.45403 -38.44889 -38.43878 -38.43424 -38.43326
  Beta  occ. eigenvalues --  -38.42983 -38.42835  -2.21369  -2.20612  -2.19719
  Beta  occ. eigenvalues --   -2.19360  -2.19265  -2.18936  -2.18700  -1.15114
  Beta  occ. eigenvalues --   -1.15038  -1.14963  -1.14313  -1.14297  -1.14266
  Beta  occ. eigenvalues --   -1.13427  -1.13381  -1.13375  -1.13131  -1.13027
  Beta  occ. eigenvalues --   -1.13008  -1.12990  -1.12890  -1.12812  -1.12654
  Beta  occ. eigenvalues --   -1.12607  -1.12570  -1.12370  -1.12349  -1.12329
  Beta  occ. eigenvalues --   -0.18370  -0.13476  -0.11349
  Beta virt. eigenvalues --   -0.07439  -0.06849  -0.04538  -0.03724  -0.03099
  Beta virt. eigenvalues --   -0.02709  -0.02067  -0.01303  -0.00970  -0.00592
  Beta virt. eigenvalues --   -0.00026   0.00076   0.00334   0.00544   0.00816

 Mulliken charges and spin densities:
               1          2
     1  Na   0.263382   0.109245
     2  Na  -0.582032   0.127517
     3  Na   0.153562   0.413359
     4  Na  -0.142274   0.140932
     5  Na   0.259360   0.061299
     6  Na   0.299765   0.312580
     7  Na  -0.251762  -0.164932
 Sum of Mulliken charges =  -0.00000   1.00000

 Dipole moment (field-independent basis, Debye):
    X=              0.3362    Y=              0.0891    Z=              0.1298  Tot=              0.3712
 Quadrupole moment (field-independent basis, Debye-Ang):
   XX=            -55.7397   YY=            -76.4057   ZZ=            -65.8189
   XY=              2.0636   XZ=              0.6854   YZ=              0.6667

 Normal termination of Gaussian 16 at Wed Dec  6 01:08:04 2023.
