 Gaussian 16, Revision B.01,
 Gaussian 16:  ES64L-G16RevB.01 20-Dec-2017

 -------------------------
 #P B3LYP/6-311+g(d) force
 -------------------------

 -----
 DPGEN
 -----
 Symbolic Z-matrix:
 Charge =  0 Multiplicity = 2

                         Standard orientation:
 ---------------------------------------------------------------------
 Center     Atomic      Atomic             Coordinates (Angstroms)
 Number     Number       Type             X           Y           Z
 ---------------------------------------------------------------------
      1         11           0       -1.064211    2.160436   -0.837017
      2         11           0       -2.244500   -2.260166   -0.442512
      3         11           0        0.580590   -0.990340   -1.113406
      4         11           0        3.355817   -1.660608    0.204398
      5         11           0        2.599317    1.999803   -0.332765
      6         11           0        0.362268    0.220388    2.022283
      7         11           0       -3.589280    0.530487    0.499019
 ---------------------------------------------------------------------

 SCF Done:  E(UB3LYP) =  -1136.12042339     A.U. after   24 cycles

 The electronic state is 2-A.
 Alpha  occ. eigenvalues --  -38.45112 -38.44900 -38.44435 -38.44188 -38.43830
 Alpha  occ. eigenvalues --  -38.43103 -38.43092  -2.20930  -2.20700  -2.20235
 Alpha  occ. eigenvalues --   -2.20031  -2.19666  -2.19068  -2.18939  -1.14605
 Alpha  occ. eigenvalues --   -1.14588  -1.14571  -1.14393  -1.14354  -1.14334
 Alpha  occ. eigenvalues --   -1.13912  -1.13889  -1.13871  -1.13730  -1.13657
 Alpha  occ. eigenvalues --   -1.13630  -1.13367  -1.13312  -1.13307  -1.12767
 Alpha  occ. eigenvalues --   -1.12724  -1.12689  -1.12619  -1.12601  -1.12571
 Alpha  occ. eigenvalues --   -0.18221  -0.13940  -0.11561  -0.10248
 Alpha virt. eigenvalues --   -0.07062  -0.06078  -0.03928  -0.03391  -0.02622
 Alpha virt. eigenvalues --   -0.02372  -0.02067  -0.01704  -0.00789  -0.00317
 Alpha virt. eigenvalues --    0.00002   0.00129   0.00460   0.00589   0.00654

  Beta  occ. eigenvalues --  -38.45105 -38.44902 -38.44426 -38.44105 -38.43819
  Beta  occ. eigenvalues --  -38.43073 -38.43061  -2.20919  -2.20704  -2.20220
  Beta  occ. eigenvalues --   -2.19875  -2.19650  -2.18993  -2.18909  -1.14599
  Beta  occ. eigenvalues --   -1.14579  -1.14556  -1.14393  -1.14354  -1.14330
  Beta  occ. eigenvalues --   -1.13888  -1.13881  -1.13857  -1.13622  -1.13551
  Beta  occ. eigenvalues --   -1.13516  -1.13349  -1.13300  -1.13289  -1.12714
  Beta  occ. eigenvalues --   -1.12658  -1.12635  -1.12596  -1.12557  -1.12551
  Beta  occ. eigenvalues --   -0.17555  -0.13796  -0.11289
  Beta virt. eigenvalues --   -0.06927  -0.06430  -0.06078  -0.03615  -0.02947
  Beta virt. eigenvalues --   -0.02442  -0.01821  -0.01562  -0.01122  -0.00793
  Beta virt. eigenvalues --   -0.00114   0.00040   0.00179   0.00571   0.00655

 Mulliken charges and spin densities:
               1          2
     1  Na  -0.135089  -0.046373
     2  Na   0.059006  -0.036378
     3  Na  -0.375559   0.280220
     4  Na   0.346618  -0.000558
     5  Na   0.316533   0.031380
     6  Na  -0.388760   0.594588
     7  Na   0.177251   0.177121
 Sum of Mulliken charges =  -0.00000   1.00000

 Dipole moment (field-independent basis, Debye):
    X=              0.4290    Y=              0.1360    Z=              0.3413  Tot=              0.5648
 Quadrupole moment (field-independent basis, Debye-Ang):
   XX=            -44.0693   YY=            -71.1330   ZZ=            -76.4091
   XY=             -0.4923   XZ=             -0.7576   YZ=             -1.2689

 Normal termination of Gaussian 16 at Thu Dec  7 15:02:54 2023.
