 Gaussian 16, Revision B.01,
 Gaussian 16:  ES64L-G16RevB.01 20-Dec-2017

 -------------------------
 #P B3LYP/6-311+g(d) force
 -------------------------

 -----
 DPGEN
 -----
 Symbolic Z-matrix:
 Charge =  0 Multiplicity = 2

                         Standard orientation:
 ---------------------------------------------------------------------
 Center     Atomic      Atomic             Coordinates (Angstroms)
 Number     Number       Type             X           Y           Z
 ---------------------------------------------------------------------
      1         11           0       -2.037183    1.771350    0.592661
      2         11           0        0.995574    2.233097   -0.798373
      3         11           0        0.550665   -0.925551   -1.390731
      4         11           0        1.310175    0.253529    1.866793
      5         11           0       -3.078309   -0.687608   -1.029616
      6         11           0       -1.353213   -1.812511    1.125761
      7         11           0        3.612291   -0.832306   -0.366494
 ---------------------------------------------------------------------

 SCF Done:  E(UB3LYP) =  -1136.12522084     A.U. after   24 cycles

 The electronic state is 2-A.
 Alpha  occ. eigenvalues --  -38.44878 -38.44327 -38.43762 -38.43701 -38.43482
 Alpha  occ. eigenvalues --  -38.43307 -38.42967  -2.20697  -2.20233  -2.19685
 Alpha  occ. eigenvalues --   -2.19653  -2.19414  -2.19181  -2.18852  -1.14380
 Alpha  occ. eigenvalues --   -1.14351  -1.14332  -1.13939  -1.13887  -1.13866
 Alpha  occ. eigenvalues --   -1.13393  -1.13347  -1.13333  -1.13319  -1.13289
 Alpha  occ. eigenvalues --   -1.13265  -1.13083  -1.13055  -1.13037  -1.12864
 Alpha  occ. eigenvalues --   -1.12840  -1.12823  -1.12553  -1.12511  -1.12451
 Alpha  occ. eigenvalues --   -0.18956  -0.14066  -0.11370  -0.11263
 Alpha virt. eigenvalues --   -0.06672  -0.04862  -0.04417  -0.03243  -0.02688
 Alpha virt. eigenvalues --   -0.02587  -0.02266  -0.00847  -0.00473  -0.00007
 Alpha virt. eigenvalues --    0.00240   0.00308   0.00414   0.00810   0.00891

  Beta  occ. eigenvalues --  -38.44875 -38.44311 -38.43688 -38.43658 -38.43447
  Beta  occ. eigenvalues --  -38.43303 -38.42952  -2.20693  -2.20203  -2.19577
  Beta  occ. eigenvalues --   -2.19552  -2.19354  -2.19177  -2.18825  -1.14365
  Beta  occ. eigenvalues --   -1.14350  -1.14327  -1.13922  -1.13867  -1.13836
  Beta  occ. eigenvalues --   -1.13320  -1.13268  -1.13261  -1.13227  -1.13210
  Beta  occ. eigenvalues --   -1.13195  -1.13045  -1.13008  -1.12973  -1.12855
  Beta  occ. eigenvalues --   -1.12828  -1.12816  -1.12533  -1.12480  -1.12432
  Beta  occ. eigenvalues --   -0.18196  -0.13886  -0.11142
  Beta virt. eigenvalues --   -0.07316  -0.06512  -0.04714  -0.03862  -0.03086
  Beta virt. eigenvalues --   -0.02261  -0.01991  -0.01589  -0.00711  -0.00201
  Beta virt. eigenvalues --    0.00035   0.00267   0.00346   0.00562   0.00840

 Mulliken charges and spin densities:
               1          2
     1  Na  -0.258280   0.156729
     2  Na  -0.325217  -0.008034
     3  Na  -0.222921   0.365622
     4  Na   0.154030   0.286443
     5  Na   0.806462   0.017710
     6  Na  -0.319082   0.201287
     7  Na   0.165007  -0.019757
 Sum of Mulliken charges =  -0.00000   1.00000

 Dipole moment (field-independent basis, Debye):
    X=              0.5752    Y=             -0.1295    Z=             -0.1016  Tot=              0.5983
 Quadrupole moment (field-independent basis, Debye-Ang):
   XX=            -49.2037   YY=            -76.2923   ZZ=            -68.4911
   XY=             -0.4643   XZ=              1.0131   YZ=             -0.7075

 Normal termination of Gaussian 16 at Tue Nov 28 23:41:41 2023.
