 Gaussian 16, Revision B.01,
 Gaussian 16:  ES64L-G16RevB.01 20-Dec-2017

 -------------------------
 #P B3LYP/6-311+g(d) force
 -------------------------

 -----
 DPGEN
 -----
 Symbolic Z-matrix:
 Charge =  0 Multiplicity = 2

                         Standard orientation:
 ---------------------------------------------------------------------
 Center     Atomic      Atomic             Coordinates (Angstroms)
 Number     Number       Type             X           Y           Z
 ---------------------------------------------------------------------
      1         11           0       -0.292274   -2.229541    0.666960
      2         11           0       -3.283181   -1.005874   -0.458093
      3         11           0        0.292161    0.598822    2.100651
      4         11           0       -1.795276    2.037792    0.108464
      5         11           0        0.065457   -0.039199   -1.736439
      6         11           0        1.940888    2.146282   -0.423782
      7         11           0        3.072226   -1.508282   -0.257761
 ---------------------------------------------------------------------

 SCF Done:  E(UB3LYP) =  -1136.13384898     A.U. after   19 cycles

 The electronic state is 2-A.
 Alpha  occ. eigenvalues --  -38.44138 -38.43996 -38.43793 -38.43699 -38.43531
 Alpha  occ. eigenvalues --  -38.43408 -38.42970  -2.19927  -2.19817  -2.19726
 Alpha  occ. eigenvalues --   -2.19665  -2.19396  -2.19291  -2.18877  -1.13602
 Alpha  occ. eigenvalues --   -1.13582  -1.13572  -1.13480  -1.13479  -1.13465
 Alpha  occ. eigenvalues --   -1.13409  -1.13368  -1.13357  -1.13344  -1.13337
 Alpha  occ. eigenvalues --   -1.13279  -1.13077  -1.13054  -1.12999  -1.12977
 Alpha  occ. eigenvalues --   -1.12966  -1.12893  -1.12583  -1.12552  -1.12468
 Alpha  occ. eigenvalues --   -0.18805  -0.13089  -0.12040  -0.11300
 Alpha virt. eigenvalues --   -0.05839  -0.05278  -0.03773  -0.03318  -0.03026
 Alpha virt. eigenvalues --   -0.02901  -0.01830  -0.01164  -0.00220  -0.00001
 Alpha virt. eigenvalues --    0.00162   0.00316   0.00737   0.00825   0.00933

  Beta  occ. eigenvalues --  -38.44139 -38.43992 -38.43694 -38.43637 -38.43520
  Beta  occ. eigenvalues --  -38.43400 -38.42948  -2.19931  -2.19810  -2.19553
  Beta  occ. eigenvalues --   -2.19543  -2.19379  -2.19280  -2.18840  -1.13597
  Beta  occ. eigenvalues --   -1.13578  -1.13576  -1.13476  -1.13465  -1.13459
  Beta  occ. eigenvalues --   -1.13309  -1.13276  -1.13256  -1.13225  -1.13223
  Beta  occ. eigenvalues --   -1.13197  -1.13046  -1.13034  -1.12986  -1.12964
  Beta  occ. eigenvalues --   -1.12932  -1.12888  -1.12559  -1.12494  -1.12450
  Beta  occ. eigenvalues --   -0.18042  -0.12844  -0.11812
  Beta virt. eigenvalues --   -0.07314  -0.05742  -0.05266  -0.03706  -0.02645
  Beta virt. eigenvalues --   -0.02257  -0.01822  -0.01718  -0.01128  -0.00116
  Beta virt. eigenvalues --    0.00041   0.00153   0.00337   0.00811   0.00828

 Mulliken charges and spin densities:
               1          2
     1  Na   0.269191   0.132636
     2  Na  -0.017281  -0.020566
     3  Na  -0.226646   0.456773
     4  Na   0.325056   0.007855
     5  Na  -0.511660   0.613131
     6  Na   0.174061  -0.095335
     7  Na  -0.012722  -0.094495
 Sum of Mulliken charges =  -0.00000   1.00000

 Dipole moment (field-independent basis, Debye):
    X=              0.1795    Y=              0.0835    Z=             -0.0760  Tot=              0.2121
 Quadrupole moment (field-independent basis, Debye-Ang):
   XX=            -53.1263   YY=            -69.0070   ZZ=            -71.2689
   XY=              0.1373   XZ=              0.1863   YZ=             -0.2633

 Normal termination of Gaussian 16 at Tue Dec  5 17:03:50 2023.
