 Gaussian 16, Revision B.01,
 Gaussian 16:  ES64L-G16RevB.01 20-Dec-2017

 -------------------------
 #P B3LYP/6-311+g(d) force
 -------------------------

 -----
 DPGEN
 -----
 Symbolic Z-matrix:
 Charge =  0 Multiplicity = 2

                         Standard orientation:
 ---------------------------------------------------------------------
 Center     Atomic      Atomic             Coordinates (Angstroms)
 Number     Number       Type             X           Y           Z
 ---------------------------------------------------------------------
      1         11           0        3.233706    0.762302   -0.462695
      2         11           0        0.345945   -3.452511    1.180343
      3         11           0        3.362281   -2.404977   -0.840269
      4         11           0       -2.817041   -2.475857    0.040051
      5         11           0        1.800921    4.184419    0.812374
      6         11           0       -1.793564    2.693609   -0.193621
      7         11           0       -4.132248    0.693016   -0.536182
 ---------------------------------------------------------------------

 SCF Done:  E(UB3LYP) =  -1136.11050967     A.U. after   21 cycles

 The electronic state is 2-A.
 Alpha  occ. eigenvalues --  -38.45156 -38.44968 -38.44855 -38.44810 -38.44138
 Alpha  occ. eigenvalues --  -38.44002 -38.43958  -2.20928  -2.20737  -2.20620
 Alpha  occ. eigenvalues --   -2.20583  -2.19953  -2.19798  -2.19773  -1.14610
 Alpha  occ. eigenvalues --   -1.14604  -1.14574  -1.14424  -1.14414  -1.14374
 Alpha  occ. eigenvalues --   -1.14297  -1.14293  -1.14262  -1.14255  -1.14241
 Alpha  occ. eigenvalues --   -1.14200  -1.13615  -1.13603  -1.13576  -1.13470
 Alpha  occ. eigenvalues --   -1.13442  -1.13429  -1.13426  -1.13414  -1.13396
 Alpha  occ. eigenvalues --   -0.15596  -0.14026  -0.13295  -0.11049
 Alpha virt. eigenvalues --   -0.07238  -0.04984  -0.04463  -0.03515  -0.03414
 Alpha virt. eigenvalues --   -0.02251  -0.02023  -0.01972  -0.01804  -0.01020
 Alpha virt. eigenvalues --   -0.00436  -0.00206   0.00013   0.00508   0.00660

  Beta  occ. eigenvalues --  -38.45140 -38.44949 -38.44823 -38.44788 -38.44094
  Beta  occ. eigenvalues --  -38.43935 -38.43924  -2.20905  -2.20708  -2.20564
  Beta  occ. eigenvalues --   -2.20547  -2.19875  -2.19736  -2.19648  -1.14599
  Beta  occ. eigenvalues --   -1.14592  -1.14524  -1.14409  -1.14400  -1.14315
  Beta  occ. eigenvalues --   -1.14261  -1.14254  -1.14240  -1.14226  -1.14199
  Beta  occ. eigenvalues --   -1.14153  -1.13555  -1.13550  -1.13525  -1.13419
  Beta  occ. eigenvalues --   -1.13400  -1.13390  -1.13345  -1.13329  -1.13314
  Beta  occ. eigenvalues --   -0.15098  -0.13376  -0.12391
  Beta virt. eigenvalues --   -0.07877  -0.07420  -0.04560  -0.04117  -0.03276
  Beta virt. eigenvalues --   -0.03032  -0.02053  -0.01825  -0.01753  -0.01519
  Beta virt. eigenvalues --   -0.00714  -0.00155   0.00024   0.00198   0.00483

 Mulliken charges and spin densities:
               1          2
     1  Na  -0.344618   0.174432
     2  Na   0.033246   0.074080
     3  Na   0.123805   0.064912
     4  Na  -0.406923   0.108696
     5  Na   0.565907   0.349824
     6  Na  -0.626052   0.225206
     7  Na   0.654634   0.002851
 Sum of Mulliken charges =  -0.00000   1.00000

 Dipole moment (field-independent basis, Debye):
    X=             -0.2604    Y=             -0.6313    Z=             -0.0384  Tot=              0.6840
 Quadrupole moment (field-independent basis, Debye-Ang):
   XX=            -63.0001   YY=            -65.0646   ZZ=            -71.6810
   XY=             -1.0253   XZ=              1.3467   YZ=              0.9650

 Normal termination of Gaussian 16 at Sun Dec  3 23:46:28 2023.
