 Gaussian 16, Revision B.01,
 Gaussian 16:  ES64L-G16RevB.01 20-Dec-2017

 -------------------------
 #P B3LYP/6-311+g(d) force
 -------------------------

 -----
 DPGEN
 -----
 Symbolic Z-matrix:
 Charge =  0 Multiplicity = 2

                         Standard orientation:
 ---------------------------------------------------------------------
 Center     Atomic      Atomic             Coordinates (Angstroms)
 Number     Number       Type             X           Y           Z
 ---------------------------------------------------------------------
      1         11           0        2.225357    0.797701    1.267263
      2         11           0       -2.532810    1.444786    0.338775
      3         11           0       -0.850172   -0.813299    2.178061
      4         11           0        0.143277    3.065533   -1.121528
      5         11           0       -2.417938   -2.542531   -0.893112
      6         11           0        3.527860   -1.540176   -0.628754
      7         11           0       -0.095574   -0.412015   -1.140704
 ---------------------------------------------------------------------

 SCF Done:  E(UB3LYP) =  -1136.12666551     A.U. after   20 cycles

 The electronic state is 2-A.
 Alpha  occ. eigenvalues --  -38.44405 -38.44399 -38.44021 -38.43944 -38.43766
 Alpha  occ. eigenvalues --  -38.43167 -38.43029  -2.20237  -2.20183  -2.19898
 Alpha  occ. eigenvalues --   -2.19789  -2.19582  -2.19142  -2.18848  -1.13934
 Alpha  occ. eigenvalues --   -1.13916  -1.13853  -1.13845  -1.13842  -1.13827
 Alpha  occ. eigenvalues --   -1.13576  -1.13543  -1.13496  -1.13468  -1.13442
 Alpha  occ. eigenvalues --   -1.13408  -1.13286  -1.13229  -1.13197  -1.12854
 Alpha  occ. eigenvalues --   -1.12780  -1.12768  -1.12520  -1.12496  -1.12484
 Alpha  occ. eigenvalues --   -0.18050  -0.12999  -0.11831  -0.11193
 Alpha virt. eigenvalues --   -0.06210  -0.05215  -0.04294  -0.03357  -0.02811
 Alpha virt. eigenvalues --   -0.02581  -0.01827  -0.01353  -0.00559  -0.00103
 Alpha virt. eigenvalues --    0.00066   0.00245   0.00352   0.00661   0.00776

  Beta  occ. eigenvalues --  -38.44403 -38.44391 -38.43934 -38.43923 -38.43740
  Beta  occ. eigenvalues --  -38.43129 -38.43015  -2.20226  -2.20179  -2.19754
  Beta  occ. eigenvalues --   -2.19737  -2.19534  -2.19075  -2.18822  -1.13922
  Beta  occ. eigenvalues --   -1.13887  -1.13849  -1.13843  -1.13837  -1.13824
  Beta  occ. eigenvalues --   -1.13476  -1.13445  -1.13428  -1.13403  -1.13388
  Beta  occ. eigenvalues --   -1.13366  -1.13243  -1.13197  -1.13166  -1.12790
  Beta  occ. eigenvalues --   -1.12730  -1.12721  -1.12495  -1.12479  -1.12469
  Beta  occ. eigenvalues --   -0.17325  -0.12859  -0.11579
  Beta virt. eigenvalues --   -0.07317  -0.05993  -0.05024  -0.03957  -0.02959
  Beta virt. eigenvalues --   -0.02362  -0.01799  -0.01663  -0.01171  -0.00324
  Beta virt. eigenvalues --   -0.00056   0.00179   0.00354   0.00438   0.00694

 Mulliken charges and spin densities:
               1          2
     1  Na   0.254354   0.121332
     2  Na   0.182750   0.088645
     3  Na  -0.049307   0.378653
     4  Na   0.112792  -0.011830
     5  Na   0.174719   0.057224
     6  Na  -0.102992   0.021272
     7  Na  -0.572314   0.344703
 Sum of Mulliken charges =  -0.00000   1.00000

 Dipole moment (field-independent basis, Debye):
    X=             -0.0018    Y=             -0.3486    Z=              0.1859  Tot=              0.3951
 Quadrupole moment (field-independent basis, Debye-Ang):
   XX=            -56.9618   YY=            -65.8701   ZZ=            -70.0280
   XY=             -0.2710   XZ=             -1.6826   YZ=              2.0005

 Normal termination of Gaussian 16 at Tue Dec  5 14:17:10 2023.
