 Gaussian 16, Revision B.01,
 Gaussian 16:  ES64L-G16RevB.01 20-Dec-2017

 -------------------------
 #P B3LYP/6-311+g(d) force
 -------------------------

 -----
 DPGEN
 -----
 Symbolic Z-matrix:
 Charge =  0 Multiplicity = 2

                         Standard orientation:
 ---------------------------------------------------------------------
 Center     Atomic      Atomic             Coordinates (Angstroms)
 Number     Number       Type             X           Y           Z
 ---------------------------------------------------------------------
      1         11           0       -0.819171   -2.689403   -0.093162
      2         11           0       -2.969991   -0.332824    0.026028
      3         11           0       -1.482861    2.637480    0.198703
      4         11           0       -0.189204    0.161328   -1.589774
      5         11           0        2.368467    1.926331   -0.024765
      6         11           0        0.262353   -0.392304    1.613637
      7         11           0        2.830408   -1.310608   -0.130667
 ---------------------------------------------------------------------

 SCF Done:  E(UB3LYP) =  -1136.13473904     A.U. after   22 cycles

 The electronic state is 2-A.
 Alpha  occ. eigenvalues --  -38.44110 -38.43972 -38.43956 -38.43404 -38.43190
 Alpha  occ. eigenvalues --  -38.42886 -38.42813  -2.19973  -2.19883  -2.19803
 Alpha  occ. eigenvalues --   -2.19253  -2.19120  -2.18908  -2.18841  -1.13666
 Alpha  occ. eigenvalues --   -1.13637  -1.13615  -1.13574  -1.13537  -1.13535
 Alpha  occ. eigenvalues --   -1.13472  -1.13467  -1.13430  -1.12936  -1.12912
 Alpha  occ. eigenvalues --   -1.12892  -1.12871  -1.12784  -1.12743  -1.12622
 Alpha  occ. eigenvalues --   -1.12522  -1.12514  -1.12505  -1.12459  -1.12453
 Alpha  occ. eigenvalues --   -0.19184  -0.13552  -0.12487  -0.10260
 Alpha virt. eigenvalues --   -0.05691  -0.05456  -0.04597  -0.03169  -0.02600
 Alpha virt. eigenvalues --   -0.01897  -0.01655  -0.01191  -0.00395  -0.00313
 Alpha virt. eigenvalues --    0.00054   0.00357   0.00791   0.00862   0.00899

  Beta  occ. eigenvalues --  -38.44105 -38.43965 -38.43952 -38.43399 -38.43180
  Beta  occ. eigenvalues --  -38.42813 -38.42741  -2.19967  -2.19874  -2.19799
  Beta  occ. eigenvalues --   -2.19247  -2.19106  -2.18776  -2.18711  -1.13663
  Beta  occ. eigenvalues --   -1.13620  -1.13602  -1.13568  -1.13535  -1.13499
  Beta  occ. eigenvalues --   -1.13467  -1.13443  -1.13432  -1.12930  -1.12893
  Beta  occ. eigenvalues --   -1.12885  -1.12853  -1.12741  -1.12734  -1.12535
  Beta  occ. eigenvalues --   -1.12428  -1.12421  -1.12411  -1.12362  -1.12358
  Beta  occ. eigenvalues --   -0.18465  -0.13287  -0.12232
  Beta virt. eigenvalues --   -0.06363  -0.05654  -0.05454  -0.04582  -0.02346
  Beta virt. eigenvalues --   -0.01851  -0.01566  -0.01136  -0.00916  -0.00437
  Beta virt. eigenvalues --   -0.00367   0.00194   0.00392   0.00836   0.00861

 Mulliken charges and spin densities:
               1          2
     1  Na   0.377316  -0.065294
     2  Na   0.287823   0.026026
     3  Na  -0.022894  -0.076594
     4  Na  -0.446199   0.592628
     5  Na   0.010430  -0.087097
     6  Na  -0.445535   0.686664
     7  Na   0.239059  -0.076333
 Sum of Mulliken charges =  -0.00000   1.00000

 Dipole moment (field-independent basis, Debye):
    X=              0.2906    Y=              0.0845    Z=             -0.0001  Tot=              0.3027
 Quadrupole moment (field-independent basis, Debye-Ang):
   XX=            -53.5649   YY=            -61.0844   ZZ=            -76.9755
   XY=             -0.0096   XZ=             -1.0054   YZ=              1.3567

 Normal termination of Gaussian 16 at Tue Nov 28 20:56:38 2023.
