 Gaussian 16, Revision B.01,
 Gaussian 16:  ES64L-G16RevB.01 20-Dec-2017

 -------------------------
 #P B3LYP/6-311+g(d) force
 -------------------------

 -----
 DPGEN
 -----
 Symbolic Z-matrix:
 Charge =  0 Multiplicity = 2

                         Standard orientation:
 ---------------------------------------------------------------------
 Center     Atomic      Atomic             Coordinates (Angstroms)
 Number     Number       Type             X           Y           Z
 ---------------------------------------------------------------------
      1         11           0        2.554997    1.662577   -0.272451
      2         11           0       -0.577934    3.013461    0.415420
      3         11           0       -3.253827    0.180138   -0.654565
      4         11           0       -0.071980   -0.089031    1.755793
      5         11           0       -1.148993   -2.565166    0.413813
      6         11           0        0.144895   -0.139034   -1.498787
      7         11           0        2.352841   -2.062945   -0.159223
 ---------------------------------------------------------------------

 SCF Done:  E(UB3LYP) =  -1136.13606969     A.U. after   19 cycles

 The electronic state is 2-A.
 Alpha  occ. eigenvalues --  -38.43817 -38.43743 -38.43678 -38.43660 -38.43536
 Alpha  occ. eigenvalues --  -38.43242 -38.43019  -2.19622  -2.19591  -2.19511
 Alpha  occ. eigenvalues --   -2.19502  -2.19445  -2.19225  -2.19040  -1.13297
 Alpha  occ. eigenvalues --   -1.13294  -1.13269  -1.13262  -1.13256  -1.13232
 Alpha  occ. eigenvalues --   -1.13223  -1.13206  -1.13185  -1.13169  -1.13155
 Alpha  occ. eigenvalues --   -1.13142  -1.13127  -1.13106  -1.13035  -1.12920
 Alpha  occ. eigenvalues --   -1.12834  -1.12817  -1.12729  -1.12670  -1.12646
 Alpha  occ. eigenvalues --   -0.18794  -0.12918  -0.12659  -0.10536
 Alpha virt. eigenvalues --   -0.05308  -0.05241  -0.04987  -0.03000  -0.02897
 Alpha virt. eigenvalues --   -0.02137  -0.01538  -0.01316  -0.00441  -0.00269
 Alpha virt. eigenvalues --    0.00044   0.00329   0.00833   0.00857   0.00874

  Beta  occ. eigenvalues --  -38.43796 -38.43737 -38.43669 -38.43656 -38.43521
  Beta  occ. eigenvalues --  -38.43160 -38.42963  -2.19585  -2.19583  -2.19508
  Beta  occ. eigenvalues --   -2.19488  -2.19422  -2.19076  -2.18938  -1.13286
  Beta  occ. eigenvalues --   -1.13256  -1.13246  -1.13245  -1.13236  -1.13217
  Beta  occ. eigenvalues --   -1.13207  -1.13183  -1.13164  -1.13162  -1.13140
  Beta  occ. eigenvalues --   -1.13127  -1.13119  -1.13072  -1.13019  -1.12826
  Beta  occ. eigenvalues --   -1.12734  -1.12711  -1.12649  -1.12603  -1.12566
  Beta  occ. eigenvalues --   -0.18125  -0.12626  -0.12355
  Beta virt. eigenvalues --   -0.06733  -0.05228  -0.05175  -0.04936  -0.02289
  Beta virt. eigenvalues --   -0.02188  -0.01400  -0.01250  -0.01159  -0.00442
  Beta virt. eigenvalues --   -0.00283   0.00154   0.00374   0.00853   0.00880

 Mulliken charges and spin densities:
               1          2
     1  Na  -0.024589  -0.072178
     2  Na   0.018489  -0.003591
     3  Na  -0.128838   0.070809
     4  Na  -0.039822   0.486932
     5  Na   0.395152   0.071234
     6  Na  -0.224246   0.525818
     7  Na   0.003855  -0.079025
 Sum of Mulliken charges =  -0.00000   1.00000

 Dipole moment (field-independent basis, Debye):
    X=              0.1052    Y=              0.0784    Z=              0.0543  Tot=              0.1419
 Quadrupole moment (field-independent basis, Debye-Ang):
   XX=            -57.1433   YY=            -59.2094   ZZ=            -75.4685
   XY=             -0.8774   XZ=              0.4984   YZ=             -0.1492

 Normal termination of Gaussian 16 at Wed Nov 29 03:42:32 2023.
