 Gaussian 16, Revision B.01,
 Gaussian 16:  ES64L-G16RevB.01 20-Dec-2017

 -------------------------
 #P B3LYP/6-311+g(d) force
 -------------------------

 -----
 DPGEN
 -----
 Symbolic Z-matrix:
 Charge =  0 Multiplicity = 2

                         Standard orientation:
 ---------------------------------------------------------------------
 Center     Atomic      Atomic             Coordinates (Angstroms)
 Number     Number       Type             X           Y           Z
 ---------------------------------------------------------------------
      1         11           0       -2.817724   -1.484490   -0.749518
      2         11           0       -2.134396    1.721083   -0.874923
      3         11           0        1.193861    2.297291    1.058830
      4         11           0        0.609544    0.226559   -1.777347
      5         11           0       -1.310606   -0.067846    2.082365
      6         11           0        0.740030   -2.193658    0.805622
      7         11           0        3.719291   -0.498940   -0.545028
 ---------------------------------------------------------------------

 SCF Done:  E(UB3LYP) =  -1136.13094261     A.U. after   21 cycles

 The electronic state is 2-A.
 Alpha  occ. eigenvalues --  -38.44486 -38.44096 -38.43999 -38.43937 -38.43673
 Alpha  occ. eigenvalues --  -38.43327 -38.43042  -2.20272  -2.19930  -2.19904
 Alpha  occ. eigenvalues --   -2.19837  -2.19483  -2.19209  -2.18885  -1.13952
 Alpha  occ. eigenvalues --   -1.13917  -1.13909  -1.13612  -1.13602  -1.13596
 Alpha  occ. eigenvalues --   -1.13563  -1.13531  -1.13527  -1.13501  -1.13477
 Alpha  occ. eigenvalues --   -1.13471  -1.13163  -1.13129  -1.13105  -1.12901
 Alpha  occ. eigenvalues --   -1.12865  -1.12824  -1.12594  -1.12565  -1.12480
 Alpha  occ. eigenvalues --   -0.18373  -0.13308  -0.11755  -0.11408
 Alpha virt. eigenvalues --   -0.06113  -0.04951  -0.04270  -0.03276  -0.03033
 Alpha virt. eigenvalues --   -0.03030  -0.01973  -0.00927  -0.00499  -0.00046
 Alpha virt. eigenvalues --    0.00290   0.00309   0.00463   0.00714   0.00866

  Beta  occ. eigenvalues --  -38.44479 -38.44079 -38.43922 -38.43894 -38.43637
  Beta  occ. eigenvalues --  -38.43311 -38.43029  -2.20261  -2.19900  -2.19764
  Beta  occ. eigenvalues --   -2.19758  -2.19419  -2.19184  -2.18865  -1.13937
  Beta  occ. eigenvalues --   -1.13911  -1.13903  -1.13593  -1.13567  -1.13531
  Beta  occ. eigenvalues --   -1.13498  -1.13477  -1.13441  -1.13427  -1.13406
  Beta  occ. eigenvalues --   -1.13395  -1.13112  -1.13080  -1.13062  -1.12875
  Beta  occ. eigenvalues --   -1.12851  -1.12792  -1.12577  -1.12534  -1.12468
  Beta  occ. eigenvalues --   -0.17615  -0.13068  -0.11180
  Beta virt. eigenvalues --   -0.07796  -0.05937  -0.04812  -0.03892  -0.03024
  Beta virt. eigenvalues --   -0.02384  -0.02070  -0.01819  -0.00811  -0.00270
  Beta virt. eigenvalues --    0.00027   0.00290   0.00337   0.00612   0.00794

 Mulliken charges and spin densities:
               1          2
     1  Na   0.107454   0.015047
     2  Na   0.286762   0.049051
     3  Na  -0.241100   0.059230
     4  Na  -0.348806   0.353315
     5  Na   0.149878   0.610572
     6  Na  -0.309058  -0.082712
     7  Na   0.354871  -0.004503
 Sum of Mulliken charges =  -0.00000   1.00000

 Dipole moment (field-independent basis, Debye):
    X=              0.3322    Y=              0.0308    Z=             -0.1369  Tot=              0.3606
 Quadrupole moment (field-independent basis, Debye-Ang):
   XX=            -52.8012   YY=            -73.4016   ZZ=            -68.0305
   XY=              1.0113   XZ=              1.4768   YZ=              3.1560

 Normal termination of Gaussian 16 at Wed Nov 29 15:42:02 2023.
