 Gaussian 16, Revision B.01,
 Gaussian 16:  ES64L-G16RevB.01 20-Dec-2017

 -------------------------
 #P B3LYP/6-311+g(d) force
 -------------------------

 -----
 DPGEN
 -----
 Symbolic Z-matrix:
 Charge =  0 Multiplicity = 2

                         Standard orientation:
 ---------------------------------------------------------------------
 Center     Atomic      Atomic             Coordinates (Angstroms)
 Number     Number       Type             X           Y           Z
 ---------------------------------------------------------------------
      1         11           0       -2.634406    0.552767    1.594855
      2         11           0        0.724107    1.637797   -0.027103
      3         11           0        4.442091   -0.288387    1.217623
      4         11           0        3.329308   -0.409930   -1.517290
      5         11           0       -0.315661   -1.371987    0.268010
      6         11           0       -3.405993   -1.757318   -0.522733
      7         11           0       -2.139445    1.637057   -1.013362
 ---------------------------------------------------------------------

 SCF Done:  E(UB3LYP) =  -1136.10595462     A.U. after   27 cycles

 The electronic state is 2-A.
 Alpha  occ. eigenvalues --  -38.44985 -38.44829 -38.44287 -38.43839 -38.43463
 Alpha  occ. eigenvalues --  -38.43062 -38.42554  -2.20947  -2.20665  -2.20125
 Alpha  occ. eigenvalues --   -2.19813  -2.19419  -2.18937  -2.18489  -1.14705
 Alpha  occ. eigenvalues --   -1.14613  -1.14520  -1.14404  -1.14324  -1.14292
 Alpha  occ. eigenvalues --   -1.13772  -1.13757  -1.13741  -1.13504  -1.13465
 Alpha  occ. eigenvalues --   -1.13419  -1.13114  -1.13073  -1.13021  -1.12613
 Alpha  occ. eigenvalues --   -1.12590  -1.12583  -1.12186  -1.12174  -1.12081
 Alpha  occ. eigenvalues --   -0.18440  -0.14809  -0.11084  -0.10301
 Alpha virt. eigenvalues --   -0.07099  -0.05501  -0.04566  -0.03370  -0.02949
 Alpha virt. eigenvalues --   -0.01896  -0.01588  -0.01366  -0.01045  -0.00427
 Alpha virt. eigenvalues --   -0.00130   0.00170   0.00270   0.00462   0.00611

  Beta  occ. eigenvalues --  -38.44947 -38.44831 -38.44232 -38.43807 -38.43385
  Beta  occ. eigenvalues --  -38.43061 -38.42542  -2.20883  -2.20674  -2.20023
  Beta  occ. eigenvalues --   -2.19758  -2.19276  -2.18940  -2.18471  -1.14653
  Beta  occ. eigenvalues --   -1.14544  -1.14482  -1.14395  -1.14336  -1.14274
  Beta  occ. eigenvalues --   -1.13705  -1.13687  -1.13672  -1.13466  -1.13400
  Beta  occ. eigenvalues --   -1.13389  -1.13018  -1.12982  -1.12912  -1.12618
  Beta  occ. eigenvalues --   -1.12592  -1.12555  -1.12162  -1.12158  -1.12073
  Beta  occ. eigenvalues --   -0.17795  -0.14282  -0.10833
  Beta virt. eigenvalues --   -0.06937  -0.06696  -0.05186  -0.04427  -0.02857
  Beta virt. eigenvalues --   -0.02642  -0.01852  -0.01281  -0.00950  -0.00639
  Beta virt. eigenvalues --   -0.00216   0.00105   0.00294   0.00335   0.00497

 Mulliken charges and spin densities:
               1          2
     1  Na   0.336311   0.372443
     2  Na  -0.456269  -0.068325
     3  Na   0.024525   0.350849
     4  Na   0.442996   0.105037
     5  Na  -1.123089   0.212533
     6  Na   0.523034  -0.104536
     7  Na   0.252494   0.132000
 Sum of Mulliken charges =  -0.00000   1.00000

 Dipole moment (field-independent basis, Debye):
    X=              0.2184    Y=              0.0516    Z=             -0.0791  Tot=              0.2380
 Quadrupole moment (field-independent basis, Debye-Ang):
   XX=            -72.3760   YY=            -79.8810   ZZ=            -53.9499
   XY=              0.1598   XZ=              1.6376   YZ=              1.6718

 Normal termination of Gaussian 16 at Thu Dec  7 14:13:12 2023.
