 Gaussian 16, Revision B.01,
 Gaussian 16:  ES64L-G16RevB.01 20-Dec-2017

 -------------------------
 #P B3LYP/6-311+g(d) force
 -------------------------

 -----
 DPGEN
 -----
 Symbolic Z-matrix:
 Charge =  0 Multiplicity = 2

                         Standard orientation:
 ---------------------------------------------------------------------
 Center     Atomic      Atomic             Coordinates (Angstroms)
 Number     Number       Type             X           Y           Z
 ---------------------------------------------------------------------
      1         11           0       -1.666121    3.523563   -0.619030
      2         11           0        3.185762   -3.574801    0.295797
      3         11           0        4.076456   -0.684245   -0.624150
      4         11           0        2.267937    2.991522   -0.584867
      5         11           0       -0.694338    1.093293    2.611269
      6         11           0       -2.327327   -0.873035   -0.602322
      7         11           0       -4.842369   -2.476296   -0.476698
 ---------------------------------------------------------------------

 SCF Done:  E(UB3LYP) =  -1136.09638225     A.U. after   21 cycles

 The electronic state is 2-A.
 Alpha  occ. eigenvalues --  -38.46275 -38.45729 -38.44880 -38.44492 -38.43952
 Alpha  occ. eigenvalues --  -38.43573 -38.43466  -2.21963  -2.21487  -2.20638
 Alpha  occ. eigenvalues --   -2.20274  -2.19729  -2.19383  -2.19282  -1.15661
 Alpha  occ. eigenvalues --   -1.15629  -1.15609  -1.15134  -1.15124  -1.15086
 Alpha  occ. eigenvalues --   -1.14304  -1.14289  -1.14238  -1.13933  -1.13925
 Alpha  occ. eigenvalues --   -1.13922  -1.13403  -1.13396  -1.13370  -1.13152
 Alpha  occ. eigenvalues --   -1.13053  -1.13035  -1.12918  -1.12917  -1.12862
 Alpha  occ. eigenvalues --   -0.15401  -0.13290  -0.12381  -0.10880
 Alpha virt. eigenvalues --   -0.07693  -0.05447  -0.04941  -0.03061  -0.02722
 Alpha virt. eigenvalues --   -0.02598  -0.02351  -0.02109  -0.01766  -0.01217
 Alpha virt. eigenvalues --   -0.00551  -0.00427  -0.00053   0.00159   0.00288

  Beta  occ. eigenvalues --  -38.46317 -38.45620 -38.44798 -38.44467 -38.43954
  Beta  occ. eigenvalues --  -38.43578 -38.43438  -2.22043  -2.21282  -2.20485
  Beta  occ. eigenvalues --   -2.20228  -2.19736  -2.19393  -2.19230  -1.15716
  Beta  occ. eigenvalues --   -1.15673  -1.15663  -1.14994  -1.14984  -1.14948
  Beta  occ. eigenvalues --   -1.14198  -1.14185  -1.14137  -1.13905  -1.13893
  Beta  occ. eigenvalues --   -1.13890  -1.13411  -1.13404  -1.13352  -1.13142
  Beta  occ. eigenvalues --   -1.13061  -1.13036  -1.12883  -1.12882  -1.12837
  Beta  occ. eigenvalues --   -0.14880  -0.12959  -0.12056
  Beta virt. eigenvalues --   -0.07512  -0.07093  -0.05164  -0.04703  -0.02579
  Beta virt. eigenvalues --   -0.02501  -0.02459  -0.02093  -0.01865  -0.01565
  Beta virt. eigenvalues --   -0.01092  -0.00172  -0.00128   0.00066   0.00228

 Mulliken charges and spin densities:
               1          2
     1  Na   0.533879  -0.144632
     2  Na  -0.044242   0.118976
     3  Na   0.096131  -0.036053
     4  Na  -0.062125   0.471481
     5  Na   0.133045   0.527983
     6  Na  -1.135411   0.043867
     7  Na   0.478723   0.018378
 Sum of Mulliken charges =  -0.00000   1.00000

 Dipole moment (field-independent basis, Debye):
    X=             -0.5119    Y=              1.1000    Z=              0.6856  Tot=              1.3936
 Quadrupole moment (field-independent basis, Debye-Ang):
   XX=            -70.2205   YY=            -60.0504   ZZ=            -71.3236
   XY=             -4.4175   XZ=              1.6169   YZ=             -4.0848

 Normal termination of Gaussian 16 at Mon Dec  4 01:41:55 2023.
