 Gaussian 16, Revision B.01,
 Gaussian 16:  ES64L-G16RevB.01 20-Dec-2017

 -------------------------
 #P B3LYP/6-311+g(d) force
 -------------------------

 -----
 DPGEN
 -----
 Symbolic Z-matrix:
 Charge =  0 Multiplicity = 2

                         Standard orientation:
 ---------------------------------------------------------------------
 Center     Atomic      Atomic             Coordinates (Angstroms)
 Number     Number       Type             X           Y           Z
 ---------------------------------------------------------------------
      1         11           0       -0.400853    0.391980    2.051621
      2         11           0       -1.908833    2.136479   -0.242065
      3         11           0       -0.053277   -0.121952   -1.618708
      4         11           0        3.111745   -0.687401    0.072199
      5         11           0        1.777866    2.126104   -0.202812
      6         11           0        0.518125   -2.559684    0.063601
      7         11           0       -3.044775   -1.285526   -0.123836
 ---------------------------------------------------------------------

 SCF Done:  E(UB3LYP) =  -1136.13392911     A.U. after   19 cycles

 The electronic state is 2-A.
 Alpha  occ. eigenvalues --  -38.44359 -38.44083 -38.43583 -38.43530 -38.43295
 Alpha  occ. eigenvalues --  -38.43215 -38.43086  -2.20163  -2.19957  -2.19488
 Alpha  occ. eigenvalues --   -2.19415  -2.19246  -2.19193  -2.18988  -1.13838
 Alpha  occ. eigenvalues --   -1.13815  -1.13808  -1.13647  -1.13621  -1.13603
 Alpha  occ. eigenvalues --   -1.13191  -1.13140  -1.13121  -1.13101  -1.13050
 Alpha  occ. eigenvalues --   -1.13026  -1.12986  -1.12951  -1.12868  -1.12852
 Alpha  occ. eigenvalues --   -1.12819  -1.12807  -1.12660  -1.12639  -1.12595
 Alpha  occ. eigenvalues --   -0.19018  -0.13407  -0.12250  -0.10838
 Alpha virt. eigenvalues --   -0.05958  -0.05248  -0.04085  -0.03351  -0.02784
 Alpha virt. eigenvalues --   -0.02550  -0.01809  -0.01074  -0.00180  -0.00067
 Alpha virt. eigenvalues --   -0.00033   0.00336   0.00768   0.00891   0.00941

  Beta  occ. eigenvalues --  -38.44356 -38.44083 -38.43520 -38.43489 -38.43287
  Beta  occ. eigenvalues --  -38.43148 -38.43079  -2.20162  -2.19959  -2.19402
  Beta  occ. eigenvalues --   -2.19314  -2.19183  -2.19125  -2.18979  -1.13821
  Beta  occ. eigenvalues --   -1.13812  -1.13810  -1.13651  -1.13623  -1.13584
  Beta  occ. eigenvalues --   -1.13137  -1.13074  -1.13029  -1.13023  -1.12976
  Beta  occ. eigenvalues --   -1.12970  -1.12911  -1.12909  -1.12833  -1.12807
  Beta  occ. eigenvalues --   -1.12796  -1.12740  -1.12640  -1.12602  -1.12594
  Beta  occ. eigenvalues --   -0.18279  -0.13181  -0.11994
  Beta virt. eigenvalues --   -0.06882  -0.05921  -0.05232  -0.04079  -0.02553
  Beta virt. eigenvalues --   -0.01986  -0.01730  -0.01461  -0.01023  -0.00234
  Beta virt. eigenvalues --   -0.00105   0.00123   0.00360   0.00828   0.00882

 Mulliken charges and spin densities:
               1          2
     1  Na  -0.725742   0.737624
     2  Na   0.403369  -0.066422
     3  Na  -0.587940   0.400900
     4  Na  -0.032212  -0.002011
     5  Na   0.458336   0.006560
     6  Na   0.330790  -0.008914
     7  Na   0.153398  -0.067737
 Sum of Mulliken charges =  -0.00000   1.00000

 Dipole moment (field-independent basis, Debye):
    X=             -0.3458    Y=             -0.0420    Z=              0.1974  Tot=              0.4004
 Quadrupole moment (field-independent basis, Debye-Ang):
   XX=            -52.7659   YY=            -66.6328   ZZ=            -73.8954
   XY=              0.4829   XZ=              0.7898   YZ=             -1.0931

 Normal termination of Gaussian 16 at Thu Dec  7 17:58:41 2023.
