 Gaussian 16, Revision B.01,
 Gaussian 16:  ES64L-G16RevB.01 20-Dec-2017

 -------------------------
 #P B3LYP/6-311+g(d) force
 -------------------------

 -----
 DPGEN
 -----
 Symbolic Z-matrix:
 Charge =  0 Multiplicity = 2

                         Standard orientation:
 ---------------------------------------------------------------------
 Center     Atomic      Atomic             Coordinates (Angstroms)
 Number     Number       Type             X           Y           Z
 ---------------------------------------------------------------------
      1         11           0       -0.384939    2.687423   -0.209757
      2         11           0        4.494630   -0.795996   -0.473620
      3         11           0       -5.795917   -0.670351   -1.077421
      4         11           0       -3.548020    0.642227    0.752645
      5         11           0        3.478566    2.464425    0.008721
      6         11           0       -0.506830   -1.525419    1.378596
      7         11           0        2.262512   -2.802307   -0.379163
 ---------------------------------------------------------------------

 SCF Done:  E(UB3LYP) =  -1136.10745753     A.U. after   23 cycles

 The electronic state is 2-A.
 Alpha  occ. eigenvalues --  -38.45389 -38.45379 -38.44579 -38.44542 -38.44294
 Alpha  occ. eigenvalues --  -38.43886 -38.43651  -2.21192  -2.21156  -2.20414
 Alpha  occ. eigenvalues --   -2.20280  -2.20097  -2.19638  -2.19473  -1.14833
 Alpha  occ. eigenvalues --   -1.14825  -1.14818  -1.14815  -1.14812  -1.14760
 Alpha  occ. eigenvalues --   -1.14107  -1.14065  -1.14044  -1.13964  -1.13948
 Alpha  occ. eigenvalues --   -1.13891  -1.13785  -1.13769  -1.13751  -1.13321
 Alpha  occ. eigenvalues --   -1.13311  -1.13276  -1.13155  -1.13128  -1.13119
 Alpha  occ. eigenvalues --   -0.15993  -0.14421  -0.11922  -0.11779
 Alpha virt. eigenvalues --   -0.06686  -0.06275  -0.03777  -0.03693  -0.03039
 Alpha virt. eigenvalues --   -0.02846  -0.02207  -0.01817  -0.01242  -0.00746
 Alpha virt. eigenvalues --   -0.00453  -0.00204  -0.00082   0.00181   0.00566

  Beta  occ. eigenvalues --  -38.45320 -38.45274 -38.44546 -38.44515 -38.44296
  Beta  occ. eigenvalues --  -38.43892 -38.43659  -2.21029  -2.20997  -2.20351
  Beta  occ. eigenvalues --   -2.20230  -2.20109  -2.19651  -2.19489  -1.14739
  Beta  occ. eigenvalues --   -1.14726  -1.14702  -1.14685  -1.14683  -1.14669
  Beta  occ. eigenvalues --   -1.14072  -1.14023  -1.14002  -1.13930  -1.13911
  Beta  occ. eigenvalues --   -1.13863  -1.13793  -1.13785  -1.13706  -1.13331
  Beta  occ. eigenvalues --   -1.13318  -1.13278  -1.13162  -1.13141  -1.13117
  Beta  occ. eigenvalues --   -0.15338  -0.13682  -0.11637
  Beta virt. eigenvalues --   -0.08529  -0.06290  -0.05710  -0.03571  -0.03392
  Beta virt. eigenvalues --   -0.02723  -0.02600  -0.01919  -0.01552  -0.00838
  Beta virt. eigenvalues --   -0.00454  -0.00342  -0.00111   0.00115   0.00288

 Mulliken charges and spin densities:
               1          2
     1  Na   0.007356   0.106854
     2  Na  -0.096232   0.133313
     3  Na   0.345022   0.479605
     4  Na  -0.322822  -0.070833
     5  Na   0.113324   0.029478
     6  Na  -0.382142   0.328967
     7  Na   0.335495  -0.007383
 Sum of Mulliken charges =  -0.00000   1.00000

 Dipole moment (field-independent basis, Debye):
    X=             -1.1858    Y=             -0.6204    Z=             -0.2879  Tot=              1.3689
 Quadrupole moment (field-independent basis, Debye-Ang):
   XX=            -56.1674   YY=            -72.2619   ZZ=            -69.2991
   XY=              0.9619   XZ=              2.5781   YZ=              1.7957

 Normal termination of Gaussian 16 at Mon Dec  4 03:31:49 2023.
