 Gaussian 16, Revision B.01,
 Gaussian 16:  ES64L-G16RevB.01 20-Dec-2017

 -------------------------
 #P B3LYP/6-311+g(d) force
 -------------------------

 -----
 DPGEN
 -----
 Symbolic Z-matrix:
 Charge =  0 Multiplicity = 2

                         Standard orientation:
 ---------------------------------------------------------------------
 Center     Atomic      Atomic             Coordinates (Angstroms)
 Number     Number       Type             X           Y           Z
 ---------------------------------------------------------------------
      1         11           0       -2.798370    1.510023   -0.370897
      2         11           0        0.222331   -0.124873   -1.772471
      3         11           0        0.765392   -2.800437    0.327106
      4         11           0        3.182373   -0.365099   -0.283042
      5         11           0        1.188225    2.831682    0.082278
      6         11           0       -2.618852   -1.589365    0.078431
      7         11           0        0.058900    0.538070    1.938595
 ---------------------------------------------------------------------

 SCF Done:  E(UB3LYP) =  -1136.13686705     A.U. after   19 cycles

 The electronic state is 2-A.
 Alpha  occ. eigenvalues --  -38.44325 -38.44055 -38.43720 -38.43513 -38.43488
 Alpha  occ. eigenvalues --  -38.43472 -38.43176  -2.20154  -2.19883  -2.19568
 Alpha  occ. eigenvalues --   -2.19435  -2.19371  -2.19322  -2.19021  -1.13841
 Alpha  occ. eigenvalues --   -1.13812  -1.13781  -1.13585  -1.13546  -1.13515
 Alpha  occ. eigenvalues --   -1.13231  -1.13228  -1.13211  -1.13126  -1.13102
 Alpha  occ. eigenvalues --   -1.13071  -1.13060  -1.13023  -1.12992  -1.12975
 Alpha  occ. eigenvalues --   -1.12946  -1.12938  -1.12693  -1.12686  -1.12657
 Alpha  occ. eigenvalues --   -0.18441  -0.13191  -0.12288  -0.10687
 Alpha virt. eigenvalues --   -0.05869  -0.05174  -0.04649  -0.03258  -0.02949
 Alpha virt. eigenvalues --   -0.02476  -0.01689  -0.01100  -0.00521  -0.00330
 Alpha virt. eigenvalues --   -0.00021   0.00355   0.00788   0.00835   0.00898

  Beta  occ. eigenvalues --  -38.44317 -38.44047 -38.43718 -38.43483 -38.43447
  Beta  occ. eigenvalues --  -38.43388 -38.43168  -2.20141  -2.19871  -2.19567
  Beta  occ. eigenvalues --   -2.19319  -2.19312  -2.19216  -2.19008  -1.13821
  Beta  occ. eigenvalues --   -1.13794  -1.13776  -1.13580  -1.13522  -1.13505
  Beta  occ. eigenvalues --   -1.13229  -1.13223  -1.13197  -1.13062  -1.13032
  Beta  occ. eigenvalues --   -1.12993  -1.12967  -1.12956  -1.12948  -1.12920
  Beta  occ. eigenvalues --   -1.12881  -1.12857  -1.12686  -1.12666  -1.12641
  Beta  occ. eigenvalues --   -0.17732  -0.12952  -0.12042
  Beta virt. eigenvalues --   -0.06855  -0.05797  -0.05156  -0.04565  -0.02520
  Beta virt. eigenvalues --   -0.02186  -0.01573  -0.01485  -0.01022  -0.00554
  Beta virt. eigenvalues --   -0.00369   0.00119   0.00391   0.00833   0.00855

 Mulliken charges and spin densities:
               1          2
     1  Na   0.144817  -0.041923
     2  Na  -0.154360   0.551612
     3  Na  -0.031993   0.000277
     4  Na   0.244946  -0.022750
     5  Na   0.113986  -0.153012
     6  Na  -0.003902  -0.025509
     7  Na  -0.313495   0.691305
 Sum of Mulliken charges =  -0.00000   1.00000

 Dipole moment (field-independent basis, Debye):
    X=              0.1676    Y=              0.1776    Z=             -0.0464  Tot=              0.2485
 Quadrupole moment (field-independent basis, Debye-Ang):
   XX=            -55.9606   YY=            -63.5666   ZZ=            -74.4051
   XY=             -0.2462   XZ=              0.1046   YZ=             -1.8820

 Normal termination of Gaussian 16 at Thu Dec  7 19:07:04 2023.
