 Gaussian 16, Revision B.01,
 Gaussian 16:  ES64L-G16RevB.01 20-Dec-2017

 -------------------------
 #P B3LYP/6-311+g(d) force
 -------------------------

 -----
 DPGEN
 -----
 Symbolic Z-matrix:
 Charge =  0 Multiplicity = 2

                         Standard orientation:
 ---------------------------------------------------------------------
 Center     Atomic      Atomic             Coordinates (Angstroms)
 Number     Number       Type             X           Y           Z
 ---------------------------------------------------------------------
      1         11           0        3.297054   -1.000945   -1.415355
      2         11           0        1.885257    1.025249    2.212593
      3         11           0       -3.028081   -1.498902   -1.089600
      4         11           0       -2.052514    2.283085   -0.641588
      5         11           0       -1.538977   -0.436160    1.874974
      6         11           0        0.407587   -1.971936    0.428524
      7         11           0        1.029674    1.599610   -1.369549
 ---------------------------------------------------------------------

 SCF Done:  E(UB3LYP) =  -1136.12267460     A.U. after   22 cycles

 The electronic state is 2-A.
 Alpha  occ. eigenvalues --  -38.45370 -38.44987 -38.44487 -38.44035 -38.43242
 Alpha  occ. eigenvalues --  -38.42869 -38.42721  -2.21163  -2.20769  -2.20294
 Alpha  occ. eigenvalues --   -2.19940  -2.19133  -2.18711  -2.18533  -1.14818
 Alpha  occ. eigenvalues --   -1.14796  -1.14783  -1.14445  -1.14402  -1.14394
 Alpha  occ. eigenvalues --   -1.13956  -1.13941  -1.13912  -1.13734  -1.13569
 Alpha  occ. eigenvalues --   -1.13541  -1.12852  -1.12796  -1.12718  -1.12406
 Alpha  occ. eigenvalues --   -1.12394  -1.12354  -1.12205  -1.12192  -1.12161
 Alpha  occ. eigenvalues --   -0.17807  -0.13289  -0.11839  -0.11283
 Alpha virt. eigenvalues --   -0.06011  -0.05395  -0.04546  -0.03281  -0.03063
 Alpha virt. eigenvalues --   -0.02744  -0.01820  -0.01375  -0.00515  -0.00008
 Alpha virt. eigenvalues --    0.00205   0.00228   0.00405   0.00531   0.00644

  Beta  occ. eigenvalues --  -38.45290 -38.44956 -38.44434 -38.44014 -38.43236
  Beta  occ. eigenvalues --  -38.42863 -38.42725  -2.21017  -2.20710  -2.20196
  Beta  occ. eigenvalues --   -2.19904  -2.19126  -2.18702  -2.18540  -1.14712
  Beta  occ. eigenvalues --   -1.14693  -1.14682  -1.14403  -1.14364  -1.14354
  Beta  occ. eigenvalues --   -1.13882  -1.13872  -1.13852  -1.13717  -1.13547
  Beta  occ. eigenvalues --   -1.13484  -1.12835  -1.12774  -1.12717  -1.12402
  Beta  occ. eigenvalues --   -1.12371  -1.12351  -1.12206  -1.12195  -1.12164
  Beta  occ. eigenvalues --   -0.17127  -0.12896  -0.11186
  Beta virt. eigenvalues --   -0.08076  -0.05494  -0.05025  -0.04366  -0.03219
  Beta virt. eigenvalues --   -0.02294  -0.02201  -0.01585  -0.00915  -0.00437
  Beta virt. eigenvalues --    0.00184   0.00304   0.00332   0.00459   0.00581

 Mulliken charges and spin densities:
               1          2
     1  Na   0.358379   0.114508
     2  Na   0.030146   0.234975
     3  Na   0.129353   0.066395
     4  Na  -0.289769  -0.046300
     5  Na   0.771410   0.340794
     6  Na  -0.703993   0.137516
     7  Na  -0.295526   0.152112
 Sum of Mulliken charges =  -0.00000   1.00000

 Dipole moment (field-independent basis, Debye):
    X=              0.3017    Y=             -0.6034    Z=              0.1923  Tot=              0.7015
 Quadrupole moment (field-independent basis, Debye-Ang):
   XX=            -54.5668   YY=            -74.6178   ZZ=            -65.3930
   XY=              2.1175   XZ=              2.1713   YZ=              8.9981

 Normal termination of Gaussian 16 at Mon Dec  4 05:36:11 2023.
