 Gaussian 16, Revision B.01,
 Gaussian 16:  ES64L-G16RevB.01 20-Dec-2017

 -------------------------
 #P B3LYP/6-311+g(d) force
 -------------------------

 -----
 DPGEN
 -----
 Symbolic Z-matrix:
 Charge =  0 Multiplicity = 2

                         Standard orientation:
 ---------------------------------------------------------------------
 Center     Atomic      Atomic             Coordinates (Angstroms)
 Number     Number       Type             X           Y           Z
 ---------------------------------------------------------------------
      1         11           0       -1.667300   -2.437794   -0.126074
      2         11           0        3.048610    0.990016   -0.387549
      3         11           0       -0.343166   -0.354454   -1.698128
      4         11           0       -0.086994    2.981028    0.001244
      5         11           0        2.130534   -1.988900    0.179184
      6         11           0       -0.024668   -0.076210    2.050121
      7         11           0       -3.057015    0.886314   -0.018798
 ---------------------------------------------------------------------

 SCF Done:  E(UB3LYP) =  -1136.13586439     A.U. after   19 cycles

 The electronic state is 2-A.
 Alpha  occ. eigenvalues --  -38.44240 -38.43977 -38.43619 -38.43567 -38.43544
 Alpha  occ. eigenvalues --  -38.43459 -38.43347  -2.20063  -2.19800  -2.19509
 Alpha  occ. eigenvalues --   -2.19445  -2.19438  -2.19418  -2.19152  -1.13745
 Alpha  occ. eigenvalues --   -1.13725  -1.13695  -1.13492  -1.13462  -1.13438
 Alpha  occ. eigenvalues --   -1.13311  -1.13189  -1.13147  -1.13137  -1.13115
 Alpha  occ. eigenvalues --   -1.13091  -1.13088  -1.13073  -1.13055  -1.13044
 Alpha  occ. eigenvalues --   -1.13016  -1.12979  -1.12829  -1.12822  -1.12787
 Alpha  occ. eigenvalues --   -0.18601  -0.13174  -0.12308  -0.10792
 Alpha virt. eigenvalues --   -0.05786  -0.05190  -0.04624  -0.03299  -0.02867
 Alpha virt. eigenvalues --   -0.02604  -0.01585  -0.01085  -0.00442  -0.00317
 Alpha virt. eigenvalues --   -0.00021   0.00357   0.00801   0.00872   0.00897

  Beta  occ. eigenvalues --  -38.44237 -38.43971 -38.43560 -38.43536 -38.43522
  Beta  occ. eigenvalues --  -38.43396 -38.43345  -2.20060  -2.19790  -2.19431
  Beta  occ. eigenvalues --   -2.19423  -2.19330  -2.19313  -2.19153  -1.13733
  Beta  occ. eigenvalues --   -1.13716  -1.13693  -1.13489  -1.13441  -1.13433
  Beta  occ. eigenvalues --   -1.13270  -1.13123  -1.13078  -1.13074  -1.13064
  Beta  occ. eigenvalues --   -1.13041  -1.13031  -1.13003  -1.12995  -1.12988
  Beta  occ. eigenvalues --   -1.12949  -1.12918  -1.12823  -1.12812  -1.12789
  Beta  occ. eigenvalues --   -0.17870  -0.12942  -0.12076
  Beta virt. eigenvalues --   -0.06883  -0.05751  -0.05164  -0.04569  -0.02516
  Beta virt. eigenvalues --   -0.02091  -0.01560  -0.01500  -0.01023  -0.00485
  Beta virt. eigenvalues --   -0.00362   0.00121   0.00387   0.00849   0.00886

 Mulliken charges and spin densities:
               1          2
     1  Na   0.435840  -0.070872
     2  Na  -0.127361  -0.037502
     3  Na  -0.236008   0.551827
     4  Na  -0.089347  -0.086797
     5  Na   0.304987   0.007285
     6  Na  -0.369700   0.740931
     7  Na   0.081591  -0.104872
 Sum of Mulliken charges =  -0.00000   1.00000

 Dipole moment (field-independent basis, Debye):
    X=             -0.2307    Y=              0.0223    Z=              0.1015  Tot=              0.2530
 Quadrupole moment (field-independent basis, Debye-Ang):
   XX=            -56.0410   YY=            -63.8901   ZZ=            -74.1674
   XY=              0.1450   XZ=             -0.9258   YZ=             -0.8631

 Normal termination of Gaussian 16 at Tue Dec  5 13:46:16 2023.
