 Gaussian 16, Revision B.01,
 Gaussian 16:  ES64L-G16RevB.01 20-Dec-2017

 -------------------------
 #P B3LYP/6-311+g(d) force
 -------------------------

 -----
 DPGEN
 -----
 Symbolic Z-matrix:
 Charge =  0 Multiplicity = 2

                         Standard orientation:
 ---------------------------------------------------------------------
 Center     Atomic      Atomic             Coordinates (Angstroms)
 Number     Number       Type             X           Y           Z
 ---------------------------------------------------------------------
      1         11           0        3.564570    1.561375   -0.425575
      2         11           0        0.513196    3.754181    0.196345
      3         11           0       -2.449676    3.012502   -0.269793
      4         11           0       -2.317634   -3.533052    0.019955
      5         11           0        0.741137   -3.238282   -0.578383
      6         11           0       -3.977043   -0.026565    0.369597
      7         11           0        3.925450   -1.530160    0.687854
 ---------------------------------------------------------------------

 SCF Done:  E(UB3LYP) =  -1136.10878412     A.U. after   22 cycles

 The electronic state is 2-A.
 Alpha  occ. eigenvalues --  -38.45391 -38.44900 -38.44524 -38.44445 -38.44367
 Alpha  occ. eigenvalues --  -38.44285 -38.43803  -2.21149  -2.20692  -2.20313
 Alpha  occ. eigenvalues --   -2.20251  -2.20163  -2.20083  -2.19627  -1.14831
 Alpha  occ. eigenvalues --   -1.14817  -1.14791  -1.14365  -1.14359  -1.14331
 Alpha  occ. eigenvalues --   -1.13976  -1.13967  -1.13951  -1.13935  -1.13921
 Alpha  occ. eigenvalues --   -1.13889  -1.13819  -1.13808  -1.13805  -1.13750
 Alpha  occ. eigenvalues --   -1.13743  -1.13720  -1.13278  -1.13268  -1.13255
 Alpha  occ. eigenvalues --   -0.15563  -0.13893  -0.13724  -0.10839
 Alpha virt. eigenvalues --   -0.07714  -0.04849  -0.04361  -0.03457  -0.03383
 Alpha virt. eigenvalues --   -0.02544  -0.02439  -0.01857  -0.01686  -0.00516
 Alpha virt. eigenvalues --   -0.00108  -0.00029   0.00090   0.00308   0.00412

  Beta  occ. eigenvalues --  -38.45386 -38.44865 -38.44447 -38.44443 -38.44330
  Beta  occ. eigenvalues --  -38.44270 -38.43746  -2.21144  -2.20633  -2.20261
  Beta  occ. eigenvalues --   -2.20164  -2.20095  -2.20060  -2.19521  -1.14832
  Beta  occ. eigenvalues --   -1.14819  -1.14756  -1.14324  -1.14321  -1.14274
  Beta  occ. eigenvalues --   -1.13950  -1.13935  -1.13901  -1.13866  -1.13848
  Beta  occ. eigenvalues --   -1.13816  -1.13773  -1.13762  -1.13756  -1.13730
  Beta  occ. eigenvalues --   -1.13728  -1.13689  -1.13214  -1.13194  -1.13184
  Beta  occ. eigenvalues --   -0.15031  -0.13180  -0.13012
  Beta virt. eigenvalues --   -0.07821  -0.07656  -0.04468  -0.03950  -0.03085
  Beta virt. eigenvalues --   -0.03010  -0.02313  -0.02241  -0.01739  -0.01557
  Beta virt. eigenvalues --   -0.00148   0.00045   0.00132   0.00306   0.00350

 Mulliken charges and spin densities:
               1          2
     1  Na  -0.027389   0.033488
     2  Na  -0.281914   0.235744
     3  Na   0.152086  -0.037958
     4  Na   0.522249   0.021110
     5  Na  -0.518696   0.158714
     6  Na   0.011054   0.407515
     7  Na   0.142608   0.181385
 Sum of Mulliken charges =  -0.00000   1.00000

 Dipole moment (field-independent basis, Debye):
    X=              0.6217    Y=             -0.5313    Z=             -0.0035  Tot=              0.8178
 Quadrupole moment (field-independent basis, Debye-Ang):
   XX=            -62.0617   YY=            -66.5921   ZZ=            -72.1699
   XY=              2.2110   XZ=             -0.6459   YZ=             -2.1837

 Normal termination of Gaussian 16 at Sun Dec  3 14:04:38 2023.
