 Gaussian 16, Revision B.01,
 Gaussian 16:  ES64L-G16RevB.01 20-Dec-2017

 -------------------------
 #P B3LYP/6-311+g(d) force
 -------------------------

 -----
 DPGEN
 -----
 Symbolic Z-matrix:
 Charge =  0 Multiplicity = 2

                         Standard orientation:
 ---------------------------------------------------------------------
 Center     Atomic      Atomic             Coordinates (Angstroms)
 Number     Number       Type             X           Y           Z
 ---------------------------------------------------------------------
      1         11           0        3.463839   -1.554411   -0.621860
      2         11           0        0.703660    0.484208    1.967576
      3         11           0        1.678243    0.845335   -1.829350
      4         11           0       -2.215132   -0.026544   -0.002452
      5         11           0        0.844988    3.827525    0.411217
      6         11           0       -5.018141   -0.408585   -0.619723
      7         11           0        0.542543   -3.167528    0.694593
 ---------------------------------------------------------------------

 SCF Done:  E(UB3LYP) =  -1136.11523464     A.U. after   22 cycles

 The electronic state is 2-A.
 Alpha  occ. eigenvalues --  -38.44851 -38.44775 -38.44728 -38.44262 -38.44256
 Alpha  occ. eigenvalues --  -38.43646 -38.43156  -2.20669  -2.20598  -2.20497
 Alpha  occ. eigenvalues --   -2.20075  -2.20015  -2.19479  -2.19006  -1.14363
 Alpha  occ. eigenvalues --   -1.14325  -1.14282  -1.14259  -1.14255  -1.14197
 Alpha  occ. eigenvalues --   -1.14167  -1.14145  -1.14126  -1.13749  -1.13737
 Alpha  occ. eigenvalues --   -1.13692  -1.13689  -1.13681  -1.13644  -1.13231
 Alpha  occ. eigenvalues --   -1.13105  -1.13103  -1.12676  -1.12656  -1.12635
 Alpha  occ. eigenvalues --   -0.17099  -0.13051  -0.12256  -0.11211
 Alpha virt. eigenvalues --   -0.06324  -0.06096  -0.04169  -0.03354  -0.02771
 Alpha virt. eigenvalues --   -0.02582  -0.01953  -0.01903  -0.01041  -0.00609
 Alpha virt. eigenvalues --   -0.00323  -0.00023   0.00344   0.00510   0.00611

  Beta  occ. eigenvalues --  -38.44790 -38.44710 -38.44700 -38.44266 -38.44227
  Beta  occ. eigenvalues --  -38.43608 -38.43157  -2.20556  -2.20481  -2.20446
  Beta  occ. eigenvalues --   -2.20025  -2.20023  -2.19410  -2.19013  -1.14287
  Beta  occ. eigenvalues --   -1.14252  -1.14199  -1.14182  -1.14166  -1.14131
  Beta  occ. eigenvalues --   -1.14105  -1.14100  -1.14099  -1.13709  -1.13700
  Beta  occ. eigenvalues --   -1.13697  -1.13681  -1.13650  -1.13646  -1.13188
  Beta  occ. eigenvalues --   -1.13057  -1.13056  -1.12682  -1.12647  -1.12622
  Beta  occ. eigenvalues --   -0.16421  -0.12453  -0.12086
  Beta virt. eigenvalues --   -0.07729  -0.06098  -0.05734  -0.03824  -0.02857
  Beta virt. eigenvalues --   -0.02553  -0.02185  -0.01764  -0.01626  -0.00813
  Beta virt. eigenvalues --   -0.00305  -0.00181   0.00066   0.00436   0.00562

 Mulliken charges and spin densities:
               1          2
     1  Na  -0.480150   0.160480
     2  Na   1.949194   0.211858
     3  Na   0.736975   0.277306
     4  Na  -1.413031   0.132106
     5  Na  -0.102552  -0.056241
     6  Na  -1.253107   0.230383
     7  Na   0.562670   0.044108
 Sum of Mulliken charges =  -0.00000   1.00000

 Dipole moment (field-independent basis, Debye):
    X=              1.1069    Y=             -0.0026    Z=              0.3272  Tot=              1.1542
 Quadrupole moment (field-independent basis, Debye-Ang):
   XX=            -66.0630   YY=            -60.6085   ZZ=            -69.7311
   XY=              0.0798   XZ=              2.7795   YZ=             -0.3974

 Normal termination of Gaussian 16 at Mon Dec  4 01:02:03 2023.
