 Gaussian 16, Revision B.01,
 Gaussian 16:  ES64L-G16RevB.01 20-Dec-2017

 -------------------------
 #P B3LYP/6-311+g(d) force
 -------------------------

 -----
 DPGEN
 -----
 Symbolic Z-matrix:
 Charge =  0 Multiplicity = 2

                         Standard orientation:
 ---------------------------------------------------------------------
 Center     Atomic      Atomic             Coordinates (Angstroms)
 Number     Number       Type             X           Y           Z
 ---------------------------------------------------------------------
      1         11           0        0.973775   -0.831328    2.119960
      2         11           0       -3.894645    0.694851   -0.643741
      3         11           0       -1.333355    1.749386    0.321677
      4         11           0       -2.193692   -1.767160    0.427579
      5         11           0        3.960878   -0.397107   -0.637104
      6         11           0        0.397993   -1.414948   -1.559414
      7         11           0        2.089047    1.966305   -0.028957
 ---------------------------------------------------------------------

 SCF Done:  E(UB3LYP) =  -1136.11753472     A.U. after   25 cycles

 The electronic state is 2-A.
 Alpha  occ. eigenvalues --  -38.44960 -38.44525 -38.44416 -38.44238 -38.43520
 Alpha  occ. eigenvalues --  -38.43509 -38.43194  -2.20795  -2.20330  -2.20251
 Alpha  occ. eigenvalues --   -2.20121  -2.19400  -2.19385  -2.19094  -1.14473
 Alpha  occ. eigenvalues --   -1.14442  -1.14411  -1.14027  -1.13984  -1.13964
 Alpha  occ. eigenvalues --   -1.13918  -1.13887  -1.13859  -1.13835  -1.13779
 Alpha  occ. eigenvalues --   -1.13743  -1.13079  -1.13069  -1.13067  -1.13045
 Alpha  occ. eigenvalues --   -1.13036  -1.13029  -1.12772  -1.12750  -1.12734
 Alpha  occ. eigenvalues --   -0.18220  -0.14495  -0.11197  -0.11107
 Alpha virt. eigenvalues --   -0.07216  -0.05347  -0.04363  -0.03211  -0.02990
 Alpha virt. eigenvalues --   -0.02514  -0.02327  -0.01293  -0.00925  -0.00272
 Alpha virt. eigenvalues --   -0.00025   0.00145   0.00384   0.00688   0.00751

  Beta  occ. eigenvalues --  -38.44912 -38.44522 -38.44332 -38.44219 -38.43507
  Beta  occ. eigenvalues --  -38.43504 -38.43177  -2.20706  -2.20325  -2.20097
  Beta  occ. eigenvalues --   -2.20087  -2.19392  -2.19367  -2.19065  -1.14416
  Beta  occ. eigenvalues --   -1.14374  -1.14351  -1.14022  -1.13975  -1.13960
  Beta  occ. eigenvalues --   -1.13818  -1.13801  -1.13786  -1.13754  -1.13749
  Beta  occ. eigenvalues --   -1.13718  -1.13079  -1.13058  -1.13055  -1.13033
  Beta  occ. eigenvalues --   -1.13009  -1.12992  -1.12758  -1.12717  -1.12699
  Beta  occ. eigenvalues --   -0.17587  -0.14098  -0.10994
  Beta virt. eigenvalues --   -0.07468  -0.06850  -0.05217  -0.03764  -0.03057
  Beta virt. eigenvalues --   -0.02762  -0.01937  -0.01691  -0.01161  -0.00539
  Beta virt. eigenvalues --   -0.00203   0.00032   0.00223   0.00487   0.00779

 Mulliken charges and spin densities:
               1          2
     1  Na  -0.082872   0.365722
     2  Na   0.894493   0.161878
     3  Na  -0.988245  -0.043587
     4  Na   0.420061   0.168282
     5  Na   0.455031   0.222291
     6  Na  -0.463796   0.053284
     7  Na  -0.234672   0.072129
 Sum of Mulliken charges =  -0.00000   1.00000

 Dipole moment (field-independent basis, Debye):
    X=              0.5493    Y=             -0.9053    Z=              0.1119  Tot=              1.0648
 Quadrupole moment (field-independent basis, Debye-Ang):
   XX=            -52.9383   YY=            -78.1285   ZZ=            -67.1214
   XY=              0.3337   XZ=              2.3230   YZ=             -1.7232

 Normal termination of Gaussian 16 at Thu Dec  7 08:52:09 2023.
