 Gaussian 16, Revision B.01,
 Gaussian 16:  ES64L-G16RevB.01 20-Dec-2017

 -------------------------
 #P B3LYP/6-311+g(d) force
 -------------------------

 -----
 DPGEN
 -----
 Symbolic Z-matrix:
 Charge =  0 Multiplicity = 2

                         Standard orientation:
 ---------------------------------------------------------------------
 Center     Atomic      Atomic             Coordinates (Angstroms)
 Number     Number       Type             X           Y           Z
 ---------------------------------------------------------------------
      1         11           0       -1.188875   -2.681328    0.148433
      2         11           0       -3.072130    0.339739   -0.066013
      3         11           0       -0.618440    2.856830    0.088855
      4         11           0       -0.086957   -0.157397   -1.927472
      5         11           0        0.153327   -0.273837    1.932058
      6         11           0        2.454382   -1.576106   -0.213375
      7         11           0        2.358693    1.492099    0.037513
 ---------------------------------------------------------------------

 SCF Done:  E(UB3LYP) =  -1136.13965805     A.U. after   19 cycles

 The electronic state is 2-A.
 Alpha  occ. eigenvalues --  -38.43942 -38.43575 -38.43563 -38.43556 -38.43477
 Alpha  occ. eigenvalues --  -38.43349 -38.43199  -2.19765  -2.19499  -2.19493
 Alpha  occ. eigenvalues --   -2.19475  -2.19334  -2.19271  -2.19050  -1.13443
 Alpha  occ. eigenvalues --   -1.13429  -1.13405  -1.13236  -1.13179  -1.13176
 Alpha  occ. eigenvalues --   -1.13150  -1.13140  -1.13135  -1.13127  -1.13093
 Alpha  occ. eigenvalues --   -1.13082  -1.13002  -1.12992  -1.12955  -1.12940
 Alpha  occ. eigenvalues --   -1.12919  -1.12904  -1.12713  -1.12712  -1.12689
 Alpha  occ. eigenvalues --   -0.18960  -0.13052  -0.12534  -0.11071
 Alpha virt. eigenvalues --   -0.05474  -0.04927  -0.04696  -0.03315  -0.03010
 Alpha virt. eigenvalues --   -0.02788  -0.01319  -0.01017  -0.00220  -0.00105
 Alpha virt. eigenvalues --   -0.00032   0.00383   0.00853   0.00913   0.00956

  Beta  occ. eigenvalues --  -38.43941 -38.43567 -38.43480 -38.43471 -38.43470
  Beta  occ. eigenvalues --  -38.43342 -38.43197  -2.19765  -2.19464  -2.19346
  Beta  occ. eigenvalues --   -2.19338  -2.19326  -2.19263  -2.19049  -1.13433
  Beta  occ. eigenvalues --   -1.13420  -1.13408  -1.13214  -1.13132  -1.13107
  Beta  occ. eigenvalues --   -1.13078  -1.13059  -1.13047  -1.13031  -1.12998
  Beta  occ. eigenvalues --   -1.12995  -1.12970  -1.12957  -1.12952  -1.12931
  Beta  occ. eigenvalues --   -1.12904  -1.12877  -1.12713  -1.12698  -1.12685
  Beta  occ. eigenvalues --   -0.18191  -0.12807  -0.12287
  Beta virt. eigenvalues --   -0.07126  -0.05465  -0.04911  -0.04651  -0.02478
  Beta virt. eigenvalues --   -0.02215  -0.01724  -0.01234  -0.00950  -0.00279
  Beta virt. eigenvalues --   -0.00164   0.00103   0.00400   0.00882   0.00927

 Mulliken charges and spin densities:
               1          2
     1  Na   0.202710  -0.131168
     2  Na   0.029912  -0.104708
     3  Na  -0.021899  -0.094141
     4  Na  -0.393902   0.672679
     5  Na  -0.397642   0.692189
     6  Na   0.434795  -0.029631
     7  Na   0.146028  -0.005221
 Sum of Mulliken charges =  -0.00000   1.00000

 Dipole moment (field-independent basis, Debye):
    X=             -0.2605    Y=             -0.2168    Z=             -0.0140  Tot=              0.3392
 Quadrupole moment (field-independent basis, Debye-Ang):
   XX=            -59.1189   YY=            -63.1819   ZZ=            -72.4719
   XY=             -0.3807   XZ=             -0.4335   YZ=              0.3335

 Normal termination of Gaussian 16 at Wed Nov 29 17:13:28 2023.
