 Gaussian 16, Revision B.01,
 Gaussian 16:  ES64L-G16RevB.01 20-Dec-2017

 -------------------------
 #P B3LYP/6-311+g(d) force
 -------------------------

 -----
 DPGEN
 -----
 Symbolic Z-matrix:
 Charge =  0 Multiplicity = 2

                         Standard orientation:
 ---------------------------------------------------------------------
 Center     Atomic      Atomic             Coordinates (Angstroms)
 Number     Number       Type             X           Y           Z
 ---------------------------------------------------------------------
      1         11           0        2.393522   -1.670677   -0.082834
      2         11           0       -0.855719   -2.390103    0.263150
      3         11           0       -0.717076    2.614600    0.027484
      4         11           0       -3.334229    0.002725    0.072091
      5         11           0        0.563938    0.211491    1.833715
      6         11           0        2.245542    1.606466   -0.384082
      7         11           0       -0.295976   -0.374503   -1.729523
 ---------------------------------------------------------------------

 SCF Done:  E(UB3LYP) =  -1136.13347300     A.U. after   19 cycles

 The electronic state is 2-A.
 Alpha  occ. eigenvalues --  -38.44233 -38.43448 -38.43444 -38.43338 -38.43315
 Alpha  occ. eigenvalues --  -38.43285 -38.43163  -2.20039  -2.19398  -2.19365
 Alpha  occ. eigenvalues --   -2.19356  -2.19321  -2.19236  -2.19060  -1.13710
 Alpha  occ. eigenvalues --   -1.13696  -1.13686  -1.13219  -1.13170  -1.13095
 Alpha  occ. eigenvalues --   -1.13074  -1.13056  -1.13023  -1.13002  -1.12980
 Alpha  occ. eigenvalues --   -1.12976  -1.12938  -1.12931  -1.12918  -1.12871
 Alpha  occ. eigenvalues --   -1.12837  -1.12812  -1.12732  -1.12721  -1.12675
 Alpha  occ. eigenvalues --   -0.19418  -0.13196  -0.12686  -0.10935
 Alpha virt. eigenvalues --   -0.05725  -0.04820  -0.04462  -0.03265  -0.02948
 Alpha virt. eigenvalues --   -0.02448  -0.01589  -0.00889  -0.00087  -0.00003
 Alpha virt. eigenvalues --    0.00062   0.00348   0.00850   0.00947   0.00964

  Beta  occ. eigenvalues --  -38.44234 -38.43436 -38.43435 -38.43273 -38.43266
  Beta  occ. eigenvalues --  -38.43232 -38.43157  -2.20044  -2.19379  -2.19354
  Beta  occ. eigenvalues --   -2.19236  -2.19206  -2.19170  -2.19053  -1.13704
  Beta  occ. eigenvalues --   -1.13698  -1.13689  -1.13164  -1.13140  -1.13084
  Beta  occ. eigenvalues --   -1.13036  -1.13015  -1.12989  -1.12969  -1.12924
  Beta  occ. eigenvalues --   -1.12887  -1.12865  -1.12846  -1.12828  -1.12806
  Beta  occ. eigenvalues --   -1.12804  -1.12773  -1.12722  -1.12684  -1.12673
  Beta  occ. eigenvalues --   -0.18651  -0.12977  -0.12406
  Beta virt. eigenvalues --   -0.06944  -0.05674  -0.04825  -0.04441  -0.02486
  Beta virt. eigenvalues --   -0.02130  -0.01543  -0.01360  -0.00831  -0.00097
  Beta virt. eigenvalues --    0.00010   0.00127   0.00375   0.00885   0.00945

 Mulliken charges and spin densities:
               1          2
     1  Na   0.456596   0.008347
     2  Na   0.320869  -0.056762
     3  Na   0.081618  -0.106407
     4  Na  -0.044052  -0.104372
     5  Na  -0.521771   0.644739
     6  Na   0.268294   0.032010
     7  Na  -0.561554   0.582444
 Sum of Mulliken charges =  -0.00000   1.00000

 Dipole moment (field-independent basis, Debye):
    X=             -0.3204    Y=              0.0074    Z=              0.0357  Tot=              0.3224
 Quadrupole moment (field-independent basis, Debye-Ang):
   XX=            -55.0481   YY=            -65.5103   ZZ=            -73.1282
   XY=             -1.0144   XZ=             -1.7323   YZ=             -1.0468

 Normal termination of Gaussian 16 at Thu Dec  7 03:31:33 2023.
