 Gaussian 16, Revision B.01,
 Gaussian 16:  ES64L-G16RevB.01 20-Dec-2017

 -------------------------
 #P B3LYP/6-311+g(d) force
 -------------------------

 -----
 DPGEN
 -----
 Symbolic Z-matrix:
 Charge =  0 Multiplicity = 2

                         Standard orientation:
 ---------------------------------------------------------------------
 Center     Atomic      Atomic             Coordinates (Angstroms)
 Number     Number       Type             X           Y           Z
 ---------------------------------------------------------------------
      1         11           0       -1.981069    2.032943    0.308660
      2         11           0        3.054946   -0.748798   -0.391877
      3         11           0        0.138917    0.093325   -1.445379
      4         11           0        0.555155    0.058544    2.021902
      5         11           0        1.015097    2.513053   -0.323194
      6         11           0        0.033323   -2.598017    0.258252
      7         11           0       -2.816367   -1.351051   -0.428363
 ---------------------------------------------------------------------

 SCF Done:  E(UB3LYP) =  -1136.13158011     A.U. after   21 cycles

 The electronic state is 2-A.
 Alpha  occ. eigenvalues --  -38.43869 -38.43545 -38.43544 -38.43522 -38.43502
 Alpha  occ. eigenvalues --  -38.43290 -38.43093  -2.19723  -2.19511  -2.19488
 Alpha  occ. eigenvalues --   -2.19414  -2.19355  -2.19221  -2.19209  -1.13422
 Alpha  occ. eigenvalues --   -1.13400  -1.13373  -1.13356  -1.13207  -1.13178
 Alpha  occ. eigenvalues --   -1.13158  -1.13097  -1.13095  -1.13078  -1.13062
 Alpha  occ. eigenvalues --   -1.13061  -1.13018  -1.13011  -1.12985  -1.12944
 Alpha  occ. eigenvalues --   -1.12886  -1.12842  -1.12809  -1.12790  -1.12785
 Alpha  occ. eigenvalues --   -0.19315  -0.12948  -0.12898  -0.10988
 Alpha virt. eigenvalues --   -0.05367  -0.04912  -0.04660  -0.03167  -0.02967
 Alpha virt. eigenvalues --   -0.02550  -0.01498  -0.00977  -0.00173   0.00059
 Alpha virt. eigenvalues --    0.00100   0.00345   0.00882   0.00916   0.00947

  Beta  occ. eigenvalues --  -38.43859 -38.43532 -38.43516 -38.43498 -38.43448
  Beta  occ. eigenvalues --  -38.43280 -38.43032  -2.19709  -2.19493  -2.19407
  Beta  occ. eigenvalues --   -2.19349  -2.19310  -2.19206  -2.19102  -1.13402
  Beta  occ. eigenvalues --   -1.13374  -1.13357  -1.13340  -1.13181  -1.13118
  Beta  occ. eigenvalues --   -1.13081  -1.13068  -1.13050  -1.13038  -1.13010
  Beta  occ. eigenvalues --   -1.12998  -1.12993  -1.12980  -1.12963  -1.12917
  Beta  occ. eigenvalues --   -1.12841  -1.12802  -1.12772  -1.12729  -1.12705
  Beta  occ. eigenvalues --   -0.18580  -0.12697  -0.12628
  Beta virt. eigenvalues --   -0.07002  -0.05325  -0.04866  -0.04644  -0.02345
  Beta virt. eigenvalues --   -0.02236  -0.01474  -0.01411  -0.00916  -0.00115
  Beta virt. eigenvalues --    0.00037   0.00162   0.00374   0.00912   0.00915

 Mulliken charges and spin densities:
               1          2
     1  Na   0.144285   0.115462
     2  Na   0.200493  -0.022258
     3  Na  -0.634949   0.259095
     4  Na  -0.446402   0.545614
     5  Na   0.382679   0.021288
     6  Na   0.349815   0.104241
     7  Na   0.004079  -0.023443
 Sum of Mulliken charges =  -0.00000   1.00000

 Dipole moment (field-independent basis, Debye):
    X=              0.1984    Y=              0.0106    Z=              0.2703  Tot=              0.3355
 Quadrupole moment (field-independent basis, Debye-Ang):
   XX=            -56.5587   YY=            -63.6508   ZZ=            -73.2761
   XY=             -0.8466   XZ=             -0.7908   YZ=              0.4370

 Normal termination of Gaussian 16 at Tue Dec  5 16:50:30 2023.
