 Gaussian 16, Revision B.01,
 Gaussian 16:  ES64L-G16RevB.01 20-Dec-2017

 -------------------------
 #P B3LYP/6-311+g(d) force
 -------------------------

 -----
 DPGEN
 -----
 Symbolic Z-matrix:
 Charge =  0 Multiplicity = 2

                         Standard orientation:
 ---------------------------------------------------------------------
 Center     Atomic      Atomic             Coordinates (Angstroms)
 Number     Number       Type             X           Y           Z
 ---------------------------------------------------------------------
      1         11           0        0.298763    3.054672   -0.128850
      2         11           0        0.295291    0.290699    2.129981
      3         11           0       -2.784890    1.356849   -0.205083
      4         11           0        1.437216   -2.441438   -0.038486
      5         11           0       -2.380192   -2.284722    0.137012
      6         11           0       -0.171857   -0.221960   -1.576597
      7         11           0        3.305669    0.245900   -0.317976
 ---------------------------------------------------------------------

 SCF Done:  E(UB3LYP) =  -1136.13674079     A.U. after   19 cycles

 The electronic state is 2-A.
 Alpha  occ. eigenvalues --  -38.44203 -38.44023 -38.43757 -38.43590 -38.43548
 Alpha  occ. eigenvalues --  -38.43518 -38.43242  -2.20012  -2.19849  -2.19554
 Alpha  occ. eigenvalues --   -2.19448  -2.19426  -2.19334  -2.19204  -1.13681
 Alpha  occ. eigenvalues --   -1.13677  -1.13653  -1.13542  -1.13512  -1.13474
 Alpha  occ. eigenvalues --   -1.13227  -1.13213  -1.13202  -1.13162  -1.13115
 Alpha  occ. eigenvalues --   -1.13092  -1.13071  -1.13063  -1.13039  -1.13008
 Alpha  occ. eigenvalues --   -1.12995  -1.12971  -1.12886  -1.12842  -1.12811
 Alpha  occ. eigenvalues --   -0.18318  -0.13004  -0.12337  -0.10549
 Alpha virt. eigenvalues --   -0.05721  -0.05316  -0.04853  -0.03103  -0.02880
 Alpha virt. eigenvalues --   -0.02454  -0.01654  -0.01247  -0.00581  -0.00432
 Alpha virt. eigenvalues --   -0.00027   0.00335   0.00747   0.00833   0.00859

  Beta  occ. eigenvalues --  -38.44197 -38.44018 -38.43756 -38.43541 -38.43515
  Beta  occ. eigenvalues --  -38.43489 -38.43188  -2.20004  -2.19842  -2.19555
  Beta  occ. eigenvalues --   -2.19417  -2.19331  -2.19261  -2.19106  -1.13679
  Beta  occ. eigenvalues --   -1.13657  -1.13645  -1.13530  -1.13496  -1.13474
  Beta  occ. eigenvalues --   -1.13219  -1.13211  -1.13201  -1.13148  -1.13060
  Beta  occ. eigenvalues --   -1.13032  -1.13013  -1.12987  -1.12977  -1.12972
  Beta  occ. eigenvalues --   -1.12937  -1.12928  -1.12818  -1.12773  -1.12741
  Beta  occ. eigenvalues --   -0.17607  -0.12776  -0.12144
  Beta virt. eigenvalues --   -0.06647  -0.05678  -0.05307  -0.04778  -0.02356
  Beta virt. eigenvalues --   -0.02123  -0.01557  -0.01422  -0.01174  -0.00631
  Beta virt. eigenvalues --   -0.00470   0.00133   0.00372   0.00804   0.00834

 Mulliken charges and spin densities:
               1          2
     1  Na   0.076494  -0.089283
     2  Na  -0.526168   0.791083
     3  Na   0.153083  -0.054755
     4  Na   0.250107   0.031983
     5  Na   0.049337  -0.020066
     6  Na  -0.132064   0.377659
     7  Na   0.129210  -0.036620
 Sum of Mulliken charges =  -0.00000   1.00000

 Dipole moment (field-independent basis, Debye):
    X=              0.0336    Y=              0.0985    Z=              0.0788  Tot=              0.1306
 Quadrupole moment (field-independent basis, Debye-Ang):
   XX=            -55.5703   YY=            -61.9796   ZZ=            -75.4550
   XY=              1.1248   XZ=             -1.2103   YZ=             -1.3543

 Normal termination of Gaussian 16 at Thu Dec  7 16:31:10 2023.
