 Gaussian 16, Revision B.01,
 Gaussian 16:  ES64L-G16RevB.01 20-Dec-2017

 -------------------------
 #P B3LYP/6-311+g(d) force
 -------------------------

 -----
 DPGEN
 -----
 Symbolic Z-matrix:
 Charge =  0 Multiplicity = 2

                         Standard orientation:
 ---------------------------------------------------------------------
 Center     Atomic      Atomic             Coordinates (Angstroms)
 Number     Number       Type             X           Y           Z
 ---------------------------------------------------------------------
      1         11           0       -1.347539   -1.897562   -0.923147
      2         11           0       -4.605354   -1.510127   -0.519978
      3         11           0       -5.341604    2.403023   -0.195860
      4         11           0       -2.142120    1.244356    0.786001
      5         11           0        1.065142   -1.212703    1.269613
      6         11           0        5.257634   -0.193779    0.748647
      7         11           0        7.113842    1.166791   -1.165275
 ---------------------------------------------------------------------

 SCF Done:  E(UB3LYP) =  -1136.11283809     A.U. after   18 cycles

 The electronic state is 2-A.
 Alpha  occ. eigenvalues --  -38.45158 -38.44771 -38.44269 -38.44197 -38.44130
 Alpha  occ. eigenvalues --  -38.43909 -38.43878  -2.20948  -2.20591  -2.20051
 Alpha  occ. eigenvalues --   -2.20041  -2.19933  -2.19700  -2.19674  -1.14655
 Alpha  occ. eigenvalues --   -1.14624  -1.14530  -1.14264  -1.14254  -1.14183
 Alpha  occ. eigenvalues --   -1.13727  -1.13722  -1.13708  -1.13700  -1.13682
 Alpha  occ. eigenvalues --   -1.13662  -1.13661  -1.13578  -1.13577  -1.13367
 Alpha  occ. eigenvalues --   -1.13360  -1.13331  -1.13326  -1.13322  -1.13293
 Alpha  occ. eigenvalues --   -0.16513  -0.13526  -0.12243  -0.11366
 Alpha virt. eigenvalues --   -0.06793  -0.05413  -0.04591  -0.03496  -0.02984
 Alpha virt. eigenvalues --   -0.02519  -0.02281  -0.01869  -0.01461  -0.01070
 Alpha virt. eigenvalues --   -0.00663  -0.00175   0.00208   0.00383   0.00465

  Beta  occ. eigenvalues --  -38.45122 -38.44692 -38.44242 -38.44164 -38.44120
  Beta  occ. eigenvalues --  -38.43885 -38.43881  -2.20882  -2.20449  -2.19996
  Beta  occ. eigenvalues --   -2.19992  -2.19914  -2.19681  -2.19655  -1.14611
  Beta  occ. eigenvalues --   -1.14574  -1.14477  -1.14163  -1.14158  -1.14075
  Beta  occ. eigenvalues --   -1.13696  -1.13685  -1.13676  -1.13657  -1.13651
  Beta  occ. eigenvalues --   -1.13634  -1.13607  -1.13565  -1.13564  -1.13336
  Beta  occ. eigenvalues --   -1.13335  -1.13331  -1.13327  -1.13296  -1.13288
  Beta  occ. eigenvalues --   -0.15769  -0.13330  -0.11982
  Beta virt. eigenvalues --   -0.07656  -0.06427  -0.05148  -0.04344  -0.03156
  Beta virt. eigenvalues --   -0.02487  -0.02327  -0.02050  -0.01673  -0.01289
  Beta virt. eigenvalues --   -0.00658  -0.00422  -0.00031   0.00364   0.00439

 Mulliken charges and spin densities:
               1          2
     1  Na  -0.146918   0.265682
     2  Na   0.159645   0.240228
     3  Na   0.448823   0.006970
     4  Na  -0.331173   0.355606
     5  Na  -0.120367   0.104361
     6  Na  -0.338478  -0.007122
     7  Na   0.328468   0.034275
 Sum of Mulliken charges =  -0.00000   1.00000

 Dipole moment (field-independent basis, Debye):
    X=             -1.2270    Y=              0.2411    Z=             -0.3415  Tot=              1.2962
 Quadrupole moment (field-independent basis, Debye-Ang):
   XX=            -59.9842   YY=            -68.6286   ZZ=            -67.9684
   XY=              1.1633   XZ=             -2.5067   YZ=             -2.8186

 Normal termination of Gaussian 16 at Tue Nov 28 20:15:14 2023.
