 Gaussian 16, Revision B.01,
 Gaussian 16:  ES64L-G16RevB.01 20-Dec-2017

 -------------------------
 #P B3LYP/6-311+g(d) force
 -------------------------

 -----
 DPGEN
 -----
 Symbolic Z-matrix:
 Charge =  0 Multiplicity = 2

                         Standard orientation:
 ---------------------------------------------------------------------
 Center     Atomic      Atomic             Coordinates (Angstroms)
 Number     Number       Type             X           Y           Z
 ---------------------------------------------------------------------
      1         11           0       -3.096326    0.314150    0.201293
      2         11           0       -0.116769   -0.085673    1.694304
      3         11           0       -1.393714   -2.577357   -0.036120
      4         11           0        2.678214    1.317926    0.472083
      5         11           0        2.336577   -2.181869   -0.309367
      6         11           0       -0.065602    0.141003   -1.673072
      7         11           0       -0.342379    3.071819   -0.349121
 ---------------------------------------------------------------------

 SCF Done:  E(UB3LYP) =  -1136.13947887     A.U. after   19 cycles

 The electronic state is 2-A.
 Alpha  occ. eigenvalues --  -38.43873 -38.43735 -38.43681 -38.43605 -38.43535
 Alpha  occ. eigenvalues --  -38.43125 -38.43021  -2.19725  -2.19581  -2.19491
 Alpha  occ. eigenvalues --   -2.19478  -2.19374  -2.19100  -2.18998  -1.13408
 Alpha  occ. eigenvalues --   -1.13394  -1.13359  -1.13272  -1.13242  -1.13212
 Alpha  occ. eigenvalues --   -1.13176  -1.13166  -1.13153  -1.13141  -1.13134
 Alpha  occ. eigenvalues --   -1.13089  -1.13076  -1.13025  -1.13004  -1.12805
 Alpha  occ. eigenvalues --   -1.12724  -1.12714  -1.12676  -1.12622  -1.12608
 Alpha  occ. eigenvalues --   -0.18753  -0.13022  -0.12561  -0.10467
 Alpha virt. eigenvalues --   -0.05400  -0.05197  -0.05031  -0.03065  -0.02810
 Alpha virt. eigenvalues --   -0.02179  -0.01497  -0.01315  -0.00450  -0.00357
 Alpha virt. eigenvalues --    0.00037   0.00350   0.00834   0.00861   0.00879

  Beta  occ. eigenvalues --  -38.43867 -38.43721 -38.43676 -38.43599 -38.43526
  Beta  occ. eigenvalues --  -38.43052 -38.42949  -2.19716  -2.19558  -2.19485
  Beta  occ. eigenvalues --   -2.19471  -2.19361  -2.18967  -2.18865  -1.13399
  Beta  occ. eigenvalues --   -1.13378  -1.13345  -1.13249  -1.13214  -1.13201
  Beta  occ. eigenvalues --   -1.13171  -1.13150  -1.13139  -1.13128  -1.13124
  Beta  occ. eigenvalues --   -1.13080  -1.13056  -1.13008  -1.12995  -1.12714
  Beta  occ. eigenvalues --   -1.12631  -1.12616  -1.12583  -1.12530  -1.12509
  Beta  occ. eigenvalues --   -0.18055  -0.12750  -0.12291
  Beta virt. eigenvalues --   -0.06623  -0.05384  -0.05151  -0.04979  -0.02290
  Beta virt. eigenvalues --   -0.02091  -0.01406  -0.01215  -0.01183  -0.00461
  Beta virt. eigenvalues --   -0.00410   0.00154   0.00382   0.00852   0.00871

 Mulliken charges and spin densities:
               1          2
     1  Na   0.155768  -0.070634
     2  Na  -0.092056   0.553745
     3  Na   0.077454  -0.073905
     4  Na   0.063512   0.013589
     5  Na  -0.049850  -0.052630
     6  Na  -0.213748   0.693629
     7  Na   0.058919  -0.063794
 Sum of Mulliken charges =  -0.00000   1.00000

 Dipole moment (field-independent basis, Debye):
    X=             -0.1051    Y=             -0.0024    Z=              0.0211  Tot=              0.1073
 Quadrupole moment (field-independent basis, Debye-Ang):
   XX=            -56.7244   YY=            -59.2469   ZZ=            -75.8986
   XY=             -0.4783   XZ=              0.0617   YZ=              0.7085

 Normal termination of Gaussian 16 at Fri Dec  8 06:45:28 2023.
