 Gaussian 16, Revision B.01,
 Gaussian 16:  ES64L-G16RevB.01 20-Dec-2017

 -------------------------
 #P B3LYP/6-311+g(d) force
 -------------------------

 -----
 DPGEN
 -----
 Symbolic Z-matrix:
 Charge =  0 Multiplicity = 2

                         Standard orientation:
 ---------------------------------------------------------------------
 Center     Atomic      Atomic             Coordinates (Angstroms)
 Number     Number       Type             X           Y           Z
 ---------------------------------------------------------------------
      1         11           0        1.074906    2.825363    0.090452
      2         11           0       -2.316479   -1.722660   -0.155568
      3         11           0       -2.631481    1.628261    0.164597
      4         11           0       -0.372308    0.029479   -1.634658
      5         11           0        0.120178   -0.281377    1.790897
      6         11           0        2.897072    0.207674   -0.320101
      7         11           0        1.228112   -2.686741    0.064381
 ---------------------------------------------------------------------

 SCF Done:  E(UB3LYP) =  -1136.13762372     A.U. after   19 cycles

 The electronic state is 2-A.
 Alpha  occ. eigenvalues --  -38.43908 -38.43740 -38.43640 -38.43485 -38.43346
 Alpha  occ. eigenvalues --  -38.43100 -38.43061  -2.19753  -2.19651  -2.19529
 Alpha  occ. eigenvalues --   -2.19327  -2.19232  -2.19077  -2.19075  -1.13448
 Alpha  occ. eigenvalues --   -1.13421  -1.13396  -1.13383  -1.13306  -1.13249
 Alpha  occ. eigenvalues --   -1.13220  -1.13196  -1.13186  -1.12991  -1.12988
 Alpha  occ. eigenvalues --   -1.12964  -1.12953  -1.12888  -1.12862  -1.12778
 Alpha  occ. eigenvalues --   -1.12728  -1.12704  -1.12692  -1.12683  -1.12681
 Alpha  occ. eigenvalues --   -0.19088  -0.13265  -0.12605  -0.10571
 Alpha virt. eigenvalues --   -0.05437  -0.05214  -0.04802  -0.03191  -0.02797
 Alpha virt. eigenvalues --   -0.02240  -0.01398  -0.01187  -0.00316  -0.00253
 Alpha virt. eigenvalues --    0.00036   0.00364   0.00856   0.00883   0.00922

  Beta  occ. eigenvalues --  -38.43903 -38.43730 -38.43631 -38.43483 -38.43340
  Beta  occ. eigenvalues --  -38.43018 -38.42991  -2.19748  -2.19636  -2.19517
  Beta  occ. eigenvalues --   -2.19326  -2.19225  -2.18950  -2.18924  -1.13443
  Beta  occ. eigenvalues --   -1.13406  -1.13384  -1.13367  -1.13269  -1.13245
  Beta  occ. eigenvalues --   -1.13215  -1.13189  -1.13154  -1.12988  -1.12974
  Beta  occ. eigenvalues --   -1.12961  -1.12933  -1.12864  -1.12856  -1.12690
  Beta  occ. eigenvalues --   -1.12633  -1.12609  -1.12593  -1.12585  -1.12574
  Beta  occ. eigenvalues --   -0.18362  -0.13002  -0.12354
  Beta virt. eigenvalues --   -0.06660  -0.05425  -0.05178  -0.04785  -0.02368
  Beta virt. eigenvalues --   -0.02037  -0.01315  -0.01217  -0.01111  -0.00365
  Beta virt. eigenvalues --   -0.00294   0.00162   0.00394   0.00874   0.00917

 Mulliken charges and spin densities:
               1          2
     1  Na  -0.051254  -0.094447
     2  Na   0.374197  -0.072725
     3  Na   0.000781  -0.087473
     4  Na  -0.299182   0.557201
     5  Na  -0.434438   0.762673
     6  Na   0.085800  -0.014640
     7  Na   0.324097  -0.050591
 Sum of Mulliken charges =  -0.00000   1.00000

 Dipole moment (field-independent basis, Debye):
    X=             -0.2139    Y=              0.0814    Z=              0.0758  Tot=              0.2411
 Quadrupole moment (field-independent basis, Debye-Ang):
   XX=            -57.4518   YY=            -60.0412   ZZ=            -75.3718
   XY=             -0.8242   XZ=             -1.2324   YZ=              0.8831

 Normal termination of Gaussian 16 at Thu Dec  7 03:05:13 2023.
