 Gaussian 16, Revision B.01,
 Gaussian 16:  ES64L-G16RevB.01 20-Dec-2017

 -------------------------
 #P B3LYP/6-311+g(d) force
 -------------------------

 -----
 DPGEN
 -----
 Symbolic Z-matrix:
 Charge =  0 Multiplicity = 2

                         Standard orientation:
 ---------------------------------------------------------------------
 Center     Atomic      Atomic             Coordinates (Angstroms)
 Number     Number       Type             X           Y           Z
 ---------------------------------------------------------------------
      1         11           0        0.749095    0.231402   -1.600760
      2         11           0       -0.168749   -0.087689    1.672957
      3         11           0       -0.917767   -2.422670   -0.207697
      4         11           0       -1.335936    2.419015   -0.453226
      5         11           0       -3.744678   -0.454911    0.099782
      6         11           0        2.246696    2.035311    0.531688
      7         11           0        3.171339   -1.720458   -0.042744
 ---------------------------------------------------------------------

 SCF Done:  E(UB3LYP) =  -1136.12834160     A.U. after   21 cycles

 The electronic state is 2-A.
 Alpha  occ. eigenvalues --  -38.45036 -38.44567 -38.43875 -38.43511 -38.43362
 Alpha  occ. eigenvalues --  -38.43217 -38.42904  -2.20805  -2.20337  -2.19736
 Alpha  occ. eigenvalues --   -2.19378  -2.19316  -2.19071  -2.18898  -1.14480
 Alpha  occ. eigenvalues --   -1.14465  -1.14439  -1.14015  -1.13994  -1.13973
 Alpha  occ. eigenvalues --   -1.13432  -1.13408  -1.13345  -1.13172  -1.13057
 Alpha  occ. eigenvalues --   -1.12998  -1.12966  -1.12932  -1.12904  -1.12786
 Alpha  occ. eigenvalues --   -1.12734  -1.12681  -1.12580  -1.12547  -1.12486
 Alpha  occ. eigenvalues --   -0.18523  -0.13282  -0.12046  -0.10211
 Alpha virt. eigenvalues --   -0.06632  -0.05493  -0.04072  -0.03142  -0.02526
 Alpha virt. eigenvalues --   -0.02335  -0.01991  -0.01521  -0.00539  -0.00130
 Alpha virt. eigenvalues --   -0.00062   0.00209   0.00665   0.00769   0.00813

  Beta  occ. eigenvalues --  -38.45040 -38.44567 -38.43856 -38.43501 -38.43290
  Beta  occ. eigenvalues --  -38.43202 -38.42837  -2.20814  -2.20339  -2.19705
  Beta  occ. eigenvalues --   -2.19364  -2.19186  -2.19047  -2.18777  -1.14484
  Beta  occ. eigenvalues --   -1.14465  -1.14446  -1.14009  -1.13988  -1.13976
  Beta  occ. eigenvalues --   -1.13413  -1.13360  -1.13326  -1.13142  -1.13023
  Beta  occ. eigenvalues --   -1.12957  -1.12917  -1.12851  -1.12809  -1.12759
  Beta  occ. eigenvalues --   -1.12698  -1.12667  -1.12499  -1.12459  -1.12395
  Beta  occ. eigenvalues --   -0.17821  -0.13102  -0.11774
  Beta virt. eigenvalues --   -0.06564  -0.06338  -0.05459  -0.04044  -0.02474
  Beta virt. eigenvalues --   -0.02275  -0.01791  -0.01477  -0.00980  -0.00518
  Beta virt. eigenvalues --   -0.00138   0.00084   0.00247   0.00718   0.00782

 Mulliken charges and spin densities:
               1          2
     1  Na  -0.096409   0.607036
     2  Na  -0.229475   0.638977
     3  Na   0.049090  -0.138155
     4  Na   0.079559  -0.016849
     5  Na   0.041509  -0.037184
     6  Na   0.095634   0.042872
     7  Na   0.060091  -0.096697
 Sum of Mulliken charges =  -0.00000   1.00000

 Dipole moment (field-independent basis, Debye):
    X=             -0.1744    Y=             -0.1413    Z=              0.1456  Tot=              0.2675
 Quadrupole moment (field-independent basis, Debye-Ang):
   XX=            -46.0696   YY=            -66.5035   ZZ=            -77.1151
   XY=             -0.7481   XZ=              1.4512   YZ=              0.6962

 Normal termination of Gaussian 16 at Tue Dec  5 18:24:52 2023.
