 Gaussian 16, Revision B.01,
 Gaussian 16:  ES64L-G16RevB.01 20-Dec-2017

 -------------------------
 #P B3LYP/6-311+g(d) force
 -------------------------

 -----
 DPGEN
 -----
 Symbolic Z-matrix:
 Charge =  0 Multiplicity = 2

                         Standard orientation:
 ---------------------------------------------------------------------
 Center     Atomic      Atomic             Coordinates (Angstroms)
 Number     Number       Type             X           Y           Z
 ---------------------------------------------------------------------
      1         11           0       -6.174370   -0.471881   -0.742417
      2         11           0        6.665758   -0.834504   -0.672849
      3         11           0        1.156671    2.364575   -0.379554
      4         11           0        0.090830   -0.714230    1.275935
      5         11           0        3.732430   -0.486474    0.196007
      6         11           0       -2.084824    1.749455    0.450234
      7         11           0       -3.386497   -1.606941   -0.127357
 ---------------------------------------------------------------------

 SCF Done:  E(UB3LYP) =  -1136.11507060     A.U. after   23 cycles

 The electronic state is 2-A.
 Alpha  occ. eigenvalues --  -38.45404 -38.44549 -38.44428 -38.44404 -38.44033
 Alpha  occ. eigenvalues --  -38.43877 -38.43686  -2.21222  -2.20368  -2.20209
 Alpha  occ. eigenvalues --   -2.20206  -2.19875  -2.19735  -2.19506  -1.14913
 Alpha  occ. eigenvalues --   -1.14899  -1.14828  -1.14034  -1.14010  -1.13992
 Alpha  occ. eigenvalues --   -1.13903  -1.13892  -1.13864  -1.13862  -1.13855
 Alpha  occ. eigenvalues --   -1.13843  -1.13547  -1.13539  -1.13497  -1.13406
 Alpha  occ. eigenvalues --   -1.13387  -1.13346  -1.13177  -1.13175  -1.13135
 Alpha  occ. eigenvalues --   -0.16952  -0.14037  -0.12349  -0.10728
 Alpha virt. eigenvalues --   -0.07532  -0.05386  -0.04203  -0.03670  -0.03044
 Alpha virt. eigenvalues --   -0.02686  -0.02235  -0.01598  -0.01399  -0.00923
 Alpha virt. eigenvalues --   -0.00565  -0.00087   0.00176   0.00352   0.00511

  Beta  occ. eigenvalues --  -38.45380 -38.44496 -38.44439 -38.44381 -38.44018
  Beta  occ. eigenvalues --  -38.43806 -38.43680  -2.21181  -2.20271  -2.20229
  Beta  occ. eigenvalues --   -2.20164  -2.19851  -2.19605  -2.19494  -1.14886
  Beta  occ. eigenvalues --   -1.14857  -1.14788  -1.13969  -1.13935  -1.13925
  Beta  occ. eigenvalues --   -1.13906  -1.13877  -1.13876  -1.13876  -1.13825
  Beta  occ. eigenvalues --   -1.13813  -1.13536  -1.13528  -1.13447  -1.13318
  Beta  occ. eigenvalues --   -1.13297  -1.13248  -1.13169  -1.13162  -1.13133
  Beta  occ. eigenvalues --   -0.16280  -0.13914  -0.12142
  Beta virt. eigenvalues --   -0.07315  -0.06990  -0.04866  -0.03970  -0.03485
  Beta virt. eigenvalues --   -0.02710  -0.02436  -0.01723  -0.01531  -0.01246
  Beta virt. eigenvalues --   -0.00627  -0.00162   0.00094   0.00299   0.00536

 Mulliken charges and spin densities:
               1          2
     1  Na   0.524450   0.151186
     2  Na  -0.389332   0.045699
     3  Na   0.456010   0.414522
     4  Na   0.279914   0.583465
     5  Na  -0.422639  -0.278843
     6  Na  -0.269433   0.034460
     7  Na  -0.178970   0.049511
 Sum of Mulliken charges =  -0.00000   1.00000

 Dipole moment (field-independent basis, Debye):
    X=             -0.5257    Y=              0.5890    Z=             -0.2588  Tot=              0.8308
 Quadrupole moment (field-independent basis, Debye-Ang):
   XX=            -50.6756   YY=            -71.1522   ZZ=            -72.1214
   XY=             -2.4163   XZ=             -2.3014   YZ=              1.0950

 Normal termination of Gaussian 16 at Sun Dec  3 20:19:54 2023.
