 Gaussian 16, Revision B.01,
 Gaussian 16:  ES64L-G16RevB.01 20-Dec-2017

 -------------------------
 #P B3LYP/6-311+g(d) force
 -------------------------

 -----
 DPGEN
 -----
 Symbolic Z-matrix:
 Charge =  0 Multiplicity = 2

                         Standard orientation:
 ---------------------------------------------------------------------
 Center     Atomic      Atomic             Coordinates (Angstroms)
 Number     Number       Type             X           Y           Z
 ---------------------------------------------------------------------
      1         11           0       -1.448442   -1.956603   -1.016651
      2         11           0       -4.900644   -0.830802    0.649629
      3         11           0       -2.588664    1.232672    0.531812
      4         11           0        4.403885   -1.160426    1.042469
      5         11           0       -0.381167    3.272521   -0.466046
      6         11           0        1.640792   -2.735426   -0.456752
      7         11           0        3.274241    2.178065   -0.284461
 ---------------------------------------------------------------------

 SCF Done:  E(UB3LYP) =  -1136.11329766     A.U. after   22 cycles

 The electronic state is 2-A.
 Alpha  occ. eigenvalues --  -38.45378 -38.44614 -38.44562 -38.44559 -38.44262
 Alpha  occ. eigenvalues --  -38.43900 -38.43384  -2.21092  -2.20425  -2.20395
 Alpha  occ. eigenvalues --   -2.20339  -2.20133  -2.19704  -2.19193  -1.14791
 Alpha  occ. eigenvalues --   -1.14768  -1.14715  -1.14108  -1.14095  -1.14094
 Alpha  occ. eigenvalues --   -1.14041  -1.14030  -1.14005  -1.14003  -1.13983
 Alpha  occ. eigenvalues --   -1.13975  -1.13813  -1.13799  -1.13763  -1.13380
 Alpha  occ. eigenvalues --   -1.13375  -1.13335  -1.12868  -1.12845  -1.12816
 Alpha  occ. eigenvalues --   -0.16239  -0.14084  -0.12712  -0.11214
 Alpha virt. eigenvalues --   -0.07057  -0.05242  -0.04202  -0.03756  -0.03207
 Alpha virt. eigenvalues --   -0.02383  -0.02032  -0.01524  -0.01277  -0.00837
 Alpha virt. eigenvalues --   -0.00480  -0.00124   0.00034   0.00483   0.00595

  Beta  occ. eigenvalues --  -38.45385 -38.44562 -38.44526 -38.44482 -38.44242
  Beta  occ. eigenvalues --  -38.43879 -38.43350  -2.21107  -2.20334  -2.20271
  Beta  occ. eigenvalues --   -2.20253  -2.20105  -2.19670  -2.19131  -1.14803
  Beta  occ. eigenvalues --   -1.14780  -1.14713  -1.14044  -1.14035  -1.13998
  Beta  occ. eigenvalues --   -1.13958  -1.13956  -1.13945  -1.13933  -1.13922
  Beta  occ. eigenvalues --   -1.13911  -1.13789  -1.13777  -1.13706  -1.13358
  Beta  occ. eigenvalues --   -1.13351  -1.13287  -1.12820  -1.12802  -1.12780
  Beta  occ. eigenvalues --   -0.15594  -0.13510  -0.12126
  Beta virt. eigenvalues --   -0.07840  -0.07058  -0.04736  -0.03897  -0.03562
  Beta virt. eigenvalues --   -0.02768  -0.02167  -0.01799  -0.01210  -0.01003
  Beta virt. eigenvalues --   -0.00625  -0.00229   0.00044   0.00220   0.00569

 Mulliken charges and spin densities:
               1          2
     1  Na  -0.018891   0.165780
     2  Na   0.999044   0.298255
     3  Na  -1.412094   0.314128
     4  Na   0.483673   0.235694
     5  Na   0.658164  -0.023945
     6  Na  -0.388370  -0.024903
     7  Na  -0.321525   0.034990
 Sum of Mulliken charges =  -0.00000   1.00000

 Dipole moment (field-independent basis, Debye):
    X=             -0.1455    Y=             -0.4573    Z=              0.1510  Tot=              0.5031
 Quadrupole moment (field-independent basis, Debye-Ang):
   XX=            -55.8509   YY=            -69.7483   ZZ=            -70.7100
   XY=              2.7975   XZ=              1.0165   YZ=             -1.5669

 Normal termination of Gaussian 16 at Sun Dec  3 22:49:17 2023.
