 Gaussian 16, Revision B.01,
 Gaussian 16:  ES64L-G16RevB.01 20-Dec-2017

 -------------------------
 #P B3LYP/6-311+g(d) force
 -------------------------

 -----
 DPGEN
 -----
 Symbolic Z-matrix:
 Charge =  0 Multiplicity = 2

                         Standard orientation:
 ---------------------------------------------------------------------
 Center     Atomic      Atomic             Coordinates (Angstroms)
 Number     Number       Type             X           Y           Z
 ---------------------------------------------------------------------
      1         11           0       -3.266489   -1.975700    1.420326
      2         11           0        1.882263    1.379181    1.120030
      3         11           0        2.101485   -1.944614   -0.796947
      4         11           0       -3.318328    1.389192   -0.401772
      5         11           0       -0.724554   -3.122700   -0.878119
      6         11           0        4.804219    0.589655    0.246903
      7         11           0       -1.478596    3.684986   -0.710422
 ---------------------------------------------------------------------

 SCF Done:  E(UB3LYP) =  -1136.11303425     A.U. after   19 cycles

 The electronic state is 2-A.
 Alpha  occ. eigenvalues --  -38.45701 -38.44835 -38.44298 -38.44216 -38.43970
 Alpha  occ. eigenvalues --  -38.43501 -38.43408  -2.21480  -2.20650  -2.20106
 Alpha  occ. eigenvalues --   -2.20063  -2.19767  -2.19331  -2.19231  -1.15162
 Alpha  occ. eigenvalues --   -1.15147  -1.15109  -1.14311  -1.14301  -1.14272
 Alpha  occ. eigenvalues --   -1.13819  -1.13776  -1.13753  -1.13753  -1.13723
 Alpha  occ. eigenvalues --   -1.13676  -1.13418  -1.13402  -1.13387  -1.12996
 Alpha  occ. eigenvalues --   -1.12967  -1.12956  -1.12919  -1.12893  -1.12861
 Alpha  occ. eigenvalues --   -0.16074  -0.14022  -0.12925  -0.10780
 Alpha virt. eigenvalues --   -0.06619  -0.05303  -0.04421  -0.03794  -0.03049
 Alpha virt. eigenvalues --   -0.02745  -0.01707  -0.01471  -0.01234  -0.00899
 Alpha virt. eigenvalues --   -0.00419  -0.00251   0.00106   0.00476   0.00539

  Beta  occ. eigenvalues --  -38.45695 -38.44808 -38.44295 -38.44154 -38.43884
  Beta  occ. eigenvalues --  -38.43473 -38.43395  -2.21471  -2.20600  -2.20106
  Beta  occ. eigenvalues --   -2.19953  -2.19607  -2.19278  -2.19216  -1.15155
  Beta  occ. eigenvalues --   -1.15139  -1.15095  -1.14270  -1.14266  -1.14243
  Beta  occ. eigenvalues --   -1.13800  -1.13779  -1.13743  -1.13677  -1.13651
  Beta  occ. eigenvalues --   -1.13586  -1.13308  -1.13290  -1.13286  -1.12963
  Beta  occ. eigenvalues --   -1.12931  -1.12920  -1.12897  -1.12889  -1.12820
  Beta  occ. eigenvalues --   -0.15642  -0.13434  -0.12270
  Beta virt. eigenvalues --   -0.07419  -0.06584  -0.05080  -0.03941  -0.03594
  Beta virt. eigenvalues --   -0.02642  -0.02491  -0.01502  -0.01255  -0.01051
  Beta virt. eigenvalues --   -0.00521  -0.00257   0.00018   0.00319   0.00547

 Mulliken charges and spin densities:
               1          2
     1  Na   0.196371   0.434281
     2  Na  -0.648697   0.040670
     3  Na   0.071786   0.336316
     4  Na  -0.438288   0.068793
     5  Na  -0.243353  -0.184260
     6  Na   0.687310   0.187492
     7  Na   0.374870   0.116709
 Sum of Mulliken charges =  -0.00000   1.00000

 Dipole moment (field-independent basis, Debye):
    X=              2.1968    Y=              0.5739    Z=              0.3077  Tot=              2.2913
 Quadrupole moment (field-independent basis, Debye-Ang):
   XX=            -57.1866   YY=            -72.3611   ZZ=            -70.1958
   XY=              2.0837   XZ=             -1.1075   YZ=              0.0823

 Normal termination of Gaussian 16 at Mon Dec  4 03:52:25 2023.
