 Gaussian 16, Revision B.01,
 Gaussian 16:  ES64L-G16RevB.01 20-Dec-2017

 -------------------------
 #P B3LYP/6-311+g(d) force
 -------------------------

 -----
 DPGEN
 -----
 Symbolic Z-matrix:
 Charge =  0 Multiplicity = 2

                         Standard orientation:
 ---------------------------------------------------------------------
 Center     Atomic      Atomic             Coordinates (Angstroms)
 Number     Number       Type             X           Y           Z
 ---------------------------------------------------------------------
      1         11           0        2.751014    1.959282   -0.332456
      2         11           0       -2.827143    2.259572   -0.063751
      3         11           0        3.116871   -1.028501    0.365590
      4         11           0        0.485938   -2.213013   -0.410745
      5         11           0       -0.631482    0.103267   -1.601793
      6         11           0        0.017919    0.749389    1.615435
      7         11           0       -2.913118   -1.829996    0.427719
 ---------------------------------------------------------------------

 SCF Done:  E(UB3LYP) =  -1136.11647252     A.U. after   24 cycles

 The electronic state is 2-A.
 Alpha  occ. eigenvalues --  -38.44962 -38.44711 -38.44625 -38.44310 -38.43779
 Alpha  occ. eigenvalues --  -38.43122 -38.42830  -2.20745  -2.20527  -2.20513
 Alpha  occ. eigenvalues --   -2.20091  -2.19659  -2.19113  -2.18802  -1.14418
 Alpha  occ. eigenvalues --   -1.14391  -1.14383  -1.14296  -1.14218  -1.14184
 Alpha  occ. eigenvalues --   -1.14166  -1.14144  -1.14086  -1.13767  -1.13745
 Alpha  occ. eigenvalues --   -1.13736  -1.13384  -1.13297  -1.13262  -1.12953
 Alpha  occ. eigenvalues --   -1.12750  -1.12698  -1.12451  -1.12433  -1.12401
 Alpha  occ. eigenvalues --   -0.18560  -0.13816  -0.11768  -0.10069
 Alpha virt. eigenvalues --   -0.06649  -0.06361  -0.03726  -0.03399  -0.02512
 Alpha virt. eigenvalues --   -0.02329  -0.02077  -0.01631  -0.00768  -0.00128
 Alpha virt. eigenvalues --    0.00022   0.00218   0.00558   0.00601   0.00704

  Beta  occ. eigenvalues --  -38.44945 -38.44711 -38.44621 -38.44309 -38.43729
  Beta  occ. eigenvalues --  -38.43042 -38.42812  -2.20715  -2.20529  -2.20507
  Beta  occ. eigenvalues --   -2.20091  -2.19566  -2.18970  -2.18776  -1.14384
  Beta  occ. eigenvalues --   -1.14371  -1.14363  -1.14299  -1.14216  -1.14178
  Beta  occ. eigenvalues --   -1.14158  -1.14120  -1.14087  -1.13755  -1.13746
  Beta  occ. eigenvalues --   -1.13734  -1.13317  -1.13225  -1.13195  -1.12865
  Beta  occ. eigenvalues --   -1.12646  -1.12595  -1.12434  -1.12398  -1.12343
  Beta  occ. eigenvalues --   -0.17872  -0.13609  -0.11548
  Beta virt. eigenvalues --   -0.06543  -0.06316  -0.06252  -0.03676  -0.02752
  Beta virt. eigenvalues --   -0.02280  -0.01796  -0.01724  -0.00944  -0.00771
  Beta virt. eigenvalues --   -0.00036   0.00126   0.00269   0.00595   0.00678

 Mulliken charges and spin densities:
               1          2
     1  Na   0.267711   0.062437
     2  Na   0.013005  -0.011911
     3  Na   0.140222  -0.005384
     4  Na   0.144805   0.218983
     5  Na  -0.015693   0.248133
     6  Na  -0.492541   0.397097
     7  Na  -0.057510   0.090645
 Sum of Mulliken charges =  -0.00000   1.00000

 Dipole moment (field-independent basis, Debye):
    X=             -0.2862    Y=              0.3904    Z=              0.2104  Tot=              0.5278
 Quadrupole moment (field-independent basis, Debye-Ang):
   XX=            -47.1522   YY=            -66.6972   ZZ=            -77.2635
   XY=              1.1682   XZ=             -1.1334   YZ=             -2.1758

 Normal termination of Gaussian 16 at Tue Dec  5 10:47:05 2023.
