 Gaussian 16, Revision B.01,
 Gaussian 16:  ES64L-G16RevB.01 20-Dec-2017

 -------------------------
 #P B3LYP/6-311+g(d) force
 -------------------------

 -----
 DPGEN
 -----
 Symbolic Z-matrix:
 Charge =  0 Multiplicity = 2

                         Standard orientation:
 ---------------------------------------------------------------------
 Center     Atomic      Atomic             Coordinates (Angstroms)
 Number     Number       Type             X           Y           Z
 ---------------------------------------------------------------------
      1         11           0        0.687521   -0.151514    1.775652
      2         11           0        1.183587    2.917631    0.395480
      3         11           0       -3.054871    1.486588   -0.534760
      4         11           0       -2.082226   -1.581609    0.730084
      5         11           0       -0.296263    0.156332   -1.273705
      6         11           0        0.668314   -2.753242   -0.441537
      7         11           0        2.893938   -0.074185   -0.651214
 ---------------------------------------------------------------------

 SCF Done:  E(UB3LYP) =  -1136.13222486     A.U. after   19 cycles

 The electronic state is 2-A.
 Alpha  occ. eigenvalues --  -38.43853 -38.43845 -38.43757 -38.43382 -38.43295
 Alpha  occ. eigenvalues --  -38.43159 -38.42797  -2.19743  -2.19672  -2.19582
 Alpha  occ. eigenvalues --   -2.19321  -2.19293  -2.19088  -2.18890  -1.13441
 Alpha  occ. eigenvalues --   -1.13421  -1.13358  -1.13351  -1.13327  -1.13295
 Alpha  occ. eigenvalues --   -1.13279  -1.13231  -1.13215  -1.13076  -1.13004
 Alpha  occ. eigenvalues --   -1.12978  -1.12940  -1.12924  -1.12872  -1.12796
 Alpha  occ. eigenvalues --   -1.12726  -1.12712  -1.12583  -1.12512  -1.12504
 Alpha  occ. eigenvalues --   -0.19130  -0.13199  -0.12502  -0.10751
 Alpha virt. eigenvalues --   -0.05560  -0.05065  -0.04583  -0.03159  -0.02776
 Alpha virt. eigenvalues --   -0.02181  -0.01481  -0.01278  -0.00368  -0.00008
 Alpha virt. eigenvalues --    0.00086   0.00327   0.00785   0.00899   0.00900

  Beta  occ. eigenvalues --  -38.43844 -38.43823 -38.43746 -38.43361 -38.43217
  Beta  occ. eigenvalues --  -38.43148 -38.42750  -2.19706  -2.19658  -2.19563
  Beta  occ. eigenvalues --   -2.19287  -2.19151  -2.19072  -2.18808  -1.13418
  Beta  occ. eigenvalues --   -1.13382  -1.13336  -1.13325  -1.13310  -1.13283
  Beta  occ. eigenvalues --   -1.13258  -1.13217  -1.13201  -1.13041  -1.12963
  Beta  occ. eigenvalues --   -1.12910  -1.12891  -1.12832  -1.12781  -1.12767
  Beta  occ. eigenvalues --   -1.12713  -1.12672  -1.12515  -1.12458  -1.12439
  Beta  occ. eigenvalues --   -0.18430  -0.12932  -0.12195
  Beta virt. eigenvalues --   -0.06867  -0.05461  -0.04991  -0.04493  -0.02476
  Beta virt. eigenvalues --   -0.02127  -0.01432  -0.01253  -0.01076  -0.00296
  Beta virt. eigenvalues --    0.00028   0.00165   0.00381   0.00805   0.00919

 Mulliken charges and spin densities:
               1          2
     1  Na  -0.051998   0.455079
     2  Na  -0.140988   0.025045
     3  Na   0.000091   0.002897
     4  Na   0.225857   0.205854
     5  Na  -0.134433   0.219445
     6  Na   0.088687   0.070514
     7  Na   0.012784   0.021165
 Sum of Mulliken charges =  -0.00000   1.00000

 Dipole moment (field-independent basis, Debye):
    X=              0.2324    Y=              0.3128    Z=              0.1779  Tot=              0.4284
 Quadrupole moment (field-independent basis, Debye-Ang):
   XX=            -57.9909   YY=            -59.9945   ZZ=            -73.8471
   XY=             -0.2079   XZ=             -1.9294   YZ=              0.4276

 Normal termination of Gaussian 16 at Thu Dec  7 04:10:36 2023.
