 Gaussian 16, Revision B.01,
 Gaussian 16:  ES64L-G16RevB.01 20-Dec-2017

 -------------------------
 #P B3LYP/6-311+g(d) force
 -------------------------

 -----
 DPGEN
 -----
 Symbolic Z-matrix:
 Charge =  0 Multiplicity = 2

                         Standard orientation:
 ---------------------------------------------------------------------
 Center     Atomic      Atomic             Coordinates (Angstroms)
 Number     Number       Type             X           Y           Z
 ---------------------------------------------------------------------
      1         11           0       -2.484738    1.804606    0.023102
      2         11           0        0.633609    2.617632   -0.117590
      3         11           0        0.121816   -0.670200    2.098408
      4         11           0        1.538530   -2.394332   -0.745855
      5         11           0       -2.837987   -1.794212    0.117441
      6         11           0       -0.389509   -0.001775   -1.591203
      7         11           0        3.418278    0.438282    0.215698
 ---------------------------------------------------------------------

 SCF Done:  E(UB3LYP) =  -1136.13198892     A.U. after   19 cycles

 The electronic state is 2-A.
 Alpha  occ. eigenvalues --  -38.44620 -38.44207 -38.43949 -38.43804 -38.43676
 Alpha  occ. eigenvalues --  -38.43197 -38.42871  -2.20406  -2.20002  -2.19787
 Alpha  occ. eigenvalues --   -2.19674  -2.19524  -2.19195  -2.18753  -1.14076
 Alpha  occ. eigenvalues --   -1.14067  -1.14048  -1.13676  -1.13661  -1.13648
 Alpha  occ. eigenvalues --   -1.13455  -1.13430  -1.13395  -1.13378  -1.13339
 Alpha  occ. eigenvalues --   -1.13298  -1.13240  -1.13169  -1.13138  -1.12881
 Alpha  occ. eigenvalues --   -1.12832  -1.12819  -1.12446  -1.12413  -1.12375
 Alpha  occ. eigenvalues --   -0.18403  -0.13205  -0.12150  -0.10732
 Alpha virt. eigenvalues --   -0.06211  -0.05356  -0.04222  -0.03306  -0.02840
 Alpha virt. eigenvalues --   -0.02540  -0.01932  -0.01202  -0.00512  -0.00141
 Alpha virt. eigenvalues --   -0.00051   0.00309   0.00711   0.00750   0.00805

  Beta  occ. eigenvalues --  -38.44619 -38.44206 -38.43864 -38.43801 -38.43650
  Beta  occ. eigenvalues --  -38.43133 -38.42867  -2.20406  -2.20003  -2.19671
  Beta  occ. eigenvalues --   -2.19628  -2.19479  -2.19078  -2.18749  -1.14070
  Beta  occ. eigenvalues --   -1.14059  -1.14051  -1.13669  -1.13653  -1.13650
  Beta  occ. eigenvalues --   -1.13372  -1.13349  -1.13330  -1.13320  -1.13293
  Beta  occ. eigenvalues --   -1.13279  -1.13198  -1.13124  -1.13112  -1.12800
  Beta  occ. eigenvalues --   -1.12750  -1.12737  -1.12438  -1.12401  -1.12365
  Beta  occ. eigenvalues --   -0.17708  -0.13020  -0.11896
  Beta virt. eigenvalues --   -0.06850  -0.06095  -0.05338  -0.04150  -0.02619
  Beta virt. eigenvalues --   -0.02117  -0.01818  -0.01505  -0.01126  -0.00525
  Beta virt. eigenvalues --   -0.00155   0.00105   0.00338   0.00776   0.00805

 Mulliken charges and spin densities:
               1          2
     1  Na   0.140996   0.047480
     2  Na   0.027039   0.018253
     3  Na  -0.580555   0.687248
     4  Na   0.199436  -0.000771
     5  Na   0.164370  -0.020254
     6  Na  -0.002837   0.226626
     7  Na   0.051549   0.041417
 Sum of Mulliken charges =  -0.00000   1.00000

 Dipole moment (field-independent basis, Debye):
    X=              0.0215    Y=             -0.2879    Z=              0.3000  Tot=              0.4164
 Quadrupole moment (field-independent basis, Debye-Ang):
   XX=            -52.0014   YY=            -66.6879   ZZ=            -74.4902
   XY=              0.6728   XZ=             -0.3929   YZ=              1.3160

 Normal termination of Gaussian 16 at Fri Dec  8 03:42:12 2023.
