 Gaussian 16, Revision B.01,
 Gaussian 16:  ES64L-G16RevB.01 20-Dec-2017

 -------------------------
 #P B3LYP/6-311+g(d) force
 -------------------------

 -----
 DPGEN
 -----
 Symbolic Z-matrix:
 Charge =  0 Multiplicity = 2

                         Standard orientation:
 ---------------------------------------------------------------------
 Center     Atomic      Atomic             Coordinates (Angstroms)
 Number     Number       Type             X           Y           Z
 ---------------------------------------------------------------------
      1         11           0       -1.361007    2.578567   -0.293599
      2         11           0       -0.003920   -0.110686   -1.425629
      3         11           0        2.860698   -1.224946   -0.177330
      4         11           0       -0.635422   -2.748991   -0.119707
      5         11           0        2.113244    1.894759    0.015165
      6         11           0        0.081454    0.023866    1.947217
      7         11           0       -3.055047   -0.412569    0.053882
 ---------------------------------------------------------------------

 SCF Done:  E(UB3LYP) =  -1136.13693017     A.U. after   19 cycles

 The electronic state is 2-A.
 Alpha  occ. eigenvalues --  -38.44032 -38.43907 -38.43500 -38.43287 -38.43240
 Alpha  occ. eigenvalues --  -38.43219 -38.42790  -2.19893  -2.19770  -2.19410
 Alpha  occ. eigenvalues --   -2.19185  -2.19182  -2.19091  -2.18888  -1.13568
 Alpha  occ. eigenvalues --   -1.13554  -1.13537  -1.13464  -1.13430  -1.13410
 Alpha  occ. eigenvalues --   -1.13108  -1.13078  -1.13034  -1.12953  -1.12875
 Alpha  occ. eigenvalues --   -1.12839  -1.12803  -1.12792  -1.12791  -1.12788
 Alpha  occ. eigenvalues --   -1.12739  -1.12722  -1.12561  -1.12510  -1.12490
 Alpha  occ. eigenvalues --   -0.19209  -0.13337  -0.12531  -0.10593
 Alpha virt. eigenvalues --   -0.05662  -0.05089  -0.04585  -0.03141  -0.02684
 Alpha virt. eigenvalues --   -0.02277  -0.01614  -0.01077  -0.00255  -0.00204
 Alpha virt. eigenvalues --    0.00030   0.00356   0.00820   0.00907   0.00923

  Beta  occ. eigenvalues --  -38.44028 -38.43901 -38.43492 -38.43280 -38.43212
  Beta  occ. eigenvalues --  -38.43144 -38.42730  -2.19889  -2.19764  -2.19401
  Beta  occ. eigenvalues --   -2.19175  -2.19081  -2.19006  -2.18782  -1.13564
  Beta  occ. eigenvalues --   -1.13541  -1.13529  -1.13461  -1.13412  -1.13398
  Beta  occ. eigenvalues --   -1.13103  -1.13036  -1.13032  -1.12936  -1.12811
  Beta  occ. eigenvalues --   -1.12794  -1.12787  -1.12748  -1.12722  -1.12714
  Beta  occ. eigenvalues --   -1.12669  -1.12663  -1.12480  -1.12437  -1.12413
  Beta  occ. eigenvalues --   -0.18479  -0.13084  -0.12259
  Beta virt. eigenvalues --   -0.06648  -0.05637  -0.05086  -0.04573  -0.02323
  Beta virt. eigenvalues --   -0.01914  -0.01531  -0.01201  -0.01014  -0.00308
  Beta virt. eigenvalues --   -0.00249   0.00165   0.00386   0.00866   0.00905

 Mulliken charges and spin densities:
               1          2
     1  Na   0.207226  -0.012771
     2  Na  -0.772025   0.326102
     3  Na   0.239343  -0.034923
     4  Na   0.282411  -0.049325
     5  Na   0.362731   0.035959
     6  Na  -0.537790   0.733180
     7  Na   0.218104   0.001779
 Sum of Mulliken charges =  -0.00000   1.00000

 Dipole moment (field-independent basis, Debye):
    X=             -0.0262    Y=             -0.1001    Z=              0.2326  Tot=              0.2546
 Quadrupole moment (field-independent basis, Debye-Ang):
   XX=            -54.3927   YY=            -62.3274   ZZ=            -75.4593
   XY=             -0.4533   XZ=             -0.3544   YZ=             -0.2847

 Normal termination of Gaussian 16 at Thu Dec  7 23:25:38 2023.
