 Gaussian 16, Revision B.01,
 Gaussian 16:  ES64L-G16RevB.01 20-Dec-2017

 -------------------------
 #P B3LYP/6-311+g(d) force
 -------------------------

 -----
 DPGEN
 -----
 Symbolic Z-matrix:
 Charge =  0 Multiplicity = 2

                         Standard orientation:
 ---------------------------------------------------------------------
 Center     Atomic      Atomic             Coordinates (Angstroms)
 Number     Number       Type             X           Y           Z
 ---------------------------------------------------------------------
      1         11           0       -0.042257    0.137964   -1.799422
      2         11           0       -0.569018   -1.935120   -0.151863
      3         11           0       -2.685120   -0.217315    0.065760
      4         11           0       -0.966607    1.884676    0.078274
      5         11           0        0.184712   -0.150973    1.931548
      6         11           0        1.894659    1.530497   -0.015314
      7         11           0        2.183631   -1.249729   -0.108985
 ---------------------------------------------------------------------

 SCF Done:  E(UB3LYP) =  -1136.07841999     A.U. after   19 cycles

 The electronic state is 2-A.
 Alpha  occ. eigenvalues --  -38.44506 -38.44350 -38.44244 -38.43684 -38.43480
 Alpha  occ. eigenvalues --  -38.43422 -38.43388  -2.20769  -2.20514  -2.20324
 Alpha  occ. eigenvalues --   -2.19796  -2.19644  -2.19604  -2.19568  -1.14593
 Alpha  occ. eigenvalues --   -1.14527  -1.14378  -1.14281  -1.14177  -1.14161
 Alpha  occ. eigenvalues --   -1.14128  -1.14087  -1.13896  -1.13631  -1.13589
 Alpha  occ. eigenvalues --   -1.13412  -1.13403  -1.13260  -1.13239  -1.13215
 Alpha  occ. eigenvalues --   -1.13196  -1.13170  -1.13148  -1.13121  -1.13032
 Alpha  occ. eigenvalues --   -0.21764  -0.14055  -0.12688  -0.12528
 Alpha virt. eigenvalues --   -0.05310  -0.04204  -0.03923  -0.03867  -0.03175
 Alpha virt. eigenvalues --   -0.03007  -0.01156  -0.00383  -0.00147   0.00333
 Alpha virt. eigenvalues --    0.00768   0.00853   0.01046   0.01170   0.01251

  Beta  occ. eigenvalues --  -38.44409 -38.44250 -38.44237 -38.43673 -38.43468
  Beta  occ. eigenvalues --  -38.43401 -38.43371  -2.20595  -2.20333  -2.20317
  Beta  occ. eigenvalues --   -2.19781  -2.19617  -2.19586  -2.19548  -1.14496
  Beta  occ. eigenvalues --   -1.14400  -1.14262  -1.14181  -1.14131  -1.14103
  Beta  occ. eigenvalues --   -1.14043  -1.13991  -1.13847  -1.13628  -1.13577
  Beta  occ. eigenvalues --   -1.13403  -1.13341  -1.13236  -1.13179  -1.13160
  Beta  occ. eigenvalues --   -1.13147  -1.13141  -1.13116  -1.13097  -1.13027
  Beta  occ. eigenvalues --   -0.20896  -0.13675  -0.12301
  Beta virt. eigenvalues --   -0.08323  -0.05334  -0.04197  -0.03779  -0.02923
  Beta virt. eigenvalues --   -0.02253  -0.01984  -0.01074  -0.00349   0.00014
  Beta virt. eigenvalues --    0.00356   0.00777   0.00828   0.01079   0.01164

 Mulliken charges and spin densities:
               1          2
     1  Na  -0.054565   0.451455
     2  Na   0.095358   0.031481
     3  Na  -0.128429  -0.060083
     4  Na   0.106243   0.056136
     5  Na  -0.186740   0.526064
     6  Na   0.076000   0.012477
     7  Na   0.092134  -0.017530
 Sum of Mulliken charges =  -0.00000   1.00000

 Dipole moment (field-independent basis, Debye):
    X=              0.0195    Y=              0.0118    Z=              0.2588  Tot=              0.2598
 Quadrupole moment (field-independent basis, Debye-Ang):
   XX=            -59.2605   YY=            -72.1682   ZZ=            -66.8893
   XY=              0.0450   XZ=             -0.4654   YZ=              0.4524

 Normal termination of Gaussian 16 at Fri Dec  8 17:10:06 2023.
