 Gaussian 16, Revision B.01,
 Gaussian 16:  ES64L-G16RevB.01 20-Dec-2017

 -------------------------
 #P B3LYP/6-311+g(d) force
 -------------------------

 -----
 DPGEN
 -----
 Symbolic Z-matrix:
 Charge =  0 Multiplicity = 2

                         Standard orientation:
 ---------------------------------------------------------------------
 Center     Atomic      Atomic             Coordinates (Angstroms)
 Number     Number       Type             X           Y           Z
 ---------------------------------------------------------------------
      1         11           0        2.709867    1.099632   -0.175061
      2         11           0        2.455821   -2.054284    0.301654
      3         11           0       -1.700878   -2.446586   -0.226900
      4         11           0       -0.453728   -0.015079    1.871698
      5         11           0       -0.075669    2.859197    0.027521
      6         11           0       -0.109800   -0.115078   -1.798375
      7         11           0       -2.825612    0.672197   -0.000537
 ---------------------------------------------------------------------

 SCF Done:  E(UB3LYP) =  -1136.13676661     A.U. after   20 cycles

 The electronic state is 2-A.
 Alpha  occ. eigenvalues --  -38.43892 -38.43808 -38.43647 -38.43622 -38.43508
 Alpha  occ. eigenvalues --  -38.43353 -38.42984  -2.19816  -2.19620  -2.19524
 Alpha  occ. eigenvalues --   -2.19493  -2.19459  -2.19319  -2.18867  -1.13544
 Alpha  occ. eigenvalues --   -1.13488  -1.13437  -1.13333  -1.13284  -1.13259
 Alpha  occ. eigenvalues --   -1.13204  -1.13197  -1.13182  -1.13166  -1.13146
 Alpha  occ. eigenvalues --   -1.13122  -1.13118  -1.13081  -1.13065  -1.12989
 Alpha  occ. eigenvalues --   -1.12939  -1.12938  -1.12541  -1.12528  -1.12509
 Alpha  occ. eigenvalues --   -0.18980  -0.13340  -0.12376  -0.10877
 Alpha virt. eigenvalues --   -0.05542  -0.05216  -0.04585  -0.03332  -0.02860
 Alpha virt. eigenvalues --   -0.02555  -0.01387  -0.01093  -0.00346  -0.00141
 Alpha virt. eigenvalues --   -0.00004   0.00368   0.00849   0.00879   0.00918

  Beta  occ. eigenvalues --  -38.43882 -38.43805 -38.43644 -38.43613 -38.43425
  Beta  occ. eigenvalues --  -38.43273 -38.42980  -2.19802  -2.19617  -2.19521
  Beta  occ. eigenvalues --   -2.19482  -2.19308  -2.19174  -2.18863  -1.13529
  Beta  occ. eigenvalues --   -1.13445  -1.13430  -1.13334  -1.13267  -1.13258
  Beta  occ. eigenvalues --   -1.13193  -1.13182  -1.13168  -1.13144  -1.13128
  Beta  occ. eigenvalues --   -1.13112  -1.13029  -1.12975  -1.12959  -1.12895
  Beta  occ. eigenvalues --   -1.12836  -1.12832  -1.12540  -1.12516  -1.12490
  Beta  occ. eigenvalues --   -0.18233  -0.13093  -0.12122
  Beta virt. eigenvalues --   -0.06953  -0.05494  -0.05178  -0.04568  -0.02528
  Beta virt. eigenvalues --   -0.02090  -0.01519  -0.01291  -0.01018  -0.00395
  Beta virt. eigenvalues --   -0.00191   0.00129   0.00390   0.00874   0.00907

 Mulliken charges and spin densities:
               1          2
     1  Na   0.037195  -0.048406
     2  Na  -0.070170  -0.077774
     3  Na   0.110688  -0.100490
     4  Na  -0.418482   0.743796
     5  Na   0.059223  -0.090863
     6  Na  -0.221785   0.586171
     7  Na   0.503332  -0.012434
 Sum of Mulliken charges =  -0.00000   1.00000

 Dipole moment (field-independent basis, Debye):
    X=             -0.1313    Y=             -0.2373    Z=              0.0357  Tot=              0.2736
 Quadrupole moment (field-independent basis, Debye-Ang):
   XX=            -58.3300   YY=            -62.2834   ZZ=            -73.7474
   XY=             -0.0803   XZ=              0.6457   YZ=             -0.4764

 Normal termination of Gaussian 16 at Thu Dec  7 14:35:59 2023.
