 Gaussian 16, Revision B.01,
 Gaussian 16:  ES64L-G16RevB.01 20-Dec-2017

 -------------------------
 #P B3LYP/6-311+g(d) force
 -------------------------

 -----
 DPGEN
 -----
 Symbolic Z-matrix:
 Charge =  0 Multiplicity = 2

                         Standard orientation:
 ---------------------------------------------------------------------
 Center     Atomic      Atomic             Coordinates (Angstroms)
 Number     Number       Type             X           Y           Z
 ---------------------------------------------------------------------
      1         11           0       -0.143854    0.370512   -1.490470
      2         11           0        3.332504    1.137125   -0.007851
      3         11           0       -1.411699   -2.429507   -0.682391
      4         11           0       -3.359277    0.496754    0.042829
      5         11           0        2.322564   -2.056900   -0.025100
      6         11           0       -0.432071   -0.363040    2.282791
      7         11           0       -0.308166    2.845056   -0.119810
 ---------------------------------------------------------------------

 SCF Done:  E(UB3LYP) =  -1136.12842433     A.U. after   19 cycles

 The electronic state is 2-A.
 Alpha  occ. eigenvalues --  -38.44924 -38.44537 -38.44019 -38.43720 -38.43371
 Alpha  occ. eigenvalues --  -38.43343 -38.43246  -2.20719  -2.20312  -2.19849
 Alpha  occ. eigenvalues --   -2.19526  -2.19348  -2.19228  -2.19103  -1.14394
 Alpha  occ. eigenvalues --   -1.14373  -1.14361  -1.13988  -1.13979  -1.13946
 Alpha  occ. eigenvalues --   -1.13501  -1.13476  -1.13466  -1.13257  -1.13200
 Alpha  occ. eigenvalues --   -1.13194  -1.13166  -1.13025  -1.12943  -1.12866
 Alpha  occ. eigenvalues --   -1.12841  -1.12808  -1.12772  -1.12748  -1.12721
 Alpha  occ. eigenvalues --   -0.18203  -0.13110  -0.12039  -0.10760
 Alpha virt. eigenvalues --   -0.06407  -0.05218  -0.04293  -0.03207  -0.02867
 Alpha virt. eigenvalues --   -0.02607  -0.02067  -0.01135  -0.00467  -0.00407
 Alpha virt. eigenvalues --   -0.00082   0.00295   0.00694   0.00754   0.00818

  Beta  occ. eigenvalues --  -38.44921 -38.44540 -38.43913 -38.43720 -38.43367
  Beta  occ. eigenvalues --  -38.43291 -38.43225  -2.20717  -2.20318  -2.19653
  Beta  occ. eigenvalues --   -2.19528  -2.19262  -2.19215  -2.19070  -1.14375
  Beta  occ. eigenvalues --   -1.14366  -1.14362  -1.13989  -1.13981  -1.13951
  Beta  occ. eigenvalues --   -1.13369  -1.13341  -1.13326  -1.13210  -1.13197
  Beta  occ. eigenvalues --   -1.13184  -1.13169  -1.12965  -1.12881  -1.12843
  Beta  occ. eigenvalues --   -1.12812  -1.12797  -1.12737  -1.12709  -1.12700
  Beta  occ. eigenvalues --   -0.17500  -0.12967  -0.11809
  Beta virt. eigenvalues --   -0.06779  -0.06304  -0.05228  -0.04234  -0.02546
  Beta virt. eigenvalues --   -0.02056  -0.01962  -0.01569  -0.01082  -0.00491
  Beta virt. eigenvalues --   -0.00429   0.00103   0.00335   0.00815   0.00820

 Mulliken charges and spin densities:
               1          2
     1  Na   0.027524   0.190372
     2  Na  -0.023281  -0.037564
     3  Na   0.167005   0.036228
     4  Na   0.244771   0.052639
     5  Na   0.062651  -0.021314
     6  Na  -0.585930   0.796585
     7  Na   0.107261  -0.016946
 Sum of Mulliken charges =  -0.00000   1.00000

 Dipole moment (field-independent basis, Debye):
    X=             -0.2145    Y=              0.1468    Z=              0.2920  Tot=              0.3909
 Quadrupole moment (field-independent basis, Debye-Ang):
   XX=            -51.2912   YY=            -66.7059   ZZ=            -75.0671
   XY=              0.1385   XZ=              0.5465   YZ=              1.5866

 Normal termination of Gaussian 16 at Thu Dec  7 03:35:00 2023.
