 Gaussian 16, Revision B.01,
 Gaussian 16:  ES64L-G16RevB.01 20-Dec-2017

 -------------------------
 #P B3LYP/6-311+g(d) force
 -------------------------

 -----
 DPGEN
 -----
 Symbolic Z-matrix:
 Charge =  0 Multiplicity = 2

                         Standard orientation:
 ---------------------------------------------------------------------
 Center     Atomic      Atomic             Coordinates (Angstroms)
 Number     Number       Type             X           Y           Z
 ---------------------------------------------------------------------
      1         11           0        0.230322   -0.090058    2.090551
      2         11           0       -1.510897    2.565637   -0.095979
      3         11           0        0.052576   -0.030378   -1.555882
      4         11           0       -0.764746   -2.569235   -0.085834
      5         11           0       -3.470086   -0.381731   -0.062250
      6         11           0        2.490263    1.853863   -0.077702
      7         11           0        2.972568   -1.348096   -0.212903
 ---------------------------------------------------------------------

 SCF Done:  E(UB3LYP) =  -1136.13290885     A.U. after   20 cycles

 The electronic state is 2-A.
 Alpha  occ. eigenvalues --  -38.44896 -38.44318 -38.43909 -38.43530 -38.43339
 Alpha  occ. eigenvalues --  -38.43248 -38.42916  -2.20686  -2.20155  -2.19753
 Alpha  occ. eigenvalues --   -2.19412  -2.19327  -2.19066  -2.18803  -1.14359
 Alpha  occ. eigenvalues --   -1.14337  -1.14330  -1.13836  -1.13820  -1.13791
 Alpha  occ. eigenvalues --   -1.13430  -1.13415  -1.13388  -1.13090  -1.13041
 Alpha  occ. eigenvalues --   -1.13034  -1.13026  -1.12993  -1.12936  -1.12747
 Alpha  occ. eigenvalues --   -1.12730  -1.12694  -1.12505  -1.12462  -1.12406
 Alpha  occ. eigenvalues --   -0.18562  -0.13456  -0.11902  -0.10596
 Alpha virt. eigenvalues --   -0.06386  -0.05366  -0.04087  -0.03291  -0.02530
 Alpha virt. eigenvalues --   -0.02511  -0.02145  -0.01221  -0.00471  -0.00243
 Alpha virt. eigenvalues --   -0.00055   0.00293   0.00691   0.00839   0.00858

  Beta  occ. eigenvalues --  -38.44897 -38.44311 -38.43904 -38.43426 -38.43283
  Beta  occ. eigenvalues --  -38.43246 -38.42907  -2.20690  -2.20146  -2.19747
  Beta  occ. eigenvalues --   -2.19227  -2.19218  -2.19064  -2.18792  -1.14349
  Beta  occ. eigenvalues --   -1.14344  -1.14334  -1.13833  -1.13796  -1.13781
  Beta  occ. eigenvalues --   -1.13423  -1.13395  -1.13379  -1.12989  -1.12947
  Beta  occ. eigenvalues --   -1.12917  -1.12895  -1.12891  -1.12863  -1.12738
  Beta  occ. eigenvalues --   -1.12717  -1.12695  -1.12495  -1.12424  -1.12404
  Beta  occ. eigenvalues --   -0.17837  -0.13253  -0.11667
  Beta virt. eigenvalues --   -0.06649  -0.06317  -0.05383  -0.04080  -0.02543
  Beta virt. eigenvalues --   -0.02042  -0.01776  -0.01409  -0.01173  -0.00508
  Beta virt. eigenvalues --   -0.00282   0.00113   0.00329   0.00755   0.00837

 Mulliken charges and spin densities:
               1          2
     1  Na  -0.553026   0.779269
     2  Na   0.058630  -0.083163
     3  Na  -0.365696   0.408835
     4  Na   0.277723  -0.055899
     5  Na   0.060874  -0.042895
     6  Na   0.160018  -0.019128
     7  Na   0.361479   0.012981
 Sum of Mulliken charges =  -0.00000   1.00000

 Dipole moment (field-independent basis, Debye):
    X=             -0.0736    Y=             -0.0699    Z=              0.1508  Tot=              0.1818
 Quadrupole moment (field-independent basis, Debye-Ang):
   XX=            -49.6054   YY=            -67.1109   ZZ=            -75.4971
   XY=              0.0443   XZ=             -0.4950   YZ=              0.2196

 Normal termination of Gaussian 16 at Fri Dec  8 02:12:58 2023.
