 Gaussian 16, Revision B.01,
 Gaussian 16:  ES64L-G16RevB.01 20-Dec-2017

 -------------------------
 #P B3LYP/6-311+g(d) force
 -------------------------

 -----
 DPGEN
 -----
 Symbolic Z-matrix:
 Charge =  0 Multiplicity = 2

                         Standard orientation:
 ---------------------------------------------------------------------
 Center     Atomic      Atomic             Coordinates (Angstroms)
 Number     Number       Type             X           Y           Z
 ---------------------------------------------------------------------
      1         11           0       -0.540764    0.152910   -1.570215
      2         11           0       -3.043736    0.040317   -0.113154
      3         11           0       -0.945077   -2.829322    0.237138
      4         11           0       -0.974196    2.902041    0.213076
      5         11           0        2.401875   -1.644250   -0.293731
      6         11           0        3.008722    1.433520   -0.068118
      7         11           0        0.093178   -0.055216    1.595004
 ---------------------------------------------------------------------

 SCF Done:  E(UB3LYP) =  -1136.13271932     A.U. after   22 cycles

 The electronic state is 2-A.
 Alpha  occ. eigenvalues --  -38.44289 -38.44198 -38.43670 -38.43618 -38.43200
 Alpha  occ. eigenvalues --  -38.43154 -38.42777  -2.20195  -2.20013  -2.19551
 Alpha  occ. eigenvalues --   -2.19463  -2.19179  -2.19073  -2.18786  -1.13963
 Alpha  occ. eigenvalues --   -1.13838  -1.13795  -1.13708  -1.13676  -1.13647
 Alpha  occ. eigenvalues --   -1.13228  -1.13213  -1.13183  -1.13151  -1.13133
 Alpha  occ. eigenvalues --   -1.13090  -1.12883  -1.12819  -1.12783  -1.12760
 Alpha  occ. eigenvalues --   -1.12720  -1.12708  -1.12482  -1.12404  -1.12391
 Alpha  occ. eigenvalues --   -0.18957  -0.13448  -0.12476  -0.10199
 Alpha virt. eigenvalues --   -0.05894  -0.05144  -0.04855  -0.03137  -0.02608
 Alpha virt. eigenvalues --   -0.01887  -0.01667  -0.01266  -0.00566  -0.00340
 Alpha virt. eigenvalues --    0.00055   0.00338   0.00814   0.00829   0.00886

  Beta  occ. eigenvalues --  -38.44277 -38.44197 -38.43661 -38.43610 -38.43192
  Beta  occ. eigenvalues --  -38.43089 -38.42700  -2.20177  -2.20014  -2.19538
  Beta  occ. eigenvalues --   -2.19452  -2.19063  -2.19060  -2.18647  -1.13941
  Beta  occ. eigenvalues --   -1.13798  -1.13789  -1.13711  -1.13662  -1.13648
  Beta  occ. eigenvalues --   -1.13221  -1.13189  -1.13170  -1.13144  -1.13103
  Beta  occ. eigenvalues --   -1.13082  -1.12805  -1.12750  -1.12729  -1.12711
  Beta  occ. eigenvalues --   -1.12704  -1.12672  -1.12386  -1.12306  -1.12288
  Beta  occ. eigenvalues --   -0.18268  -0.13174  -0.12217
  Beta virt. eigenvalues --   -0.06362  -0.05813  -0.05120  -0.04841  -0.02349
  Beta virt. eigenvalues --   -0.01891  -0.01591  -0.01184  -0.00929  -0.00606
  Beta virt. eigenvalues --   -0.00359   0.00186   0.00382   0.00823   0.00851

 Mulliken charges and spin densities:
               1          2
     1  Na  -0.324747   0.585303
     2  Na   0.519049   0.002474
     3  Na   0.175664  -0.021256
     4  Na  -0.073535  -0.131355
     5  Na   0.066874   0.019264
     6  Na  -0.061701  -0.100126
     7  Na  -0.301603   0.645698
 Sum of Mulliken charges =  -0.00000   1.00000

 Dipole moment (field-independent basis, Debye):
    X=             -0.0076    Y=              0.2523    Z=              0.0698  Tot=              0.2619
 Quadrupole moment (field-independent basis, Debye-Ang):
   XX=            -55.0573   YY=            -59.3893   ZZ=            -77.1941
   XY=              1.0314   XZ=             -1.4061   YZ=              0.5030

 Normal termination of Gaussian 16 at Thu Dec  7 23:48:26 2023.
