 Gaussian 16, Revision B.01,
 Gaussian 16:  ES64L-G16RevB.01 20-Dec-2017

 -------------------------
 #P B3LYP/6-311+g(d) force
 -------------------------

 -----
 DPGEN
 -----
 Symbolic Z-matrix:
 Charge =  0 Multiplicity = 2

                         Standard orientation:
 ---------------------------------------------------------------------
 Center     Atomic      Atomic             Coordinates (Angstroms)
 Number     Number       Type             X           Y           Z
 ---------------------------------------------------------------------
      1         11           0       -2.228058    1.289006   -1.776693
      2         11           0       -1.960114    0.798707    1.525548
      3         11           0        0.773187    2.590918   -0.129719
      4         11           0        2.794965    0.147293    1.534417
      5         11           0        0.314626   -0.823556   -0.435470
      6         11           0        3.554070   -1.575937   -1.080811
      7         11           0       -3.248677   -2.426432    0.362728
 ---------------------------------------------------------------------

 SCF Done:  E(UB3LYP) =  -1136.12430694     A.U. after   22 cycles

 The electronic state is 2-A.
 Alpha  occ. eigenvalues --  -38.44379 -38.44348 -38.44166 -38.44058 -38.43787
 Alpha  occ. eigenvalues --  -38.43540 -38.43093  -2.20240  -2.20213  -2.20015
 Alpha  occ. eigenvalues --   -2.19894  -2.19714  -2.19300  -2.18936  -1.13946
 Alpha  occ. eigenvalues --   -1.13926  -1.13902  -1.13876  -1.13843  -1.13820
 Alpha  occ. eigenvalues --   -1.13689  -1.13655  -1.13609  -1.13559  -1.13537
 Alpha  occ. eigenvalues --   -1.13522  -1.13444  -1.13376  -1.13318  -1.12972
 Alpha  occ. eigenvalues --   -1.12970  -1.12929  -1.12625  -1.12600  -1.12567
 Alpha  occ. eigenvalues --   -0.17967  -0.14004  -0.11394  -0.10461
 Alpha virt. eigenvalues --   -0.06021  -0.05771  -0.05081  -0.03125  -0.02466
 Alpha virt. eigenvalues --   -0.02282  -0.02044  -0.01389  -0.00901  -0.00305
 Alpha virt. eigenvalues --   -0.00001   0.00186   0.00294   0.00301   0.00698

  Beta  occ. eigenvalues --  -38.44352 -38.44322 -38.44100 -38.44029 -38.43769
  Beta  occ. eigenvalues --  -38.43540 -38.43087  -2.20190  -2.20167  -2.19892
  Beta  occ. eigenvalues --   -2.19840  -2.19686  -2.19301  -2.18929  -1.13910
  Beta  occ. eigenvalues --   -1.13878  -1.13872  -1.13846  -1.13795  -1.13785
  Beta  occ. eigenvalues --   -1.13598  -1.13576  -1.13525  -1.13516  -1.13500
  Beta  occ. eigenvalues --   -1.13490  -1.13382  -1.13361  -1.13304  -1.12974
  Beta  occ. eigenvalues --   -1.12966  -1.12930  -1.12624  -1.12589  -1.12537
  Beta  occ. eigenvalues --   -0.17361  -0.13722  -0.11126
  Beta virt. eigenvalues --   -0.06976  -0.05822  -0.05461  -0.04531  -0.03004
  Beta virt. eigenvalues --   -0.02199  -0.01816  -0.01578  -0.01181  -0.00432
  Beta virt. eigenvalues --   -0.00263   0.00199   0.00272   0.00377   0.00451

 Mulliken charges and spin densities:
               1          2
     1  Na   0.087577   0.165261
     2  Na   0.269806   0.349412
     3  Na   0.280854   0.123695
     4  Na   0.474304   0.070468
     5  Na  -1.246686   0.329188
     6  Na  -0.130757   0.051905
     7  Na   0.264902  -0.089929
 Sum of Mulliken charges =  -0.00000   1.00000

 Dipole moment (field-independent basis, Debye):
    X=              0.5240    Y=              0.4344    Z=              0.0480  Tot=              0.6823
 Quadrupole moment (field-independent basis, Debye-Ang):
   XX=            -55.2833   YY=            -70.4354   ZZ=            -68.2318
   XY=             -1.1457   XZ=              1.4079   YZ=              1.8499

 Normal termination of Gaussian 16 at Tue Dec  5 14:05:37 2023.
