 Gaussian 16, Revision B.01,
 Gaussian 16:  ES64L-G16RevB.01 20-Dec-2017

 -------------------------
 #P B3LYP/6-311+g(d) force
 -------------------------

 -----
 DPGEN
 -----
 Symbolic Z-matrix:
 Charge =  0 Multiplicity = 2

                         Standard orientation:
 ---------------------------------------------------------------------
 Center     Atomic      Atomic             Coordinates (Angstroms)
 Number     Number       Type             X           Y           Z
 ---------------------------------------------------------------------
      1         11           0        2.296660   -2.267047    0.743343
      2         11           0       -4.130226   -1.422664   -0.612025
      3         11           0        3.642945    0.343176   -1.474136
      4         11           0       -1.748703    2.798689   -0.036314
      5         11           0       -1.735755   -0.757946    0.707964
      6         11           0        1.406055    1.150118    1.864484
      7         11           0        0.269024    0.155675   -1.193316
 ---------------------------------------------------------------------

 SCF Done:  E(UB3LYP) =  -1136.11227813     A.U. after   24 cycles

 The electronic state is 2-A.
 Alpha  occ. eigenvalues --  -38.44504 -38.44502 -38.44467 -38.44381 -38.43815
 Alpha  occ. eigenvalues --  -38.43763 -38.43354  -2.20452  -2.20328  -2.20294
 Alpha  occ. eigenvalues --   -2.20180  -2.19647  -2.19548  -2.19335  -1.14246
 Alpha  occ. eigenvalues --   -1.14108  -1.14049  -1.13981  -1.13976  -1.13969
 Alpha  occ. eigenvalues --   -1.13954  -1.13931  -1.13890  -1.13852  -1.13833
 Alpha  occ. eigenvalues --   -1.13806  -1.13483  -1.13276  -1.13271  -1.13231
 Alpha  occ. eigenvalues --   -1.13208  -1.13172  -1.13059  -1.12924  -1.12892
 Alpha  occ. eigenvalues --   -0.18113  -0.13804  -0.11123  -0.11025
 Alpha virt. eigenvalues --   -0.06699  -0.05817  -0.04295  -0.03056  -0.02652
 Alpha virt. eigenvalues --   -0.02306  -0.02137  -0.01590  -0.01198  -0.00378
 Alpha virt. eigenvalues --    0.00015   0.00106   0.00328   0.00576   0.00592

  Beta  occ. eigenvalues --  -38.44477 -38.44429 -38.44420 -38.44355 -38.43816
  Beta  occ. eigenvalues --  -38.43764 -38.43342  -2.20411  -2.20210  -2.20189
  Beta  occ. eigenvalues --   -2.20133  -2.19649  -2.19550  -2.19317  -1.14180
  Beta  occ. eigenvalues --   -1.14079  -1.14022  -1.13906  -1.13899  -1.13880
  Beta  occ. eigenvalues --   -1.13875  -1.13846  -1.13827  -1.13822  -1.13785
  Beta  occ. eigenvalues --   -1.13767  -1.13480  -1.13277  -1.13272  -1.13228
  Beta  occ. eigenvalues --   -1.13209  -1.13174  -1.13050  -1.12899  -1.12876
  Beta  occ. eigenvalues --   -0.17447  -0.13489  -0.11033
  Beta virt. eigenvalues --   -0.07183  -0.06417  -0.05633  -0.03808  -0.02868
  Beta virt. eigenvalues --   -0.02416  -0.01878  -0.01498  -0.01410  -0.00792
  Beta virt. eigenvalues --   -0.00198   0.00073   0.00216   0.00377   0.00633

 Mulliken charges and spin densities:
               1          2
     1  Na   0.028513   0.205575
     2  Na   0.392187   0.167324
     3  Na   0.297876   0.231383
     4  Na  -0.093162  -0.000802
     5  Na  -0.477835   0.045682
     6  Na   0.377103   0.121435
     7  Na  -0.524682   0.229404
 Sum of Mulliken charges =  -0.00000   1.00000

 Dipole moment (field-independent basis, Debye):
    X=              0.9399    Y=              0.7233    Z=              0.3287  Tot=              1.2307
 Quadrupole moment (field-independent basis, Debye-Ang):
   XX=            -55.7505   YY=            -69.2738   ZZ=            -69.9336
   XY=             -3.8415   XZ=              3.9065   YZ=              0.0938

 Normal termination of Gaussian 16 at Tue Dec  5 23:36:03 2023.
