 Gaussian 16, Revision B.01,
 Gaussian 16:  ES64L-G16RevB.01 20-Dec-2017

 -------------------------
 #P B3LYP/6-311+g(d) force
 -------------------------

 -----
 DPGEN
 -----
 Symbolic Z-matrix:
 Charge =  0 Multiplicity = 2

                         Standard orientation:
 ---------------------------------------------------------------------
 Center     Atomic      Atomic             Coordinates (Angstroms)
 Number     Number       Type             X           Y           Z
 ---------------------------------------------------------------------
      1         11           0       -1.769645    2.453563    0.611177
      2         11           0        2.772742    2.097579   -0.426337
      3         11           0        3.202787   -1.402647   -0.039181
      4         11           0       -3.368083   -0.272457   -0.451222
      5         11           0       -0.308012   -0.044274   -1.779638
      6         11           0        0.263641   -0.151200    1.869062
      7         11           0       -0.793429   -2.680564    0.216137
 ---------------------------------------------------------------------

 SCF Done:  E(UB3LYP) =  -1136.12867234     A.U. after   21 cycles

 The electronic state is 2-A.
 Alpha  occ. eigenvalues --  -38.44909 -38.44548 -38.44180 -38.44084 -38.43512
 Alpha  occ. eigenvalues --  -38.43299 -38.42814  -2.20677  -2.20390  -2.19969
 Alpha  occ. eigenvalues --   -2.19944  -2.19414  -2.19124  -2.18682  -1.14362
 Alpha  occ. eigenvalues --   -1.14328  -1.14312  -1.14072  -1.14045  -1.14026
 Alpha  occ. eigenvalues --   -1.13660  -1.13620  -1.13606  -1.13595  -1.13591
 Alpha  occ. eigenvalues --   -1.13584  -1.13100  -1.13052  -1.13028  -1.12793
 Alpha  occ. eigenvalues --   -1.12775  -1.12771  -1.12377  -1.12353  -1.12299
 Alpha  occ. eigenvalues --   -0.18120  -0.13417  -0.11672  -0.10683
 Alpha virt. eigenvalues --   -0.06330  -0.05658  -0.04195  -0.03346  -0.02731
 Alpha virt. eigenvalues --   -0.02446  -0.02133  -0.01304  -0.00677  -0.00278
 Alpha virt. eigenvalues --   -0.00095   0.00278   0.00630   0.00687   0.00776

  Beta  occ. eigenvalues --  -38.44909 -38.44536 -38.44173 -38.44027 -38.43424
  Beta  occ. eigenvalues --  -38.43281 -38.42807  -2.20677  -2.20371  -2.19933
  Beta  occ. eigenvalues --   -2.19863  -2.19254  -2.19095  -2.18675  -1.14355
  Beta  occ. eigenvalues --   -1.14330  -1.14308  -1.14048  -1.14023  -1.14015
  Beta  occ. eigenvalues --   -1.13605  -1.13589  -1.13584  -1.13581  -1.13534
  Beta  occ. eigenvalues --   -1.13505  -1.12996  -1.12937  -1.12909  -1.12769
  Beta  occ. eigenvalues --   -1.12755  -1.12739  -1.12372  -1.12330  -1.12286
  Beta  occ. eigenvalues --   -0.17423  -0.13183  -0.11398
  Beta virt. eigenvalues --   -0.06904  -0.06220  -0.05593  -0.04057  -0.02743
  Beta virt. eigenvalues --   -0.02064  -0.01972  -0.01499  -0.01218  -0.00675
  Beta virt. eigenvalues --   -0.00288   0.00060   0.00324   0.00722   0.00769

 Mulliken charges and spin densities:
               1          2
     1  Na  -0.174734   0.002310
     2  Na  -0.134600   0.018818
     3  Na   0.004855  -0.081419
     4  Na   0.371641   0.090943
     5  Na  -0.081973   0.497340
     6  Na   0.160181   0.586326
     7  Na  -0.145369  -0.114319
 Sum of Mulliken charges =  -0.00000   1.00000

 Dipole moment (field-independent basis, Debye):
    X=              0.3381    Y=             -0.2322    Z=             -0.1897  Tot=              0.4520
 Quadrupole moment (field-independent basis, Debye-Ang):
   XX=            -52.0453   YY=            -66.9737   ZZ=            -74.4768
   XY=             -0.6039   XZ=             -0.2501   YZ=              0.2085

 Normal termination of Gaussian 16 at Thu Dec  7 07:34:25 2023.
