 Gaussian 16, Revision B.01,
 Gaussian 16:  ES64L-G16RevB.01 20-Dec-2017

 -------------------------
 #P B3LYP/6-311+g(d) force
 -------------------------

 -----
 DPGEN
 -----
 Symbolic Z-matrix:
 Charge =  0 Multiplicity = 2

                         Standard orientation:
 ---------------------------------------------------------------------
 Center     Atomic      Atomic             Coordinates (Angstroms)
 Number     Number       Type             X           Y           Z
 ---------------------------------------------------------------------
      1         11           0       -2.547494    1.855253   -0.261894
      2         11           0       -3.685515   -0.988564    0.984764
      3         11           0        2.036437   -1.534004   -0.965479
      4         11           0        4.179629    0.357500    0.765077
      5         11           0        0.843010    1.817678   -0.702951
      6         11           0       -1.185971   -1.114534   -1.460810
      7         11           0        0.359903   -0.393329    1.641293
 ---------------------------------------------------------------------

 SCF Done:  E(UB3LYP) =  -1136.11820706     A.U. after   31 cycles

 The electronic state is 2-A.
 Alpha  occ. eigenvalues --  -38.46311 -38.45167 -38.44172 -38.43438 -38.43406
 Alpha  occ. eigenvalues --  -38.43271 -38.42406  -2.22145  -2.20976  -2.20007
 Alpha  occ. eigenvalues --   -2.19357  -2.19330  -2.19135  -2.18305  -1.15870
 Alpha  occ. eigenvalues --   -1.15794  -1.15753  -1.14644  -1.14616  -1.14584
 Alpha  occ. eigenvalues --   -1.13668  -1.13659  -1.13629  -1.13089  -1.13024
 Alpha  occ. eigenvalues --   -1.13003  -1.12994  -1.12965  -1.12947  -1.12817
 Alpha  occ. eigenvalues --   -1.12791  -1.12769  -1.12024  -1.11972  -1.11903
 Alpha  occ. eigenvalues --   -0.18646  -0.14550  -0.11271  -0.10617
 Alpha virt. eigenvalues --   -0.07459  -0.04958  -0.04874  -0.03250  -0.02949
 Alpha virt. eigenvalues --   -0.02298  -0.01963  -0.01325  -0.01074  -0.00233
 Alpha virt. eigenvalues --   -0.00154   0.00252   0.00313   0.00644   0.00694

  Beta  occ. eigenvalues --  -38.46308 -38.45108 -38.44123 -38.43412 -38.43361
  Beta  occ. eigenvalues --  -38.43262 -38.42388  -2.22139  -2.20865  -2.19913
  Beta  occ. eigenvalues --   -2.19317  -2.19255  -2.19121  -2.18277  -1.15851
  Beta  occ. eigenvalues --   -1.15797  -1.15749  -1.14570  -1.14539  -1.14512
  Beta  occ. eigenvalues --   -1.13606  -1.13591  -1.13570  -1.13033  -1.12988
  Beta  occ. eigenvalues --   -1.12971  -1.12948  -1.12904  -1.12872  -1.12803
  Beta  occ. eigenvalues --   -1.12785  -1.12740  -1.12010  -1.11933  -1.11881
  Beta  occ. eigenvalues --   -0.18014  -0.14017  -0.10399
  Beta virt. eigenvalues --   -0.07637  -0.07163  -0.04857  -0.04246  -0.02943
  Beta virt. eigenvalues --   -0.02755  -0.01776  -0.01405  -0.01034  -0.00906
  Beta virt. eigenvalues --   -0.00115  -0.00025   0.00338   0.00377   0.00696

 Mulliken charges and spin densities:
               1          2
     1  Na  -0.085625   0.073753
     2  Na   0.565398   0.366940
     3  Na   0.044382   0.047122
     4  Na   0.830406   0.339199
     5  Na  -0.606180   0.039188
     6  Na  -0.113750   0.103359
     7  Na  -0.634631   0.030439
 Sum of Mulliken charges =  -0.00000   1.00000

 Dipole moment (field-independent basis, Debye):
    X=              0.7813    Y=             -0.2162    Z=              0.5889  Tot=              1.0020
 Quadrupole moment (field-independent basis, Debye-Ang):
   XX=            -50.7245   YY=            -81.7201   ZZ=            -64.5567
   XY=              0.0051   XZ=             -0.1464   YZ=             -0.0413

 Normal termination of Gaussian 16 at Tue Dec  5 11:10:01 2023.
