 Gaussian 16, Revision B.01,
 Gaussian 16:  ES64L-G16RevB.01 20-Dec-2017

 -------------------------
 #P B3LYP/6-311+g(d) force
 -------------------------

 -----
 DPGEN
 -----
 Symbolic Z-matrix:
 Charge =  0 Multiplicity = 2

                         Standard orientation:
 ---------------------------------------------------------------------
 Center     Atomic      Atomic             Coordinates (Angstroms)
 Number     Number       Type             X           Y           Z
 ---------------------------------------------------------------------
      1         11           0        4.166389    1.729326   -0.239475
      2         11           0        0.827694    1.704457   -0.016519
      3         11           0       -8.252764   -1.041101   -0.869460
      4         11           0       -6.027834    0.296654    0.830426
      5         11           0       -2.173533    0.125675    0.152469
      6         11           0        6.967713   -1.010133   -0.592793
      7         11           0        4.492336   -1.804878    0.735352
 ---------------------------------------------------------------------

 SCF Done:  E(UB3LYP) =  -1136.10909229     A.U. after   19 cycles

 The electronic state is 2-A.
 Alpha  occ. eigenvalues --  -38.45980 -38.45127 -38.44521 -38.44005 -38.43729
 Alpha  occ. eigenvalues --  -38.43647 -38.43049  -2.21811  -2.20965  -2.20357
 Alpha  occ. eigenvalues --   -2.19805  -2.19528  -2.19435  -2.18848  -1.15525
 Alpha  occ. eigenvalues --   -1.15462  -1.15436  -1.14633  -1.14605  -1.14586
 Alpha  occ. eigenvalues --   -1.14020  -1.14013  -1.13956  -1.13479  -1.13449
 Alpha  occ. eigenvalues --   -1.13447  -1.13181  -1.13180  -1.13141  -1.13105
 Alpha  occ. eigenvalues --   -1.13098  -1.13077  -1.12529  -1.12526  -1.12507
 Alpha  occ. eigenvalues --   -0.16185  -0.13934  -0.12630  -0.10801
 Alpha virt. eigenvalues --   -0.06685  -0.05763  -0.04149  -0.03907  -0.02878
 Alpha virt. eigenvalues --   -0.02612  -0.02010  -0.01768  -0.01703  -0.00812
 Alpha virt. eigenvalues --   -0.00661  -0.00234   0.00037   0.00250   0.00348

  Beta  occ. eigenvalues --  -38.45965 -38.45108 -38.44442 -38.43961 -38.43657
  Beta  occ. eigenvalues --  -38.43651 -38.43055  -2.21785  -2.20931  -2.20212
  Beta  occ. eigenvalues --   -2.19724  -2.19457  -2.19383  -2.18868  -1.15504
  Beta  occ. eigenvalues --   -1.15447  -1.15406  -1.14602  -1.14583  -1.14563
  Beta  occ. eigenvalues --   -1.13921  -1.13915  -1.13853  -1.13430  -1.13393
  Beta  occ. eigenvalues --   -1.13391  -1.13124  -1.13116  -1.13082  -1.13079
  Beta  occ. eigenvalues --   -1.13065  -1.13047  -1.12551  -1.12548  -1.12464
  Beta  occ. eigenvalues --   -0.15706  -0.13317  -0.12025
  Beta virt. eigenvalues --   -0.07641  -0.06466  -0.05402  -0.03766  -0.03732
  Beta virt. eigenvalues --   -0.02561  -0.02361  -0.01691  -0.01634  -0.01535
  Beta virt. eigenvalues --   -0.00547  -0.00344   0.00087   0.00170   0.00339

 Mulliken charges and spin densities:
               1          2
     1  Na   0.041931   0.210183
     2  Na  -0.057764   0.100688
     3  Na   0.130530   0.196915
     4  Na   0.018772  -0.061542
     5  Na  -0.305290   0.328178
     6  Na   0.518233   0.118164
     7  Na  -0.346413   0.107416
 Sum of Mulliken charges =  -0.00000   1.00000

 Dipole moment (field-independent basis, Debye):
    X=              3.8121    Y=             -1.2912    Z=             -0.2445  Tot=              4.0323
 Quadrupole moment (field-independent basis, Debye-Ang):
   XX=            -47.0972   YY=            -69.8596   ZZ=            -70.0086
   XY=              3.6249   XZ=              0.0727   YZ=             -0.2761

 Normal termination of Gaussian 16 at Sun Dec  3 17:37:12 2023.
