 Gaussian 16, Revision B.01,
 Gaussian 16:  ES64L-G16RevB.01 20-Dec-2017

 -------------------------
 #P B3LYP/6-311+g(d) force
 -------------------------

 -----
 DPGEN
 -----
 Symbolic Z-matrix:
 Charge =  0 Multiplicity = 2

                         Standard orientation:
 ---------------------------------------------------------------------
 Center     Atomic      Atomic             Coordinates (Angstroms)
 Number     Number       Type             X           Y           Z
 ---------------------------------------------------------------------
      1         11           0       -0.084298   -1.535334    1.577033
      2         11           0       -2.714738   -0.384434   -0.368306
      3         11           0        1.894771    1.339942    0.803684
      4         11           0       -0.206110   -1.118054   -1.296212
      5         11           0       -1.115687    1.072162    1.380007
      6         11           0       -0.285423    1.543732   -1.482842
      7         11           0        2.511485   -0.918013   -0.613364
 ---------------------------------------------------------------------

 SCF Done:  E(UB3LYP) =  -1136.08797881     A.U. after   26 cycles

 The electronic state is 2-A.
 Alpha  occ. eigenvalues --  -38.44270 -38.44261 -38.44190 -38.44148 -38.43736
 Alpha  occ. eigenvalues --  -38.43387 -38.43368  -2.20554  -2.20341  -2.20288
 Alpha  occ. eigenvalues --   -2.20202  -2.19771  -2.19457  -2.19436  -1.14490
 Alpha  occ. eigenvalues --   -1.14355  -1.14279  -1.14213  -1.14078  -1.14059
 Alpha  occ. eigenvalues --   -1.13965  -1.13937  -1.13836  -1.13771  -1.13763
 Alpha  occ. eigenvalues --   -1.13741  -1.13432  -1.13381  -1.13337  -1.13145
 Alpha  occ. eigenvalues --   -1.13134  -1.13084  -1.13058  -1.12990  -1.12979
 Alpha  occ. eigenvalues --   -0.21170  -0.13931  -0.13119  -0.11756
 Alpha virt. eigenvalues --   -0.05499  -0.04496  -0.03998  -0.03665  -0.03205
 Alpha virt. eigenvalues --   -0.02852  -0.01300  -0.00413  -0.00229   0.00322
 Alpha virt. eigenvalues --    0.00648   0.00726   0.01014   0.01057   0.01117

  Beta  occ. eigenvalues --  -38.44249 -38.44197 -38.44176 -38.44082 -38.43712
  Beta  occ. eigenvalues --  -38.43343 -38.43327  -2.20429  -2.20295  -2.20198
  Beta  occ. eigenvalues --   -2.20180  -2.19731  -2.19387  -2.19360  -1.14417
  Beta  occ. eigenvalues --   -1.14280  -1.14204  -1.14131  -1.14044  -1.13980
  Beta  occ. eigenvalues --   -1.13908  -1.13875  -1.13805  -1.13732  -1.13716
  Beta  occ. eigenvalues --   -1.13708  -1.13397  -1.13335  -1.13315  -1.13092
  Beta  occ. eigenvalues --   -1.13081  -1.13008  -1.12978  -1.12944  -1.12930
  Beta  occ. eigenvalues --   -0.20306  -0.13665  -0.11589
  Beta virt. eigenvalues --   -0.08647  -0.05456  -0.03931  -0.03377  -0.03341
  Beta virt. eigenvalues --   -0.02550  -0.02065  -0.01249  -0.00242  -0.00132
  Beta virt. eigenvalues --    0.00348   0.00711   0.00846   0.01052   0.01107

 Mulliken charges and spin densities:
               1          2
     1  Na  -1.144604   0.193718
     2  Na   0.286836  -0.116217
     3  Na   0.287624   0.053519
     4  Na   0.792659   0.419491
     5  Na   0.816954   0.439568
     6  Na  -1.017301   0.091411
     7  Na  -0.022169  -0.081490
 Sum of Mulliken charges =  -0.00000   1.00000

 Dipole moment (field-independent basis, Debye):
    X=             -0.0139    Y=              0.0488    Z=              0.1579  Tot=              0.1659
 Quadrupole moment (field-independent basis, Debye-Ang):
   XX=            -58.0773   YY=            -75.6749   ZZ=            -63.6131
   XY=              0.1338   XZ=              0.4342   YZ=              1.7870

 Normal termination of Gaussian 16 at Thu Dec  7 15:46:04 2023.
