 Gaussian 16, Revision B.01,
 Gaussian 16:  ES64L-G16RevB.01 20-Dec-2017

 -------------------------
 #P B3LYP/6-311+g(d) force
 -------------------------

 -----
 DPGEN
 -----
 Symbolic Z-matrix:
 Charge =  0 Multiplicity = 2

                         Standard orientation:
 ---------------------------------------------------------------------
 Center     Atomic      Atomic             Coordinates (Angstroms)
 Number     Number       Type             X           Y           Z
 ---------------------------------------------------------------------
      1         11           0        1.566100    1.600558   -1.276025
      2         11           0        0.016386    0.774555    2.345525
      3         11           0        1.942172   -2.492629   -1.095651
      4         11           0       -1.858215   -0.676543   -1.434215
      5         11           0        3.704089   -0.194398    1.096050
      6         11           0       -3.719377   -1.652043    0.984184
      7         11           0       -1.651155    2.640500   -0.619868
 ---------------------------------------------------------------------

 SCF Done:  E(UB3LYP) =  -1136.11759313     A.U. after   22 cycles

 The electronic state is 2-A.
 Alpha  occ. eigenvalues --  -38.45223 -38.44743 -38.44634 -38.44167 -38.43913
 Alpha  occ. eigenvalues --  -38.43639 -38.43508  -2.20992  -2.20515  -2.20387
 Alpha  occ. eigenvalues --   -2.19974  -2.19689  -2.19474  -2.19325  -1.14652
 Alpha  occ. eigenvalues --   -1.14616  -1.14614  -1.14196  -1.14171  -1.14152
 Alpha  occ. eigenvalues --   -1.14058  -1.14048  -1.14004  -1.13664  -1.13646
 Alpha  occ. eigenvalues --   -1.13588  -1.13373  -1.13345  -1.13339  -1.13150
 Alpha  occ. eigenvalues --   -1.13144  -1.13103  -1.12994  -1.12977  -1.12963
 Alpha  occ. eigenvalues --   -0.17071  -0.13246  -0.11470  -0.11218
 Alpha virt. eigenvalues --   -0.06574  -0.05479  -0.05060  -0.03391  -0.02953
 Alpha virt. eigenvalues --   -0.02833  -0.01911  -0.01175  -0.01058  -0.00474
 Alpha virt. eigenvalues --   -0.00187   0.00068   0.00215   0.00378   0.00492

  Beta  occ. eigenvalues --  -38.45133 -38.44737 -38.44603 -38.44148 -38.43905
  Beta  occ. eigenvalues --  -38.43625 -38.43505  -2.20823  -2.20505  -2.20329
  Beta  occ. eigenvalues --   -2.19941  -2.19675  -2.19449  -2.19320  -1.14538
  Beta  occ. eigenvalues --   -1.14501  -1.14490  -1.14190  -1.14159  -1.14137
  Beta  occ. eigenvalues --   -1.14014  -1.14007  -1.13968  -1.13636  -1.13613
  Beta  occ. eigenvalues --   -1.13566  -1.13365  -1.13335  -1.13325  -1.13134
  Beta  occ. eigenvalues --   -1.13128  -1.13074  -1.12982  -1.12970  -1.12959
  Beta  occ. eigenvalues --   -0.16398  -0.13141  -0.11201
  Beta virt. eigenvalues --   -0.07652  -0.06076  -0.05343  -0.04563  -0.03067
  Beta virt. eigenvalues --   -0.02526  -0.02110  -0.01731  -0.01083  -0.00775
  Beta virt. eigenvalues --   -0.00349  -0.00072   0.00201   0.00310   0.00510

 Mulliken charges and spin densities:
               1          2
     1  Na  -0.086688   0.214028
     2  Na  -0.376554   0.554545
     3  Na  -0.067128   0.194237
     4  Na  -0.117732  -0.144957
     5  Na   0.312074   0.036457
     6  Na   0.040043   0.116802
     7  Na   0.295985   0.028887
 Sum of Mulliken charges =  -0.00000   1.00000

 Dipole moment (field-independent basis, Debye):
    X=              0.8351    Y=              0.2852    Z=              0.5180  Tot=              1.0233
 Quadrupole moment (field-independent basis, Debye-Ang):
   XX=            -59.1195   YY=            -71.3618   ZZ=            -67.7618
   XY=             -2.0127   XZ=             -1.0081   YZ=             -0.3355

 Normal termination of Gaussian 16 at Sun Dec  3 23:16:48 2023.
