 Gaussian 16, Revision B.01,
 Gaussian 16:  ES64L-G16RevB.01 20-Dec-2017

 -------------------------
 #P B3LYP/6-311+g(d) force
 -------------------------

 -----
 DPGEN
 -----
 Symbolic Z-matrix:
 Charge =  0 Multiplicity = 2

                         Standard orientation:
 ---------------------------------------------------------------------
 Center     Atomic      Atomic             Coordinates (Angstroms)
 Number     Number       Type             X           Y           Z
 ---------------------------------------------------------------------
      1         11           0        0.534277   -2.135377    0.181772
      2         11           0        1.399984    0.787485    2.047928
      3         11           0        3.282109   -0.359846   -0.584536
      4         11           0       -2.550350   -1.799769   -0.754828
      5         11           0       -1.669994   -0.144180    1.680010
      6         11           0       -1.275721    2.978435   -0.356026
      7         11           0        0.279695    0.673253   -2.214319
 ---------------------------------------------------------------------

 SCF Done:  E(UB3LYP) =  -1136.12917428     A.U. after   21 cycles

 The electronic state is 2-A.
 Alpha  occ. eigenvalues --  -38.44675 -38.44490 -38.43866 -38.43688 -38.43640
 Alpha  occ. eigenvalues --  -38.43082 -38.42914  -2.20543  -2.20338  -2.19804
 Alpha  occ. eigenvalues --   -2.19527  -2.19510  -2.19010  -2.18705  -1.14251
 Alpha  occ. eigenvalues --   -1.14168  -1.14144  -1.13994  -1.13982  -1.13964
 Alpha  occ. eigenvalues --   -1.13523  -1.13493  -1.13396  -1.13195  -1.13181
 Alpha  occ. eigenvalues --   -1.13178  -1.13173  -1.13156  -1.13133  -1.12714
 Alpha  occ. eigenvalues --   -1.12700  -1.12602  -1.12385  -1.12364  -1.12351
 Alpha  occ. eigenvalues --   -0.18557  -0.12874  -0.12401  -0.11758
 Alpha virt. eigenvalues --   -0.05381  -0.04775  -0.04626  -0.03675  -0.03400
 Alpha virt. eigenvalues --   -0.03188  -0.01330  -0.00805  -0.00556   0.00195
 Alpha virt. eigenvalues --    0.00294   0.00369   0.00619   0.00833   0.00858

  Beta  occ. eigenvalues --  -38.44599 -38.44414 -38.43823 -38.43683 -38.43630
  Beta  occ. eigenvalues --  -38.43071 -38.42919  -2.20405  -2.20198  -2.19728
  Beta  occ. eigenvalues --   -2.19522  -2.19491  -2.18995  -2.18717  -1.14143
  Beta  occ. eigenvalues --   -1.14073  -1.14049  -1.13903  -1.13884  -1.13859
  Beta  occ. eigenvalues --   -1.13450  -1.13444  -1.13351  -1.13185  -1.13179
  Beta  occ. eigenvalues --   -1.13166  -1.13154  -1.13140  -1.13117  -1.12704
  Beta  occ. eigenvalues --   -1.12656  -1.12598  -1.12384  -1.12374  -1.12355
  Beta  occ. eigenvalues --   -0.17690  -0.12750  -0.11566
  Beta virt. eigenvalues --   -0.08324  -0.05198  -0.04440  -0.04153  -0.03155
  Beta virt. eigenvalues --   -0.02734  -0.02685  -0.01282  -0.00636  -0.00293
  Beta virt. eigenvalues --    0.00322   0.00389   0.00427   0.00768   0.00884

 Mulliken charges and spin densities:
               1          2
     1  Na  -0.867649   0.329030
     2  Na   0.095174   0.203206
     3  Na   0.444116  -0.019800
     4  Na   0.500601   0.025174
     5  Na   0.359268   0.090125
     6  Na  -0.372697  -0.040913
     7  Na  -0.158814   0.413177
 Sum of Mulliken charges =  -0.00000   1.00000

 Dipole moment (field-independent basis, Debye):
    X=              0.3588    Y=             -0.0971    Z=             -0.1262  Tot=              0.3925
 Quadrupole moment (field-independent basis, Debye-Ang):
   XX=            -60.7546   YY=            -72.7741   ZZ=            -63.6947
   XY=              1.2442   XZ=              0.8238   YZ=              3.1423

 Normal termination of Gaussian 16 at Wed Nov 29 16:57:29 2023.
