 Gaussian 16, Revision B.01,
 Gaussian 16:  ES64L-G16RevB.01 20-Dec-2017

 -------------------------
 #P B3LYP/6-311+g(d) force
 -------------------------

 -----
 DPGEN
 -----
 Symbolic Z-matrix:
 Charge =  0 Multiplicity = 2

                         Standard orientation:
 ---------------------------------------------------------------------
 Center     Atomic      Atomic             Coordinates (Angstroms)
 Number     Number       Type             X           Y           Z
 ---------------------------------------------------------------------
      1         11           0        2.673434    2.165356    0.020948
      2         11           0        0.456356    0.098410   -1.587727
      3         11           0        2.710111   -1.898580   -0.104895
      4         11           0       -3.242265   -0.229195   -0.003328
      5         11           0        0.190137   -0.235769    2.090929
      6         11           0       -1.166289   -2.691108   -0.285435
      7         11           0       -1.621485    2.790885   -0.130491
 ---------------------------------------------------------------------

 SCF Done:  E(UB3LYP) =  -1136.13209968     A.U. after   19 cycles

 The electronic state is 2-A.
 Alpha  occ. eigenvalues --  -38.44609 -38.44499 -38.43977 -38.43903 -38.43557
 Alpha  occ. eigenvalues --  -38.43443 -38.43257  -2.20373  -2.20293  -2.19804
 Alpha  occ. eigenvalues --   -2.19683  -2.19407  -2.19290  -2.19178  -1.14054
 Alpha  occ. eigenvalues --   -1.14029  -1.14012  -1.13976  -1.13952  -1.13924
 Alpha  occ. eigenvalues --   -1.13485  -1.13466  -1.13464  -1.13359  -1.13341
 Alpha  occ. eigenvalues --   -1.13318  -1.13075  -1.13032  -1.13025  -1.12976
 Alpha  occ. eigenvalues --   -1.12949  -1.12924  -1.12866  -1.12810  -1.12805
 Alpha  occ. eigenvalues --   -0.18021  -0.13031  -0.12161  -0.10357
 Alpha virt. eigenvalues --   -0.06187  -0.05672  -0.04628  -0.03116  -0.02675
 Alpha virt. eigenvalues --   -0.02430  -0.01745  -0.01572  -0.00807  -0.00540
 Alpha virt. eigenvalues --   -0.00030   0.00319   0.00700   0.00737   0.00855

  Beta  occ. eigenvalues --  -38.44608 -38.44494 -38.43977 -38.43903 -38.43456
  Beta  occ. eigenvalues --  -38.43436 -38.43202  -2.20374  -2.20287  -2.19805
  Beta  occ. eigenvalues --   -2.19685  -2.19280  -2.19220  -2.19077  -1.14042
  Beta  occ. eigenvalues --   -1.14026  -1.14015  -1.13962  -1.13935  -1.13924
  Beta  occ. eigenvalues --   -1.13489  -1.13466  -1.13450  -1.13349  -1.13340
  Beta  occ. eigenvalues --   -1.13322  -1.12973  -1.12946  -1.12924  -1.12919
  Beta  occ. eigenvalues --   -1.12895  -1.12889  -1.12794  -1.12738  -1.12730
  Beta  occ. eigenvalues --   -0.17320  -0.12850  -0.11965
  Beta virt. eigenvalues --   -0.06447  -0.06209  -0.05570  -0.04599  -0.02385
  Beta virt. eigenvalues --   -0.01984  -0.01657  -0.01512  -0.01341  -0.00856
  Beta virt. eigenvalues --   -0.00577   0.00134   0.00363   0.00715   0.00800

 Mulliken charges and spin densities:
               1          2
     1  Na   0.000829  -0.119440
     2  Na  -0.057524   0.454846
     3  Na   0.226102  -0.074326
     4  Na  -0.002351  -0.013493
     5  Na  -0.440924   0.825463
     6  Na   0.242025   0.003737
     7  Na   0.031842  -0.076786
 Sum of Mulliken charges =  -0.00000   1.00000

 Dipole moment (field-independent basis, Debye):
    X=              0.6291    Y=              0.1078    Z=              0.0702  Tot=              0.6421
 Quadrupole moment (field-independent basis, Debye-Ang):
   XX=            -54.2564   YY=            -61.3052   ZZ=            -77.0266
   XY=             -0.0462   XZ=              0.4376   YZ=              0.8260

 Normal termination of Gaussian 16 at Thu Dec  7 05:21:21 2023.
