 Gaussian 16, Revision B.01,
 Gaussian 16:  ES64L-G16RevB.01 20-Dec-2017

 -------------------------
 #P B3LYP/6-311+g(d) force
 -------------------------

 -----
 DPGEN
 -----
 Symbolic Z-matrix:
 Charge =  0 Multiplicity = 2

                         Standard orientation:
 ---------------------------------------------------------------------
 Center     Atomic      Atomic             Coordinates (Angstroms)
 Number     Number       Type             X           Y           Z
 ---------------------------------------------------------------------
      1         11           0       -2.017018   -2.143718    0.296377
      2         11           0        3.035896    0.798966   -0.105985
      3         11           0       -0.017707    0.038459   -1.416167
      4         11           0        1.471266   -2.578529   -0.559510
      5         11           0        0.171466    3.004079    0.160196
      6         11           0        0.218454   -0.308104    2.058479
      7         11           0       -2.862358    1.188847   -0.433390
 ---------------------------------------------------------------------

 SCF Done:  E(UB3LYP) =  -1136.13895359     A.U. after   19 cycles

 The electronic state is 2-A.
 Alpha  occ. eigenvalues --  -38.43881 -38.43624 -38.43618 -38.43569 -38.43555
 Alpha  occ. eigenvalues --  -38.43533 -38.42829  -2.19704  -2.19481  -2.19456
 Alpha  occ. eigenvalues --   -2.19430  -2.19419  -2.19413  -2.18879  -1.13387
 Alpha  occ. eigenvalues --   -1.13368  -1.13339  -1.13202  -1.13150  -1.13143
 Alpha  occ. eigenvalues --   -1.13130  -1.13124  -1.13114  -1.13103  -1.13092
 Alpha  occ. eigenvalues --   -1.13083  -1.13082  -1.13063  -1.13047  -1.13047
 Alpha  occ. eigenvalues --   -1.13026  -1.13019  -1.12564  -1.12518  -1.12500
 Alpha  occ. eigenvalues --   -0.18713  -0.12804  -0.12702  -0.10689
 Alpha virt. eigenvalues --   -0.05413  -0.05073  -0.04955  -0.03025  -0.02908
 Alpha virt. eigenvalues --   -0.02449  -0.01408  -0.01256  -0.00408  -0.00321
 Alpha virt. eigenvalues --    0.00020   0.00349   0.00838   0.00874   0.00895

  Beta  occ. eigenvalues --  -38.43878 -38.43622 -38.43601 -38.43561 -38.43546
  Beta  occ. eigenvalues --  -38.43436 -38.42777  -2.19703  -2.19454  -2.19452
  Beta  occ. eigenvalues --   -2.19406  -2.19401  -2.19250  -2.18784  -1.13380
  Beta  occ. eigenvalues --   -1.13360  -1.13333  -1.13175  -1.13143  -1.13117
  Beta  occ. eigenvalues --   -1.13114  -1.13098  -1.13092  -1.13087  -1.13077
  Beta  occ. eigenvalues --   -1.13054  -1.13049  -1.13040  -1.13015  -1.12977
  Beta  occ. eigenvalues --   -1.12927  -1.12905  -1.12492  -1.12445  -1.12434
  Beta  occ. eigenvalues --   -0.18010  -0.12562  -0.12442
  Beta virt. eigenvalues --   -0.06772  -0.05416  -0.05027  -0.04877  -0.02247
  Beta virt. eigenvalues --   -0.02206  -0.01392  -0.01330  -0.01158  -0.00418
  Beta virt. eigenvalues --   -0.00359   0.00153   0.00386   0.00856   0.00883

 Mulliken charges and spin densities:
               1          2
     1  Na   0.271091   0.080370
     2  Na   0.083029  -0.038539
     3  Na  -0.355262   0.233534
     4  Na   0.215055   0.017656
     5  Na   0.052386   0.011384
     6  Na  -0.392548   0.698899
     7  Na   0.126249  -0.003304
 Sum of Mulliken charges =  -0.00000   1.00000

 Dipole moment (field-independent basis, Debye):
    X=              0.1805    Y=              0.0246    Z=              0.2199  Tot=              0.2856
 Quadrupole moment (field-independent basis, Debye-Ang):
   XX=            -57.6934   YY=            -59.9110   ZZ=            -74.8365
   XY=              0.3254   XZ=             -0.3354   YZ=              0.8269

 Normal termination of Gaussian 16 at Fri Dec  8 07:00:20 2023.
