 Gaussian 16, Revision B.01,
 Gaussian 16:  ES64L-G16RevB.01 20-Dec-2017

 -------------------------
 #P B3LYP/6-311+g(d) force
 -------------------------

 -----
 DPGEN
 -----
 Symbolic Z-matrix:
 Charge =  0 Multiplicity = 2

                         Standard orientation:
 ---------------------------------------------------------------------
 Center     Atomic      Atomic             Coordinates (Angstroms)
 Number     Number       Type             X           Y           Z
 ---------------------------------------------------------------------
      1         11           0        0.150838   -2.306161    0.160888
      2         11           0       -2.963724   -1.260587   -0.334554
      3         11           0       -0.193936   -0.042426    1.983289
      4         11           0        1.607686    2.497128   -0.094599
      5         11           0        3.459683   -0.912906   -0.057476
      6         11           0        0.035592   -0.003778   -1.761329
      7         11           0       -2.096139    2.028731    0.103781
 ---------------------------------------------------------------------

 SCF Done:  E(UB3LYP) =  -1136.13083614     A.U. after   20 cycles

 The electronic state is 2-A.
 Alpha  occ. eigenvalues --  -38.44713 -38.43997 -38.43697 -38.43578 -38.43492
 Alpha  occ. eigenvalues --  -38.43485 -38.42917  -2.20476  -2.19853  -2.19648
 Alpha  occ. eigenvalues --   -2.19547  -2.19343  -2.19305  -2.18897  -1.14152
 Alpha  occ. eigenvalues --   -1.14135  -1.14112  -1.13519  -1.13515  -1.13505
 Alpha  occ. eigenvalues --   -1.13393  -1.13290  -1.13270  -1.13236  -1.13198
 Alpha  occ. eigenvalues --   -1.13145  -1.13018  -1.13008  -1.12988  -1.12976
 Alpha  occ. eigenvalues --   -1.12965  -1.12922  -1.12601  -1.12573  -1.12457
 Alpha  occ. eigenvalues --   -0.18872  -0.13079  -0.12143  -0.10914
 Alpha virt. eigenvalues --   -0.06175  -0.05211  -0.03940  -0.03184  -0.02807
 Alpha virt. eigenvalues --   -0.02641  -0.02055  -0.01159  -0.00255  -0.00092
 Alpha virt. eigenvalues --    0.00054   0.00295   0.00715   0.00838   0.00877

  Beta  occ. eigenvalues --  -38.44718 -38.43989 -38.43599 -38.43507 -38.43490
  Beta  occ. eigenvalues --  -38.43478 -38.42899  -2.20486  -2.19841  -2.19468
  Beta  occ. eigenvalues --   -2.19419  -2.19333  -2.19304  -2.18871  -1.14151
  Beta  occ. eigenvalues --   -1.14140  -1.14119  -1.13511  -1.13507  -1.13477
  Beta  occ. eigenvalues --   -1.13276  -1.13196  -1.13154  -1.13113  -1.13108
  Beta  occ. eigenvalues --   -1.13054  -1.13001  -1.12977  -1.12973  -1.12964
  Beta  occ. eigenvalues --   -1.12963  -1.12923  -1.12585  -1.12501  -1.12447
  Beta  occ. eigenvalues --   -0.18100  -0.12877  -0.11872
  Beta virt. eigenvalues --   -0.06941  -0.06120  -0.05214  -0.03939  -0.02463
  Beta virt. eigenvalues --   -0.01981  -0.01969  -0.01545  -0.01109  -0.00306
  Beta virt. eigenvalues --   -0.00011   0.00088   0.00314   0.00769   0.00841

 Mulliken charges and spin densities:
               1          2
     1  Na   0.505874  -0.001069
     2  Na   0.280220   0.017798
     3  Na  -0.388513   0.648383
     4  Na  -0.033729  -0.155948
     5  Na  -0.025172  -0.133776
     6  Na  -0.473000   0.690037
     7  Na   0.134320  -0.065425
 Sum of Mulliken charges =  -0.00000   1.00000

 Dipole moment (field-independent basis, Debye):
    X=              0.2925    Y=              0.0893    Z=             -0.0105  Tot=              0.3060
 Quadrupole moment (field-independent basis, Debye-Ang):
   XX=            -50.4393   YY=            -68.1821   ZZ=            -73.6072
   XY=              0.2452   XZ=              0.6786   YZ=              0.4870

 Normal termination of Gaussian 16 at Thu Dec  7 07:32:24 2023.
