 Gaussian 16, Revision B.01,
 Gaussian 16:  ES64L-G16RevB.01 20-Dec-2017

 -------------------------
 #P B3LYP/6-311+g(d) force
 -------------------------

 -----
 DPGEN
 -----
 Symbolic Z-matrix:
 Charge =  0 Multiplicity = 2

                         Standard orientation:
 ---------------------------------------------------------------------
 Center     Atomic      Atomic             Coordinates (Angstroms)
 Number     Number       Type             X           Y           Z
 ---------------------------------------------------------------------
      1         11           0       -2.752970   -1.057181   -0.618987
      2         11           0        1.517068    2.389079   -0.082951
      3         11           0       -2.025668    1.819008    0.025200
      4         11           0        0.249241   -2.420750    0.653062
      5         11           0       -0.270332    0.206833    2.042359
      6         11           0        3.208106   -0.676855   -0.315079
      7         11           0        0.074556   -0.260134   -1.703604
 ---------------------------------------------------------------------

 SCF Done:  E(UB3LYP) =  -1136.13233989     A.U. after   19 cycles

 The electronic state is 2-A.
 Alpha  occ. eigenvalues --  -38.44210 -38.43914 -38.43787 -38.43525 -38.43290
 Alpha  occ. eigenvalues --  -38.43135 -38.42943  -2.20029  -2.19887  -2.19710
 Alpha  occ. eigenvalues --   -2.19539  -2.19231  -2.18989  -2.18876  -1.13707
 Alpha  occ. eigenvalues --   -1.13680  -1.13671  -1.13578  -1.13550  -1.13484
 Alpha  occ. eigenvalues --   -1.13451  -1.13389  -1.13327  -1.13221  -1.13177
 Alpha  occ. eigenvalues --   -1.13147  -1.12910  -1.12885  -1.12847  -1.12672
 Alpha  occ. eigenvalues --   -1.12663  -1.12610  -1.12588  -1.12532  -1.12466
 Alpha  occ. eigenvalues --   -0.19305  -0.13347  -0.12184  -0.11502
 Alpha virt. eigenvalues --   -0.05728  -0.04807  -0.03976  -0.03464  -0.03056
 Alpha virt. eigenvalues --   -0.02950  -0.01654  -0.00806  -0.00159   0.00094
 Alpha virt. eigenvalues --    0.00194   0.00354   0.00821   0.00944   0.00987

  Beta  occ. eigenvalues --  -38.44207 -38.43812 -38.43769 -38.43463 -38.43281
  Beta  occ. eigenvalues --  -38.43133 -38.42919  -2.20026  -2.19703  -2.19680
  Beta  occ. eigenvalues --   -2.19426  -2.19220  -2.18988  -2.18838  -1.13694
  Beta  occ. eigenvalues --   -1.13680  -1.13669  -1.13455  -1.13429  -1.13409
  Beta  occ. eigenvalues --   -1.13364  -1.13354  -1.13292  -1.13149  -1.13102
  Beta  occ. eigenvalues --   -1.13060  -1.12900  -1.12853  -1.12836  -1.12668
  Beta  occ. eigenvalues --   -1.12652  -1.12606  -1.12554  -1.12478  -1.12447
  Beta  occ. eigenvalues --   -0.18548  -0.13062  -0.11918
  Beta virt. eigenvalues --   -0.07485  -0.05661  -0.04798  -0.03956  -0.02712
  Beta virt. eigenvalues --   -0.02245  -0.01852  -0.01528  -0.00772  -0.00008
  Beta virt. eigenvalues --    0.00065   0.00187   0.00387   0.00883   0.00951

 Mulliken charges and spin densities:
               1          2
     1  Na   0.357281   0.071757
     2  Na  -0.034656  -0.069994
     3  Na   0.263189   0.025648
     4  Na   0.283654   0.099372
     5  Na  -0.350282   0.478704
     6  Na  -0.009847  -0.085793
     7  Na  -0.509339   0.480307
 Sum of Mulliken charges =  -0.00000   1.00000

 Dipole moment (field-independent basis, Debye):
    X=              0.3065    Y=             -0.0574    Z=             -0.0284  Tot=              0.3131
 Quadrupole moment (field-independent basis, Debye-Ang):
   XX=            -55.4174   YY=            -68.3798   ZZ=            -70.8146
   XY=              0.0947   XZ=              0.5435   YZ=             -0.2547

 Normal termination of Gaussian 16 at Tue Dec  5 19:47:36 2023.
