 Gaussian 16, Revision B.01,
 Gaussian 16:  ES64L-G16RevB.01 20-Dec-2017

 -------------------------
 #P B3LYP/6-311+g(d) force
 -------------------------

 -----
 DPGEN
 -----
 Symbolic Z-matrix:
 Charge =  0 Multiplicity = 2

                         Standard orientation:
 ---------------------------------------------------------------------
 Center     Atomic      Atomic             Coordinates (Angstroms)
 Number     Number       Type             X           Y           Z
 ---------------------------------------------------------------------
      1         11           0        2.343636    1.824325   -0.065938
      2         11           0        0.049336   -0.004168    1.976152
      3         11           0       -3.317001   -0.111103   -0.003384
      4         11           0        3.074755   -1.456042   -0.135659
      5         11           0       -1.025408    2.852802   -0.145747
      6         11           0       -0.189154   -0.199688   -1.617357
      7         11           0       -0.936164   -2.906125   -0.008068
 ---------------------------------------------------------------------

 SCF Done:  E(UB3LYP) =  -1136.13712539     A.U. after   19 cycles

 The electronic state is 2-A.
 Alpha  occ. eigenvalues --  -38.44595 -38.44241 -38.43685 -38.43644 -38.43350
 Alpha  occ. eigenvalues --  -38.43247 -38.43164  -2.20391  -2.20030  -2.19510
 Alpha  occ. eigenvalues --   -2.19496  -2.19233  -2.19111  -2.19078  -1.14069
 Alpha  occ. eigenvalues --   -1.14047  -1.14028  -1.13701  -1.13696  -1.13670
 Alpha  occ. eigenvalues --   -1.13215  -1.13175  -1.13173  -1.13169  -1.13131
 Alpha  occ. eigenvalues --   -1.13131  -1.12913  -1.12855  -1.12850  -1.12802
 Alpha  occ. eigenvalues --   -1.12775  -1.12739  -1.12733  -1.12721  -1.12711
 Alpha  occ. eigenvalues --   -0.18343  -0.13069  -0.12264  -0.10358
 Alpha virt. eigenvalues --   -0.06099  -0.05192  -0.04811  -0.03100  -0.02681
 Alpha virt. eigenvalues --   -0.02328  -0.01866  -0.01210  -0.00690  -0.00471
 Alpha virt. eigenvalues --   -0.00015   0.00333   0.00755   0.00800   0.00864

  Beta  occ. eigenvalues --  -38.44593 -38.44240 -38.43680 -38.43639 -38.43255
  Beta  occ. eigenvalues --  -38.43243 -38.43102  -2.20389  -2.20030  -2.19505
  Beta  occ. eigenvalues --   -2.19490  -2.19074  -2.19058  -2.18999  -1.14052
  Beta  occ. eigenvalues --   -1.14043  -1.14031  -1.13702  -1.13682  -1.13672
  Beta  occ. eigenvalues --   -1.13207  -1.13171  -1.13150  -1.13138  -1.13132
  Beta  occ. eigenvalues --   -1.13131  -1.12800  -1.12758  -1.12733  -1.12727
  Beta  occ. eigenvalues --   -1.12719  -1.12713  -1.12710  -1.12662  -1.12640
  Beta  occ. eigenvalues --   -0.17625  -0.12865  -0.12040
  Beta virt. eigenvalues --   -0.06469  -0.06070  -0.05193  -0.04766  -0.02338
  Beta virt. eigenvalues --   -0.01943  -0.01776  -0.01273  -0.01135  -0.00749
  Beta virt. eigenvalues --   -0.00521   0.00135   0.00361   0.00784   0.00819

 Mulliken charges and spin densities:
               1          2
     1  Na   0.164460  -0.018648
     2  Na  -0.368125   0.800761
     3  Na   0.171853  -0.065631
     4  Na   0.077820  -0.088818
     5  Na   0.063335  -0.071166
     6  Na  -0.185498   0.591221
     7  Na   0.076154  -0.147720
 Sum of Mulliken charges =  -0.00000   1.00000

 Dipole moment (field-independent basis, Debye):
    X=             -0.2203    Y=             -0.2741    Z=              0.0734  Tot=              0.3593
 Quadrupole moment (field-independent basis, Debye-Ang):
   XX=            -53.3649   YY=            -61.9136   ZZ=            -76.6641
   XY=             -0.8009   XZ=             -0.5742   YZ=             -0.3921

 Normal termination of Gaussian 16 at Sun Dec  3 23:51:52 2023.
