 Gaussian 16, Revision B.01,
 Gaussian 16:  ES64L-G16RevB.01 20-Dec-2017

 -------------------------
 #P B3LYP/6-311+g(d) force
 -------------------------

 -----
 DPGEN
 -----
 Symbolic Z-matrix:
 Charge =  0 Multiplicity = 2

                         Standard orientation:
 ---------------------------------------------------------------------
 Center     Atomic      Atomic             Coordinates (Angstroms)
 Number     Number       Type             X           Y           Z
 ---------------------------------------------------------------------
      1         11           0        0.389539   -0.290559   -1.711251
      2         11           0        1.489578    1.157805    2.071993
      3         11           0        3.155344   -1.317489   -0.784088
      4         11           0        0.706063    3.181841   -0.332219
      5         11           0       -2.656327    1.561754   -0.237767
      6         11           0        0.330493   -2.726928    0.814157
      7         11           0       -3.414690   -1.566424    0.179174
 ---------------------------------------------------------------------

 SCF Done:  E(UB3LYP) =  -1136.12649213     A.U. after   21 cycles

 The electronic state is 2-A.
 Alpha  occ. eigenvalues --  -38.44457 -38.44299 -38.44139 -38.44053 -38.43939
 Alpha  occ. eigenvalues --  -38.43810 -38.43551  -2.20292  -2.20094  -2.19938
 Alpha  occ. eigenvalues --   -2.19872  -2.19828  -2.19593  -2.19366  -1.14007
 Alpha  occ. eigenvalues --   -1.13930  -1.13922  -1.13778  -1.13765  -1.13707
 Alpha  occ. eigenvalues --   -1.13619  -1.13616  -1.13572  -1.13526  -1.13522
 Alpha  occ. eigenvalues --   -1.13495  -1.13491  -1.13476  -1.13444  -1.13265
 Alpha  occ. eigenvalues --   -1.13249  -1.13235  -1.13038  -1.13026  -1.13012
 Alpha  occ. eigenvalues --   -0.17477  -0.13036  -0.12540  -0.10671
 Alpha virt. eigenvalues --   -0.06092  -0.05444  -0.05006  -0.03331  -0.03075
 Alpha virt. eigenvalues --   -0.02479  -0.01794  -0.01185  -0.00826  -0.00623
 Alpha virt. eigenvalues --   -0.00145   0.00303   0.00553   0.00720   0.00766

  Beta  occ. eigenvalues --  -38.44437 -38.44277 -38.44135 -38.43973 -38.43878
  Beta  occ. eigenvalues --  -38.43812 -38.43555  -2.20258  -2.20054  -2.19931
  Beta  occ. eigenvalues --   -2.19723  -2.19717  -2.19598  -2.19376  -1.13969
  Beta  occ. eigenvalues --   -1.13907  -1.13891  -1.13752  -1.13725  -1.13679
  Beta  occ. eigenvalues --   -1.13613  -1.13603  -1.13572  -1.13427  -1.13423
  Beta  occ. eigenvalues --   -1.13418  -1.13392  -1.13389  -1.13363  -1.13269
  Beta  occ. eigenvalues --   -1.13249  -1.13235  -1.13039  -1.13029  -1.13007
  Beta  occ. eigenvalues --   -0.16854  -0.12879  -0.12263
  Beta virt. eigenvalues --   -0.07012  -0.05904  -0.05237  -0.04752  -0.02704
  Beta virt. eigenvalues --   -0.02590  -0.01780  -0.01610  -0.01167  -0.00689
  Beta virt. eigenvalues --   -0.00550   0.00096   0.00377   0.00698   0.00778

 Mulliken charges and spin densities:
               1          2
     1  Na   0.569490   0.191408
     2  Na  -0.147489   0.388409
     3  Na   0.206605   0.084731
     4  Na  -0.051562  -0.018222
     5  Na  -0.105435   0.058344
     6  Na  -0.408816   0.325708
     7  Na  -0.062793  -0.030377
 Sum of Mulliken charges =  -0.00000   1.00000

 Dipole moment (field-independent basis, Debye):
    X=              0.4880    Y=             -0.2666    Z=             -0.0214  Tot=              0.5565
 Quadrupole moment (field-independent basis, Debye-Ang):
   XX=            -59.1849   YY=            -63.9265   ZZ=            -73.5668
   XY=             -1.5507   XZ=             -1.0804   YZ=             -2.7135

 Normal termination of Gaussian 16 at Sun Dec  3 15:15:33 2023.
