 Gaussian 16, Revision B.01,
 Gaussian 16:  ES64L-G16RevB.01 20-Dec-2017

 -------------------------
 #P B3LYP/6-311+g(d) force
 -------------------------

 -----
 DPGEN
 -----
 Symbolic Z-matrix:
 Charge =  0 Multiplicity = 2

                         Standard orientation:
 ---------------------------------------------------------------------
 Center     Atomic      Atomic             Coordinates (Angstroms)
 Number     Number       Type             X           Y           Z
 ---------------------------------------------------------------------
      1         11           0       -2.934360    0.462842   -0.195938
      2         11           0       -0.754031    2.709993    0.246101
      3         11           0        2.759459    1.268663   -0.230309
      4         11           0        0.119509   -0.131037   -1.478680
      5         11           0        2.696025   -1.824882    0.110684
      6         11           0        0.151205   -0.104522    1.498058
      7         11           0       -2.037806   -2.381057    0.050085
 ---------------------------------------------------------------------

 SCF Done:  E(UB3LYP) =  -1136.12675323     A.U. after   21 cycles

 The electronic state is 2-A.
 Alpha  occ. eigenvalues --  -38.44322 -38.44278 -38.44165 -38.43563 -38.43082
 Alpha  occ. eigenvalues --  -38.42797 -38.42714  -2.20225  -2.20145  -2.20110
 Alpha  occ. eigenvalues --   -2.19441  -2.19133  -2.18856  -2.18622  -1.13959
 Alpha  occ. eigenvalues --   -1.13897  -1.13870  -1.13816  -1.13799  -1.13794
 Alpha  occ. eigenvalues --   -1.13778  -1.13754  -1.13747  -1.13116  -1.13087
 Alpha  occ. eigenvalues --   -1.13083  -1.12935  -1.12743  -1.12738  -1.12545
 Alpha  occ. eigenvalues --   -1.12485  -1.12455  -1.12296  -1.12269  -1.12256
 Alpha  occ. eigenvalues --   -0.19341  -0.14127  -0.12136  -0.10140
 Alpha virt. eigenvalues --   -0.06073  -0.05641  -0.04158  -0.03399  -0.02245
 Alpha virt. eigenvalues --   -0.02011  -0.01732  -0.01303  -0.00452  -0.00164
 Alpha virt. eigenvalues --    0.00070   0.00329   0.00695   0.00808   0.00916

  Beta  occ. eigenvalues --  -38.44310 -38.44272 -38.44157 -38.43561 -38.43018
  Beta  occ. eigenvalues --  -38.42721 -38.42706  -2.20207  -2.20138  -2.20099
  Beta  occ. eigenvalues --   -2.19440  -2.19018  -2.18719  -2.18612  -1.13953
  Beta  occ. eigenvalues --   -1.13877  -1.13836  -1.13816  -1.13793  -1.13774
  Beta  occ. eigenvalues --   -1.13767  -1.13741  -1.13714  -1.13118  -1.13087
  Beta  occ. eigenvalues --   -1.13058  -1.12848  -1.12659  -1.12655  -1.12450
  Beta  occ. eigenvalues --   -1.12392  -1.12359  -1.12285  -1.12251  -1.12223
  Beta  occ. eigenvalues --   -0.18634  -0.13840  -0.11880
  Beta virt. eigenvalues --   -0.06269  -0.06018  -0.05613  -0.04164  -0.02550
  Beta virt. eigenvalues --   -0.01907  -0.01557  -0.01264  -0.00791  -0.00488
  Beta virt. eigenvalues --   -0.00159   0.00211   0.00368   0.00743   0.00811

 Mulliken charges and spin densities:
               1          2
     1  Na   0.244950   0.094077
     2  Na   0.120798   0.039614
     3  Na   0.274296   0.100524
     4  Na  -0.467527   0.328978
     5  Na   0.172122  -0.012208
     6  Na  -0.559556   0.452686
     7  Na   0.214917  -0.003670
 Sum of Mulliken charges =  -0.00000   1.00000

 Dipole moment (field-independent basis, Debye):
    X=              0.5084    Y=             -0.2289    Z=              0.0040  Tot=              0.5576
 Quadrupole moment (field-independent basis, Debye-Ang):
   XX=            -51.0374   YY=            -62.3736   ZZ=            -77.7839
   XY=             -0.4530   XZ=              0.0242   YZ=             -0.2367

 Normal termination of Gaussian 16 at Tue Nov 28 19:08:42 2023.
