 Gaussian 16, Revision B.01,
 Gaussian 16:  ES64L-G16RevB.01 20-Dec-2017

 -------------------------
 #P B3LYP/6-311+g(d) force
 -------------------------

 -----
 DPGEN
 -----
 Symbolic Z-matrix:
 Charge =  0 Multiplicity = 2

                         Standard orientation:
 ---------------------------------------------------------------------
 Center     Atomic      Atomic             Coordinates (Angstroms)
 Number     Number       Type             X           Y           Z
 ---------------------------------------------------------------------
      1         11           0        3.743675   -1.462469   -1.314224
      2         11           0        2.347742    2.372184   -0.913797
      3         11           0       -0.997868   -0.277285    2.418666
      4         11           0       -3.870974    0.560107   -2.238799
      5         11           0       -3.498970   -1.432655    0.235591
      6         11           0        1.707944   -2.941761    0.532286
      7         11           0        0.568451    3.181878    1.280278
 ---------------------------------------------------------------------

 SCF Done:  E(UB3LYP) =  -1136.10651354     A.U. after   19 cycles

 The electronic state is 2-A.
 Alpha  occ. eigenvalues --  -38.45231 -38.45091 -38.44359 -38.44240 -38.44180
 Alpha  occ. eigenvalues --  -38.43832 -38.43575  -2.21032  -2.20878  -2.20151
 Alpha  occ. eigenvalues --   -2.20052  -2.19954  -2.19629  -2.19393  -1.14671
 Alpha  occ. eigenvalues --   -1.14666  -1.14658  -1.14520  -1.14518  -1.14499
 Alpha  occ. eigenvalues --   -1.13827  -1.13822  -1.13809  -1.13774  -1.13705
 Alpha  occ. eigenvalues --   -1.13678  -1.13643  -1.13625  -1.13605  -1.13286
 Alpha  occ. eigenvalues --   -1.13273  -1.13265  -1.13062  -1.13042  -1.13030
 Alpha  occ. eigenvalues --   -0.15762  -0.13721  -0.12174  -0.11731
 Alpha virt. eigenvalues --   -0.06412  -0.05510  -0.04766  -0.03659  -0.03239
 Alpha virt. eigenvalues --   -0.02591  -0.01664  -0.01255  -0.00993  -0.00735
 Alpha virt. eigenvalues --   -0.00681  -0.00475  -0.00228   0.00265   0.00563

  Beta  occ. eigenvalues --  -38.45143 -38.44999 -38.44370 -38.44220 -38.44183
  Beta  occ. eigenvalues --  -38.43816 -38.43579  -2.20867  -2.20706  -2.20178
  Beta  occ. eigenvalues --   -2.20015  -2.19961  -2.19599  -2.19401  -1.14561
  Beta  occ. eigenvalues --   -1.14554  -1.14547  -1.14408  -1.14403  -1.14379
  Beta  occ. eigenvalues --   -1.13847  -1.13845  -1.13784  -1.13752  -1.13680
  Beta  occ. eigenvalues --   -1.13652  -1.13645  -1.13630  -1.13603  -1.13266
  Beta  occ. eigenvalues --   -1.13255  -1.13245  -1.13065  -1.13048  -1.13027
  Beta  occ. eigenvalues --   -0.15074  -0.13127  -0.12194
  Beta virt. eigenvalues --   -0.08278  -0.05916  -0.05040  -0.04320  -0.03370
  Beta virt. eigenvalues --   -0.02933  -0.02378  -0.01517  -0.00948  -0.00908
  Beta virt. eigenvalues --   -0.00606  -0.00445  -0.00176   0.00084   0.00411

 Mulliken charges and spin densities:
               1          2
     1  Na   0.319119   0.077763
     2  Na  -0.331067   0.186023
     3  Na  -0.120143   0.435209
     4  Na   0.058255   0.394124
     5  Na   0.040059  -0.025662
     6  Na  -0.182801  -0.006957
     7  Na   0.216577  -0.060500
 Sum of Mulliken charges =  -0.00000   1.00000

 Dipole moment (field-independent basis, Debye):
    X=             -0.9147    Y=              0.1322    Z=             -0.5335  Tot=              1.0671
 Quadrupole moment (field-independent basis, Debye-Ang):
   XX=            -68.1451   YY=            -70.7975   ZZ=            -63.2624
   XY=              0.4189   XZ=             -2.3132   YZ=             -4.1236

 Normal termination of Gaussian 16 at Mon Dec  4 03:03:12 2023.
