 Gaussian 16, Revision B.01,
 Gaussian 16:  ES64L-G16RevB.01 20-Dec-2017

 -------------------------
 #P B3LYP/6-311+g(d) force
 -------------------------

 -----
 DPGEN
 -----
 Symbolic Z-matrix:
 Charge =  0 Multiplicity = 2

                         Standard orientation:
 ---------------------------------------------------------------------
 Center     Atomic      Atomic             Coordinates (Angstroms)
 Number     Number       Type             X           Y           Z
 ---------------------------------------------------------------------
      1         11           0       -1.822064    2.590034    0.114414
      2         11           0       -3.022911   -0.712410   -0.214760
      3         11           0        0.355550    0.172269   -1.677175
      4         11           0       -0.336200   -2.834610   -0.136814
      5         11           0        2.040380    2.066483    0.047790
      6         11           0        2.832279   -0.946507    0.034687
      7         11           0       -0.047034   -0.335259    1.831859
 ---------------------------------------------------------------------

 SCF Done:  E(UB3LYP) =  -1136.13658668     A.U. after   21 cycles

 The electronic state is 2-A.
 Alpha  occ. eigenvalues --  -38.44098 -38.43844 -38.43691 -38.43626 -38.43203
 Alpha  occ. eigenvalues --  -38.43169 -38.43168  -2.19926  -2.19757  -2.19595
 Alpha  occ. eigenvalues --   -2.19425  -2.19166  -2.19154  -2.19055  -1.13599
 Alpha  occ. eigenvalues --   -1.13590  -1.13568  -1.13491  -1.13424  -1.13396
 Alpha  occ. eigenvalues --   -1.13310  -1.13238  -1.13199  -1.13098  -1.13084
 Alpha  occ. eigenvalues --   -1.13070  -1.12883  -1.12837  -1.12804  -1.12802
 Alpha  occ. eigenvalues --   -1.12775  -1.12767  -1.12709  -1.12694  -1.12678
 Alpha  occ. eigenvalues --   -0.18970  -0.13322  -0.12429  -0.10580
 Alpha virt. eigenvalues --   -0.05608  -0.05311  -0.04679  -0.03251  -0.02746
 Alpha virt. eigenvalues --   -0.02288  -0.01510  -0.01115  -0.00397  -0.00311
 Alpha virt. eigenvalues --    0.00018   0.00363   0.00811   0.00889   0.00904

  Beta  occ. eigenvalues --  -38.44094 -38.43835 -38.43684 -38.43626 -38.43160
  Beta  occ. eigenvalues --  -38.43120 -38.43097  -2.19922  -2.19745  -2.19586
  Beta  occ. eigenvalues --   -2.19427  -2.19045  -2.19036  -2.19002  -1.13589
  Beta  occ. eigenvalues --   -1.13577  -1.13570  -1.13487  -1.13404  -1.13366
  Beta  occ. eigenvalues --   -1.13295  -1.13208  -1.13196  -1.13087  -1.13082
  Beta  occ. eigenvalues --   -1.13074  -1.12812  -1.12756  -1.12720  -1.12708
  Beta  occ. eigenvalues --   -1.12684  -1.12676  -1.12667  -1.12653  -1.12629
  Beta  occ. eigenvalues --   -0.18229  -0.13075  -0.12191
  Beta virt. eigenvalues --   -0.06661  -0.05569  -0.05303  -0.04655  -0.02426
  Beta virt. eigenvalues --   -0.02000  -0.01428  -0.01261  -0.01041  -0.00440
  Beta virt. eigenvalues --   -0.00372   0.00156   0.00388   0.00855   0.00886

 Mulliken charges and spin densities:
               1          2
     1  Na  -0.087065  -0.116960
     2  Na  -0.029912  -0.079586
     3  Na  -0.325858   0.604034
     4  Na   0.204671  -0.084961
     5  Na   0.158584  -0.063930
     6  Na   0.452890  -0.007207
     7  Na  -0.373310   0.748610
 Sum of Mulliken charges =  -0.00000   1.00000

 Dipole moment (field-independent basis, Debye):
    X=             -0.1034    Y=              0.0183    Z=              0.0585  Tot=              0.1202
 Quadrupole moment (field-independent basis, Debye-Ang):
   XX=            -55.8880   YY=            -61.9325   ZZ=            -75.2700
   XY=             -0.0491   XZ=              0.9158   YZ=              1.2276

 Normal termination of Gaussian 16 at Sat Dec  9 06:21:29 2023.
