 Gaussian 16, Revision B.01,
 Gaussian 16:  ES64L-G16RevB.01 20-Dec-2017

 -------------------------
 #P B3LYP/6-311+g(d) force
 -------------------------

 -----
 DPGEN
 -----
 Symbolic Z-matrix:
 Charge =  0 Multiplicity = 2

                         Standard orientation:
 ---------------------------------------------------------------------
 Center     Atomic      Atomic             Coordinates (Angstroms)
 Number     Number       Type             X           Y           Z
 ---------------------------------------------------------------------
      1         11           0        4.960433   -0.309664   -0.012604
      2         11           0       -0.720999    3.787000    0.389889
      3         11           0       -1.330375   -2.968932    0.856454
      4         11           0       -4.031312   -1.859510   -0.307984
      5         11           0       -3.081700    1.954208   -0.419350
      6         11           0        2.127459    1.865033    0.013676
      7         11           0        2.076494   -2.468134   -0.520082
 ---------------------------------------------------------------------

 SCF Done:  E(UB3LYP) =  -1136.11363449     A.U. after   22 cycles

 The electronic state is 2-A.
 Alpha  occ. eigenvalues --  -38.45647 -38.45355 -38.44976 -38.43995 -38.43875
 Alpha  occ. eigenvalues --  -38.43768 -38.43567  -2.21406  -2.21131  -2.20748
 Alpha  occ. eigenvalues --   -2.19801  -2.19679  -2.19575  -2.19408  -1.15108
 Alpha  occ. eigenvalues --   -1.15094  -1.15008  -1.14818  -1.14802  -1.14767
 Alpha  occ. eigenvalues --   -1.14435  -1.14422  -1.14349  -1.13457  -1.13455
 Alpha  occ. eigenvalues --   -1.13416  -1.13393  -1.13349  -1.13333  -1.13233
 Alpha  occ. eigenvalues --   -1.13212  -1.13190  -1.13082  -1.13052  -1.13049
 Alpha  occ. eigenvalues --   -0.15861  -0.13864  -0.13446  -0.10444
 Alpha virt. eigenvalues --   -0.07487  -0.05249  -0.04334  -0.03591  -0.03026
 Alpha virt. eigenvalues --   -0.02552  -0.02202  -0.02046  -0.01381  -0.00583
 Alpha virt. eigenvalues --   -0.00381  -0.00099   0.00190   0.00492   0.00595

  Beta  occ. eigenvalues --  -38.45630 -38.45346 -38.44931 -38.43941 -38.43861
  Beta  occ. eigenvalues --  -38.43744 -38.43551  -2.21378  -2.21115  -2.20668
  Beta  occ. eigenvalues --   -2.19701  -2.19654  -2.19529  -2.19378  -1.15094
  Beta  occ. eigenvalues --   -1.15077  -1.14961  -1.14809  -1.14790  -1.14742
  Beta  occ. eigenvalues --   -1.14385  -1.14369  -1.14265  -1.13388  -1.13384
  Beta  occ. eigenvalues --   -1.13376  -1.13354  -1.13335  -1.13302  -1.13201
  Beta  occ. eigenvalues --   -1.13177  -1.13157  -1.13068  -1.13031  -1.13024
  Beta  occ. eigenvalues --   -0.15402  -0.13401  -0.13036
  Beta virt. eigenvalues --   -0.07428  -0.06956  -0.04863  -0.03983  -0.03303
  Beta virt. eigenvalues --   -0.02584  -0.02394  -0.01986  -0.01838  -0.01263
  Beta virt. eigenvalues --   -0.00280  -0.00027   0.00148   0.00314   0.00512

 Mulliken charges and spin densities:
               1          2
     1  Na   0.775755   0.261691
     2  Na   0.793375   0.039603
     3  Na  -0.400521   0.039261
     4  Na   0.361415   0.132801
     5  Na  -0.396314   0.077562
     6  Na  -0.859584   0.238782
     7  Na  -0.274125   0.210299
 Sum of Mulliken charges =  -0.00000   1.00000

 Dipole moment (field-independent basis, Debye):
    X=              0.7285    Y=              0.5500    Z=             -0.1280  Tot=              0.9218
 Quadrupole moment (field-independent basis, Debye-Ang):
   XX=            -62.3844   YY=            -66.0006   ZZ=            -71.7527
   XY=             -2.9458   XZ=              0.8264   YZ=              1.1144

 Normal termination of Gaussian 16 at Sun Dec  3 22:19:10 2023.
