 Gaussian 16, Revision B.01,
 Gaussian 16:  ES64L-G16RevB.01 20-Dec-2017

 -------------------------
 #P B3LYP/6-311+g(d) force
 -------------------------

 -----
 DPGEN
 -----
 Symbolic Z-matrix:
 Charge =  0 Multiplicity = 2

                         Standard orientation:
 ---------------------------------------------------------------------
 Center     Atomic      Atomic             Coordinates (Angstroms)
 Number     Number       Type             X           Y           Z
 ---------------------------------------------------------------------
      1         11           0       -4.303236    0.450870   -0.974426
      2         11           0       -1.266433    1.396998    0.921409
      3         11           0       -1.859109   -1.871345    0.575561
      4         11           0        1.046020   -0.935556    1.737968
      5         11           0        2.410881    1.988296    0.344680
      6         11           0        3.586882   -0.995758   -1.125025
      7         11           0        0.384994   -0.033505   -1.480167
 ---------------------------------------------------------------------

 SCF Done:  E(UB3LYP) =  -1136.12004086     A.U. after   37 cycles

 The electronic state is 2-A.
 Alpha  occ. eigenvalues --  -38.44845 -38.44577 -38.44291 -38.44073 -38.43761
 Alpha  occ. eigenvalues --  -38.43581 -38.42275  -2.20768  -2.20442  -2.20121
 Alpha  occ. eigenvalues --   -2.20003  -2.19657  -2.19331  -2.18224  -1.14498
 Alpha  occ. eigenvalues --   -1.14425  -1.14379  -1.14120  -1.14100  -1.14049
 Alpha  occ. eigenvalues --   -1.13788  -1.13771  -1.13740  -1.13726  -1.13653
 Alpha  occ. eigenvalues --   -1.13592  -1.13348  -1.13316  -1.13253  -1.13021
 Alpha  occ. eigenvalues --   -1.13017  -1.12975  -1.11899  -1.11889  -1.11850
 Alpha  occ. eigenvalues --   -0.18891  -0.13938  -0.11730  -0.10693
 Alpha virt. eigenvalues --   -0.06937  -0.05307  -0.04521  -0.03099  -0.02816
 Alpha virt. eigenvalues --   -0.02391  -0.02159  -0.01443  -0.01010  -0.00193
 Alpha virt. eigenvalues --   -0.00009   0.00203   0.00391   0.00577   0.00655

  Beta  occ. eigenvalues --  -38.44804 -38.44530 -38.44258 -38.44024 -38.43734
  Beta  occ. eigenvalues --  -38.43625 -38.42246  -2.20699  -2.20359  -2.20060
  Beta  occ. eigenvalues --   -2.19916  -2.19606  -2.19415  -2.18173  -1.14419
  Beta  occ. eigenvalues --   -1.14367  -1.14331  -1.14055  -1.14046  -1.13976
  Beta  occ. eigenvalues --   -1.13737  -1.13725  -1.13705  -1.13672  -1.13582
  Beta  occ. eigenvalues --   -1.13517  -1.13310  -1.13285  -1.13216  -1.13077
  Beta  occ. eigenvalues --   -1.13073  -1.13028  -1.11877  -1.11822  -1.11811
  Beta  occ. eigenvalues --   -0.18022  -0.13934  -0.10491
  Beta virt. eigenvalues --   -0.07716  -0.06680  -0.04763  -0.04438  -0.02668
  Beta virt. eigenvalues --   -0.02581  -0.01742  -0.01620  -0.01030  -0.00864
  Beta virt. eigenvalues --   -0.00166   0.00007   0.00316   0.00423   0.00646

 Mulliken charges and spin densities:
               1          2
     1  Na   0.185397  -0.260326
     2  Na  -0.188136   0.276213
     3  Na   0.066744  -0.061032
     4  Na  -0.029174   0.388835
     5  Na   0.184261   0.039875
     6  Na   0.289200  -0.163148
     7  Na  -0.508292   0.779582
 Sum of Mulliken charges =  -0.00000   1.00000

 Dipole moment (field-independent basis, Debye):
    X=              0.9981    Y=             -0.2175    Z=              0.4621  Tot=              1.1212
 Quadrupole moment (field-independent basis, Debye-Ang):
   XX=            -58.8238   YY=            -66.0582   ZZ=            -74.1278
   XY=              1.6796   XZ=              1.0901   YZ=              4.5696

 Normal termination of Gaussian 16 at Tue Dec  5 14:52:13 2023.
