 Gaussian 16, Revision B.01,
 Gaussian 16:  ES64L-G16RevB.01 20-Dec-2017

 -------------------------
 #P B3LYP/6-311+g(d) force
 -------------------------

 -----
 DPGEN
 -----
 Symbolic Z-matrix:
 Charge =  0 Multiplicity = 2

                         Standard orientation:
 ---------------------------------------------------------------------
 Center     Atomic      Atomic             Coordinates (Angstroms)
 Number     Number       Type             X           Y           Z
 ---------------------------------------------------------------------
      1         11           0        4.295607   -0.087699   -0.174495
      2         11           0       -3.696533    1.557912   -0.042971
      3         11           0       -1.007773    3.250021    0.360409
      4         11           0        2.985177    2.621227   -0.235587
      5         11           0       -4.561850   -1.808404   -0.474519
      6         11           0        2.725342   -3.104458   -0.025337
      7         11           0       -0.739970   -2.428600    0.592500
 ---------------------------------------------------------------------

 SCF Done:  E(UB3LYP) =  -1136.10825641     A.U. after   23 cycles

 The electronic state is 2-A.
 Alpha  occ. eigenvalues --  -38.45751 -38.44803 -38.44616 -38.44412 -38.44389
 Alpha  occ. eigenvalues --  -38.44170 -38.44059  -2.21471  -2.20605  -2.20451
 Alpha  occ. eigenvalues --   -2.20218  -2.20185  -2.19963  -2.19858  -1.15166
 Alpha  occ. eigenvalues --   -1.15159  -1.15073  -1.14293  -1.14282  -1.14244
 Alpha  occ. eigenvalues --   -1.14199  -1.14107  -1.14086  -1.13870  -1.13865
 Alpha  occ. eigenvalues --   -1.13835  -1.13834  -1.13828  -1.13802  -1.13625
 Alpha  occ. eigenvalues --   -1.13616  -1.13602  -1.13516  -1.13512  -1.13484
 Alpha  occ. eigenvalues --   -0.15709  -0.14402  -0.13070  -0.11163
 Alpha virt. eigenvalues --   -0.07478  -0.05064  -0.04102  -0.03715  -0.03478
 Alpha virt. eigenvalues --   -0.02681  -0.02414  -0.01855  -0.01242  -0.00786
 Alpha virt. eigenvalues --   -0.00304  -0.00267   0.00019   0.00467   0.00559

  Beta  occ. eigenvalues --  -38.45738 -38.44781 -38.44590 -38.44387 -38.44313
  Beta  occ. eigenvalues --  -38.44145 -38.44004  -2.21450  -2.20574  -2.20407
  Beta  occ. eigenvalues --   -2.20176  -2.20043  -2.19916  -2.19761  -1.15155
  Beta  occ. eigenvalues --   -1.15148  -1.15035  -1.14269  -1.14262  -1.14183
  Beta  occ. eigenvalues --   -1.14152  -1.14080  -1.14053  -1.13845  -1.13838
  Beta  occ. eigenvalues --   -1.13788  -1.13737  -1.13731  -1.13711  -1.13594
  Beta  occ. eigenvalues --   -1.13590  -1.13562  -1.13449  -1.13448  -1.13412
  Beta  occ. eigenvalues --   -0.15188  -0.13613  -0.12268
  Beta virt. eigenvalues --   -0.07981  -0.07677  -0.04619  -0.03693  -0.03517
  Beta virt. eigenvalues --   -0.03112  -0.02432  -0.02196  -0.01650  -0.01035
  Beta virt. eigenvalues --   -0.00431  -0.00170   0.00090   0.00251   0.00426

 Mulliken charges and spin densities:
               1          2
     1  Na  -0.508854   0.102541
     2  Na  -0.072331   0.112449
     3  Na   0.050716   0.155928
     4  Na   0.454447   0.061132
     5  Na   0.387436   0.371251
     6  Na   0.351097   0.080958
     7  Na  -0.662510   0.115741
 Sum of Mulliken charges =  -0.00000   1.00000

 Dipole moment (field-independent basis, Debye):
    X=             -0.0955    Y=             -0.5916    Z=             -0.0128  Tot=              0.5994
 Quadrupole moment (field-independent basis, Debye-Ang):
   XX=            -59.0097   YY=            -67.6998   ZZ=            -73.7848
   XY=             -1.8116   XZ=              0.3296   YZ=              0.4128

 Normal termination of Gaussian 16 at Sun Dec  3 13:42:23 2023.
