 Gaussian 16, Revision B.01,
 Gaussian 16:  ES64L-G16RevB.01 20-Dec-2017

 -------------------------
 #P B3LYP/6-311+g(d) force
 -------------------------

 -----
 DPGEN
 -----
 Symbolic Z-matrix:
 Charge =  0 Multiplicity = 2

                         Standard orientation:
 ---------------------------------------------------------------------
 Center     Atomic      Atomic             Coordinates (Angstroms)
 Number     Number       Type             X           Y           Z
 ---------------------------------------------------------------------
      1         11           0       -4.454367   -1.112397   -0.517190
      2         11           0        2.018811   -3.359442   -0.174155
      3         11           0       -0.125892   -1.444116    0.754069
      4         11           0        0.872285    1.315988    2.182939
      5         11           0       -2.492426    1.276434   -0.279376
      6         11           0        3.003719   -0.129225   -1.172974
      7         11           0        1.177871    3.452757   -0.793312
 ---------------------------------------------------------------------

 SCF Done:  E(UB3LYP) =  -1136.11987438     A.U. after   19 cycles

 The electronic state is 2-A.
 Alpha  occ. eigenvalues --  -38.44903 -38.44252 -38.44131 -38.43990 -38.43940
 Alpha  occ. eigenvalues --  -38.43926 -38.43798  -2.20684  -2.20086  -2.19893
 Alpha  occ. eigenvalues --   -2.19824  -2.19755  -2.19725  -2.19694  -1.14372
 Alpha  occ. eigenvalues --   -1.14340  -1.14282  -1.13778  -1.13733  -1.13688
 Alpha  occ. eigenvalues --   -1.13587  -1.13567  -1.13547  -1.13524  -1.13487
 Alpha  occ. eigenvalues --   -1.13471  -1.13455  -1.13440  -1.13426  -1.13374
 Alpha  occ. eigenvalues --   -1.13366  -1.13362  -1.13355  -1.13290  -1.13266
 Alpha  occ. eigenvalues --   -0.17096  -0.13282  -0.12411  -0.10826
 Alpha virt. eigenvalues --   -0.06327  -0.05399  -0.05044  -0.03155  -0.03055
 Alpha virt. eigenvalues --   -0.02069  -0.01959  -0.01613  -0.01299  -0.00718
 Alpha virt. eigenvalues --   -0.00306   0.00218   0.00385   0.00552   0.00652

  Beta  occ. eigenvalues --  -38.44849 -38.44179 -38.44112 -38.43991 -38.43939
  Beta  occ. eigenvalues --  -38.43907 -38.43761  -2.20584  -2.19954  -2.19858
  Beta  occ. eigenvalues --   -2.19827  -2.19754  -2.19691  -2.19630  -1.14304
  Beta  occ. eigenvalues --   -1.14273  -1.14206  -1.13679  -1.13644  -1.13594
  Beta  occ. eigenvalues --   -1.13579  -1.13542  -1.13516  -1.13501  -1.13478
  Beta  occ. eigenvalues --   -1.13472  -1.13449  -1.13441  -1.13411  -1.13351
  Beta  occ. eigenvalues --   -1.13339  -1.13326  -1.13284  -1.13277  -1.13237
  Beta  occ. eigenvalues --   -0.16427  -0.12985  -0.12214
  Beta virt. eigenvalues --   -0.07211  -0.05973  -0.05203  -0.04696  -0.02744
  Beta virt. eigenvalues --   -0.02690  -0.01813  -0.01613  -0.01390  -0.01112
  Beta virt. eigenvalues --   -0.00491  -0.00009   0.00298   0.00458   0.00654

 Mulliken charges and spin densities:
               1          2
     1  Na   0.332012   0.074712
     2  Na   0.700206  -0.066350
     3  Na  -1.382308   0.315130
     4  Na   0.620688   0.190594
     5  Na  -0.119393  -0.029497
     6  Na  -0.147099   0.302112
     7  Na  -0.004106   0.213299
 Sum of Mulliken charges =  -0.00000   1.00000

 Dipole moment (field-independent basis, Debye):
    X=              0.4404    Y=             -0.3399    Z=              0.0835  Tot=              0.5626
 Quadrupole moment (field-independent basis, Debye-Ang):
   XX=            -64.6914   YY=            -59.3006   ZZ=            -71.7595
   XY=              1.0763   XZ=              0.8455   YZ=              0.0761

 Normal termination of Gaussian 16 at Mon Dec  4 03:09:44 2023.
