 Gaussian 16, Revision B.01,
 Gaussian 16:  ES64L-G16RevB.01 20-Dec-2017

 -------------------------
 #P B3LYP/6-311+g(d) force
 -------------------------

 -----
 DPGEN
 -----
 Symbolic Z-matrix:
 Charge =  0 Multiplicity = 2

                         Standard orientation:
 ---------------------------------------------------------------------
 Center     Atomic      Atomic             Coordinates (Angstroms)
 Number     Number       Type             X           Y           Z
 ---------------------------------------------------------------------
      1         11           0       -3.018471    0.626353    0.288983
      2         11           0        0.026399    2.946417   -0.135714
      3         11           0        0.101425   -0.138074    1.890050
      4         11           0       -1.570979   -2.303529   -0.145107
      5         11           0        3.050616    0.616834    0.115926
      6         11           0       -0.344476    0.288136   -1.732583
      7         11           0        1.755487   -2.036137   -0.281555
 ---------------------------------------------------------------------

 SCF Done:  E(UB3LYP) =  -1136.13590746     A.U. after   19 cycles

 The electronic state is 2-A.
 Alpha  occ. eigenvalues --  -38.44192 -38.44109 -38.43460 -38.43326 -38.43205
 Alpha  occ. eigenvalues --  -38.43155 -38.43141  -2.20046  -2.19973  -2.19408
 Alpha  occ. eigenvalues --   -2.19170  -2.19152  -2.19149  -2.19059  -1.13725
 Alpha  occ. eigenvalues --   -1.13713  -1.13702  -1.13677  -1.13629  -1.13593
 Alpha  occ. eigenvalues --   -1.13100  -1.13041  -1.13028  -1.12940  -1.12866
 Alpha  occ. eigenvalues --   -1.12826  -1.12821  -1.12806  -1.12796  -1.12786
 Alpha  occ. eigenvalues --   -1.12768  -1.12743  -1.12714  -1.12697  -1.12683
 Alpha  occ. eigenvalues --   -0.19147  -0.13321  -0.12438  -0.10890
 Alpha virt. eigenvalues --   -0.05840  -0.04750  -0.04582  -0.03350  -0.02858
 Alpha virt. eigenvalues --   -0.02521  -0.01596  -0.00952  -0.00276  -0.00017
 Alpha virt. eigenvalues --   -0.00001   0.00370   0.00857   0.00907   0.00967

  Beta  occ. eigenvalues --  -38.44184 -38.44106 -38.43377 -38.43322 -38.43195
  Beta  occ. eigenvalues --  -38.43132 -38.43080  -2.20035  -2.19971  -2.19255
  Beta  occ. eigenvalues --   -2.19164  -2.19136  -2.19048  -2.19017  -1.13719
  Beta  occ. eigenvalues --   -1.13704  -1.13682  -1.13672  -1.13609  -1.13590
  Beta  occ. eigenvalues --   -1.13003  -1.12939  -1.12916  -1.12904  -1.12826
  Beta  occ. eigenvalues --   -1.12813  -1.12806  -1.12788  -1.12766  -1.12744
  Beta  occ. eigenvalues --   -1.12704  -1.12687  -1.12674  -1.12663  -1.12635
  Beta  occ. eigenvalues --   -0.18394  -0.13077  -0.12168
  Beta virt. eigenvalues --   -0.06950  -0.05802  -0.04758  -0.04550  -0.02535
  Beta virt. eigenvalues --   -0.02074  -0.01509  -0.01449  -0.00883  -0.00318
  Beta virt. eigenvalues --   -0.00068   0.00129   0.00392   0.00884   0.00916

 Mulliken charges and spin densities:
               1          2
     1  Na   0.183583  -0.046028
     2  Na   0.038740  -0.148547
     3  Na  -0.501154   0.672857
     4  Na   0.303589   0.003136
     5  Na   0.118141  -0.052404
     6  Na  -0.356473   0.552091
     7  Na   0.213574   0.018894
 Sum of Mulliken charges =  -0.00000   1.00000

 Dipole moment (field-independent basis, Debye):
    X=             -0.1580    Y=              0.2889    Z=              0.1753  Tot=              0.3731
 Quadrupole moment (field-independent basis, Debye-Ang):
   XX=            -55.7401   YY=            -64.4344   ZZ=            -73.6263
   XY=              0.4965   XZ=             -0.8914   YZ=              1.1978

 Normal termination of Gaussian 16 at Fri Dec  8 06:03:46 2023.
