 Gaussian 16, Revision B.01,
 Gaussian 16:  ES64L-G16RevB.01 20-Dec-2017

 -------------------------
 #P B3LYP/6-311+g(d) force
 -------------------------

 -----
 DPGEN
 -----
 Symbolic Z-matrix:
 Charge =  0 Multiplicity = 2

                         Standard orientation:
 ---------------------------------------------------------------------
 Center     Atomic      Atomic             Coordinates (Angstroms)
 Number     Number       Type             X           Y           Z
 ---------------------------------------------------------------------
      1         11           0        2.170038   -1.923941   -0.017659
      2         11           0        0.110771    0.182063   -1.849195
      3         11           0        2.755183    1.371023   -0.114251
      4         11           0       -0.811794    2.726344    0.164873
      5         11           0       -1.362603   -2.502576   -0.080407
      6         11           0        0.310658   -0.101280    1.894633
      7         11           0       -3.172253    0.248368    0.002006
 ---------------------------------------------------------------------

 SCF Done:  E(UB3LYP) =  -1136.14009848     A.U. after   19 cycles

 The electronic state is 2-A.
 Alpha  occ. eigenvalues --  -38.44061 -38.43925 -38.43520 -38.43427 -38.43389
 Alpha  occ. eigenvalues --  -38.43213 -38.43154  -2.19893  -2.19784  -2.19412
 Alpha  occ. eigenvalues --   -2.19370  -2.19335  -2.19068  -2.19018  -1.13561
 Alpha  occ. eigenvalues --   -1.13557  -1.13544  -1.13467  -1.13453  -1.13421
 Alpha  occ. eigenvalues --   -1.13141  -1.13087  -1.13039  -1.13035  -1.13006
 Alpha  occ. eigenvalues --   -1.12988  -1.12978  -1.12969  -1.12954  -1.12743
 Alpha  occ. eigenvalues --   -1.12738  -1.12694  -1.12691  -1.12684  -1.12655
 Alpha  occ. eigenvalues --   -0.18900  -0.13236  -0.12363  -0.10859
 Alpha virt. eigenvalues --   -0.05695  -0.05166  -0.04451  -0.03292  -0.02874
 Alpha virt. eigenvalues --   -0.02602  -0.01541  -0.01023  -0.00294  -0.00182
 Alpha virt. eigenvalues --   -0.00019   0.00370   0.00807   0.00905   0.00930

  Beta  occ. eigenvalues --  -38.44061 -38.43918 -38.43512 -38.43342 -38.43309
  Beta  occ. eigenvalues --  -38.43207 -38.43150  -2.19896  -2.19776  -2.19403
  Beta  occ. eigenvalues --   -2.19215  -2.19189  -2.19061  -2.19014  -1.13566
  Beta  occ. eigenvalues --   -1.13549  -1.13541  -1.13462  -1.13422  -1.13417
  Beta  occ. eigenvalues --   -1.13115  -1.13046  -1.13036  -1.12942  -1.12909
  Beta  occ. eigenvalues --   -1.12881  -1.12877  -1.12868  -1.12848  -1.12736
  Beta  occ. eigenvalues --   -1.12705  -1.12693  -1.12689  -1.12660  -1.12650
  Beta  occ. eigenvalues --   -0.18147  -0.13005  -0.12109
  Beta virt. eigenvalues --   -0.06927  -0.05654  -0.05172  -0.04428  -0.02483
  Beta virt. eigenvalues --   -0.02071  -0.01538  -0.01456  -0.00963  -0.00347
  Beta virt. eigenvalues --   -0.00243   0.00117   0.00388   0.00868   0.00898

 Mulliken charges and spin densities:
               1          2
     1  Na   0.305132  -0.054943
     2  Na  -0.356080   0.708822
     3  Na   0.287357  -0.087670
     4  Na   0.090977  -0.126346
     5  Na   0.086950  -0.101484
     6  Na  -0.388226   0.742398
     7  Na  -0.026109  -0.080777
 Sum of Mulliken charges =  -0.00000   1.00000

 Dipole moment (field-independent basis, Debye):
    X=              0.0845    Y=              0.1237    Z=              0.0015  Tot=              0.1498
 Quadrupole moment (field-independent basis, Debye-Ang):
   XX=            -55.6455   YY=            -64.4973   ZZ=            -73.6926
   XY=              0.2066   XZ=             -0.4165   YZ=              0.6068

 Normal termination of Gaussian 16 at Thu Dec  7 08:54:27 2023.
