 Gaussian 16, Revision B.01,
 Gaussian 16:  ES64L-G16RevB.01 20-Dec-2017

 -------------------------
 #P B3LYP/6-311+g(d) force
 -------------------------

 -----
 DPGEN
 -----
 Symbolic Z-matrix:
 Charge =  0 Multiplicity = 2

                         Standard orientation:
 ---------------------------------------------------------------------
 Center     Atomic      Atomic             Coordinates (Angstroms)
 Number     Number       Type             X           Y           Z
 ---------------------------------------------------------------------
      1         11           0        0.794512    2.118685   -0.971259
      2         11           0        4.019713   -0.029810    0.099180
      3         11           0       -2.081489   -1.854760    0.713439
      4         11           0        1.236894   -1.640072   -0.698578
      5         11           0       -2.479720    1.672163    0.767474
      6         11           0        0.413003    0.105517    2.070880
      7         11           0       -1.902913   -0.371723   -1.981135
 ---------------------------------------------------------------------

 SCF Done:  E(UB3LYP) =  -1136.12897889     A.U. after   24 cycles

 The electronic state is 2-A.
 Alpha  occ. eigenvalues --  -38.45140 -38.44452 -38.44051 -38.43523 -38.43414
 Alpha  occ. eigenvalues --  -38.43113 -38.43082  -2.20913  -2.20335  -2.19952
 Alpha  occ. eigenvalues --   -2.19365  -2.19223  -2.19015  -2.18967  -1.14591
 Alpha  occ. eigenvalues --   -1.14574  -1.14541  -1.14025  -1.13959  -1.13949
 Alpha  occ. eigenvalues --   -1.13634  -1.13610  -1.13552  -1.13040  -1.13032
 Alpha  occ. eigenvalues --   -1.12997  -1.12922  -1.12894  -1.12825  -1.12695
 Alpha  occ. eigenvalues --   -1.12690  -1.12670  -1.12652  -1.12638  -1.12561
 Alpha  occ. eigenvalues --   -0.18559  -0.13553  -0.11688  -0.11112
 Alpha virt. eigenvalues --   -0.06664  -0.04605  -0.04441  -0.03252  -0.02969
 Alpha virt. eigenvalues --   -0.02789  -0.02270  -0.00815  -0.00605  -0.00078
 Alpha virt. eigenvalues --    0.00210   0.00249   0.00341   0.00821   0.00824

  Beta  occ. eigenvalues --  -38.45144 -38.44372 -38.43986 -38.43514 -38.43393
  Beta  occ. eigenvalues --  -38.43099 -38.43070  -2.20921  -2.20189  -2.19832
  Beta  occ. eigenvalues --   -2.19352  -2.19186  -2.18994  -2.18947  -1.14595
  Beta  occ. eigenvalues --   -1.14578  -1.14547  -1.13931  -1.13853  -1.13836
  Beta  occ. eigenvalues --   -1.13558  -1.13523  -1.13466  -1.13029  -1.13008
  Beta  occ. eigenvalues --   -1.12984  -1.12896  -1.12855  -1.12802  -1.12684
  Beta  occ. eigenvalues --   -1.12668  -1.12648  -1.12613  -1.12609  -1.12550
  Beta  occ. eigenvalues --   -0.17739  -0.13423  -0.10899
  Beta virt. eigenvalues --   -0.07664  -0.06514  -0.04592  -0.03792  -0.02988
  Beta virt. eigenvalues --   -0.02252  -0.02171  -0.01972  -0.00769  -0.00260
  Beta virt. eigenvalues --   -0.00039   0.00225   0.00331   0.00457   0.00859

 Mulliken charges and spin densities:
               1          2
     1  Na  -0.360694   0.080472
     2  Na   0.291570  -0.039497
     3  Na   0.372374   0.055546
     4  Na  -0.277642   0.078318
     5  Na   0.074362  -0.040198
     6  Na  -0.176362   0.444793
     7  Na   0.076392   0.420565
 Sum of Mulliken charges =  -0.00000   1.00000

 Dipole moment (field-independent basis, Debye):
    X=              1.0242    Y=              0.2217    Z=              0.1879  Tot=              1.0647
 Quadrupole moment (field-independent basis, Debye-Ang):
   XX=            -49.0936   YY=            -77.7768   ZZ=            -66.5632
   XY=              0.7754   XZ=              0.2151   YZ=             -1.2482

 Normal termination of Gaussian 16 at Fri Dec  8 05:17:23 2023.
