 Gaussian 16, Revision B.01,
 Gaussian 16:  ES64L-G16RevB.01 20-Dec-2017

 -------------------------
 #P B3LYP/6-311+g(d) force
 -------------------------

 -----
 DPGEN
 -----
 Symbolic Z-matrix:
 Charge =  0 Multiplicity = 2

                         Standard orientation:
 ---------------------------------------------------------------------
 Center     Atomic      Atomic             Coordinates (Angstroms)
 Number     Number       Type             X           Y           Z
 ---------------------------------------------------------------------
      1         11           0        2.762906   -1.281602    0.396612
      2         11           0       -0.354860   -2.838524   -0.482057
      3         11           0        2.148126    1.808366   -0.740913
      4         11           0       -1.023229    2.936720    0.333006
      5         11           0       -3.218529   -0.523252   -0.032947
      6         11           0        0.016812   -0.183265    2.108196
      7         11           0       -0.331227    0.081558   -1.581897
 ---------------------------------------------------------------------

 SCF Done:  E(UB3LYP) =  -1136.13650805     A.U. after   18 cycles

 The electronic state is 2-A.
 Alpha  occ. eigenvalues --  -38.44120 -38.43862 -38.43697 -38.43639 -38.43468
 Alpha  occ. eigenvalues --  -38.43441 -38.43160  -2.19921  -2.19737  -2.19507
 Alpha  occ. eigenvalues --   -2.19498  -2.19318  -2.19316  -2.19166  -1.13610
 Alpha  occ. eigenvalues --   -1.13580  -1.13553  -1.13404  -1.13365  -1.13360
 Alpha  occ. eigenvalues --   -1.13236  -1.13180  -1.13175  -1.13150  -1.13146
 Alpha  occ. eigenvalues --   -1.13107  -1.13061  -1.13010  -1.12987  -1.12956
 Alpha  occ. eigenvalues --   -1.12950  -1.12911  -1.12831  -1.12787  -1.12782
 Alpha  occ. eigenvalues --   -0.18567  -0.12754  -0.12506  -0.11014
 Alpha virt. eigenvalues --   -0.05608  -0.05006  -0.04611  -0.03180  -0.03106
 Alpha virt. eigenvalues --   -0.02749  -0.01456  -0.01187  -0.00327  -0.00171
 Alpha virt. eigenvalues --    0.00037   0.00364   0.00813   0.00870   0.00899

  Beta  occ. eigenvalues --  -38.44120 -38.43767 -38.43693 -38.43627 -38.43461
  Beta  occ. eigenvalues --  -38.43422 -38.43100  -2.19924  -2.19562  -2.19502
  Beta  occ. eigenvalues --   -2.19479  -2.19308  -2.19286  -2.19058  -1.13603
  Beta  occ. eigenvalues --   -1.13579  -1.13551  -1.13290  -1.13246  -1.13231
  Beta  occ. eigenvalues --   -1.13211  -1.13172  -1.13164  -1.13138  -1.13125
  Beta  occ. eigenvalues --   -1.13096  -1.13031  -1.12994  -1.12960  -1.12948
  Beta  occ. eigenvalues --   -1.12922  -1.12897  -1.12759  -1.12710  -1.12705
  Beta  occ. eigenvalues --   -0.17840  -0.12506  -0.12271
  Beta virt. eigenvalues --   -0.07092  -0.05607  -0.04892  -0.04572  -0.02439
  Beta virt. eigenvalues --   -0.02363  -0.01695  -0.01373  -0.01102  -0.00292
  Beta virt. eigenvalues --   -0.00202   0.00134   0.00392   0.00827   0.00901

 Mulliken charges and spin densities:
               1          2
     1  Na   0.104480   0.066057
     2  Na   0.138861  -0.027910
     3  Na   0.187614   0.017855
     4  Na  -0.067870   0.028779
     5  Na  -0.056729  -0.055245
     6  Na  -0.394684   0.722380
     7  Na   0.088328   0.248085
 Sum of Mulliken charges =  -0.00000   1.00000

 Dipole moment (field-independent basis, Debye):
    X=             -0.4131    Y=             -0.0524    Z=              0.2740  Tot=              0.4985
 Quadrupole moment (field-independent basis, Debye-Ang):
   XX=            -58.3296   YY=            -62.0305   ZZ=            -73.1296
   XY=             -0.5958   XZ=             -1.0472   YZ=              0.6727

 Normal termination of Gaussian 16 at Fri Dec  8 05:29:20 2023.
