 Gaussian 16, Revision B.01,
 Gaussian 16:  ES64L-G16RevB.01 20-Dec-2017

 -------------------------
 #P B3LYP/6-311+g(d) force
 -------------------------

 -----
 DPGEN
 -----
 Symbolic Z-matrix:
 Charge =  0 Multiplicity = 2

                         Standard orientation:
 ---------------------------------------------------------------------
 Center     Atomic      Atomic             Coordinates (Angstroms)
 Number     Number       Type             X           Y           Z
 ---------------------------------------------------------------------
      1         11           0        0.794580    1.660016    0.797377
      2         11           0       -1.505359   -0.921004    2.085247
      3         11           0       -0.957234   -3.139294   -0.569513
      4         11           0        2.262750   -1.428551   -0.622379
      5         11           0        4.429095    0.900878   -0.133633
      6         11           0       -2.772991   -0.234120   -0.872724
      7         11           0       -2.250840    3.162076   -0.684374
 ---------------------------------------------------------------------

 SCF Done:  E(UB3LYP) =  -1136.12466600     A.U. after   21 cycles

 The electronic state is 2-A.
 Alpha  occ. eigenvalues --  -38.44883 -38.44398 -38.44255 -38.44101 -38.44085
 Alpha  occ. eigenvalues --  -38.43536 -38.43508  -2.20672  -2.20209  -2.20106
 Alpha  occ. eigenvalues --   -2.19961  -2.19882  -2.19337  -2.19327  -1.14348
 Alpha  occ. eigenvalues --   -1.14334  -1.14306  -1.13896  -1.13884  -1.13822
 Alpha  occ. eigenvalues --   -1.13819  -1.13779  -1.13714  -1.13620  -1.13608
 Alpha  occ. eigenvalues --   -1.13586  -1.13568  -1.13555  -1.13474  -1.13006
 Alpha  occ. eigenvalues --   -1.12995  -1.12991  -1.12985  -1.12975  -1.12959
 Alpha  occ. eigenvalues --   -0.17309  -0.13741  -0.12342  -0.10390
 Alpha virt. eigenvalues --   -0.06818  -0.05433  -0.04905  -0.03178  -0.02865
 Alpha virt. eigenvalues --   -0.02444  -0.02009  -0.01305  -0.01215  -0.00704
 Alpha virt. eigenvalues --   -0.00283   0.00216   0.00255   0.00583   0.00720

  Beta  occ. eigenvalues --  -38.44882 -38.44387 -38.44225 -38.44059 -38.44020
  Beta  occ. eigenvalues --  -38.43515 -38.43494  -2.20671  -2.20190  -2.20052
  Beta  occ. eigenvalues --   -2.19836  -2.19811  -2.19312  -2.19287  -1.14345
  Beta  occ. eigenvalues --   -1.14333  -1.14305  -1.13885  -1.13862  -1.13808
  Beta  occ. eigenvalues --   -1.13767  -1.13744  -1.13673  -1.13562  -1.13517
  Beta  occ. eigenvalues --   -1.13516  -1.13496  -1.13457  -1.13445  -1.12983
  Beta  occ. eigenvalues --   -1.12978  -1.12965  -1.12954  -1.12948  -1.12936
  Beta  occ. eigenvalues --   -0.16724  -0.13547  -0.12066
  Beta virt. eigenvalues --   -0.06776  -0.06637  -0.05008  -0.04725  -0.02837
  Beta virt. eigenvalues --   -0.02418  -0.02326  -0.01369  -0.01167  -0.01002
  Beta virt. eigenvalues --   -0.00488   0.00037   0.00300   0.00405   0.00633

 Mulliken charges and spin densities:
               1          2
     1  Na  -1.033395   0.271262
     2  Na   0.251423   0.265771
     3  Na  -0.045217   0.240979
     4  Na  -0.485760   0.003497
     5  Na   1.045552  -0.023124
     6  Na  -0.177278   0.293916
     7  Na   0.444674  -0.052301
 Sum of Mulliken charges =  -0.00000   1.00000

 Dipole moment (field-independent basis, Debye):
    X=              1.2736    Y=              0.0959    Z=              0.2216  Tot=              1.2963
 Quadrupole moment (field-independent basis, Debye-Ang):
   XX=            -55.8812   YY=            -64.4196   ZZ=            -74.3202
   XY=              5.1615   XZ=             -1.2289   YZ=              0.0064

 Normal termination of Gaussian 16 at Wed Nov 29 00:45:42 2023.
