 Gaussian 16, Revision B.01,
 Gaussian 16:  ES64L-G16RevB.01 20-Dec-2017

 -------------------------
 #P B3LYP/6-311+g(d) force
 -------------------------

 -----
 DPGEN
 -----
 Symbolic Z-matrix:
 Charge =  0 Multiplicity = 2

                         Standard orientation:
 ---------------------------------------------------------------------
 Center     Atomic      Atomic             Coordinates (Angstroms)
 Number     Number       Type             X           Y           Z
 ---------------------------------------------------------------------
      1         11           0        1.539739    0.234437    1.820621
      2         11           0       -4.025620    0.102583   -0.393569
      3         11           0       -0.250973   -1.259164   -1.586616
      4         11           0        2.132040    2.008076   -0.899492
      5         11           0        3.410311   -1.384091   -0.261387
      6         11           0       -1.222578    1.795017    0.314934
      7         11           0       -1.582920   -1.496856    1.005509
 ---------------------------------------------------------------------

 SCF Done:  E(UB3LYP) =  -1136.11723742     A.U. after   31 cycles

 The electronic state is 2-A.
 Alpha  occ. eigenvalues --  -38.45718 -38.44719 -38.44594 -38.43703 -38.43482
 Alpha  occ. eigenvalues --  -38.43414 -38.42649  -2.21534  -2.20523  -2.20439
 Alpha  occ. eigenvalues --   -2.19656  -2.19407  -2.19259  -2.18544  -1.15210
 Alpha  occ. eigenvalues --   -1.15187  -1.15160  -1.14220  -1.14217  -1.14168
 Alpha  occ. eigenvalues --   -1.14150  -1.14097  -1.14020  -1.13369  -1.13286
 Alpha  occ. eigenvalues --   -1.13261  -1.13082  -1.13075  -1.13029  -1.12932
 Alpha  occ. eigenvalues --   -1.12904  -1.12880  -1.12253  -1.12223  -1.12157
 Alpha  occ. eigenvalues --   -0.18574  -0.14363  -0.10917  -0.10741
 Alpha virt. eigenvalues --   -0.07520  -0.05195  -0.04439  -0.03089  -0.02992
 Alpha virt. eigenvalues --   -0.02325  -0.02117  -0.01163  -0.00865  -0.00216
 Alpha virt. eigenvalues --    0.00010   0.00205   0.00287   0.00664   0.00770

  Beta  occ. eigenvalues --  -38.45707 -38.44706 -38.44579 -38.43671 -38.43419
  Beta  occ. eigenvalues --  -38.43388 -38.42637  -2.21514  -2.20500  -2.20411
  Beta  occ. eigenvalues --   -2.19599  -2.19295  -2.19212  -2.18526  -1.15192
  Beta  occ. eigenvalues --   -1.15176  -1.15145  -1.14198  -1.14191  -1.14143
  Beta  occ. eigenvalues --   -1.14137  -1.14076  -1.13999  -1.13337  -1.13243
  Beta  occ. eigenvalues --   -1.13194  -1.13011  -1.12984  -1.12952  -1.12895
  Beta  occ. eigenvalues --   -1.12864  -1.12837  -1.12245  -1.12176  -1.12147
  Beta  occ. eigenvalues --   -0.17882  -0.14150  -0.10747
  Beta virt. eigenvalues --   -0.07332  -0.06896  -0.05095  -0.03841  -0.02884
  Beta virt. eigenvalues --   -0.02866  -0.01792  -0.01369  -0.01036  -0.00434
  Beta virt. eigenvalues --   -0.00134   0.00046   0.00226   0.00433   0.00716

 Mulliken charges and spin densities:
               1          2
     1  Na   0.550375   0.182987
     2  Na   0.533500   0.049362
     3  Na  -0.262786   0.192725
     4  Na  -0.319374   0.285050
     5  Na   0.010053   0.098359
     6  Na  -0.686282   0.040120
     7  Na   0.174514   0.151397
 Sum of Mulliken charges =  -0.00000   1.00000

 Dipole moment (field-independent basis, Debye):
    X=             -0.8443    Y=             -0.3450    Z=             -0.2590  Tot=              0.9481
 Quadrupole moment (field-independent basis, Debye-Ang):
   XX=            -42.9508   YY=            -78.7182   ZZ=            -70.3484
   XY=             -0.6632   XZ=              0.9793   YZ=             -2.2448

 Normal termination of Gaussian 16 at Tue Dec  5 21:05:36 2023.
