 Gaussian 16, Revision B.01,
 Gaussian 16:  ES64L-G16RevB.01 20-Dec-2017

 -------------------------
 #P B3LYP/6-311+g(d) force
 -------------------------

 -----
 DPGEN
 -----
 Symbolic Z-matrix:
 Charge =  0 Multiplicity = 2

                         Standard orientation:
 ---------------------------------------------------------------------
 Center     Atomic      Atomic             Coordinates (Angstroms)
 Number     Number       Type             X           Y           Z
 ---------------------------------------------------------------------
      1         11           0       -0.036486   -0.036383    2.132744
      2         11           0        4.415690    0.076215    0.372034
      3         11           0        1.829535   -1.872010   -0.548615
      4         11           0        1.306662    1.686691   -0.964654
      5         11           0       -1.512554   -1.122453   -1.130365
      6         11           0       -4.121706   -0.700941    0.334431
      7         11           0       -1.881141    1.968882   -0.195575
 ---------------------------------------------------------------------

 SCF Done:  E(UB3LYP) =  -1136.11194882     A.U. after   33 cycles

 The electronic state is 2-A.
 Alpha  occ. eigenvalues --  -38.45453 -38.44922 -38.44122 -38.44073 -38.43517
 Alpha  occ. eigenvalues --  -38.43349 -38.42859  -2.21279  -2.20726  -2.19994
 Alpha  occ. eigenvalues --   -2.19971  -2.19364  -2.19201  -2.18769  -1.14936
 Alpha  occ. eigenvalues --   -1.14917  -1.14884  -1.14381  -1.14370  -1.14346
 Alpha  occ. eigenvalues --   -1.13793  -1.13656  -1.13648  -1.13610  -1.13601
 Alpha  occ. eigenvalues --   -1.13543  -1.13074  -1.13023  -1.12994  -1.12917
 Alpha  occ. eigenvalues --   -1.12862  -1.12816  -1.12478  -1.12435  -1.12366
 Alpha  occ. eigenvalues --   -0.18343  -0.14379  -0.10927  -0.10720
 Alpha virt. eigenvalues --   -0.08162  -0.04945  -0.04354  -0.03437  -0.03096
 Alpha virt. eigenvalues --   -0.02311  -0.02094  -0.01504  -0.01283  -0.00440
 Alpha virt. eigenvalues --   -0.00233   0.00163   0.00277   0.00635   0.00766

  Beta  occ. eigenvalues --  -38.45368 -38.44861 -38.44092 -38.44065 -38.43511
  Beta  occ. eigenvalues --  -38.43347 -38.42851  -2.21123  -2.20611  -2.19984
  Beta  occ. eigenvalues --   -2.19916  -2.19357  -2.19198  -2.18754  -1.14837
  Beta  occ. eigenvalues --   -1.14807  -1.14769  -1.14299  -1.14291  -1.14271
  Beta  occ. eigenvalues --   -1.13776  -1.13654  -1.13611  -1.13573  -1.13558
  Beta  occ. eigenvalues --   -1.13512  -1.13075  -1.13017  -1.12958  -1.12916
  Beta  occ. eigenvalues --   -1.12855  -1.12812  -1.12471  -1.12423  -1.12344
  Beta  occ. eigenvalues --   -0.17802  -0.13763  -0.10757
  Beta virt. eigenvalues --   -0.07784  -0.07204  -0.04722  -0.04038  -0.03007
  Beta virt. eigenvalues --   -0.02853  -0.01939  -0.01767  -0.01040  -0.01004
  Beta virt. eigenvalues --   -0.00145  -0.00125   0.00231   0.00371   0.00720

 Mulliken charges and spin densities:
               1          2
     1  Na  -0.218324   0.180737
     2  Na   0.415386   0.319168
     3  Na  -0.147157   0.082906
     4  Na  -0.366099   0.037477
     5  Na  -0.419293   0.072754
     6  Na   0.641771   0.122362
     7  Na   0.093716   0.184595
 Sum of Mulliken charges =  -0.00000   1.00000

 Dipole moment (field-independent basis, Debye):
    X=              0.3167    Y=              0.1694    Z=              1.7056  Tot=              1.7430
 Quadrupole moment (field-independent basis, Debye-Ang):
   XX=            -60.5490   YY=            -80.3590   ZZ=            -61.3642
   XY=             -1.1325   XZ=             -0.9855   YZ=              0.3768

 Normal termination of Gaussian 16 at Thu Dec  7 04:15:45 2023.
