 Gaussian 16, Revision B.01,
 Gaussian 16:  ES64L-G16RevB.01 20-Dec-2017

 -------------------------
 #P B3LYP/6-311+g(d) force
 -------------------------

 -----
 DPGEN
 -----
 Symbolic Z-matrix:
 Charge =  0 Multiplicity = 2

                         Standard orientation:
 ---------------------------------------------------------------------
 Center     Atomic      Atomic             Coordinates (Angstroms)
 Number     Number       Type             X           Y           Z
 ---------------------------------------------------------------------
      1         11           0       -1.783762    3.173778    0.284164
      2         11           0        2.006210    3.230341    0.801159
      3         11           0       -3.759331    1.081125   -0.874853
      4         11           0       -3.198949   -2.566657   -0.172063
      5         11           0       -0.343024   -2.954427    1.195817
      6         11           0        3.882684    0.434922   -0.851708
      7         11           0        3.196172   -2.399083   -0.382516
 ---------------------------------------------------------------------

 SCF Done:  E(UB3LYP) =  -1136.10630998     A.U. after   20 cycles

 The electronic state is 2-A.
 Alpha  occ. eigenvalues --  -38.44852 -38.44833 -38.44664 -38.44479 -38.44367
 Alpha  occ. eigenvalues --  -38.44231 -38.44200  -2.20664  -2.20614  -2.20453
 Alpha  occ. eigenvalues --   -2.20261  -2.20200  -2.20021  -2.20015  -1.14410
 Alpha  occ. eigenvalues --   -1.14323  -1.14302  -1.14301  -1.14277  -1.14259
 Alpha  occ. eigenvalues --   -1.14116  -1.14101  -1.14085  -1.13978  -1.13935
 Alpha  occ. eigenvalues --   -1.13913  -1.13849  -1.13836  -1.13819  -1.13666
 Alpha  occ. eigenvalues --   -1.13665  -1.13660  -1.13650  -1.13639  -1.13635
 Alpha  occ. eigenvalues --   -0.15630  -0.14094  -0.13387  -0.10951
 Alpha virt. eigenvalues --   -0.07558  -0.04644  -0.04532  -0.03723  -0.03548
 Alpha virt. eigenvalues --   -0.02253  -0.01918  -0.01871  -0.01351  -0.01100
 Alpha virt. eigenvalues --   -0.00789  -0.00100   0.00113   0.00351   0.00760

  Beta  occ. eigenvalues --  -38.44841 -38.44807 -38.44653 -38.44479 -38.44322
  Beta  occ. eigenvalues --  -38.44145 -38.44142  -2.20651  -2.20570  -2.20435
  Beta  occ. eigenvalues --   -2.20268  -2.20118  -2.19920  -2.19849  -1.14376
  Beta  occ. eigenvalues --   -1.14320  -1.14277  -1.14267  -1.14249  -1.14225
  Beta  occ. eigenvalues --   -1.14107  -1.14091  -1.14054  -1.13963  -1.13946
  Beta  occ. eigenvalues --   -1.13894  -1.13793  -1.13781  -1.13761  -1.13599
  Beta  occ. eigenvalues --   -1.13596  -1.13570  -1.13553  -1.13540  -1.13526
  Beta  occ. eigenvalues --   -0.15124  -0.13406  -0.12567
  Beta virt. eigenvalues --   -0.07805  -0.07701  -0.04197  -0.04023  -0.03548
  Beta virt. eigenvalues --   -0.03257  -0.02019  -0.01756  -0.01634  -0.01085
  Beta virt. eigenvalues --   -0.00811  -0.00592   0.00141   0.00279   0.00328

 Mulliken charges and spin densities:
               1          2
     1  Na   0.022506  -0.002350
     2  Na  -0.035303   0.424809
     3  Na   0.043467   0.219001
     4  Na   0.287934   0.022267
     5  Na  -0.474642   0.124515
     6  Na  -0.044793   0.034470
     7  Na   0.200831   0.177287
 Sum of Mulliken charges =  -0.00000   1.00000

 Dipole moment (field-independent basis, Debye):
    X=             -0.1026    Y=             -0.7921    Z=             -0.0768  Tot=              0.8024
 Quadrupole moment (field-independent basis, Debye-Ang):
   XX=            -63.0111   YY=            -68.8848   ZZ=            -70.3076
   XY=              2.7018   XZ=              1.8925   YZ=              0.4536

 Normal termination of Gaussian 16 at Mon Dec  4 00:22:24 2023.
