 Gaussian 16, Revision B.01,
 Gaussian 16:  ES64L-G16RevB.01 20-Dec-2017

 -------------------------
 #P B3LYP/6-311+g(d) force
 -------------------------

 -----
 DPGEN
 -----
 Symbolic Z-matrix:
 Charge =  0 Multiplicity = 2

                         Standard orientation:
 ---------------------------------------------------------------------
 Center     Atomic      Atomic             Coordinates (Angstroms)
 Number     Number       Type             X           Y           Z
 ---------------------------------------------------------------------
      1         11           0        1.350608    1.774171    0.991917
      2         11           0       -2.611250   -1.623246   -0.934784
      3         11           0        3.759263    0.216161   -1.069935
      4         11           0        1.760647   -1.624546    0.615697
      5         11           0       -0.903852   -0.611020    1.995822
      6         11           0       -3.285374    1.557744   -0.264185
      7         11           0       -0.070043    0.310736   -1.334532
 ---------------------------------------------------------------------

 SCF Done:  E(UB3LYP) =  -1136.11968605     A.U. after   28 cycles

 The electronic state is 2-A.
 Alpha  occ. eigenvalues --  -38.44578 -38.44503 -38.44368 -38.44219 -38.43904
 Alpha  occ. eigenvalues --  -38.43306 -38.41873  -2.20450  -2.20308  -2.20292
 Alpha  occ. eigenvalues --   -2.20176  -2.19742  -2.19264  -2.17804  -1.14161
 Alpha  occ. eigenvalues --   -1.14109  -1.14075  -1.14053  -1.13974  -1.13964
 Alpha  occ. eigenvalues --   -1.13934  -1.13914  -1.13889  -1.13872  -1.13834
 Alpha  occ. eigenvalues --   -1.13751  -1.13441  -1.13401  -1.13362  -1.12961
 Alpha  occ. eigenvalues --   -1.12915  -1.12878  -1.11490  -1.11461  -1.11443
 Alpha  occ. eigenvalues --   -0.18906  -0.14318  -0.11370  -0.10663
 Alpha virt. eigenvalues --   -0.06778  -0.05527  -0.04330  -0.03022  -0.02706
 Alpha virt. eigenvalues --   -0.02293  -0.02182  -0.01244  -0.00770  -0.00238
 Alpha virt. eigenvalues --    0.00126   0.00218   0.00497   0.00616   0.00723

  Beta  occ. eigenvalues --  -38.44535 -38.44497 -38.44297 -38.44195 -38.43896
  Beta  occ. eigenvalues --  -38.43284 -38.41860  -2.20371  -2.20297  -2.20164
  Beta  occ. eigenvalues --   -2.20138  -2.19728  -2.19224  -2.17785  -1.14102
  Beta  occ. eigenvalues --   -1.14063  -1.14001  -1.13995  -1.13966  -1.13945
  Beta  occ. eigenvalues --   -1.13917  -1.13830  -1.13808  -1.13794  -1.13780
  Beta  occ. eigenvalues --   -1.13729  -1.13425  -1.13385  -1.13354  -1.12937
  Beta  occ. eigenvalues --   -1.12873  -1.12849  -1.11482  -1.11437  -1.11409
  Beta  occ. eigenvalues --   -0.18141  -0.14111  -0.10496
  Beta virt. eigenvalues --   -0.07564  -0.06479  -0.04933  -0.04161  -0.02665
  Beta virt. eigenvalues --   -0.02535  -0.01793  -0.01642  -0.00859  -0.00504
  Beta virt. eigenvalues --   -0.00090   0.00174   0.00333   0.00542   0.00691

 Mulliken charges and spin densities:
               1          2
     1  Na  -0.235698   0.212233
     2  Na   0.219233  -0.076642
     3  Na   0.382168   0.006035
     4  Na  -0.214139   0.043242
     5  Na   0.153550   0.228562
     6  Na   0.020331   0.036126
     7  Na  -0.325444   0.550444
 Sum of Mulliken charges =  -0.00000   1.00000

 Dipole moment (field-independent basis, Debye):
    X=             -0.3066    Y=             -0.0203    Z=              0.2601  Tot=              0.4026
 Quadrupole moment (field-independent basis, Debye-Ang):
   XX=            -52.8979   YY=            -66.9624   ZZ=            -75.3704
   XY=             -0.1177   XZ=             -1.4611   YZ=              6.4928

 Normal termination of Gaussian 16 at Thu Dec  7 05:20:43 2023.
