 Gaussian 16, Revision B.01,
 Gaussian 16:  ES64L-G16RevB.01 20-Dec-2017

 -------------------------
 #P B3LYP/6-311+g(d) force
 -------------------------

 -----
 DPGEN
 -----
 Symbolic Z-matrix:
 Charge =  0 Multiplicity = 2

                         Standard orientation:
 ---------------------------------------------------------------------
 Center     Atomic      Atomic             Coordinates (Angstroms)
 Number     Number       Type             X           Y           Z
 ---------------------------------------------------------------------
      1         11           0       -0.606983   -0.553148   -1.548776
      2         11           0        2.105929   -2.342520   -0.706027
      3         11           0       -2.997920    1.649564    0.004659
      4         11           0        3.805501    0.984852    0.284180
      5         11           0        0.319408   -0.536340    2.019696
      6         11           0        0.287082    2.590404   -0.413220
      7         11           0       -2.913017   -1.792812    0.359488
 ---------------------------------------------------------------------

 SCF Done:  E(UB3LYP) =  -1136.12298799     A.U. after   22 cycles

 The electronic state is 2-A.
 Alpha  occ. eigenvalues --  -38.45445 -38.44477 -38.44318 -38.44304 -38.43914
 Alpha  occ. eigenvalues --  -38.43265 -38.42947  -2.21176  -2.20284  -2.20136
 Alpha  occ. eigenvalues --   -2.20126  -2.19719  -2.19202  -2.18763  -1.14852
 Alpha  occ. eigenvalues --   -1.14832  -1.14807  -1.13967  -1.13930  -1.13889
 Alpha  occ. eigenvalues --   -1.13824  -1.13809  -1.13802  -1.13790  -1.13767
 Alpha  occ. eigenvalues --   -1.13745  -1.13401  -1.13372  -1.13346  -1.12889
 Alpha  occ. eigenvalues --   -1.12858  -1.12810  -1.12461  -1.12441  -1.12377
 Alpha  occ. eigenvalues --   -0.17856  -0.13415  -0.11672  -0.10442
 Alpha virt. eigenvalues --   -0.07002  -0.05817  -0.04078  -0.03300  -0.02536
 Alpha virt. eigenvalues --   -0.02524  -0.02349  -0.01652  -0.00803  -0.00277
 Alpha virt. eigenvalues --   -0.00115   0.00170   0.00437   0.00598   0.00625

  Beta  occ. eigenvalues --  -38.45440 -38.44407 -38.44318 -38.44296 -38.43887
  Beta  occ. eigenvalues --  -38.43204 -38.42941  -2.21167  -2.20153  -2.20136
  Beta  occ. eigenvalues --   -2.20113  -2.19671  -2.19091  -2.18755  -1.14838
  Beta  occ. eigenvalues --   -1.14828  -1.14802  -1.13877  -1.13841  -1.13823
  Beta  occ. eigenvalues --   -1.13804  -1.13792  -1.13788  -1.13782  -1.13748
  Beta  occ. eigenvalues --   -1.13740  -1.13358  -1.13336  -1.13311  -1.12816
  Beta  occ. eigenvalues --   -1.12778  -1.12721  -1.12454  -1.12426  -1.12367
  Beta  occ. eigenvalues --   -0.17217  -0.13225  -0.11397
  Beta virt. eigenvalues --   -0.06955  -0.06553  -0.05786  -0.03873  -0.02811
  Beta virt. eigenvalues --   -0.02364  -0.01898  -0.01592  -0.01372  -0.00802
  Beta virt. eigenvalues --   -0.00151  -0.00018   0.00215   0.00575   0.00681

 Mulliken charges and spin densities:
               1          2
     1  Na   0.428761   0.152307
     2  Na  -0.066228   0.076438
     3  Na   0.022705   0.017446
     4  Na   0.034726   0.034017
     5  Na  -0.252323   0.541992
     6  Na  -0.353833  -0.001805
     7  Na   0.186192   0.179605
 Sum of Mulliken charges =  -0.00000   1.00000

 Dipole moment (field-independent basis, Debye):
    X=              0.2583    Y=             -0.1643    Z=              0.3245  Tot=              0.4461
 Quadrupole moment (field-independent basis, Debye-Ang):
   XX=            -46.6146   YY=            -70.4000   ZZ=            -75.5113
   XY=              0.4077   XZ=             -1.0226   YZ=              0.4341

 Normal termination of Gaussian 16 at Thu Dec  7 16:54:27 2023.
