 Gaussian 16, Revision B.01,
 Gaussian 16:  ES64L-G16RevB.01 20-Dec-2017

 -------------------------
 #P B3LYP/6-311+g(d) force
 -------------------------

 -----
 DPGEN
 -----
 Symbolic Z-matrix:
 Charge =  0 Multiplicity = 2

                         Standard orientation:
 ---------------------------------------------------------------------
 Center     Atomic      Atomic             Coordinates (Angstroms)
 Number     Number       Type             X           Y           Z
 ---------------------------------------------------------------------
      1         11           0       -1.575756   -2.610977   -1.735100
      2         11           0       -3.292176   -0.398243    0.559509
      3         11           0        2.755533    0.141650    0.980031
      4         11           0       -2.745147    2.778299   -0.555290
      5         11           0        5.279688    0.367975   -0.970872
      6         11           0       -0.087080   -0.907358    2.362387
      7         11           0       -0.335062    0.628655   -0.640666
 ---------------------------------------------------------------------

 SCF Done:  E(UB3LYP) =  -1136.11144797     A.U. after   23 cycles

 The electronic state is 2-A.
 Alpha  occ. eigenvalues --  -38.45086 -38.44617 -38.44602 -38.44557 -38.44202
 Alpha  occ. eigenvalues --  -38.43242 -38.42697  -2.20935  -2.20530  -2.20414
 Alpha  occ. eigenvalues --   -2.20364  -2.20055  -2.19104  -2.18527  -1.14633
 Alpha  occ. eigenvalues --   -1.14621  -1.14535  -1.14249  -1.14194  -1.14160
 Alpha  occ. eigenvalues --   -1.14067  -1.14048  -1.14009  -1.14009  -1.13997
 Alpha  occ. eigenvalues --   -1.13990  -1.13719  -1.13712  -1.13667  -1.12792
 Alpha  occ. eigenvalues --   -1.12772  -1.12759  -1.12204  -1.12185  -1.12179
 Alpha  occ. eigenvalues --   -0.17690  -0.13964  -0.11653  -0.11434
 Alpha virt. eigenvalues --   -0.07315  -0.05027  -0.04224  -0.03318  -0.02991
 Alpha virt. eigenvalues --   -0.02390  -0.02306  -0.01573  -0.01290  -0.00567
 Alpha virt. eigenvalues --   -0.00510  -0.00195   0.00100   0.00589   0.00743

  Beta  occ. eigenvalues --  -38.45085 -38.44623 -38.44498 -38.44475 -38.44150
  Beta  occ. eigenvalues --  -38.43237 -38.42712  -2.20935  -2.20544  -2.20221
  Beta  occ. eigenvalues --   -2.20212  -2.19961  -2.19104  -2.18555  -1.14630
  Beta  occ. eigenvalues --   -1.14610  -1.14539  -1.14234  -1.14207  -1.14177
  Beta  occ. eigenvalues --   -1.13936  -1.13912  -1.13907  -1.13893  -1.13888
  Beta  occ. eigenvalues --   -1.13887  -1.13653  -1.13644  -1.13608  -1.12802
  Beta  occ. eigenvalues --   -1.12778  -1.12696  -1.12232  -1.12201  -1.12190
  Beta  occ. eigenvalues --   -0.17235  -0.13192  -0.11191
  Beta virt. eigenvalues --   -0.07966  -0.07161  -0.04618  -0.03953  -0.02995
  Beta virt. eigenvalues --   -0.02691  -0.02223  -0.01948  -0.01217  -0.00879
  Beta virt. eigenvalues --   -0.00339  -0.00273   0.00012   0.00145   0.00656

 Mulliken charges and spin densities:
               1          2
     1  Na  -0.098609   0.305327
     2  Na   1.030418   0.201529
     3  Na  -0.009569   0.226879
     4  Na   0.314023  -0.201563
     5  Na   0.092801   0.362592
     6  Na   0.184968  -0.087014
     7  Na  -1.514032   0.192250
 Sum of Mulliken charges =  -0.00000   1.00000

 Dipole moment (field-independent basis, Debye):
    X=             -0.6580    Y=             -0.9059    Z=              0.2749  Tot=              1.1529
 Quadrupole moment (field-independent basis, Debye-Ang):
   XX=            -60.4317   YY=            -73.0267   ZZ=            -65.2795
   XY=              2.4184   XZ=             -6.9143   YZ=             -0.0094

 Normal termination of Gaussian 16 at Tue Nov 28 22:53:46 2023.
