 Gaussian 16, Revision B.01,
 Gaussian 16:  ES64L-G16RevB.01 20-Dec-2017

 -------------------------
 #P B3LYP/6-311+g(d) force
 -------------------------

 -----
 DPGEN
 -----
 Symbolic Z-matrix:
 Charge =  0 Multiplicity = 2

                         Standard orientation:
 ---------------------------------------------------------------------
 Center     Atomic      Atomic             Coordinates (Angstroms)
 Number     Number       Type             X           Y           Z
 ---------------------------------------------------------------------
      1         11           0       -0.688738   -2.795766   -0.887144
      2         11           0       -3.634347   -2.692202    0.687312
      3         11           0       -6.215603    3.476770   -0.165558
      4         11           0       -5.066257    0.751330    0.199238
      5         11           0        5.735334    0.048112    0.884670
      6         11           0        7.521578    2.046087   -0.293706
      7         11           0        2.348034   -0.834331   -0.424813
 ---------------------------------------------------------------------

 SCF Done:  E(UB3LYP) =  -1136.10569298     A.U. after   19 cycles

 The electronic state is 2-A.
 Alpha  occ. eigenvalues --  -38.45151 -38.45044 -38.44770 -38.44477 -38.44418
 Alpha  occ. eigenvalues --  -38.44040 -38.43594  -2.20975  -2.20829  -2.20572
 Alpha  occ. eigenvalues --   -2.20240  -2.20238  -2.19860  -2.19400  -1.14686
 Alpha  occ. eigenvalues --   -1.14603  -1.14600  -1.14482  -1.14480  -1.14428
 Alpha  occ. eigenvalues --   -1.14220  -1.14213  -1.14206  -1.13924  -1.13915
 Alpha  occ. eigenvalues --   -1.13913  -1.13893  -1.13889  -1.13883  -1.13569
 Alpha  occ. eigenvalues --   -1.13493  -1.13493  -1.13066  -1.13065  -1.13042
 Alpha  occ. eigenvalues --   -0.15245  -0.14445  -0.12937  -0.11596
 Alpha virt. eigenvalues --   -0.07027  -0.05270  -0.04024  -0.03443  -0.03291
 Alpha virt. eigenvalues --   -0.02660  -0.02255  -0.02114  -0.01603  -0.01352
 Alpha virt. eigenvalues --   -0.01013  -0.00376  -0.00255   0.00331   0.00518

  Beta  occ. eigenvalues --  -38.45101 -38.44950 -38.44700 -38.44496 -38.44423
  Beta  occ. eigenvalues --  -38.44001 -38.43599  -2.20881  -2.20654  -2.20442
  Beta  occ. eigenvalues --   -2.20280  -2.20256  -2.19788  -2.19415  -1.14626
  Beta  occ. eigenvalues --   -1.14539  -1.14536  -1.14363  -1.14361  -1.14317
  Beta  occ. eigenvalues --   -1.14131  -1.14130  -1.14121  -1.13958  -1.13948
  Beta  occ. eigenvalues --   -1.13911  -1.13909  -1.13875  -1.13871  -1.13524
  Beta  occ. eigenvalues --   -1.13444  -1.13444  -1.13079  -1.13078  -1.13020
  Beta  occ. eigenvalues --   -0.14541  -0.13886  -0.12366
  Beta virt. eigenvalues --   -0.08533  -0.06527  -0.04884  -0.03710  -0.03249
  Beta virt. eigenvalues --   -0.03054  -0.02541  -0.02100  -0.01802  -0.01407
  Beta virt. eigenvalues --   -0.01007  -0.00577  -0.00211   0.00029   0.00425

 Mulliken charges and spin densities:
               1          2
     1  Na  -0.141072  -0.134899
     2  Na   0.280589   0.198484
     3  Na   1.052596   0.057434
     4  Na  -1.203194   0.198038
     5  Na  -0.183487  -0.038226
     6  Na   0.309304   0.224963
     7  Na  -0.114736   0.494206
 Sum of Mulliken charges =  -0.00000   1.00000

 Dipole moment (field-independent basis, Debye):
    X=              1.7516    Y=              0.4740    Z=             -0.1790  Tot=              1.8234
 Quadrupole moment (field-independent basis, Debye-Ang):
   XX=            -58.8925   YY=            -60.4180   ZZ=            -71.5100
   XY=              6.3559   XZ=             -3.1893   YZ=             -3.7623

 Normal termination of Gaussian 16 at Sun Dec  3 16:32:00 2023.
