 Gaussian 16, Revision B.01,
 Gaussian 16:  ES64L-G16RevB.01 20-Dec-2017

 -------------------------
 #P B3LYP/6-311+g(d) force
 -------------------------

 -----
 DPGEN
 -----
 Symbolic Z-matrix:
 Charge =  0 Multiplicity = 2

                         Standard orientation:
 ---------------------------------------------------------------------
 Center     Atomic      Atomic             Coordinates (Angstroms)
 Number     Number       Type             X           Y           Z
 ---------------------------------------------------------------------
      1         11           0        2.294300    1.645322   -0.653567
      2         11           0        2.761693   -1.565996    0.237398
      3         11           0        0.243558   -0.487224   -2.011896
      4         11           0       -1.462662   -2.229047    0.343579
      5         11           0        0.345869    0.051408    2.175710
      6         11           0       -1.087107    2.685725    0.399047
      7         11           0       -3.095652   -0.100190   -0.490271
 ---------------------------------------------------------------------

 SCF Done:  E(UB3LYP) =  -1136.13024730     A.U. after   20 cycles

 The electronic state is 2-A.
 Alpha  occ. eigenvalues --  -38.44247 -38.44242 -38.44212 -38.43943 -38.43852
 Alpha  occ. eigenvalues --  -38.43436 -38.42739  -2.20133  -2.20126  -2.20110
 Alpha  occ. eigenvalues --   -2.19777  -2.19714  -2.19355  -2.18557  -1.13927
 Alpha  occ. eigenvalues --   -1.13794  -1.13785  -1.13780  -1.13761  -1.13760
 Alpha  occ. eigenvalues --   -1.13744  -1.13742  -1.13724  -1.13458  -1.13442
 Alpha  occ. eigenvalues --   -1.13422  -1.13406  -1.13358  -1.13318  -1.13021
 Alpha  occ. eigenvalues --   -1.12995  -1.12980  -1.12239  -1.12219  -1.12200
 Alpha  occ. eigenvalues --   -0.18640  -0.13445  -0.11803  -0.11650
 Alpha virt. eigenvalues --   -0.05701  -0.05164  -0.04057  -0.03746  -0.03327
 Alpha virt. eigenvalues --   -0.03019  -0.01506  -0.00874  -0.00262   0.00011
 Alpha virt. eigenvalues --    0.00092   0.00391   0.00677   0.00795   0.00912

  Beta  occ. eigenvalues --  -38.44243 -38.44146 -38.44139 -38.43939 -38.43835
  Beta  occ. eigenvalues --  -38.43428 -38.42737  -2.20126  -2.19978  -2.19951
  Beta  occ. eigenvalues --   -2.19773  -2.19686  -2.19345  -2.18557  -1.13926
  Beta  occ. eigenvalues --   -1.13762  -1.13735  -1.13702  -1.13673  -1.13666
  Beta  occ. eigenvalues --   -1.13642  -1.13633  -1.13611  -1.13456  -1.13423
  Beta  occ. eigenvalues --   -1.13410  -1.13371  -1.13335  -1.13301  -1.13018
  Beta  occ. eigenvalues --   -1.12978  -1.12954  -1.12231  -1.12213  -1.12202
  Beta  occ. eigenvalues --   -0.17853  -0.13220  -0.11580
  Beta virt. eigenvalues --   -0.07696  -0.05562  -0.05131  -0.03912  -0.03054
  Beta virt. eigenvalues --   -0.02401  -0.02190  -0.01410  -0.00790  -0.00162
  Beta virt. eigenvalues --    0.00022   0.00105   0.00422   0.00835   0.00909

 Mulliken charges and spin densities:
               1          2
     1  Na   0.071708   0.049758
     2  Na   0.202662  -0.071413
     3  Na  -0.187603   0.426224
     4  Na   0.244186  -0.000906
     5  Na  -0.293663   0.650205
     6  Na  -0.044325  -0.040432
     7  Na   0.007034  -0.013436
 Sum of Mulliken charges =  -0.00000   1.00000

 Dipole moment (field-independent basis, Debye):
    X=              0.3871    Y=             -0.2358    Z=             -0.1193  Tot=              0.4687
 Quadrupole moment (field-independent basis, Debye-Ang):
   XX=            -57.8874   YY=            -70.0948   ZZ=            -68.9216
   XY=             -0.9376   XZ=              0.7102   YZ=             -1.8443

 Normal termination of Gaussian 16 at Tue Dec  5 14:27:58 2023.
