 Gaussian 16, Revision B.01,
 Gaussian 16:  ES64L-G16RevB.01 20-Dec-2017

 -------------------------
 #P B3LYP/6-311+g(d) force
 -------------------------

 -----
 DPGEN
 -----
 Symbolic Z-matrix:
 Charge =  0 Multiplicity = 2

                         Standard orientation:
 ---------------------------------------------------------------------
 Center     Atomic      Atomic             Coordinates (Angstroms)
 Number     Number       Type             X           Y           Z
 ---------------------------------------------------------------------
      1         11           0       -1.185032   -1.220425    1.857972
      2         11           0       -0.785983   -0.651787   -1.850122
      3         11           0        2.226672   -1.776648    0.144549
      4         11           0       -3.919978   -0.562840   -0.514964
      5         11           0       -2.213364    2.015916    0.250127
      6         11           0        4.877405    0.530474   -0.297067
      7         11           0        1.000281    1.665311    0.409504
 ---------------------------------------------------------------------

 SCF Done:  E(UB3LYP) =  -1136.11209119     A.U. after   32 cycles

 The electronic state is 2-A.
 Alpha  occ. eigenvalues --  -38.46266 -38.45085 -38.44951 -38.44371 -38.43590
 Alpha  occ. eigenvalues --  -38.42764 -38.42571  -2.22072  -2.20899  -2.20733
 Alpha  occ. eigenvalues --   -2.20245  -2.19401  -2.18621  -2.18473  -1.15754
 Alpha  occ. eigenvalues --   -1.15729  -1.15705  -1.14558  -1.14548  -1.14529
 Alpha  occ. eigenvalues --   -1.14386  -1.14377  -1.14341  -1.13905  -1.13901
 Alpha  occ. eigenvalues --   -1.13859  -1.13097  -1.13085  -1.13019  -1.12337
 Alpha  occ. eigenvalues --   -1.12299  -1.12254  -1.12142  -1.12131  -1.12106
 Alpha  occ. eigenvalues --   -0.18181  -0.14256  -0.11126  -0.10718
 Alpha virt. eigenvalues --   -0.08035  -0.05156  -0.04392  -0.03415  -0.03049
 Alpha virt. eigenvalues --   -0.02280  -0.02080  -0.01656  -0.01359  -0.00758
 Alpha virt. eigenvalues --   -0.00288   0.00165   0.00191   0.00612   0.00681

  Beta  occ. eigenvalues --  -38.46263 -38.45038 -38.44874 -38.44316 -38.43588
  Beta  occ. eigenvalues --  -38.42747 -38.42563  -2.22069  -2.20815  -2.20587
  Beta  occ. eigenvalues --   -2.20143  -2.19400  -2.18594  -2.18465  -1.15742
  Beta  occ. eigenvalues --   -1.15731  -1.15697  -1.14494  -1.14484  -1.14472
  Beta  occ. eigenvalues --   -1.14286  -1.14276  -1.14247  -1.13840  -1.13823
  Beta  occ. eigenvalues --   -1.13792  -1.13104  -1.13083  -1.12991  -1.12322
  Beta  occ. eigenvalues --   -1.12262  -1.12235  -1.12141  -1.12130  -1.12067
  Beta  occ. eigenvalues --   -0.17645  -0.13568  -0.10477
  Beta virt. eigenvalues --   -0.07797  -0.07583  -0.04976  -0.03817  -0.03116
  Beta virt. eigenvalues --   -0.02907  -0.01956  -0.01776  -0.01341  -0.00781
  Beta virt. eigenvalues --   -0.00458  -0.00198   0.00221   0.00292   0.00673

 Mulliken charges and spin densities:
               1          2
     1  Na  -0.130939   0.198459
     2  Na  -0.026450  -0.004393
     3  Na   0.163212   0.117771
     4  Na   0.608353   0.320148
     5  Na  -0.219202  -0.080089
     6  Na   0.184876   0.425416
     7  Na  -0.579850   0.022687
 Sum of Mulliken charges =  -0.00000   1.00000

 Dipole moment (field-independent basis, Debye):
    X=             -0.1785    Y=             -0.7094    Z=              0.0180  Tot=              0.7317
 Quadrupole moment (field-independent basis, Debye-Ang):
   XX=            -55.4464   YY=            -81.8757   ZZ=            -62.6150
   XY=              1.3051   XZ=             -3.5835   YZ=             -2.3010

 Normal termination of Gaussian 16 at Fri Dec  8 02:50:18 2023.
