 Gaussian 16, Revision B.01,
 Gaussian 16:  ES64L-G16RevB.01 20-Dec-2017

 -------------------------
 #P B3LYP/6-311+g(d) force
 -------------------------

 -----
 DPGEN
 -----
 Symbolic Z-matrix:
 Charge =  0 Multiplicity = 2

                         Standard orientation:
 ---------------------------------------------------------------------
 Center     Atomic      Atomic             Coordinates (Angstroms)
 Number     Number       Type             X           Y           Z
 ---------------------------------------------------------------------
      1         11           0       -2.982519    2.378261   -0.130986
      2         11           0       -3.815143   -1.674242   -0.176199
      3         11           0       -6.085126   -0.046420   -0.429470
      4         11           0        1.861522   -0.987878   -0.496829
      5         11           0        6.243486    1.550294   -0.353514
      6         11           0        5.479350   -1.338465    0.092080
      7         11           0       -0.701570    0.118450    1.494918
 ---------------------------------------------------------------------

 SCF Done:  E(UB3LYP) =  -1136.10512723     A.U. after   19 cycles

 The electronic state is 2-A.
 Alpha  occ. eigenvalues --  -38.44823 -38.44614 -38.44467 -38.44458 -38.44019
 Alpha  occ. eigenvalues --  -38.43935 -38.43507  -2.20625  -2.20475  -2.20273
 Alpha  occ. eigenvalues --   -2.20272  -2.19803  -2.19784  -2.19296  -1.14328
 Alpha  occ. eigenvalues --   -1.14270  -1.14264  -1.14249  -1.14122  -1.14081
 Alpha  occ. eigenvalues --   -1.13931  -1.13928  -1.13918  -1.13915  -1.13902
 Alpha  occ. eigenvalues --   -1.13876  -1.13476  -1.13470  -1.13453  -1.13419
 Alpha  occ. eigenvalues --   -1.13411  -1.13395  -1.12983  -1.12967  -1.12941
 Alpha  occ. eigenvalues --   -0.15851  -0.14525  -0.11956  -0.10518
 Alpha virt. eigenvalues --   -0.07006  -0.05216  -0.04500  -0.03201  -0.03103
 Alpha virt. eigenvalues --   -0.02674  -0.02547  -0.01503  -0.01338  -0.00697
 Alpha virt. eigenvalues --   -0.00425  -0.00167   0.00129   0.00287   0.00459

  Beta  occ. eigenvalues --  -38.44795 -38.44574 -38.44463 -38.44358 -38.43979
  Beta  occ. eigenvalues --  -38.43929 -38.43519  -2.20572  -2.20402  -2.20285
  Beta  occ. eigenvalues --   -2.20069  -2.19778  -2.19727  -2.19323  -1.14298
  Beta  occ. eigenvalues --   -1.14234  -1.14227  -1.14205  -1.14073  -1.14022
  Beta  occ. eigenvalues --   -1.13941  -1.13926  -1.13905  -1.13788  -1.13765
  Beta  occ. eigenvalues --   -1.13740  -1.13435  -1.13421  -1.13419  -1.13418
  Beta  occ. eigenvalues --   -1.13383  -1.13368  -1.13004  -1.12988  -1.12929
  Beta  occ. eigenvalues --   -0.15323  -0.14206  -0.11577
  Beta virt. eigenvalues --   -0.07164  -0.06339  -0.05153  -0.04360  -0.03055
  Beta virt. eigenvalues --   -0.02655  -0.02385  -0.01959  -0.01438  -0.01135
  Beta virt. eigenvalues --   -0.00303  -0.00232  -0.00005   0.00308   0.00379

 Mulliken charges and spin densities:
               1          2
     1  Na  -0.042806   0.510589
     2  Na  -0.427305   0.268270
     3  Na   0.530273  -0.052749
     4  Na  -0.321124   0.171996
     5  Na   0.200976   0.129431
     6  Na   0.215297  -0.023485
     7  Na  -0.155312  -0.004053
 Sum of Mulliken charges =  -0.00000   1.00000

 Dipole moment (field-independent basis, Debye):
    X=              0.8515    Y=              0.4867    Z=             -0.2958  Tot=              1.0244
 Quadrupole moment (field-independent basis, Debye-Ang):
   XX=            -61.2410   YY=            -64.0802   ZZ=            -71.0459
   XY=             -2.1938   XZ=             -0.2709   YZ=             -2.4326

 Normal termination of Gaussian 16 at Sun Dec  3 21:13:22 2023.
