 Gaussian 16, Revision B.01,
 Gaussian 16:  ES64L-G16RevB.01 20-Dec-2017

 -------------------------
 #P B3LYP/6-311+g(d) force
 -------------------------

 -----
 DPGEN
 -----
 Symbolic Z-matrix:
 Charge =  0 Multiplicity = 2

                         Standard orientation:
 ---------------------------------------------------------------------
 Center     Atomic      Atomic             Coordinates (Angstroms)
 Number     Number       Type             X           Y           Z
 ---------------------------------------------------------------------
      1         11           0       -1.776251    2.238639    0.045888
      2         11           0       -0.287540   -0.028426    1.960387
      3         11           0       -0.393011    0.152569   -1.711160
      4         11           0       -2.776050   -1.129804   -0.055276
      5         11           0        1.808130    2.322981   -0.105108
      6         11           0        3.173780   -0.826638    0.014747
      7         11           0        0.250942   -2.729322   -0.149477
 ---------------------------------------------------------------------

 SCF Done:  E(UB3LYP) =  -1136.13771076     A.U. after   19 cycles

 The electronic state is 2-A.
 Alpha  occ. eigenvalues --  -38.43998 -38.43798 -38.43548 -38.43491 -38.43429
 Alpha  occ. eigenvalues --  -38.43267 -38.43172  -2.19799  -2.19701  -2.19426
 Alpha  occ. eigenvalues --   -2.19385  -2.19342  -2.19278  -2.19050  -1.13469
 Alpha  occ. eigenvalues --   -1.13460  -1.13452  -1.13408  -1.13369  -1.13331
 Alpha  occ. eigenvalues --   -1.13138  -1.13096  -1.13072  -1.13067  -1.13058
 Alpha  occ. eigenvalues --   -1.13032  -1.13020  -1.12982  -1.12946  -1.12938
 Alpha  occ. eigenvalues --   -1.12885  -1.12876  -1.12728  -1.12717  -1.12672
 Alpha  occ. eigenvalues --   -0.19016  -0.13071  -0.12587  -0.10860
 Alpha virt. eigenvalues --   -0.05571  -0.05253  -0.04541  -0.03116  -0.02939
 Alpha virt. eigenvalues --   -0.02587  -0.01442  -0.01059  -0.00326  -0.00181
 Alpha virt. eigenvalues --   -0.00010   0.00353   0.00843   0.00902   0.00922

  Beta  occ. eigenvalues --  -38.44001 -38.43788 -38.43546 -38.43419 -38.43399
  Beta  occ. eigenvalues --  -38.43193 -38.43165  -2.19806  -2.19689  -2.19383
  Beta  occ. eigenvalues --   -2.19329  -2.19256  -2.19144  -2.19042  -1.13469
  Beta  occ. eigenvalues --   -1.13461  -1.13457  -1.13397  -1.13330  -1.13322
  Beta  occ. eigenvalues --   -1.13102  -1.13058  -1.13037  -1.13023  -1.13005
  Beta  occ. eigenvalues --   -1.12968  -1.12943  -1.12917  -1.12907  -1.12853
  Beta  occ. eigenvalues --   -1.12801  -1.12787  -1.12716  -1.12682  -1.12670
  Beta  occ. eigenvalues --   -0.18259  -0.12858  -0.12320
  Beta virt. eigenvalues --   -0.06885  -0.05521  -0.05262  -0.04524  -0.02352
  Beta virt. eigenvalues --   -0.02114  -0.01518  -0.01355  -0.01005  -0.00367
  Beta virt. eigenvalues --   -0.00244   0.00131   0.00382   0.00891   0.00902

 Mulliken charges and spin densities:
               1          2
     1  Na   0.361039  -0.079668
     2  Na  -0.480226   0.790379
     3  Na  -0.281307   0.621268
     4  Na   0.527117  -0.026909
     5  Na  -0.004632  -0.112858
     6  Na  -0.135542  -0.093977
     7  Na   0.013551  -0.098235
 Sum of Mulliken charges =  -0.00000   1.00000

 Dipole moment (field-independent basis, Debye):
    X=              0.0257    Y=              0.0132    Z=              0.1304  Tot=              0.1336
 Quadrupole moment (field-independent basis, Debye-Ang):
   XX=            -56.3360   YY=            -63.5683   ZZ=            -73.9616
   XY=              0.1442   XZ=             -0.1188   YZ=              0.3397

 Normal termination of Gaussian 16 at Fri Dec  8 05:40:44 2023.
