 Gaussian 16, Revision B.01,
 Gaussian 16:  ES64L-G16RevB.01 20-Dec-2017

 -------------------------
 #P B3LYP/6-311+g(d) force
 -------------------------

 -----
 DPGEN
 -----
 Symbolic Z-matrix:
 Charge =  0 Multiplicity = 2

                         Standard orientation:
 ---------------------------------------------------------------------
 Center     Atomic      Atomic             Coordinates (Angstroms)
 Number     Number       Type             X           Y           Z
 ---------------------------------------------------------------------
      1         11           0        3.032671   -1.548785    0.310099
      2         11           0       -0.410370   -2.925132   -0.424532
      3         11           0       -0.508957   -0.182513    1.979306
      4         11           0        0.154539    0.053152   -1.660608
      5         11           0        2.448714    1.815193   -0.069490
      6         11           0       -3.883881   -0.416975   -0.067940
      7         11           0       -0.832716    3.205060   -0.066835
 ---------------------------------------------------------------------

 SCF Done:  E(UB3LYP) =  -1136.12685152     A.U. after   22 cycles

 The electronic state is 2-A.
 Alpha  occ. eigenvalues --  -38.45377 -38.44031 -38.43951 -38.43874 -38.43838
 Alpha  occ. eigenvalues --  -38.43753 -38.43289  -2.21083  -2.19827  -2.19729
 Alpha  occ. eigenvalues --   -2.19692  -2.19663  -2.19596  -2.19205  -1.14764
 Alpha  occ. eigenvalues --   -1.14749  -1.14717  -1.13503  -1.13491  -1.13466
 Alpha  occ. eigenvalues --   -1.13405  -1.13398  -1.13390  -1.13372  -1.13365
 Alpha  occ. eigenvalues --   -1.13337  -1.13301  -1.13296  -1.13295  -1.13271
 Alpha  occ. eigenvalues --   -1.13256  -1.13214  -1.12890  -1.12843  -1.12818
 Alpha  occ. eigenvalues --   -0.17787  -0.12606  -0.12307  -0.10214
 Alpha virt. eigenvalues --   -0.06686  -0.05309  -0.04800  -0.02998  -0.02793
 Alpha virt. eigenvalues --   -0.02354  -0.02153  -0.01388  -0.00791  -0.00666
 Alpha virt. eigenvalues --   -0.00097   0.00262   0.00606   0.00653   0.00749

  Beta  occ. eigenvalues --  -38.45387 -38.44022 -38.43950 -38.43855 -38.43758
  Beta  occ. eigenvalues --  -38.43747 -38.43220  -2.21103  -2.19813  -2.19729
  Beta  occ. eigenvalues --   -2.19662  -2.19587  -2.19515  -2.19079  -1.14770
  Beta  occ. eigenvalues --   -1.14761  -1.14731  -1.13495  -1.13467  -1.13457
  Beta  occ. eigenvalues --   -1.13395  -1.13391  -1.13371  -1.13370  -1.13319
  Beta  occ. eigenvalues --   -1.13284  -1.13284  -1.13242  -1.13236  -1.13206
  Beta  occ. eigenvalues --   -1.13197  -1.13162  -1.12803  -1.12752  -1.12726
  Beta  occ. eigenvalues --   -0.17079  -0.12417  -0.12099
  Beta virt. eigenvalues --   -0.06689  -0.06353  -0.05240  -0.04738  -0.02337
  Beta virt. eigenvalues --   -0.02152  -0.02079  -0.01326  -0.01251  -0.00851
  Beta virt. eigenvalues --   -0.00658   0.00066   0.00298   0.00656   0.00743

 Mulliken charges and spin densities:
               1          2
     1  Na   0.036497   0.072728
     2  Na   0.120303  -0.031205
     3  Na  -0.375615   0.797112
     4  Na   0.166822   0.455312
     5  Na   0.122241   0.021222
     6  Na  -0.041754  -0.174834
     7  Na  -0.028494  -0.140334
 Sum of Mulliken charges =  -0.00000   1.00000

 Dipole moment (field-independent basis, Debye):
    X=             -0.6464    Y=             -0.0233    Z=              0.0142  Tot=              0.6470
 Quadrupole moment (field-independent basis, Debye-Ang):
   XX=            -52.5145   YY=            -61.7606   ZZ=            -77.3428
   XY=             -1.1440   XZ=              1.7552   YZ=              0.2740

 Normal termination of Gaussian 16 at Thu Dec  7 21:39:17 2023.
