 Gaussian 16, Revision B.01,
 Gaussian 16:  ES64L-G16RevB.01 20-Dec-2017

 -------------------------
 #P B3LYP/6-311+g(d) force
 -------------------------

 -----
 DPGEN
 -----
 Symbolic Z-matrix:
 Charge =  0 Multiplicity = 2

                         Standard orientation:
 ---------------------------------------------------------------------
 Center     Atomic      Atomic             Coordinates (Angstroms)
 Number     Number       Type             X           Y           Z
 ---------------------------------------------------------------------
      1         11           0       -6.078688    0.306856   -0.416984
      2         11           0        2.724101   -2.507809   -0.303254
      3         11           0        1.197564   -0.967414    1.666544
      4         11           0       -0.374867   -0.607503   -1.618084
      5         11           0        4.313874    1.321202   -0.428935
      6         11           0       -3.288000   -0.048257    0.859051
      7         11           0        1.506016    2.502925    0.241662
 ---------------------------------------------------------------------

 SCF Done:  E(UB3LYP) =  -1136.10645099     A.U. after   22 cycles

 The electronic state is 2-A.
 Alpha  occ. eigenvalues --  -38.45706 -38.45634 -38.43979 -38.43812 -38.43769
 Alpha  occ. eigenvalues --  -38.43756 -38.43263  -2.21488  -2.21484  -2.19796
 Alpha  occ. eigenvalues --   -2.19623  -2.19618  -2.19569  -2.19093  -1.15218
 Alpha  occ. eigenvalues --   -1.15148  -1.15144  -1.15124  -1.15108  -1.15092
 Alpha  occ. eigenvalues --   -1.13487  -1.13430  -1.13429  -1.13320  -1.13295
 Alpha  occ. eigenvalues --   -1.13284  -1.13259  -1.13249  -1.13242  -1.13238
 Alpha  occ. eigenvalues --   -1.13223  -1.13195  -1.12769  -1.12749  -1.12721
 Alpha  occ. eigenvalues --   -0.17240  -0.13679  -0.11586  -0.11001
 Alpha virt. eigenvalues --   -0.07394  -0.05355  -0.04107  -0.03514  -0.03246
 Alpha virt. eigenvalues --   -0.02288  -0.02021  -0.01926  -0.01656  -0.00928
 Alpha virt. eigenvalues --   -0.00230  -0.00121   0.00268   0.00574   0.00624

  Beta  occ. eigenvalues --  -38.45655 -38.45625 -38.43914 -38.43790 -38.43776
  Beta  occ. eigenvalues --  -38.43710 -38.43252  -2.21474  -2.21394  -2.19675
  Beta  occ. eigenvalues --   -2.19588  -2.19579  -2.19536  -2.19074  -1.15198
  Beta  occ. eigenvalues --   -1.15112  -1.15094  -1.15082  -1.15058  -1.15041
  Beta  occ. eigenvalues --   -1.13420  -1.13348  -1.13346  -1.13268  -1.13263
  Beta  occ. eigenvalues --   -1.13260  -1.13257  -1.13252  -1.13222  -1.13196
  Beta  occ. eigenvalues --   -1.13159  -1.13158  -1.12758  -1.12738  -1.12694
  Beta  occ. eigenvalues --   -0.16595  -0.13024  -0.11395
  Beta virt. eigenvalues --   -0.07689  -0.07161  -0.04836  -0.03725  -0.03287
  Beta virt. eigenvalues --   -0.02888  -0.02149  -0.01873  -0.01561  -0.01313
  Beta virt. eigenvalues --   -0.00557  -0.00121   0.00013   0.00325   0.00653

 Mulliken charges and spin densities:
               1          2
     1  Na   0.450499   0.198647
     2  Na   0.399168   0.448478
     3  Na  -0.118349  -0.061678
     4  Na  -0.135198   0.006908
     5  Na   0.069947   0.113835
     6  Na  -0.573957   0.200242
     7  Na  -0.092110   0.093568
 Sum of Mulliken charges =  -0.00000   1.00000

 Dipole moment (field-independent basis, Debye):
    X=              0.3311    Y=             -0.6694    Z=             -0.6510  Tot=              0.9907
 Quadrupole moment (field-independent basis, Debye-Ang):
   XX=            -69.6945   YY=            -79.1738   ZZ=            -59.1402
   XY=             -4.9571   XZ=              0.5701   YZ=              2.0091

 Normal termination of Gaussian 16 at Sun Dec  3 21:45:36 2023.
