 Gaussian 16, Revision B.01,
 Gaussian 16:  ES64L-G16RevB.01 20-Dec-2017

 -------------------------
 #P B3LYP/6-311+g(d) force
 -------------------------

 -----
 DPGEN
 -----
 Symbolic Z-matrix:
 Charge =  0 Multiplicity = 2

                         Standard orientation:
 ---------------------------------------------------------------------
 Center     Atomic      Atomic             Coordinates (Angstroms)
 Number     Number       Type             X           Y           Z
 ---------------------------------------------------------------------
      1         11           0       -1.532488   -2.485390   -0.772541
      2         11           0       -3.793622    0.392098    0.504666
      3         11           0        0.851715   -0.448073   -1.620073
      4         11           0        2.038569    2.051224   -0.003147
      5         11           0       -1.156987    2.193772   -0.478563
      6         11           0        0.050534   -0.702116    1.956277
      7         11           0        3.542278   -1.001515    0.413381
 ---------------------------------------------------------------------

 SCF Done:  E(UB3LYP) =  -1136.12456114     A.U. after   23 cycles

 The electronic state is 2-A.
 Alpha  occ. eigenvalues --  -38.45139 -38.44936 -38.44830 -38.43393 -38.43355
 Alpha  occ. eigenvalues --  -38.43252 -38.42631  -2.20913  -2.20745  -2.20637
 Alpha  occ. eigenvalues --   -2.19289  -2.19222  -2.19183  -2.18500  -1.14584
 Alpha  occ. eigenvalues --   -1.14573  -1.14536  -1.14416  -1.14399  -1.14382
 Alpha  occ. eigenvalues --   -1.14325  -1.14288  -1.14243  -1.13023  -1.12962
 Alpha  occ. eigenvalues --   -1.12936  -1.12919  -1.12868  -1.12851  -1.12830
 Alpha  occ. eigenvalues --   -1.12808  -1.12789  -1.12185  -1.12169  -1.12138
 Alpha  occ. eigenvalues --   -0.18276  -0.13607  -0.11661  -0.10798
 Alpha virt. eigenvalues --   -0.07130  -0.05122  -0.04174  -0.03269  -0.02764
 Alpha virt. eigenvalues --   -0.02589  -0.02361  -0.01143  -0.00736  -0.00256
 Alpha virt. eigenvalues --    0.00058   0.00134   0.00368   0.00706   0.00732

  Beta  occ. eigenvalues --  -38.45121 -38.44923 -38.44779 -38.43387 -38.43328
  Beta  occ. eigenvalues --  -38.43179 -38.42626  -2.20880  -2.20723  -2.20542
  Beta  occ. eigenvalues --   -2.19282  -2.19135  -2.19091  -2.18494  -1.14562
  Beta  occ. eigenvalues --   -1.14545  -1.14516  -1.14393  -1.14384  -1.14362
  Beta  occ. eigenvalues --   -1.14260  -1.14222  -1.14171  -1.12999  -1.12955
  Beta  occ. eigenvalues --   -1.12897  -1.12870  -1.12799  -1.12795  -1.12774
  Beta  occ. eigenvalues --   -1.12756  -1.12706  -1.12183  -1.12160  -1.12116
  Beta  occ. eigenvalues --   -0.17625  -0.13356  -0.11352
  Beta virt. eigenvalues --   -0.07205  -0.06762  -0.05105  -0.03843  -0.02925
  Beta virt. eigenvalues --   -0.02444  -0.01953  -0.01530  -0.01106  -0.00587
  Beta virt. eigenvalues --   -0.00111   0.00080   0.00179   0.00525   0.00770

 Mulliken charges and spin densities:
               1          2
     1  Na  -0.104080   0.021400
     2  Na   0.220506   0.144236
     3  Na   0.192711   0.224921
     4  Na   0.178609   0.125005
     5  Na  -0.427673  -0.109167
     6  Na  -0.344609   0.425027
     7  Na   0.284536   0.168577
 Sum of Mulliken charges =  -0.00000   1.00000

 Dipole moment (field-independent basis, Debye):
    X=              0.1809    Y=             -0.4718    Z=              0.5171  Tot=              0.7230
 Quadrupole moment (field-independent basis, Debye-Ang):
   XX=            -47.6339   YY=            -73.3882   ZZ=            -72.3974
   XY=              0.2968   XZ=             -0.1363   YZ=              0.7967

 Normal termination of Gaussian 16 at Thu Dec  7 02:53:53 2023.
