 Gaussian 16, Revision B.01,
 Gaussian 16:  ES64L-G16RevB.01 20-Dec-2017

 -------------------------
 #P B3LYP/6-311+g(d) force
 -------------------------

 -----
 DPGEN
 -----
 Symbolic Z-matrix:
 Charge =  0 Multiplicity = 2

                         Standard orientation:
 ---------------------------------------------------------------------
 Center     Atomic      Atomic             Coordinates (Angstroms)
 Number     Number       Type             X           Y           Z
 ---------------------------------------------------------------------
      1         11           0       -0.158859   -0.154249    1.837222
      2         11           0       -1.407816    1.439736   -1.112178
      3         11           0       -3.942790   -0.370325    0.516590
      4         11           0        1.548404    3.146146    0.451752
      5         11           0        2.535407   -2.545555    0.508646
      6         11           0        2.113483    0.386319   -0.978405
      7         11           0       -0.687829   -1.902072   -1.223627
 ---------------------------------------------------------------------

 SCF Done:  E(UB3LYP) =  -1136.13354287     A.U. after   20 cycles

 The electronic state is 2-A.
 Alpha  occ. eigenvalues --  -38.44571 -38.44052 -38.43809 -38.43668 -38.43584
 Alpha  occ. eigenvalues --  -38.43333 -38.43259  -2.20340  -2.19903  -2.19667
 Alpha  occ. eigenvalues --   -2.19478  -2.19459  -2.19256  -2.19082  -1.14017
 Alpha  occ. eigenvalues --   -1.14002  -1.13964  -1.13603  -1.13537  -1.13511
 Alpha  occ. eigenvalues --   -1.13380  -1.13336  -1.13255  -1.13170  -1.13165
 Alpha  occ. eigenvalues --   -1.13133  -1.13132  -1.13109  -1.13046  -1.12950
 Alpha  occ. eigenvalues --   -1.12943  -1.12892  -1.12742  -1.12731  -1.12704
 Alpha  occ. eigenvalues --   -0.18197  -0.13015  -0.12169  -0.10549
 Alpha virt. eigenvalues --   -0.06267  -0.05010  -0.04643  -0.03265  -0.02746
 Alpha virt. eigenvalues --   -0.02349  -0.02042  -0.01331  -0.00644  -0.00255
 Alpha virt. eigenvalues --    0.00180   0.00278   0.00609   0.00682   0.00770

  Beta  occ. eigenvalues --  -38.44566 -38.43979 -38.43767 -38.43665 -38.43554
  Beta  occ. eigenvalues --  -38.43315 -38.43258  -2.20332  -2.19769  -2.19593
  Beta  occ. eigenvalues --   -2.19474  -2.19407  -2.19226  -2.19082  -1.14013
  Beta  occ. eigenvalues --   -1.13986  -1.13960  -1.13510  -1.13441  -1.13412
  Beta  occ. eigenvalues --   -1.13328  -1.13260  -1.13208  -1.13168  -1.13131
  Beta  occ. eigenvalues --   -1.13116  -1.13107  -1.13067  -1.13015  -1.12932
  Beta  occ. eigenvalues --   -1.12906  -1.12867  -1.12740  -1.12719  -1.12703
  Beta  occ. eigenvalues --   -0.17434  -0.12855  -0.12025
  Beta virt. eigenvalues --   -0.06693  -0.06066  -0.04921  -0.04535  -0.02707
  Beta virt. eigenvalues --   -0.02213  -0.01894  -0.01431  -0.01256  -0.00370
  Beta virt. eigenvalues --   -0.00196   0.00221   0.00342   0.00694   0.00746

 Mulliken charges and spin densities:
               1          2
     1  Na  -0.477657   0.816194
     2  Na  -0.053766   0.162743
     3  Na   0.157650  -0.055748
     4  Na   0.217777  -0.207049
     5  Na   0.238197  -0.149170
     6  Na   0.070487   0.346361
     7  Na  -0.152688   0.086669
 Sum of Mulliken charges =  -0.00000   1.00000

 Dipole moment (field-independent basis, Debye):
    X=             -0.6316    Y=             -0.3049    Z=              0.1827  Tot=              0.7248
 Quadrupole moment (field-independent basis, Debye-Ang):
   XX=            -54.4742   YY=            -63.9278   ZZ=            -73.1032
   XY=             -0.2684   XZ=              0.0210   YZ=              0.2916

 Normal termination of Gaussian 16 at Tue Dec  5 23:33:17 2023.
