 Gaussian 16, Revision B.01,
 Gaussian 16:  ES64L-G16RevB.01 20-Dec-2017

 -------------------------
 #P B3LYP/6-311+g(d) force
 -------------------------

 -----
 DPGEN
 -----
 Symbolic Z-matrix:
 Charge =  0 Multiplicity = 2

                         Standard orientation:
 ---------------------------------------------------------------------
 Center     Atomic      Atomic             Coordinates (Angstroms)
 Number     Number       Type             X           Y           Z
 ---------------------------------------------------------------------
      1         11           0       -2.662065   -1.217563    0.117369
      2         11           0        3.256291   -0.445816    0.089881
      3         11           0        0.419238   -2.798917   -0.657311
      4         11           0       -2.352435    1.837378   -0.046332
      5         11           0        1.386857    2.710603   -0.062593
      6         11           0        0.051723   -0.406745    2.172914
      7         11           0       -0.099609    0.321061   -1.613927
 ---------------------------------------------------------------------

 SCF Done:  E(UB3LYP) =  -1136.13567704     A.U. after   19 cycles

 The electronic state is 2-A.
 Alpha  occ. eigenvalues --  -38.44392 -38.43930 -38.43646 -38.43620 -38.43542
 Alpha  occ. eigenvalues --  -38.43250 -38.43167  -2.20175  -2.19786  -2.19535
 Alpha  occ. eigenvalues --   -2.19517  -2.19364  -2.19167  -2.19099  -1.13853
 Alpha  occ. eigenvalues --   -1.13828  -1.13818  -1.13450  -1.13416  -1.13406
 Alpha  occ. eigenvalues --   -1.13323  -1.13222  -1.13182  -1.13170  -1.13159
 Alpha  occ. eigenvalues --   -1.13094  -1.13079  -1.13026  -1.12986  -1.12856
 Alpha  occ. eigenvalues --   -1.12830  -1.12784  -1.12750  -1.12741  -1.12724
 Alpha  occ. eigenvalues --   -0.18621  -0.13049  -0.12335  -0.10932
 Alpha virt. eigenvalues --   -0.05809  -0.05044  -0.04559  -0.03298  -0.02977
 Alpha virt. eigenvalues --   -0.02671  -0.01565  -0.01030  -0.00353  -0.00286
 Alpha virt. eigenvalues --   -0.00022   0.00365   0.00777   0.00886   0.00914

  Beta  occ. eigenvalues --  -38.44392 -38.43834 -38.43642 -38.43613 -38.43540
  Beta  occ. eigenvalues --  -38.43231 -38.43106  -2.20177  -2.19609  -2.19530
  Beta  occ. eigenvalues --   -2.19509  -2.19364  -2.19068  -2.19056  -1.13838
  Beta  occ. eigenvalues --   -1.13830  -1.13823  -1.13339  -1.13318  -1.13293
  Beta  occ. eigenvalues --   -1.13277  -1.13207  -1.13168  -1.13156  -1.13128
  Beta  occ. eigenvalues --   -1.13092  -1.13070  -1.13016  -1.12987  -1.12802
  Beta  occ. eigenvalues --   -1.12758  -1.12716  -1.12712  -1.12702  -1.12682
  Beta  occ. eigenvalues --   -0.17888  -0.12846  -0.12090
  Beta virt. eigenvalues --   -0.06988  -0.05760  -0.05028  -0.04491  -0.02512
  Beta virt. eigenvalues --   -0.02223  -0.01639  -0.01461  -0.00961  -0.00388
  Beta virt. eigenvalues --   -0.00319   0.00125   0.00392   0.00821   0.00899

 Mulliken charges and spin densities:
               1          2
     1  Na   0.378293   0.120229
     2  Na   0.004092  -0.046735
     3  Na   0.124227   0.028908
     4  Na   0.153563  -0.037861
     5  Na   0.033744  -0.073424
     6  Na  -0.588479   0.698167
     7  Na  -0.105441   0.310715
 Sum of Mulliken charges =  -0.00000   1.00000

 Dipole moment (field-independent basis, Debye):
    X=              0.3561    Y=              0.0153    Z=              0.2810  Tot=              0.4539
 Quadrupole moment (field-independent basis, Debye-Ang):
   XX=            -56.5626   YY=            -63.9731   ZZ=            -73.4773
   XY=             -0.3213   XZ=             -0.1130   YZ=              1.4656

 Normal termination of Gaussian 16 at Thu Dec  7 22:57:09 2023.
