 Gaussian 16, Revision B.01,
 Gaussian 16:  ES64L-G16RevB.01 20-Dec-2017

 -------------------------
 #P B3LYP/6-311+g(d) force
 -------------------------

 -----
 DPGEN
 -----
 Symbolic Z-matrix:
 Charge =  0 Multiplicity = 2

                         Standard orientation:
 ---------------------------------------------------------------------
 Center     Atomic      Atomic             Coordinates (Angstroms)
 Number     Number       Type             X           Y           Z
 ---------------------------------------------------------------------
      1         11           0       -3.893379    1.726461   -0.333747
      2         11           0       -0.774885   -1.948734   -1.554500
      3         11           0       -0.355913    1.469276   -0.383933
      4         11           0        2.853469   -1.083425   -0.806584
      5         11           0       -2.352789   -1.119494    1.025386
      6         11           0        3.674263    1.904563    0.116698
      7         11           0        0.849234   -0.948646    1.936680
 ---------------------------------------------------------------------

 SCF Done:  E(UB3LYP) =  -1136.12096556     A.U. after   23 cycles

 The electronic state is 2-A.
 Alpha  occ. eigenvalues --  -38.44755 -38.44618 -38.44363 -38.44122 -38.43812
 Alpha  occ. eigenvalues --  -38.43633 -38.43448  -2.20576  -2.20462  -2.20149
 Alpha  occ. eigenvalues --   -2.20031  -2.19597  -2.19519  -2.19314  -1.14297
 Alpha  occ. eigenvalues --   -1.14264  -1.14167  -1.14151  -1.14126  -1.14096
 Alpha  occ. eigenvalues --   -1.13818  -1.13808  -1.13781  -1.13738  -1.13717
 Alpha  occ. eigenvalues --   -1.13634  -1.13271  -1.13259  -1.13231  -1.13204
 Alpha  occ. eigenvalues --   -1.13161  -1.13113  -1.12980  -1.12975  -1.12913
 Alpha  occ. eigenvalues --   -0.18179  -0.13952  -0.11393  -0.10799
 Alpha virt. eigenvalues --   -0.06735  -0.06183  -0.04199  -0.03332  -0.02642
 Alpha virt. eigenvalues --   -0.02377  -0.02201  -0.01741  -0.00797  -0.00387
 Alpha virt. eigenvalues --   -0.00041   0.00154   0.00274   0.00445   0.00632

  Beta  occ. eigenvalues --  -38.44742 -38.44598 -38.44365 -38.44103 -38.43816
  Beta  occ. eigenvalues --  -38.43556 -38.43392  -2.20556  -2.20427  -2.20153
  Beta  occ. eigenvalues --   -2.19999  -2.19605  -2.19379  -2.19209  -1.14261
  Beta  occ. eigenvalues --   -1.14246  -1.14157  -1.14119  -1.14104  -1.14065
  Beta  occ. eigenvalues --   -1.13818  -1.13809  -1.13783  -1.13714  -1.13676
  Beta  occ. eigenvalues --   -1.13607  -1.13276  -1.13263  -1.13236  -1.13104
  Beta  occ. eigenvalues --   -1.13055  -1.13019  -1.12907  -1.12898  -1.12843
  Beta  occ. eigenvalues --   -0.17505  -0.13832  -0.11189
  Beta virt. eigenvalues --   -0.06848  -0.06585  -0.06117  -0.03677  -0.02940
  Beta virt. eigenvalues --   -0.02572  -0.01891  -0.01785  -0.01258  -0.00651
  Beta virt. eigenvalues --   -0.00099  -0.00000   0.00191   0.00417   0.00530

 Mulliken charges and spin densities:
               1          2
     1  Na   0.324038  -0.151048
     2  Na  -0.152840   0.254882
     3  Na  -1.244004   0.177444
     4  Na   0.356994   0.180544
     5  Na   0.358200   0.281526
     6  Na   0.460045   0.009316
     7  Na  -0.102432   0.247336
 Sum of Mulliken charges =  -0.00000   1.00000

 Dipole moment (field-independent basis, Debye):
    X=              0.3898    Y=             -0.1359    Z=              0.0739  Tot=              0.4193
 Quadrupole moment (field-independent basis, Debye-Ang):
   XX=            -52.4758   YY=            -70.3356   ZZ=            -73.2318
   XY=              2.3298   XZ=              0.0881   YZ=              0.2448

 Normal termination of Gaussian 16 at Fri Dec  8 04:53:23 2023.
