 Gaussian 16, Revision B.01,
 Gaussian 16:  ES64L-G16RevB.01 20-Dec-2017

 -------------------------
 #P B3LYP/6-311+g(d) force
 -------------------------

 -----
 DPGEN
 -----
 Symbolic Z-matrix:
 Charge =  0 Multiplicity = 2

                         Standard orientation:
 ---------------------------------------------------------------------
 Center     Atomic      Atomic             Coordinates (Angstroms)
 Number     Number       Type             X           Y           Z
 ---------------------------------------------------------------------
      1         11           0       -4.132926   -1.504729   -0.268775
      2         11           0       -1.381887   -2.590081    0.997811
      3         11           0        1.968466   -3.132802   -0.895239
      4         11           0        3.923351   -0.695243   -0.005403
      5         11           0        2.535116    2.299929    0.910831
      6         11           0       -0.230192    3.404143   -0.913692
      7         11           0       -2.681929    2.218782    0.174468
 ---------------------------------------------------------------------

 SCF Done:  E(UB3LYP) =  -1136.11066585     A.U. after   20 cycles

 The electronic state is 2-A.
 Alpha  occ. eigenvalues --  -38.45131 -38.44778 -38.44472 -38.44272 -38.44125
 Alpha  occ. eigenvalues --  -38.44000 -38.43758  -2.20897  -2.20601  -2.20266
 Alpha  occ. eigenvalues --   -2.20072  -2.19938  -2.19845  -2.19571  -1.14581
 Alpha  occ. eigenvalues --   -1.14567  -1.14535  -1.14327  -1.14249  -1.14217
 Alpha  occ. eigenvalues --   -1.13947  -1.13938  -1.13929  -1.13727  -1.13721
 Alpha  occ. eigenvalues --   -1.13707  -1.13596  -1.13583  -1.13565  -1.13523
 Alpha  occ. eigenvalues --   -1.13487  -1.13469  -1.13217  -1.13212  -1.13203
 Alpha  occ. eigenvalues --   -0.15815  -0.13781  -0.13588  -0.10602
 Alpha virt. eigenvalues --   -0.07117  -0.05154  -0.04086  -0.03726  -0.03196
 Alpha virt. eigenvalues --   -0.02545  -0.02126  -0.01769  -0.01229  -0.00832
 Alpha virt. eigenvalues --   -0.00279   0.00059   0.00103   0.00509   0.00672

  Beta  occ. eigenvalues --  -38.45126 -38.44736 -38.44468 -38.44239 -38.44052
  Beta  occ. eigenvalues --  -38.43988 -38.43695  -2.20891  -2.20527  -2.20267
  Beta  occ. eigenvalues --   -2.20012  -2.19829  -2.19805  -2.19452  -1.14580
  Beta  occ. eigenvalues --   -1.14567  -1.14505  -1.14268  -1.14202  -1.14161
  Beta  occ. eigenvalues --   -1.13952  -1.13945  -1.13880  -1.13687  -1.13675
  Beta  occ. eigenvalues --   -1.13669  -1.13512  -1.13503  -1.13493  -1.13486
  Beta  occ. eigenvalues --   -1.13472  -1.13429  -1.13139  -1.13134  -1.13123
  Beta  occ. eigenvalues --   -0.15325  -0.13049  -0.12932
  Beta virt. eigenvalues --   -0.07398  -0.07167  -0.04887  -0.03632  -0.03519
  Beta virt. eigenvalues --   -0.02722  -0.02226  -0.01964  -0.01569  -0.01107
  Beta virt. eigenvalues --   -0.00489  -0.00108   0.00198   0.00332   0.00530

 Mulliken charges and spin densities:
               1          2
     1  Na   0.163394   0.142114
     2  Na  -0.189792   0.023402
     3  Na   0.049912   0.297724
     4  Na  -0.038723   0.007158
     5  Na   0.044049   0.361497
     6  Na   0.094154   0.020229
     7  Na  -0.122995   0.147875
 Sum of Mulliken charges =  -0.00000   1.00000

 Dipole moment (field-independent basis, Debye):
    X=             -0.8782    Y=             -0.0455    Z=              0.0000  Tot=              0.8794
 Quadrupole moment (field-independent basis, Debye-Ang):
   XX=            -62.5799   YY=            -71.0059   ZZ=            -68.7347
   XY=              0.1402   XZ=              0.5970   YZ=             -0.4878

 Normal termination of Gaussian 16 at Mon Dec  4 00:20:09 2023.
