 Gaussian 16, Revision B.01,
 Gaussian 16:  ES64L-G16RevB.01 20-Dec-2017

 -------------------------
 #P B3LYP/6-311+g(d) force
 -------------------------

 -----
 DPGEN
 -----
 Symbolic Z-matrix:
 Charge =  0 Multiplicity = 2

                         Standard orientation:
 ---------------------------------------------------------------------
 Center     Atomic      Atomic             Coordinates (Angstroms)
 Number     Number       Type             X           Y           Z
 ---------------------------------------------------------------------
      1         11           0        0.567689    2.969680   -0.252367
      2         11           0       -2.571247   -2.060700   -0.431123
      3         11           0        1.930885   -2.510125   -0.087001
      4         11           0       -0.185306    0.186338   -1.692335
      5         11           0        2.895722    0.421031   -0.020390
      6         11           0        0.009485   -0.260312    2.078437
      7         11           0       -2.647227    1.254087    0.404778
 ---------------------------------------------------------------------

 SCF Done:  E(UB3LYP) =  -1136.13641569     A.U. after   19 cycles

 The electronic state is 2-A.
 Alpha  occ. eigenvalues --  -38.43963 -38.43946 -38.43834 -38.43774 -38.43691
 Alpha  occ. eigenvalues --  -38.43354 -38.43002  -2.19821  -2.19750  -2.19704
 Alpha  occ. eigenvalues --   -2.19664  -2.19526  -2.19305  -2.18856  -1.13512
 Alpha  occ. eigenvalues --   -1.13499  -1.13458  -1.13421  -1.13399  -1.13396
 Alpha  occ. eigenvalues --   -1.13379  -1.13368  -1.13340  -1.13328  -1.13317
 Alpha  occ. eigenvalues --   -1.13309  -1.13180  -1.13166  -1.13151  -1.12992
 Alpha  occ. eigenvalues --   -1.12946  -1.12931  -1.12535  -1.12510  -1.12494
 Alpha  occ. eigenvalues --   -0.18523  -0.13280  -0.12160  -0.10858
 Alpha virt. eigenvalues --   -0.05520  -0.05407  -0.04600  -0.03426  -0.02828
 Alpha virt. eigenvalues --   -0.02616  -0.01476  -0.01203  -0.00457  -0.00275
 Alpha virt. eigenvalues --   -0.00019   0.00365   0.00787   0.00839   0.00878

  Beta  occ. eigenvalues --  -38.43952 -38.43937 -38.43769 -38.43740 -38.43691
  Beta  occ. eigenvalues --  -38.43290 -38.42999  -2.19804  -2.19735  -2.19659
  Beta  occ. eigenvalues --   -2.19532  -2.19527  -2.19189  -2.18853  -1.13501
  Beta  occ. eigenvalues --   -1.13456  -1.13452  -1.13397  -1.13397  -1.13386
  Beta  occ. eigenvalues --   -1.13371  -1.13325  -1.13296  -1.13252  -1.13212
  Beta  occ. eigenvalues --   -1.13198  -1.13167  -1.13163  -1.13150  -1.12914
  Beta  occ. eigenvalues --   -1.12864  -1.12845  -1.12524  -1.12507  -1.12482
  Beta  occ. eigenvalues --   -0.17793  -0.13061  -0.11935
  Beta virt. eigenvalues --   -0.06953  -0.05490  -0.05298  -0.04583  -0.02630
  Beta virt. eigenvalues --   -0.02102  -0.01609  -0.01376  -0.01102  -0.00509
  Beta virt. eigenvalues --   -0.00285   0.00118   0.00390   0.00838   0.00873

 Mulliken charges and spin densities:
               1          2
     1  Na   0.163125  -0.010508
     2  Na  -0.026659  -0.075298
     3  Na   0.009384  -0.105194
     4  Na  -0.181059   0.497484
     5  Na   0.175026   0.020719
     6  Na  -0.344424   0.590890
     7  Na   0.204607   0.081906
 Sum of Mulliken charges =  -0.00000   1.00000

 Dipole moment (field-independent basis, Debye):
    X=             -0.2262    Y=             -0.2515    Z=              0.1462  Tot=              0.3685
 Quadrupole moment (field-independent basis, Debye-Ang):
   XX=            -58.5779   YY=            -61.9574   ZZ=            -73.8544
   XY=              0.2517   XZ=             -0.3896   YZ=              1.4132

 Normal termination of Gaussian 16 at Tue Dec  5 18:38:48 2023.
