 Gaussian 16, Revision B.01,
 Gaussian 16:  ES64L-G16RevB.01 20-Dec-2017

 -------------------------
 #P B3LYP/6-311+g(d) force
 -------------------------

 -----
 DPGEN
 -----
 Symbolic Z-matrix:
 Charge =  0 Multiplicity = 2

                         Standard orientation:
 ---------------------------------------------------------------------
 Center     Atomic      Atomic             Coordinates (Angstroms)
 Number     Number       Type             X           Y           Z
 ---------------------------------------------------------------------
      1         11           0        3.558756    0.138103   -0.317702
      2         11           0       -2.588312    1.841878   -0.493910
      3         11           0        0.251357   -0.141906   -1.619305
      4         11           0        1.464708   -2.290831    0.488316
      5         11           0        0.626542    2.799361    0.265790
      6         11           0       -2.500350   -2.373684   -0.438614
      7         11           0       -0.812700    0.027080    2.115425
 ---------------------------------------------------------------------

 SCF Done:  E(UB3LYP) =  -1136.13429829     A.U. after   20 cycles

 The electronic state is 2-A.
 Alpha  occ. eigenvalues --  -38.44203 -38.44076 -38.43947 -38.43702 -38.43608
 Alpha  occ. eigenvalues --  -38.43518 -38.43500  -2.20013  -2.19881  -2.19712
 Alpha  occ. eigenvalues --   -2.19558  -2.19468  -2.19435  -2.19325  -1.13691
 Alpha  occ. eigenvalues --   -1.13673  -1.13647  -1.13556  -1.13545  -1.13524
 Alpha  occ. eigenvalues --   -1.13388  -1.13367  -1.13353  -1.13280  -1.13231
 Alpha  occ. eigenvalues --   -1.13163  -1.13139  -1.13124  -1.13100  -1.13082
 Alpha  occ. eigenvalues --   -1.13077  -1.13042  -1.12997  -1.12994  -1.12949
 Alpha  occ. eigenvalues --   -0.18068  -0.12976  -0.12137  -0.10652
 Alpha virt. eigenvalues --   -0.05740  -0.05594  -0.04604  -0.03237  -0.02904
 Alpha virt. eigenvalues --   -0.02491  -0.01768  -0.01357  -0.00597  -0.00239
 Alpha virt. eigenvalues --   -0.00072   0.00314   0.00687   0.00787   0.00824

  Beta  occ. eigenvalues --  -38.44194 -38.44076 -38.43942 -38.43690 -38.43515
  Beta  occ. eigenvalues --  -38.43494 -38.43465  -2.19999  -2.19883  -2.19703
  Beta  occ. eigenvalues --   -2.19539  -2.19341  -2.19318  -2.19296  -1.13669
  Beta  occ. eigenvalues --   -1.13662  -1.13634  -1.13556  -1.13538  -1.13526
  Beta  occ. eigenvalues --   -1.13373  -1.13358  -1.13348  -1.13263  -1.13194
  Beta  occ. eigenvalues --   -1.13153  -1.13067  -1.13028  -1.13020  -1.12989
  Beta  occ. eigenvalues --   -1.12980  -1.12973  -1.12964  -1.12952  -1.12939
  Beta  occ. eigenvalues --   -0.17367  -0.12785  -0.11934
  Beta virt. eigenvalues --   -0.06779  -0.05646  -0.05553  -0.04494  -0.02575
  Beta virt. eigenvalues --   -0.02204  -0.01672  -0.01515  -0.01295  -0.00558
  Beta virt. eigenvalues --   -0.00252   0.00088   0.00356   0.00774   0.00809

 Mulliken charges and spin densities:
               1          2
     1  Na   0.130767  -0.027533
     2  Na   0.067699  -0.026580
     3  Na  -0.013427   0.503132
     4  Na   0.072451   0.022944
     5  Na  -0.020497   0.011050
     6  Na  -0.054973  -0.052072
     7  Na  -0.182020   0.569059
 Sum of Mulliken charges =  -0.00000   1.00000

 Dipole moment (field-independent basis, Debye):
    X=             -0.0534    Y=              0.1333    Z=             -0.0244  Tot=              0.1457
 Quadrupole moment (field-independent basis, Debye-Ang):
   XX=            -54.2869   YY=            -64.4124   ZZ=            -74.3514
   XY=              0.6897   XZ=              1.5484   YZ=             -0.3807

 Normal termination of Gaussian 16 at Tue Dec  5 10:10:08 2023.
