 Gaussian 16, Revision B.01,
 Gaussian 16:  ES64L-G16RevB.01 20-Dec-2017

 -------------------------
 #P B3LYP/6-311+g(d) force
 -------------------------

 -----
 DPGEN
 -----
 Symbolic Z-matrix:
 Charge =  0 Multiplicity = 2

                         Standard orientation:
 ---------------------------------------------------------------------
 Center     Atomic      Atomic             Coordinates (Angstroms)
 Number     Number       Type             X           Y           Z
 ---------------------------------------------------------------------
      1         11           0       -2.637898    0.399195   -1.853423
      2         11           0        4.671724   -0.847221   -0.636315
      3         11           0        2.315051    0.479530    1.592603
      4         11           0       -2.854262   -2.218730    0.608178
      5         11           0       -1.745259    1.109834    2.117008
      6         11           0        0.300461   -1.259951   -0.753264
      7         11           0       -0.049818    2.337342   -1.074786
 ---------------------------------------------------------------------

 SCF Done:  E(UB3LYP) =  -1136.12007230     A.U. after   25 cycles

 The electronic state is 2-A.
 Alpha  occ. eigenvalues --  -38.44948 -38.44832 -38.44718 -38.44565 -38.44519
 Alpha  occ. eigenvalues --  -38.42759 -38.42682  -2.20693  -2.20650  -2.20517
 Alpha  occ. eigenvalues --   -2.20417  -2.20315  -2.18572  -2.18520  -1.14372
 Alpha  occ. eigenvalues --   -1.14365  -1.14364  -1.14328  -1.14317  -1.14246
 Alpha  occ. eigenvalues --   -1.14183  -1.14152  -1.14125  -1.14099  -1.14067
 Alpha  occ. eigenvalues --   -1.14019  -1.14018  -1.13980  -1.13911  -1.12244
 Alpha  occ. eigenvalues --   -1.12233  -1.12213  -1.12206  -1.12180  -1.12153
 Alpha  occ. eigenvalues --   -0.17623  -0.13447  -0.11539  -0.10999
 Alpha virt. eigenvalues --   -0.06958  -0.05231  -0.04423  -0.03173  -0.02967
 Alpha virt. eigenvalues --   -0.02708  -0.02478  -0.01559  -0.00850  -0.00307
 Alpha virt. eigenvalues --   -0.00013   0.00029   0.00177   0.00565   0.00754

  Beta  occ. eigenvalues --  -38.44948 -38.44815 -38.44631 -38.44516 -38.44502
  Beta  occ. eigenvalues --  -38.42751 -38.42670  -2.20692  -2.20622  -2.20356
  Beta  occ. eigenvalues --   -2.20328  -2.20285  -2.18557  -2.18502  -1.14365
  Beta  occ. eigenvalues --   -1.14364  -1.14336  -1.14317  -1.14307  -1.14230
  Beta  occ. eigenvalues --   -1.14067  -1.14045  -1.14026  -1.14013  -1.14010
  Beta  occ. eigenvalues --   -1.13999  -1.13962  -1.13952  -1.13879  -1.12235
  Beta  occ. eigenvalues --   -1.12217  -1.12198  -1.12190  -1.12170  -1.12123
  Beta  occ. eigenvalues --   -0.16906  -0.13290  -0.10810
  Beta virt. eigenvalues --   -0.07661  -0.06711  -0.04847  -0.04203  -0.02841
  Beta virt. eigenvalues --   -0.02523  -0.02437  -0.01808  -0.01162  -0.00671
  Beta virt. eigenvalues --   -0.00236   0.00056   0.00111   0.00288   0.00636

 Mulliken charges and spin densities:
               1          2
     1  Na   0.273999   0.110505
     2  Na   0.132866   0.015845
     3  Na   0.111515  -0.036321
     4  Na   0.269459  -0.098901
     5  Na  -0.219335   0.574800
     6  Na  -0.599212   0.421216
     7  Na   0.030708   0.012856
 Sum of Mulliken charges =  -0.00000   1.00000

 Dipole moment (field-independent basis, Debye):
    X=              0.7607    Y=              0.3830    Z=             -0.2303  Tot=              0.8822
 Quadrupole moment (field-independent basis, Debye-Ang):
   XX=            -53.0875   YY=            -76.3431   ZZ=            -66.0437
   XY=             -2.7560   XZ=             -1.6472   YZ=              1.0445

 Normal termination of Gaussian 16 at Fri Dec  8 03:01:16 2023.
