 Gaussian 16, Revision B.01,
 Gaussian 16:  ES64L-G16RevB.01 20-Dec-2017

 -------------------------
 #P B3LYP/6-311+g(d) force
 -------------------------

 -----
 DPGEN
 -----
 Symbolic Z-matrix:
 Charge =  0 Multiplicity = 2

                         Standard orientation:
 ---------------------------------------------------------------------
 Center     Atomic      Atomic             Coordinates (Angstroms)
 Number     Number       Type             X           Y           Z
 ---------------------------------------------------------------------
      1         11           0        2.669959   -1.626462   -0.484025
      2         11           0       -3.334093   -0.336373   -0.421142
      3         11           0       -0.672644   -2.624115    0.327985
      4         11           0        2.367824    1.747593    0.199968
      5         11           0       -0.947057    2.849480   -0.042049
      6         11           0       -0.144913   -0.083740    2.089200
      7         11           0        0.060924    0.073617   -1.669937
 ---------------------------------------------------------------------

 SCF Done:  E(UB3LYP) =  -1136.13824063     A.U. after   20 cycles

 The electronic state is 2-A.
 Alpha  occ. eigenvalues --  -38.44215 -38.43774 -38.43634 -38.43528 -38.43456
 Alpha  occ. eigenvalues --  -38.43330 -38.43260  -2.20002  -2.19675  -2.19491
 Alpha  occ. eigenvalues --   -2.19373  -2.19296  -2.19284  -2.19146  -1.13678
 Alpha  occ. eigenvalues --   -1.13648  -1.13646  -1.13362  -1.13309  -1.13286
 Alpha  occ. eigenvalues --   -1.13180  -1.13162  -1.13131  -1.13070  -1.13021
 Alpha  occ. eigenvalues --   -1.13012  -1.13002  -1.12971  -1.12949  -1.12921
 Alpha  occ. eigenvalues --   -1.12909  -1.12894  -1.12843  -1.12804  -1.12749
 Alpha  occ. eigenvalues --   -0.18604  -0.12834  -0.12462  -0.10961
 Alpha virt. eigenvalues --   -0.05671  -0.04984  -0.04635  -0.03211  -0.02986
 Alpha virt. eigenvalues --   -0.02689  -0.01618  -0.01090  -0.00270  -0.00266
 Alpha virt. eigenvalues --   -0.00003   0.00342   0.00793   0.00867   0.00918

  Beta  occ. eigenvalues --  -38.44207 -38.43674 -38.43629 -38.43519 -38.43454
  Beta  occ. eigenvalues --  -38.43271 -38.43248  -2.19990  -2.19493  -2.19484
  Beta  occ. eigenvalues --   -2.19359  -2.19284  -2.19187  -2.19129  -1.13658
  Beta  occ. eigenvalues --   -1.13640  -1.13639  -1.13241  -1.13191  -1.13165
  Beta  occ. eigenvalues --   -1.13161  -1.13142  -1.13119  -1.13045  -1.13009
  Beta  occ. eigenvalues --   -1.12998  -1.12979  -1.12940  -1.12907  -1.12906
  Beta  occ. eigenvalues --   -1.12858  -1.12820  -1.12815  -1.12765  -1.12744
  Beta  occ. eigenvalues --   -0.17876  -0.12584  -0.12211
  Beta virt. eigenvalues --   -0.07056  -0.05614  -0.04970  -0.04568  -0.02451
  Beta virt. eigenvalues --   -0.02227  -0.01654  -0.01505  -0.01030  -0.00313
  Beta virt. eigenvalues --   -0.00258   0.00110   0.00371   0.00854   0.00866

 Mulliken charges and spin densities:
               1          2
     1  Na   0.146447  -0.003861
     2  Na  -0.020122  -0.062285
     3  Na   0.275126   0.043917
     4  Na   0.156750   0.008675
     5  Na  -0.008401  -0.097166
     6  Na  -0.292466   0.581818
     7  Na  -0.257335   0.528902
 Sum of Mulliken charges =  -0.00000   1.00000

 Dipole moment (field-independent basis, Debye):
    X=             -0.2076    Y=              0.1192    Z=              0.0696  Tot=              0.2493
 Quadrupole moment (field-independent basis, Debye-Ang):
   XX=            -56.4201   YY=            -63.8423   ZZ=            -73.2719
   XY=             -0.4856   XZ=              0.6803   YZ=              0.7397

 Normal termination of Gaussian 16 at Fri Dec  8 00:36:36 2023.
