 Gaussian 16, Revision B.01,
 Gaussian 16:  ES64L-G16RevB.01 20-Dec-2017

 -------------------------
 #P B3LYP/6-311+g(d) force
 -------------------------

 -----
 DPGEN
 -----
 Symbolic Z-matrix:
 Charge =  0 Multiplicity = 2

                         Standard orientation:
 ---------------------------------------------------------------------
 Center     Atomic      Atomic             Coordinates (Angstroms)
 Number     Number       Type             X           Y           Z
 ---------------------------------------------------------------------
      1         11           0        3.587241   -0.455535   -0.419474
      2         11           0       -1.705445    1.599155    1.611610
      3         11           0       -2.723695    1.338021   -0.880191
      4         11           0        0.766499   -1.285939   -1.373538
      5         11           0        1.427984    2.639388   -0.650251
      6         11           0        1.323339   -1.260232    2.104894
      7         11           0       -2.675924   -2.574859   -0.393050
 ---------------------------------------------------------------------

 SCF Done:  E(UB3LYP) =  -1136.11351692     A.U. after   21 cycles

 The electronic state is 2-A.
 Alpha  occ. eigenvalues --  -38.44801 -38.44621 -38.44471 -38.44330 -38.44317
 Alpha  occ. eigenvalues --  -38.43910 -38.43797  -2.20656  -2.20465  -2.20220
 Alpha  occ. eigenvalues --   -2.20193  -2.20140  -2.19763  -2.19541  -1.14595
 Alpha  occ. eigenvalues --   -1.14287  -1.14228  -1.14177  -1.14118  -1.14091
 Alpha  occ. eigenvalues --   -1.13908  -1.13886  -1.13837  -1.13817  -1.13809
 Alpha  occ. eigenvalues --   -1.13789  -1.13772  -1.13771  -1.13760  -1.13447
 Alpha  occ. eigenvalues --   -1.13430  -1.13381  -1.13215  -1.13198  -1.13182
 Alpha  occ. eigenvalues --   -0.17428  -0.13700  -0.11580  -0.10885
 Alpha virt. eigenvalues --   -0.06361  -0.05630  -0.04849  -0.03662  -0.02945
 Alpha virt. eigenvalues --   -0.02576  -0.01832  -0.01419  -0.00552  -0.00517
 Alpha virt. eigenvalues --   -0.00065   0.00118   0.00280   0.00468   0.00700

  Beta  occ. eigenvalues --  -38.44800 -38.44617 -38.44452 -38.44303 -38.44221
  Beta  occ. eigenvalues --  -38.43888 -38.43793  -2.20655  -2.20460  -2.20186
  Beta  occ. eigenvalues --   -2.20143  -2.19962  -2.19723  -2.19536  -1.14584
  Beta  occ. eigenvalues --   -1.14283  -1.14229  -1.14172  -1.14107  -1.14074
  Beta  occ. eigenvalues --   -1.13878  -1.13865  -1.13810  -1.13787  -1.13772
  Beta  occ. eigenvalues --   -1.13738  -1.13670  -1.13650  -1.13636  -1.13417
  Beta  occ. eigenvalues --   -1.13395  -1.13349  -1.13207  -1.13196  -1.13179
  Beta  occ. eigenvalues --   -0.16814  -0.13529  -0.11345
  Beta virt. eigenvalues --   -0.07207  -0.06197  -0.05483  -0.04099  -0.03527
  Beta virt. eigenvalues --   -0.02291  -0.01875  -0.01781  -0.01305  -0.00543
  Beta virt. eigenvalues --   -0.00109  -0.00004   0.00255   0.00387   0.00600

 Mulliken charges and spin densities:
               1          2
     1  Na   0.861329   0.110121
     2  Na  -0.167405   0.175873
     3  Na   0.362756   0.048073
     4  Na  -0.716949   0.306189
     5  Na  -0.150536   0.000504
     6  Na  -0.210443   0.381253
     7  Na   0.021248  -0.022014
 Sum of Mulliken charges =  -0.00000   1.00000

 Dipole moment (field-independent basis, Debye):
    X=              0.6372    Y=              0.2859    Z=             -0.0887  Tot=              0.7040
 Quadrupole moment (field-independent basis, Debye-Ang):
   XX=            -55.8379   YY=            -71.6271   ZZ=            -70.4313
   XY=             -0.2820   XZ=             -0.1897   YZ=             -2.2388

 Normal termination of Gaussian 16 at Sun Dec  3 11:52:55 2023.
