 Gaussian 16, Revision B.01,
 Gaussian 16:  ES64L-G16RevB.01 20-Dec-2017

 -------------------------
 #P B3LYP/6-311+g(d) force
 -------------------------

 -----
 DPGEN
 -----
 Symbolic Z-matrix:
 Charge =  0 Multiplicity = 2

                         Standard orientation:
 ---------------------------------------------------------------------
 Center     Atomic      Atomic             Coordinates (Angstroms)
 Number     Number       Type             X           Y           Z
 ---------------------------------------------------------------------
      1         11           0        2.704315   -1.653659   -0.029515
      2         11           0       -0.110211    0.470186    1.900498
      3         11           0       -3.239242   -0.468195    0.179369
      4         11           0       -1.151020    2.481812   -0.553497
      5         11           0        2.298590    1.961431    0.140211
      6         11           0        0.031662   -0.239742   -1.702906
      7         11           0       -0.534094   -2.551832    0.065840
 ---------------------------------------------------------------------

 SCF Done:  E(UB3LYP) =  -1136.13738015     A.U. after   19 cycles

 The electronic state is 2-A.
 Alpha  occ. eigenvalues --  -38.44049 -38.43729 -38.43677 -38.43438 -38.43371
 Alpha  occ. eigenvalues --  -38.43247 -38.43163  -2.19870  -2.19564  -2.19523
 Alpha  occ. eigenvalues --   -2.19367  -2.19262  -2.19255  -2.19088  -1.13537
 Alpha  occ. eigenvalues --   -1.13531  -1.13515  -1.13241  -1.13233  -1.13223
 Alpha  occ. eigenvalues --   -1.13208  -1.13185  -1.13152  -1.13061  -1.13050
 Alpha  occ. eigenvalues --   -1.13013  -1.12996  -1.12975  -1.12906  -1.12878
 Alpha  occ. eigenvalues --   -1.12865  -1.12836  -1.12743  -1.12728  -1.12682
 Alpha  occ. eigenvalues --   -0.18931  -0.12942  -0.12630  -0.10805
 Alpha virt. eigenvalues --   -0.05617  -0.05184  -0.04434  -0.03084  -0.03028
 Alpha virt. eigenvalues --   -0.02485  -0.01644  -0.01098  -0.00237  -0.00086
 Alpha virt. eigenvalues --    0.00004   0.00347   0.00793   0.00893   0.00925

  Beta  occ. eigenvalues --  -38.44047 -38.43729 -38.43672 -38.43358 -38.43352
  Beta  occ. eigenvalues --  -38.43172 -38.43155  -2.19867  -2.19565  -2.19517
  Beta  occ. eigenvalues --   -2.19230  -2.19220  -2.19123  -2.19075  -1.13533
  Beta  occ. eigenvalues --   -1.13519  -1.13510  -1.13237  -1.13231  -1.13210
  Beta  occ. eigenvalues --   -1.13197  -1.13165  -1.13151  -1.12990  -1.12982
  Beta  occ. eigenvalues --   -1.12927  -1.12919  -1.12869  -1.12852  -1.12847
  Beta  occ. eigenvalues --   -1.12798  -1.12748  -1.12718  -1.12686  -1.12664
  Beta  occ. eigenvalues --   -0.18196  -0.12714  -0.12364
  Beta virt. eigenvalues --   -0.06870  -0.05573  -0.05179  -0.04403  -0.02342
  Beta virt. eigenvalues --   -0.02225  -0.01555  -0.01426  -0.01036  -0.00258
  Beta virt. eigenvalues --   -0.00124   0.00125   0.00369   0.00839   0.00891

 Mulliken charges and spin densities:
               1          2
     1  Na   0.023826  -0.090142
     2  Na  -0.481767   0.742666
     3  Na   0.127353  -0.038023
     4  Na   0.185960  -0.033309
     5  Na   0.180561  -0.062659
     6  Na  -0.240870   0.520014
     7  Na   0.204937  -0.038548
 Sum of Mulliken charges =  -0.00000   1.00000

 Dipole moment (field-independent basis, Debye):
    X=             -0.0221    Y=              0.1196    Z=              0.1581  Tot=              0.1994
 Quadrupole moment (field-independent basis, Debye-Ang):
   XX=            -54.3536   YY=            -64.5711   ZZ=            -74.0160
   XY=             -0.0549   XZ=              0.1073   YZ=             -1.3901

 Normal termination of Gaussian 16 at Thu Dec  7 08:33:56 2023.
