 Gaussian 16, Revision B.01,
 Gaussian 16:  ES64L-G16RevB.01 20-Dec-2017

 -------------------------
 #P B3LYP/6-311+g(d) force
 -------------------------

 -----
 DPGEN
 -----
 Symbolic Z-matrix:
 Charge =  0 Multiplicity = 2

                         Standard orientation:
 ---------------------------------------------------------------------
 Center     Atomic      Atomic             Coordinates (Angstroms)
 Number     Number       Type             X           Y           Z
 ---------------------------------------------------------------------
      1         11           0        0.124329   -0.174544    2.297197
      2         11           0       -1.033071   -2.927957    0.220448
      3         11           0       -3.262428   -0.174954   -0.536197
      4         11           0        1.995119    1.889155    0.077606
      5         11           0       -0.037447   -0.153784   -1.413578
      6         11           0       -1.221490    2.715734   -0.043437
      7         11           0        3.434988   -1.173650   -0.602040
 ---------------------------------------------------------------------

 SCF Done:  E(UB3LYP) =  -1136.13323854     A.U. after   20 cycles

 The electronic state is 2-A.
 Alpha  occ. eigenvalues --  -38.44269 -38.44238 -38.44076 -38.43613 -38.43412
 Alpha  occ. eigenvalues --  -38.43398 -38.42993  -2.20091  -2.20020  -2.19923
 Alpha  occ. eigenvalues --   -2.19426  -2.19370  -2.19308  -2.18850  -1.13776
 Alpha  occ. eigenvalues --   -1.13749  -1.13713  -1.13686  -1.13675  -1.13653
 Alpha  occ. eigenvalues --   -1.13576  -1.13553  -1.13535  -1.13127  -1.13105
 Alpha  occ. eigenvalues --   -1.13090  -1.13059  -1.13031  -1.12993  -1.12976
 Alpha  occ. eigenvalues --   -1.12958  -1.12922  -1.12527  -1.12509  -1.12491
 Alpha  occ. eigenvalues --   -0.18291  -0.13100  -0.12108  -0.10920
 Alpha virt. eigenvalues --   -0.06041  -0.04979  -0.04667  -0.03136  -0.02903
 Alpha virt. eigenvalues --   -0.02620  -0.01919  -0.01123  -0.00598  -0.00186
 Alpha virt. eigenvalues --   -0.00097   0.00274   0.00747   0.00795   0.00873

  Beta  occ. eigenvalues --  -38.44255 -38.44221 -38.43964 -38.43609 -38.43406
  Beta  occ. eigenvalues --  -38.43363 -38.42992  -2.20067  -2.19988  -2.19717
  Beta  occ. eigenvalues --   -2.19421  -2.19307  -2.19299  -2.18852  -1.13750
  Beta  occ. eigenvalues --   -1.13732  -1.13698  -1.13661  -1.13648  -1.13634
  Beta  occ. eigenvalues --   -1.13439  -1.13414  -1.13383  -1.13119  -1.13075
  Beta  occ. eigenvalues --   -1.13069  -1.13054  -1.12994  -1.12959  -1.12947
  Beta  occ. eigenvalues --   -1.12932  -1.12903  -1.12528  -1.12510  -1.12475
  Beta  occ. eigenvalues --   -0.17621  -0.12813  -0.11878
  Beta virt. eigenvalues --   -0.07082  -0.05859  -0.04906  -0.04589  -0.02501
  Beta virt. eigenvalues --   -0.02154  -0.01740  -0.01685  -0.01068  -0.00568
  Beta virt. eigenvalues --   -0.00207   0.00072   0.00329   0.00802   0.00833

 Mulliken charges and spin densities:
               1          2
     1  Na  -0.434815   0.564820
     2  Na   0.053322   0.065048
     3  Na   0.292963   0.061681
     4  Na   0.313912   0.147567
     5  Na  -0.372319   0.010911
     6  Na  -0.008967   0.052745
     7  Na   0.155904   0.097227
 Sum of Mulliken charges =  -0.00000   1.00000

 Dipole moment (field-independent basis, Debye):
    X=             -0.1161    Y=             -0.3606    Z=              0.2252  Tot=              0.4407
 Quadrupole moment (field-independent basis, Debye-Ang):
   XX=            -55.9711   YY=            -64.3119   ZZ=            -73.3670
   XY=             -1.0630   XZ=             -0.0023   YZ=              0.5909

 Normal termination of Gaussian 16 at Thu Dec  7 22:44:00 2023.
