 Gaussian 16, Revision B.01,
 Gaussian 16:  ES64L-G16RevB.01 20-Dec-2017

 -------------------------
 #P B3LYP/6-311+g(d) force
 -------------------------

 -----
 DPGEN
 -----
 Symbolic Z-matrix:
 Charge =  0 Multiplicity = 2

                         Standard orientation:
 ---------------------------------------------------------------------
 Center     Atomic      Atomic             Coordinates (Angstroms)
 Number     Number       Type             X           Y           Z
 ---------------------------------------------------------------------
      1         11           0        1.956063    2.183832   -0.138901
      2         11           0       -1.829716    2.543978   -0.290122
      3         11           0       -0.279754    0.065011   -1.649128
      4         11           0       -0.388231   -2.756917   -0.329984
      5         11           0       -3.059383   -1.072555    0.279665
      6         11           0        0.154360    0.191387    2.226136
      7         11           0        3.446661   -1.154737   -0.097667
 ---------------------------------------------------------------------

 SCF Done:  E(UB3LYP) =  -1136.13193111     A.U. after   20 cycles

 The electronic state is 2-A.
 Alpha  occ. eigenvalues --  -38.44454 -38.44236 -38.44039 -38.43879 -38.43482
 Alpha  occ. eigenvalues --  -38.43377 -38.43335  -2.20200  -2.20065  -2.19872
 Alpha  occ. eigenvalues --   -2.19702  -2.19341  -2.19304  -2.19201  -1.13877
 Alpha  occ. eigenvalues --   -1.13860  -1.13840  -1.13739  -1.13727  -1.13709
 Alpha  occ. eigenvalues --   -1.13530  -1.13504  -1.13487  -1.13396  -1.13377
 Alpha  occ. eigenvalues --   -1.13312  -1.13083  -1.13050  -1.12978  -1.12958
 Alpha  occ. eigenvalues --   -1.12934  -1.12926  -1.12856  -1.12852  -1.12814
 Alpha  occ. eigenvalues --   -0.18192  -0.12938  -0.12143  -0.10781
 Alpha virt. eigenvalues --   -0.06011  -0.05416  -0.04451  -0.03288  -0.02770
 Alpha virt. eigenvalues --   -0.02734  -0.01804  -0.01314  -0.00451  -0.00368
 Alpha virt. eigenvalues --   -0.00067   0.00309   0.00714   0.00810   0.00841

  Beta  occ. eigenvalues --  -38.44458 -38.44231 -38.43936 -38.43874 -38.43476
  Beta  occ. eigenvalues --  -38.43326 -38.43316  -2.20209  -2.20059  -2.19696
  Beta  occ. eigenvalues --   -2.19682  -2.19297  -2.19230  -2.19189  -1.13877
  Beta  occ. eigenvalues --   -1.13865  -1.13847  -1.13738  -1.13709  -1.13700
  Beta  occ. eigenvalues --   -1.13411  -1.13386  -1.13374  -1.13357  -1.13340
  Beta  occ. eigenvalues --   -1.13312  -1.13032  -1.13000  -1.12939  -1.12935
  Beta  occ. eigenvalues --   -1.12908  -1.12867  -1.12833  -1.12810  -1.12809
  Beta  occ. eigenvalues --   -0.17464  -0.12772  -0.11926
  Beta virt. eigenvalues --   -0.06840  -0.05933  -0.05388  -0.04411  -0.02523
  Beta virt. eigenvalues --   -0.02059  -0.01754  -0.01623  -0.01248  -0.00500
  Beta virt. eigenvalues --   -0.00387   0.00089   0.00338   0.00789   0.00804

 Mulliken charges and spin densities:
               1          2
     1  Na   0.142404  -0.068235
     2  Na   0.149284  -0.033148
     3  Na   0.053786   0.422141
     4  Na   0.120967  -0.064934
     5  Na   0.101454   0.063768
     6  Na  -0.507456   0.767600
     7  Na  -0.060438  -0.087192
 Sum of Mulliken charges =  -0.00000   1.00000

 Dipole moment (field-independent basis, Debye):
    X=              0.0381    Y=              0.0214    Z=              0.2291  Tot=              0.2332
 Quadrupole moment (field-independent basis, Debye-Ang):
   XX=            -54.2681   YY=            -64.7052   ZZ=            -74.6163
   XY=             -0.7696   XZ=             -1.2100   YZ=             -0.2882

 Normal termination of Gaussian 16 at Tue Dec  5 14:25:46 2023.
