 Gaussian 16, Revision B.01,
 Gaussian 16:  ES64L-G16RevB.01 20-Dec-2017

 -------------------------
 #P B3LYP/6-311+g(d) force
 -------------------------

 -----
 DPGEN
 -----
 Symbolic Z-matrix:
 Charge =  0 Multiplicity = 2

                         Standard orientation:
 ---------------------------------------------------------------------
 Center     Atomic      Atomic             Coordinates (Angstroms)
 Number     Number       Type             X           Y           Z
 ---------------------------------------------------------------------
      1         11           0        2.054839    1.685425    1.649971
      2         11           0       -0.261148    1.801878   -0.778779
      3         11           0       -3.993508   -1.030433    1.067630
      4         11           0       -3.581349    1.031123   -1.344209
      5         11           0        1.638518   -1.844420   -1.333158
      6         11           0       -0.587233   -1.388173    1.025580
      7         11           0        4.729881   -0.255401   -0.287034
 ---------------------------------------------------------------------

 SCF Done:  E(UB3LYP) =  -1136.10542762     A.U. after   26 cycles

 The electronic state is 2-A.
 Alpha  occ. eigenvalues --  -38.44913 -38.44731 -38.44597 -38.44476 -38.44418
 Alpha  occ. eigenvalues --  -38.43781 -38.43514  -2.20687  -2.20545  -2.20420
 Alpha  occ. eigenvalues --   -2.20278  -2.20205  -2.19640  -2.19342  -1.14373
 Alpha  occ. eigenvalues --   -1.14346  -1.14328  -1.14238  -1.14210  -1.14192
 Alpha  occ. eigenvalues --   -1.14082  -1.14062  -1.14034  -1.13926  -1.13907
 Alpha  occ. eigenvalues --   -1.13898  -1.13890  -1.13886  -1.13837  -1.13320
 Alpha  occ. eigenvalues --   -1.13277  -1.13264  -1.13020  -1.13007  -1.12976
 Alpha  occ. eigenvalues --   -0.17276  -0.14336  -0.11131  -0.11024
 Alpha virt. eigenvalues --   -0.08116  -0.04882  -0.04686  -0.03774  -0.03191
 Alpha virt. eigenvalues --   -0.02593  -0.01706  -0.01541  -0.01521  -0.01011
 Alpha virt. eigenvalues --   -0.00022   0.00025   0.00182   0.00554   0.00621

  Beta  occ. eigenvalues --  -38.44912 -38.44715 -38.44560 -38.44426 -38.44370
  Beta  occ. eigenvalues --  -38.43730 -38.43501  -2.20688  -2.20517  -2.20352
  Beta  occ. eigenvalues --   -2.20224  -2.20079  -2.19548  -2.19320  -1.14371
  Beta  occ. eigenvalues --   -1.14338  -1.14320  -1.14205  -1.14192  -1.14168
  Beta  occ. eigenvalues --   -1.14035  -1.14017  -1.13988  -1.13908  -1.13883
  Beta  occ. eigenvalues --   -1.13850  -1.13790  -1.13767  -1.13757  -1.13256
  Beta  occ. eigenvalues --   -1.13216  -1.13202  -1.13006  -1.12986  -1.12959
  Beta  occ. eigenvalues --   -0.16721  -0.13567  -0.10970
  Beta virt. eigenvalues --   -0.08083  -0.07489  -0.04519  -0.04050  -0.03458
  Beta virt. eigenvalues --   -0.03022  -0.02528  -0.01492  -0.01167  -0.01081
  Beta virt. eigenvalues --   -0.00554   0.00057   0.00176   0.00276   0.00622

 Mulliken charges and spin densities:
               1          2
     1  Na   0.700060   0.065435
     2  Na  -0.594998  -0.053362
     3  Na   0.246855   0.134582
     4  Na   0.033010   0.253824
     5  Na   0.611845  -0.052022
     6  Na  -0.764105   0.146562
     7  Na  -0.232668   0.504981
 Sum of Mulliken charges =  -0.00000   1.00000

 Dipole moment (field-independent basis, Debye):
    X=             -0.5732    Y=              0.0453    Z=              0.3509  Tot=              0.6736
 Quadrupole moment (field-independent basis, Debye-Ang):
   XX=            -65.1577   YY=            -80.5064   ZZ=            -58.9771
   XY=              2.6943   XZ=              1.2199   YZ=              0.3059

 Normal termination of Gaussian 16 at Mon Dec  4 05:43:26 2023.
