 Gaussian 16, Revision B.01,
 Gaussian 16:  ES64L-G16RevB.01 20-Dec-2017

 -------------------------
 #P B3LYP/6-311+g(d) force
 -------------------------

 -----
 DPGEN
 -----
 Symbolic Z-matrix:
 Charge =  0 Multiplicity = 2

                         Standard orientation:
 ---------------------------------------------------------------------
 Center     Atomic      Atomic             Coordinates (Angstroms)
 Number     Number       Type             X           Y           Z
 ---------------------------------------------------------------------
      1         11           0        3.502601    0.399350    1.161374
      2         11           0        1.414966    2.209249   -0.985698
      3         11           0       -0.519444   -1.481511    1.924562
      4         11           0       -1.580087    1.896574    0.568555
      5         11           0        2.546428   -1.831795   -1.083771
      6         11           0       -3.981722   -0.276609    0.079633
      7         11           0       -1.382742   -0.915259   -1.664656
 ---------------------------------------------------------------------

 SCF Done:  E(UB3LYP) =  -1136.11543595     A.U. after   27 cycles

 The electronic state is 2-A.
 Alpha  occ. eigenvalues --  -38.45582 -38.45243 -38.44491 -38.44181 -38.44077
 Alpha  occ. eigenvalues --  -38.43429 -38.42958  -2.21404  -2.21032  -2.20283
 Alpha  occ. eigenvalues --   -2.19960  -2.19938  -2.19286  -2.18761  -1.15090
 Alpha  occ. eigenvalues --   -1.15072  -1.15034  -1.14702  -1.14683  -1.14673
 Alpha  occ. eigenvalues --   -1.13953  -1.13930  -1.13881  -1.13626  -1.13622
 Alpha  occ. eigenvalues --   -1.13617  -1.13607  -1.13577  -1.13569  -1.12980
 Alpha  occ. eigenvalues --   -1.12958  -1.12915  -1.12441  -1.12436  -1.12398
 Alpha  occ. eigenvalues --   -0.17734  -0.14092  -0.10989  -0.10765
 Alpha virt. eigenvalues --   -0.07350  -0.05690  -0.04618  -0.03297  -0.02849
 Alpha virt. eigenvalues --   -0.02594  -0.02389  -0.01285  -0.00775  -0.00471
 Alpha virt. eigenvalues --   -0.00084   0.00080   0.00149   0.00538   0.00649

  Beta  occ. eigenvalues --  -38.45590 -38.45234 -38.44398 -38.44177 -38.44013
  Beta  occ. eigenvalues --  -38.43428 -38.42968  -2.21423  -2.21013  -2.20111
  Beta  occ. eigenvalues --   -2.19953  -2.19819  -2.19285  -2.18779  -1.15093
  Beta  occ. eigenvalues --   -1.15083  -1.15040  -1.14691  -1.14668  -1.14660
  Beta  occ. eigenvalues --   -1.13837  -1.13800  -1.13762  -1.13620  -1.13611
  Beta  occ. eigenvalues --   -1.13603  -1.13529  -1.13499  -1.13471  -1.12983
  Beta  occ. eigenvalues --   -1.12939  -1.12921  -1.12457  -1.12433  -1.12418
  Beta  occ. eigenvalues --   -0.17071  -0.14039  -0.10907
  Beta virt. eigenvalues --   -0.07144  -0.06921  -0.05385  -0.04229  -0.03061
  Beta virt. eigenvalues --   -0.02592  -0.02105  -0.01638  -0.00911  -0.00625
  Beta virt. eigenvalues --   -0.00429   0.00041   0.00121   0.00271   0.00656

 Mulliken charges and spin densities:
               1          2
     1  Na   0.227103  -0.019119
     2  Na  -0.050662   0.119003
     3  Na  -0.272166   0.551834
     4  Na  -0.299691   0.062603
     5  Na  -0.132561  -0.013495
     6  Na   1.024417  -0.061244
     7  Na  -0.496440   0.360418
 Sum of Mulliken charges =  -0.00000   1.00000

 Dipole moment (field-independent basis, Debye):
    X=             -0.6455    Y=             -0.3482    Z=              0.4628  Tot=              0.8673
 Quadrupole moment (field-independent basis, Debye-Ang):
   XX=            -45.5007   YY=            -78.7436   ZZ=            -70.5960
   XY=              0.4227   XZ=              0.7401   YZ=              1.8733

 Normal termination of Gaussian 16 at Thu Dec  7 22:32:28 2023.
