 Gaussian 16, Revision B.01,
 Gaussian 16:  ES64L-G16RevB.01 20-Dec-2017

 -------------------------
 #P B3LYP/6-311+g(d) force
 -------------------------

 -----
 DPGEN
 -----
 Symbolic Z-matrix:
 Charge =  0 Multiplicity = 2

                         Standard orientation:
 ---------------------------------------------------------------------
 Center     Atomic      Atomic             Coordinates (Angstroms)
 Number     Number       Type             X           Y           Z
 ---------------------------------------------------------------------
      1         11           0        4.237331    1.100352   -0.252411
      2         11           0       -3.186681    1.775568    0.468158
      3         11           0        0.652838   -0.775947   -1.148199
      4         11           0       -1.764344   -1.395726    1.845446
      5         11           0        3.061999   -2.068617    0.497876
      6         11           0        0.363567    2.672671    0.079218
      7         11           0       -3.364710   -1.308300   -1.490087
 ---------------------------------------------------------------------

 SCF Done:  E(UB3LYP) =  -1136.10790454     A.U. after   32 cycles

 The electronic state is 2-A.
 Alpha  occ. eigenvalues --  -38.45421 -38.44975 -38.44949 -38.44942 -38.44705
 Alpha  occ. eigenvalues --  -38.43532 -38.43061  -2.21231  -2.20742  -2.20727
 Alpha  occ. eigenvalues --   -2.20720  -2.20507  -2.19358  -2.18823  -1.14932
 Alpha  occ. eigenvalues --   -1.14902  -1.14845  -1.14415  -1.14405  -1.14402
 Alpha  occ. eigenvalues --   -1.14397  -1.14387  -1.14367  -1.14364  -1.14349
 Alpha  occ. eigenvalues --   -1.14347  -1.14192  -1.14168  -1.14137  -1.13017
 Alpha  occ. eigenvalues --   -1.12996  -1.12968  -1.12528  -1.12502  -1.12444
 Alpha  occ. eigenvalues --   -0.16982  -0.14291  -0.11266  -0.09995
 Alpha virt. eigenvalues --   -0.07500  -0.06575  -0.04355  -0.03306  -0.03139
 Alpha virt. eigenvalues --   -0.02290  -0.02180  -0.01976  -0.01082  -0.00879
 Alpha virt. eigenvalues --   -0.00225  -0.00065   0.00149   0.00246   0.00490

  Beta  occ. eigenvalues --  -38.45412 -38.44952 -38.44922 -38.44898 -38.44712
  Beta  occ. eigenvalues --  -38.43443 -38.43074  -2.21216  -2.20700  -2.20685
  Beta  occ. eigenvalues --   -2.20632  -2.20522  -2.19192  -2.18848  -1.14909
  Beta  occ. eigenvalues --   -1.14895  -1.14837  -1.14387  -1.14372  -1.14365
  Beta  occ. eigenvalues --   -1.14355  -1.14339  -1.14337  -1.14306  -1.14304
  Beta  occ. eigenvalues --   -1.14287  -1.14203  -1.14178  -1.14127  -1.12905
  Beta  occ. eigenvalues --   -1.12877  -1.12860  -1.12548  -1.12516  -1.12455
  Beta  occ. eigenvalues --   -0.16565  -0.13838  -0.11071
  Beta virt. eigenvalues --   -0.07253  -0.06544  -0.06301  -0.04093  -0.03193
  Beta virt. eigenvalues --   -0.02685  -0.02122  -0.01741  -0.01486  -0.00969
  Beta virt. eigenvalues --   -0.00410  -0.00158   0.00137   0.00274   0.00421

 Mulliken charges and spin densities:
               1          2
     1  Na   0.175119   0.344193
     2  Na   0.095507   0.097308
     3  Na  -0.467139  -0.135759
     4  Na  -0.060271   0.188373
     5  Na   0.323864   0.047309
     6  Na  -0.172988  -0.066432
     7  Na   0.105907   0.525009
 Sum of Mulliken charges =  -0.00000   1.00000

 Dipole moment (field-independent basis, Debye):
    X=              0.8933    Y=             -0.5371    Z=              1.0384  Tot=              1.4713
 Quadrupole moment (field-independent basis, Debye-Ang):
   XX=            -59.0576   YY=            -74.7993   ZZ=            -67.9912
   XY=             -4.1174   XZ=             -3.7680   YZ=             -1.9998

 Normal termination of Gaussian 16 at Fri Dec  8 19:33:44 2023.
