 Gaussian 16, Revision B.01,
 Gaussian 16:  ES64L-G16RevB.01 20-Dec-2017

 -------------------------
 #P B3LYP/6-311+g(d) force
 -------------------------

 -----
 DPGEN
 -----
 Symbolic Z-matrix:
 Charge =  0 Multiplicity = 2

                         Standard orientation:
 ---------------------------------------------------------------------
 Center     Atomic      Atomic             Coordinates (Angstroms)
 Number     Number       Type             X           Y           Z
 ---------------------------------------------------------------------
      1         11           0       -3.402211   -0.767985   -0.084912
      2         11           0        3.114755   -0.945685   -0.662866
      3         11           0       -0.285649    0.261543    2.128687
      4         11           0        0.406720   -2.857857    0.439892
      5         11           0        2.199095    2.510997    0.289155
      6         11           0       -1.735899    2.375237   -0.655127
      7         11           0       -0.296811   -0.576250   -1.454828
 ---------------------------------------------------------------------

 SCF Done:  E(UB3LYP) =  -1136.13155212     A.U. after   19 cycles

 The electronic state is 2-A.
 Alpha  occ. eigenvalues --  -38.44653 -38.44097 -38.43936 -38.43733 -38.43654
 Alpha  occ. eigenvalues --  -38.43403 -38.43378  -2.20445  -2.19904  -2.19751
 Alpha  occ. eigenvalues --   -2.19587  -2.19417  -2.19342  -2.19267  -1.14125
 Alpha  occ. eigenvalues --   -1.14095  -1.14087  -1.13585  -1.13558  -1.13535
 Alpha  occ. eigenvalues --   -1.13453  -1.13414  -1.13361  -1.13255  -1.13219
 Alpha  occ. eigenvalues --   -1.13196  -1.13123  -1.13094  -1.13075  -1.13063
 Alpha  occ. eigenvalues --   -1.13012  -1.12957  -1.12922  -1.12889  -1.12874
 Alpha  occ. eigenvalues --   -0.18084  -0.13064  -0.12042  -0.10695
 Alpha virt. eigenvalues --   -0.06047  -0.05309  -0.04656  -0.03168  -0.02896
 Alpha virt. eigenvalues --   -0.02537  -0.01910  -0.01157  -0.00636  -0.00362
 Alpha virt. eigenvalues --   -0.00052   0.00300   0.00717   0.00791   0.00798

  Beta  occ. eigenvalues --  -38.44651 -38.44081 -38.43921 -38.43655 -38.43631
  Beta  occ. eigenvalues --  -38.43393 -38.43338  -2.20445  -2.19876  -2.19727
  Beta  occ. eigenvalues --   -2.19421  -2.19399  -2.19273  -2.19251  -1.14117
  Beta  occ. eigenvalues --   -1.14096  -1.14077  -1.13556  -1.13541  -1.13518
  Beta  occ. eigenvalues --   -1.13431  -1.13392  -1.13341  -1.13134  -1.13092
  Beta  occ. eigenvalues --   -1.13089  -1.13084  -1.13077  -1.13069  -1.13050
  Beta  occ. eigenvalues --   -1.12963  -1.12910  -1.12895  -1.12867  -1.12844
  Beta  occ. eigenvalues --   -0.17386  -0.12795  -0.11870
  Beta virt. eigenvalues --   -0.06834  -0.05988  -0.05229  -0.04535  -0.02523
  Beta virt. eigenvalues --   -0.02192  -0.01833  -0.01535  -0.01082  -0.00598
  Beta virt. eigenvalues --   -0.00369   0.00099   0.00352   0.00802   0.00807

 Mulliken charges and spin densities:
               1          2
     1  Na   0.191832   0.025285
     2  Na   0.038190   0.033641
     3  Na  -0.259419   0.674397
     4  Na   0.083772   0.140390
     5  Na  -0.128325  -0.016481
     6  Na  -0.075557   0.032403
     7  Na   0.149507   0.110365
 Sum of Mulliken charges =  -0.00000   1.00000

 Dipole moment (field-independent basis, Debye):
    X=             -0.5483    Y=             -0.1570    Z=              0.0715  Tot=              0.5748
 Quadrupole moment (field-independent basis, Debye-Ang):
   XX=            -54.1790   YY=            -64.5242   ZZ=            -74.3911
   XY=              0.4367   XZ=             -0.8103   YZ=             -1.6554

 Normal termination of Gaussian 16 at Thu Dec  7 02:42:38 2023.
