 Gaussian 16, Revision B.01,
 Gaussian 16:  ES64L-G16RevB.01 20-Dec-2017

 -------------------------
 #P B3LYP/6-311+g(d) force
 -------------------------

 -----
 DPGEN
 -----
 Symbolic Z-matrix:
 Charge =  0 Multiplicity = 2

                         Standard orientation:
 ---------------------------------------------------------------------
 Center     Atomic      Atomic             Coordinates (Angstroms)
 Number     Number       Type             X           Y           Z
 ---------------------------------------------------------------------
      1         11           0        0.318997   -0.556945    1.910600
      2         11           0        2.370978   -1.722191    0.129174
      3         11           0        0.252550    0.015200   -1.778732
      4         11           0       -3.419127    0.413783   -0.026967
      5         11           0       -1.394049   -2.508634   -0.316992
      6         11           0        2.649862    1.624676   -0.272967
      7         11           0       -0.779211    2.734110    0.355883
 ---------------------------------------------------------------------

 SCF Done:  E(UB3LYP) =  -1136.13447754     A.U. after   20 cycles

 The electronic state is 2-A.
 Alpha  occ. eigenvalues --  -38.44434 -38.43805 -38.43802 -38.43622 -38.43434
 Alpha  occ. eigenvalues --  -38.43409 -38.43279  -2.20213  -2.19724  -2.19660
 Alpha  occ. eigenvalues --   -2.19560  -2.19390  -2.19261  -2.19098  -1.13888
 Alpha  occ. eigenvalues --   -1.13868  -1.13860  -1.13530  -1.13401  -1.13358
 Alpha  occ. eigenvalues --   -1.13343  -1.13305  -1.13279  -1.13204  -1.13168
 Alpha  occ. eigenvalues --   -1.13160  -1.13069  -1.13032  -1.13013  -1.12930
 Alpha  occ. eigenvalues --   -1.12926  -1.12877  -1.12775  -1.12771  -1.12726
 Alpha  occ. eigenvalues --   -0.18691  -0.13168  -0.12325  -0.10824
 Alpha virt. eigenvalues --   -0.05931  -0.05264  -0.04409  -0.03249  -0.02950
 Alpha virt. eigenvalues --   -0.02516  -0.01665  -0.01124  -0.00375  -0.00270
 Alpha virt. eigenvalues --   -0.00020   0.00335   0.00777   0.00852   0.00891

  Beta  occ. eigenvalues --  -38.44438 -38.43794 -38.43792 -38.43538 -38.43400
  Beta  occ. eigenvalues --  -38.43359 -38.43272  -2.20222  -2.19706  -2.19648
  Beta  occ. eigenvalues --   -2.19406  -2.19253  -2.19247  -2.19087  -1.13888
  Beta  occ. eigenvalues --   -1.13872  -1.13866  -1.13491  -1.13370  -1.13338
  Beta  occ. eigenvalues --   -1.13323  -1.13284  -1.13274  -1.13108  -1.13066
  Beta  occ. eigenvalues --   -1.13054  -1.12987  -1.12950  -1.12918  -1.12905
  Beta  occ. eigenvalues --   -1.12877  -1.12869  -1.12766  -1.12749  -1.12721
  Beta  occ. eigenvalues --   -0.17959  -0.12944  -0.12069
  Beta virt. eigenvalues --   -0.06912  -0.05879  -0.05237  -0.04344  -0.02499
  Beta virt. eigenvalues --   -0.02169  -0.01607  -0.01482  -0.01074  -0.00409
  Beta virt. eigenvalues --   -0.00283   0.00122   0.00371   0.00838   0.00861

 Mulliken charges and spin densities:
               1          2
     1  Na  -0.345917   0.715494
     2  Na   0.581923  -0.033711
     3  Na  -0.136189   0.611227
     4  Na  -0.153538  -0.088447
     5  Na   0.078082  -0.120007
     6  Na   0.090566  -0.026586
     7  Na  -0.114927  -0.057970
 Sum of Mulliken charges =  -0.00000   1.00000

 Dipole moment (field-independent basis, Debye):
    X=             -0.1254    Y=             -0.0488    Z=             -0.0004  Tot=              0.1345
 Quadrupole moment (field-independent basis, Debye-Ang):
   XX=            -54.3993   YY=            -65.4897   ZZ=            -74.0581
   XY=              0.5847   XZ=             -0.2650   YZ=              1.1210

 Normal termination of Gaussian 16 at Fri Dec  8 03:50:59 2023.
