 Gaussian 16, Revision B.01,
 Gaussian 16:  ES64L-G16RevB.01 20-Dec-2017

 -------------------------
 #P B3LYP/6-311+g(d) force
 -------------------------

 -----
 DPGEN
 -----
 Symbolic Z-matrix:
 Charge =  0 Multiplicity = 2

                         Standard orientation:
 ---------------------------------------------------------------------
 Center     Atomic      Atomic             Coordinates (Angstroms)
 Number     Number       Type             X           Y           Z
 ---------------------------------------------------------------------
      1         11           0        0.190949    0.262594   -1.383391
      2         11           0        1.812701   -2.407697   -0.487621
      3         11           0       -2.156187   -2.344634   -0.444358
      4         11           0        0.230467    3.257762   -0.323729
      5         11           0       -2.937621    1.171477    0.176277
      6         11           0        2.967524    0.635989    0.340762
      7         11           0       -0.107833   -0.575491    2.122059
 ---------------------------------------------------------------------

 SCF Done:  E(UB3LYP) =  -1136.13626237     A.U. after   19 cycles

 The electronic state is 2-A.
 Alpha  occ. eigenvalues --  -38.44176 -38.43910 -38.43885 -38.43688 -38.43599
 Alpha  occ. eigenvalues --  -38.43591 -38.42889  -2.19968  -2.19758  -2.19685
 Alpha  occ. eigenvalues --   -2.19544  -2.19457  -2.19404  -2.18894  -1.13649
 Alpha  occ. eigenvalues --   -1.13635  -1.13598  -1.13451  -1.13421  -1.13394
 Alpha  occ. eigenvalues --   -1.13362  -1.13342  -1.13323  -1.13240  -1.13195
 Alpha  occ. eigenvalues --   -1.13168  -1.13124  -1.13110  -1.13088  -1.13065
 Alpha  occ. eigenvalues --   -1.13057  -1.13030  -1.12586  -1.12533  -1.12522
 Alpha  occ. eigenvalues --   -0.18309  -0.12889  -0.12446  -0.10496
 Alpha virt. eigenvalues --   -0.05588  -0.05367  -0.04982  -0.03131  -0.02767
 Alpha virt. eigenvalues --   -0.02366  -0.01469  -0.01344  -0.00637  -0.00534
 Alpha virt. eigenvalues --   -0.00008   0.00337   0.00791   0.00820   0.00838

  Beta  occ. eigenvalues --  -38.44174 -38.43903 -38.43877 -38.43675 -38.43588
  Beta  occ. eigenvalues --  -38.43501 -38.42843  -2.19966  -2.19748  -2.19673
  Beta  occ. eigenvalues --   -2.19524  -2.19401  -2.19277  -2.18811  -1.13636
  Beta  occ. eigenvalues --   -1.13630  -1.13599  -1.13444  -1.13398  -1.13382
  Beta  occ. eigenvalues --   -1.13342  -1.13335  -1.13310  -1.13220  -1.13168
  Beta  occ. eigenvalues --   -1.13150  -1.13101  -1.13049  -1.13031  -1.13004
  Beta  occ. eigenvalues --   -1.12964  -1.12934  -1.12522  -1.12469  -1.12462
  Beta  occ. eigenvalues --   -0.17618  -0.12702  -0.12212
  Beta virt. eigenvalues --   -0.06602  -0.05555  -0.05312  -0.04889  -0.02377
  Beta virt. eigenvalues --   -0.02120  -0.01404  -0.01350  -0.01217  -0.00629
  Beta virt. eigenvalues --   -0.00573   0.00155   0.00385   0.00807   0.00842

 Mulliken charges and spin densities:
               1          2
     1  Na  -0.094808   0.246431
     2  Na   0.212961   0.007123
     3  Na   0.023641  -0.021818
     4  Na   0.091128  -0.020360
     5  Na   0.029155  -0.010574
     6  Na   0.172040   0.110543
     7  Na  -0.434118   0.688654
 Sum of Mulliken charges =  -0.00000   1.00000

 Dipole moment (field-independent basis, Debye):
    X=             -0.1230    Y=             -0.0492    Z=              0.1998  Tot=              0.2397
 Quadrupole moment (field-independent basis, Debye-Ang):
   XX=            -57.0107   YY=            -59.5833   ZZ=            -75.7388
   XY=             -0.0022   XZ=              0.6465   YZ=              1.9901

 Normal termination of Gaussian 16 at Thu Dec  7 18:13:01 2023.
