 Gaussian 16, Revision B.01,
 Gaussian 16:  ES64L-G16RevB.01 20-Dec-2017

 -------------------------
 #P B3LYP/6-311+g(d) force
 -------------------------

 -----
 DPGEN
 -----
 Symbolic Z-matrix:
 Charge =  0 Multiplicity = 2

                         Standard orientation:
 ---------------------------------------------------------------------
 Center     Atomic      Atomic             Coordinates (Angstroms)
 Number     Number       Type             X           Y           Z
 ---------------------------------------------------------------------
      1         11           0        2.440810    2.285285   -0.176962
      2         11           0        2.449000   -2.100154    0.006855
      3         11           0       -1.288245    2.587215    0.130559
      4         11           0       -0.984928   -2.613134   -0.205149
      5         11           0        0.174664   -0.150076    2.099791
      6         11           0        0.316625    0.094133   -1.679339
      7         11           0       -3.107926   -0.103270   -0.175756
 ---------------------------------------------------------------------

 SCF Done:  E(UB3LYP) =  -1136.13775083     A.U. after   19 cycles

 The electronic state is 2-A.
 Alpha  occ. eigenvalues --  -38.44060 -38.44036 -38.43699 -38.43698 -38.43437
 Alpha  occ. eigenvalues --  -38.43434 -38.43250  -2.19871  -2.19822  -2.19567
 Alpha  occ. eigenvalues --   -2.19547  -2.19322  -2.19290  -2.19195  -1.13545
 Alpha  occ. eigenvalues --   -1.13533  -1.13514  -1.13503  -1.13475  -1.13464
 Alpha  occ. eigenvalues --   -1.13248  -1.13231  -1.13219  -1.13194  -1.13183
 Alpha  occ. eigenvalues --   -1.13177  -1.13041  -1.12999  -1.12975  -1.12945
 Alpha  occ. eigenvalues --   -1.12936  -1.12903  -1.12875  -1.12823  -1.12818
 Alpha  occ. eigenvalues --   -0.18490  -0.12777  -0.12588  -0.10734
 Alpha virt. eigenvalues --   -0.05766  -0.05217  -0.04698  -0.03097  -0.02945
 Alpha virt. eigenvalues --   -0.02635  -0.01442  -0.01411  -0.00393  -0.00329
 Alpha virt. eigenvalues --   -0.00026   0.00353   0.00804   0.00823   0.00917

  Beta  occ. eigenvalues --  -38.44058 -38.44034 -38.43694 -38.43599 -38.43432
  Beta  occ. eigenvalues --  -38.43428 -38.43187  -2.19870  -2.19821  -2.19541
  Beta  occ. eigenvalues --   -2.19385  -2.19309  -2.19288  -2.19081  -1.13537
  Beta  occ. eigenvalues --   -1.13520  -1.13515  -1.13491  -1.13471  -1.13466
  Beta  occ. eigenvalues --   -1.13240  -1.13192  -1.13181  -1.13113  -1.13069
  Beta  occ. eigenvalues --   -1.13052  -1.13030  -1.12984  -1.12947  -1.12942
  Beta  occ. eigenvalues --   -1.12918  -1.12900  -1.12798  -1.12743  -1.12733
  Beta  occ. eigenvalues --   -0.17755  -0.12564  -0.12365
  Beta virt. eigenvalues --   -0.06812  -0.05771  -0.05121  -0.04685  -0.02303
  Beta virt. eigenvalues --   -0.02211  -0.01584  -0.01344  -0.01339  -0.00434
  Beta virt. eigenvalues --   -0.00381   0.00123   0.00376   0.00807   0.00851

 Mulliken charges and spin densities:
               1          2
     1  Na   0.072481  -0.124390
     2  Na   0.195460  -0.101641
     3  Na   0.181778   0.009873
     4  Na   0.299566   0.052934
     5  Na  -0.496199   0.719308
     6  Na  -0.229577   0.463542
     7  Na  -0.023508  -0.019625
 Sum of Mulliken charges =  -0.00000   1.00000

 Dipole moment (field-independent basis, Debye):
    X=              0.4912    Y=              0.0481    Z=              0.1256  Tot=              0.5093
 Quadrupole moment (field-independent basis, Debye-Ang):
   XX=            -57.9427   YY=            -60.9879   ZZ=            -74.5962
   XY=             -0.3360   XZ=              0.4000   YZ=              0.6086

 Normal termination of Gaussian 16 at Thu Dec  7 19:22:36 2023.
