 Gaussian 16, Revision B.01,
 Gaussian 16:  ES64L-G16RevB.01 20-Dec-2017

 -------------------------
 #P B3LYP/6-311+g(d) force
 -------------------------

 -----
 DPGEN
 -----
 Symbolic Z-matrix:
 Charge =  0 Multiplicity = 2

                         Standard orientation:
 ---------------------------------------------------------------------
 Center     Atomic      Atomic             Coordinates (Angstroms)
 Number     Number       Type             X           Y           Z
 ---------------------------------------------------------------------
      1         11           0       -2.577846    1.354815    0.549568
      2         11           0        1.624481    1.134471   -0.051950
      3         11           0        2.107850   -2.890353   -0.074058
      4         11           0       -0.957465   -1.453809   -0.364234
      5         11           0       -3.995318   -2.128574    0.037029
      6         11           0        4.521576    0.138583    0.264394
      7         11           0       -0.723277    3.844867   -0.360748
 ---------------------------------------------------------------------

 SCF Done:  E(UB3LYP) =  -1136.12458700     A.U. after   22 cycles

 The electronic state is 2-A.
 Alpha  occ. eigenvalues --  -38.44527 -38.44388 -38.44187 -38.43817 -38.43810
 Alpha  occ. eigenvalues --  -38.43670 -38.43386  -2.20363  -2.20194  -2.20036
 Alpha  occ. eigenvalues --   -2.19659  -2.19629  -2.19500  -2.19293  -1.14071
 Alpha  occ. eigenvalues --   -1.14059  -1.13960  -1.13860  -1.13856  -1.13801
 Alpha  occ. eigenvalues --   -1.13759  -1.13736  -1.13656  -1.13312  -1.13300
 Alpha  occ. eigenvalues --   -1.13291  -1.13287  -1.13261  -1.13252  -1.13195
 Alpha  occ. eigenvalues --   -1.13147  -1.13123  -1.12986  -1.12968  -1.12893
 Alpha  occ. eigenvalues --   -0.17018  -0.14010  -0.12900  -0.10454
 Alpha virt. eigenvalues --   -0.06357  -0.05650  -0.04165  -0.03540  -0.02474
 Alpha virt. eigenvalues --   -0.02319  -0.01984  -0.01854  -0.01231  -0.00684
 Alpha virt. eigenvalues --    0.00006   0.00070   0.00509   0.00573   0.00614

  Beta  occ. eigenvalues --  -38.44523 -38.44332 -38.44173 -38.43818 -38.43728
  Beta  occ. eigenvalues --  -38.43629 -38.43364  -2.20357  -2.20093  -2.20017
  Beta  occ. eigenvalues --   -2.19631  -2.19507  -2.19424  -2.19259  -1.14070
  Beta  occ. eigenvalues --   -1.14056  -1.13942  -1.13793  -1.13770  -1.13734
  Beta  occ. eigenvalues --   -1.13730  -1.13698  -1.13648  -1.13302  -1.13288
  Beta  occ. eigenvalues --   -1.13261  -1.13205  -1.13188  -1.13156  -1.13150
  Beta  occ. eigenvalues --   -1.13095  -1.13068  -1.12967  -1.12950  -1.12827
  Beta  occ. eigenvalues --   -0.16617  -0.13339  -0.12465
  Beta virt. eigenvalues --   -0.06887  -0.06194  -0.05532  -0.04008  -0.02990
  Beta virt. eigenvalues --   -0.02178  -0.02115  -0.01835  -0.01353  -0.01068
  Beta virt. eigenvalues --   -0.00336   0.00221   0.00390   0.00586   0.00640

 Mulliken charges and spin densities:
               1          2
     1  Na  -0.126166   0.052373
     2  Na  -2.310423   0.129503
     3  Na   0.512747   0.036474
     4  Na  -1.142065   0.303449
     5  Na   1.265798   0.185925
     6  Na   0.496832   0.228795
     7  Na   1.303277   0.063482
 Sum of Mulliken charges =  -0.00000   1.00000

 Dipole moment (field-independent basis, Debye):
    X=             -0.2735    Y=             -0.1453    Z=              0.0527  Tot=              0.3141
 Quadrupole moment (field-independent basis, Debye-Ang):
   XX=            -62.2637   YY=            -59.9176   ZZ=            -72.1835
   XY=             -5.5259   XZ=             -0.8446   YZ=             -1.2815

 Normal termination of Gaussian 16 at Tue Nov 28 23:40:36 2023.
