 Gaussian 16, Revision B.01,
 Gaussian 16:  ES64L-G16RevB.01 20-Dec-2017

 -------------------------
 #P B3LYP/6-311+g(d) force
 -------------------------

 -----
 DPGEN
 -----
 Symbolic Z-matrix:
 Charge =  0 Multiplicity = 2

                         Standard orientation:
 ---------------------------------------------------------------------
 Center     Atomic      Atomic             Coordinates (Angstroms)
 Number     Number       Type             X           Y           Z
 ---------------------------------------------------------------------
      1         11           0        0.088832   -0.120455   -1.575058
      2         11           0       -3.056608    0.383800   -0.252473
      3         11           0       -0.631418    2.771227   -0.083723
      4         11           0        2.388279   -1.856092   -0.102841
      5         11           0       -0.329255   -0.146337    2.029006
      6         11           0       -1.256547   -2.517704   -0.066790
      7         11           0        2.796719    1.485561    0.051879
 ---------------------------------------------------------------------

 SCF Done:  E(UB3LYP) =  -1136.13888978     A.U. after   19 cycles

 The electronic state is 2-A.
 Alpha  occ. eigenvalues --  -38.43974 -38.43917 -38.43723 -38.43462 -38.43245
 Alpha  occ. eigenvalues --  -38.43179 -38.43035  -2.19841  -2.19738  -2.19578
 Alpha  occ. eigenvalues --   -2.19374  -2.19151  -2.19060  -2.19039  -1.13514
 Alpha  occ. eigenvalues --   -1.13501  -1.13487  -1.13414  -1.13408  -1.13384
 Alpha  occ. eigenvalues --   -1.13274  -1.13234  -1.13202  -1.13054  -1.13008
 Alpha  occ. eigenvalues --   -1.12987  -1.12892  -1.12808  -1.12770  -1.12763
 Alpha  occ. eigenvalues --   -1.12716  -1.12701  -1.12673  -1.12665  -1.12654
 Alpha  occ. eigenvalues --   -0.18927  -0.13202  -0.12450  -0.10718
 Alpha virt. eigenvalues --   -0.05619  -0.05258  -0.04535  -0.03167  -0.02798
 Alpha virt. eigenvalues --   -0.02500  -0.01560  -0.01083  -0.00299  -0.00280
 Alpha virt. eigenvalues --   -0.00002   0.00356   0.00802   0.00895   0.00912

  Beta  occ. eigenvalues --  -38.43967 -38.43917 -38.43720 -38.43364 -38.43236
  Beta  occ. eigenvalues --  -38.43174 -38.42972  -2.19830  -2.19740  -2.19575
  Beta  occ. eigenvalues --   -2.19195  -2.19138  -2.19034  -2.18946  -1.13506
  Beta  occ. eigenvalues --   -1.13484  -1.13469  -1.13416  -1.13397  -1.13385
  Beta  occ. eigenvalues --   -1.13265  -1.13217  -1.13203  -1.12946  -1.12887
  Beta  occ. eigenvalues --   -1.12862  -1.12857  -1.12764  -1.12760  -1.12740
  Beta  occ. eigenvalues --   -1.12679  -1.12666  -1.12648  -1.12591  -1.12585
  Beta  occ. eigenvalues --   -0.18191  -0.12973  -0.12197
  Beta virt. eigenvalues --   -0.06766  -0.05578  -0.05266  -0.04516  -0.02389
  Beta virt. eigenvalues --   -0.02005  -0.01491  -0.01387  -0.01026  -0.00345
  Beta virt. eigenvalues --   -0.00341   0.00144   0.00384   0.00865   0.00884

 Mulliken charges and spin densities:
               1          2
     1  Na  -0.389774   0.436068
     2  Na   0.293687  -0.008919
     3  Na   0.064032  -0.067727
     4  Na   0.232691  -0.064269
     5  Na  -0.604643   0.799671
     6  Na   0.403456  -0.038013
     7  Na   0.000551  -0.056811
 Sum of Mulliken charges =  -0.00000   1.00000

 Dipole moment (field-independent basis, Debye):
    X=              0.0710    Y=              0.0073    Z=              0.1616  Tot=              0.1766
 Quadrupole moment (field-independent basis, Debye-Ang):
   XX=            -55.2098   YY=            -63.2337   ZZ=            -74.6510
   XY=              0.0901   XZ=              1.0442   YZ=              0.1489

 Normal termination of Gaussian 16 at Tue Dec  5 12:16:50 2023.
