 Gaussian 16, Revision B.01,
 Gaussian 16:  ES64L-G16RevB.01 20-Dec-2017

 -------------------------
 #P B3LYP/6-311+g(d) force
 -------------------------

 -----
 DPGEN
 -----
 Symbolic Z-matrix:
 Charge =  0 Multiplicity = 2

                         Standard orientation:
 ---------------------------------------------------------------------
 Center     Atomic      Atomic             Coordinates (Angstroms)
 Number     Number       Type             X           Y           Z
 ---------------------------------------------------------------------
      1         11           0       -3.533430   -2.132300    0.048130
      2         11           0       -3.340158    0.510016   -0.913064
      3         11           0       -0.855916    3.257164   -0.741081
      4         11           0       -1.697574    0.813733    1.954899
      5         11           0       -0.270081   -1.659400   -0.150731
      6         11           0        4.083639   -1.516805   -0.572721
      7         11           0        5.613521    0.727591    0.374568
 ---------------------------------------------------------------------

 SCF Done:  E(UB3LYP) =  -1136.10354019     A.U. after   22 cycles

 The electronic state is 2-A.
 Alpha  occ. eigenvalues --  -38.45790 -38.44228 -38.44208 -38.44151 -38.43930
 Alpha  occ. eigenvalues --  -38.43656 -38.43531  -2.21606  -2.20166  -2.20055
 Alpha  occ. eigenvalues --   -2.19999  -2.19745  -2.19455  -2.19416  -1.15297
 Alpha  occ. eigenvalues --   -1.15272  -1.15200  -1.13921  -1.13837  -1.13827
 Alpha  occ. eigenvalues --   -1.13776  -1.13687  -1.13683  -1.13668  -1.13648
 Alpha  occ. eigenvalues --   -1.13610  -1.13393  -1.13381  -1.13364  -1.13128
 Alpha  occ. eigenvalues --   -1.13101  -1.13087  -1.13086  -1.13052  -1.13041
 Alpha  occ. eigenvalues --   -0.17592  -0.13583  -0.11785  -0.10743
 Alpha virt. eigenvalues --   -0.07230  -0.05355  -0.04587  -0.03108  -0.02858
 Alpha virt. eigenvalues --   -0.02464  -0.02241  -0.01761  -0.01010  -0.00882
 Alpha virt. eigenvalues --   -0.00715  -0.00130   0.00215   0.00433   0.00563

  Beta  occ. eigenvalues --  -38.45761 -38.44200 -38.44142 -38.44080 -38.43935
  Beta  occ. eigenvalues --  -38.43667 -38.43501  -2.21556  -2.20048  -2.20003
  Beta  occ. eigenvalues --   -2.19866  -2.19757  -2.19437  -2.19405  -1.15251
  Beta  occ. eigenvalues --   -1.15230  -1.15167  -1.13844  -1.13810  -1.13747
  Beta  occ. eigenvalues --   -1.13674  -1.13651  -1.13647  -1.13572  -1.13552
  Beta  occ. eigenvalues --   -1.13526  -1.13404  -1.13390  -1.13348  -1.13116
  Beta  occ. eigenvalues --   -1.13096  -1.13079  -1.13056  -1.13055  -1.12997
  Beta  occ. eigenvalues --   -0.16906  -0.13244  -0.11630
  Beta virt. eigenvalues --   -0.07031  -0.06877  -0.05066  -0.04488  -0.02627
  Beta virt. eigenvalues --   -0.02590  -0.02285  -0.01880  -0.01357  -0.00944
  Beta virt. eigenvalues --   -0.00754  -0.00236   0.00084   0.00268   0.00537

 Mulliken charges and spin densities:
               1          2
     1  Na   1.191153   0.309385
     2  Na   0.089935   0.378351
     3  Na  -0.066397  -0.100866
     4  Na   0.227521   0.193610
     5  Na  -1.326894   0.203897
     6  Na   0.020528  -0.101111
     7  Na  -0.135846   0.116734
 Sum of Mulliken charges =  -0.00000   1.00000

 Dipole moment (field-independent basis, Debye):
    X=             -0.1339    Y=              0.4458    Z=              0.8453  Tot=              0.9650
 Quadrupole moment (field-independent basis, Debye-Ang):
   XX=            -72.5266   YY=            -69.0325   ZZ=            -63.4776
   XY=              6.7403   XZ=             -2.9880   YZ=              0.8800

 Normal termination of Gaussian 16 at Fri Dec  8 17:11:55 2023.
