 Gaussian 16, Revision B.01,
 Gaussian 16:  ES64L-G16RevB.01 20-Dec-2017

 -------------------------
 #P B3LYP/6-311+g(d) force
 -------------------------

 -----
 DPGEN
 -----
 Symbolic Z-matrix:
 Charge =  0 Multiplicity = 2

                         Standard orientation:
 ---------------------------------------------------------------------
 Center     Atomic      Atomic             Coordinates (Angstroms)
 Number     Number       Type             X           Y           Z
 ---------------------------------------------------------------------
      1         11           0        2.250757    0.023939   -1.690485
      2         11           0        0.016497    2.963967   -0.697410
      3         11           0        1.196268   -0.530830    1.825101
      4         11           0        4.503192   -0.741854    0.562849
      5         11           0       -0.815278   -1.710935   -0.990541
      6         11           0       -2.456457    1.098017    1.313902
      7         11           0       -4.694978   -1.102304   -0.323415
 ---------------------------------------------------------------------

 SCF Done:  E(UB3LYP) =  -1136.10935133     A.U. after   27 cycles

 The electronic state is 2-A.
 Alpha  occ. eigenvalues --  -38.45820 -38.45159 -38.44478 -38.44360 -38.44315
 Alpha  occ. eigenvalues --  -38.44150 -38.42944  -2.21614  -2.20950  -2.20289
 Alpha  occ. eigenvalues --   -2.20217  -2.20071  -2.19953  -2.18701  -1.15320
 Alpha  occ. eigenvalues --   -1.15264  -1.15211  -1.14654  -1.14600  -1.14541
 Alpha  occ. eigenvalues --   -1.13987  -1.13942  -1.13923  -1.13894  -1.13862
 Alpha  occ. eigenvalues --   -1.13818  -1.13750  -1.13742  -1.13701  -1.13649
 Alpha  occ. eigenvalues --   -1.13619  -1.13548  -1.12390  -1.12369  -1.12345
 Alpha  occ. eigenvalues --   -0.17453  -0.13807  -0.11136  -0.10927
 Alpha virt. eigenvalues --   -0.08067  -0.05212  -0.04659  -0.03431  -0.03098
 Alpha virt. eigenvalues --   -0.02630  -0.02398  -0.01624  -0.01331  -0.00622
 Alpha virt. eigenvalues --   -0.00102   0.00101   0.00155   0.00423   0.00637

  Beta  occ. eigenvalues --  -38.45775 -38.45096 -38.44457 -38.44317 -38.44312
  Beta  occ. eigenvalues --  -38.44120 -38.42961  -2.21531  -2.20837  -2.20251
  Beta  occ. eigenvalues --   -2.20139  -2.20067  -2.19898  -2.18735  -1.15255
  Beta  occ. eigenvalues --   -1.15209  -1.15144  -1.14577  -1.14524  -1.14445
  Beta  occ. eigenvalues --   -1.13958  -1.13914  -1.13891  -1.13832  -1.13809
  Beta  occ. eigenvalues --   -1.13767  -1.13746  -1.13735  -1.13698  -1.13608
  Beta  occ. eigenvalues --   -1.13583  -1.13509  -1.12415  -1.12381  -1.12367
  Beta  occ. eigenvalues --   -0.16739  -0.13582  -0.10838
  Beta virt. eigenvalues --   -0.07862  -0.07376  -0.04784  -0.04286  -0.03219
  Beta virt. eigenvalues --   -0.02920  -0.02037  -0.01880  -0.01333  -0.01041
  Beta virt. eigenvalues --   -0.00544  -0.00080   0.00200   0.00296   0.00511

 Mulliken charges and spin densities:
               1          2
     1  Na   0.214296   0.172549
     2  Na  -0.231488  -0.095390
     3  Na  -0.049142   0.364036
     4  Na   0.151580   0.049741
     5  Na  -0.254417   0.325145
     6  Na  -0.024016   0.178592
     7  Na   0.193188   0.005326
 Sum of Mulliken charges =  -0.00000   1.00000

 Dipole moment (field-independent basis, Debye):
    X=              0.5833    Y=             -0.3435    Z=              0.0484  Tot=              0.6787
 Quadrupole moment (field-independent basis, Debye-Ang):
   XX=            -54.8071   YY=            -74.9634   ZZ=            -69.8669
   XY=             -0.3381   XZ=             -2.4554   YZ=             -1.3632

 Normal termination of Gaussian 16 at Sun Dec  3 13:34:12 2023.
