 Gaussian 16, Revision B.01,
 Gaussian 16:  ES64L-G16RevB.01 20-Dec-2017

 -------------------------
 #P B3LYP/6-311+g(d) force
 -------------------------

 -----
 DPGEN
 -----
 Symbolic Z-matrix:
 Charge =  0 Multiplicity = 2

                         Standard orientation:
 ---------------------------------------------------------------------
 Center     Atomic      Atomic             Coordinates (Angstroms)
 Number     Number       Type             X           Y           Z
 ---------------------------------------------------------------------
      1         11           0       -4.308772   -0.442235    0.838365
      2         11           0        3.637945    2.055455    0.200508
      3         11           0        0.231807    3.622564   -0.266972
      4         11           0       -1.842406   -2.971918   -0.331148
      5         11           0        1.201000   -3.423881   -0.415260
      6         11           0        3.984659   -1.192834    0.400551
      7         11           0       -2.904232    2.352849   -0.426043
 ---------------------------------------------------------------------

 SCF Done:  E(UB3LYP) =  -1136.11033689     A.U. after   21 cycles

 The electronic state is 2-A.
 Alpha  occ. eigenvalues --  -38.44908 -38.44893 -38.44882 -38.44847 -38.44126
 Alpha  occ. eigenvalues --  -38.44092 -38.44022  -2.20706  -2.20675  -2.20655
 Alpha  occ. eigenvalues --   -2.20637  -2.19937  -2.19884  -2.19841  -1.14400
 Alpha  occ. eigenvalues --   -1.14374  -1.14365  -1.14357  -1.14350  -1.14343
 Alpha  occ. eigenvalues --   -1.14331  -1.14324  -1.14308  -1.14300  -1.14282
 Alpha  occ. eigenvalues --   -1.14237  -1.13582  -1.13578  -1.13567  -1.13541
 Alpha  occ. eigenvalues --   -1.13537  -1.13511  -1.13509  -1.13491  -1.13473
 Alpha  occ. eigenvalues --   -0.15656  -0.14068  -0.13657  -0.11037
 Alpha virt. eigenvalues --   -0.07706  -0.04696  -0.04322  -0.03633  -0.03599
 Alpha virt. eigenvalues --   -0.02429  -0.02131  -0.01905  -0.01418  -0.00830
 Alpha virt. eigenvalues --   -0.00507  -0.00047   0.00020   0.00379   0.00639

  Beta  occ. eigenvalues --  -38.44884 -38.44881 -38.44872 -38.44814 -38.44058
  Beta  occ. eigenvalues --  -38.44031 -38.43990  -2.20669  -2.20662  -2.20642
  Beta  occ. eigenvalues --   -2.20580  -2.19810  -2.19784  -2.19773  -1.14363
  Beta  occ. eigenvalues --   -1.14355  -1.14354  -1.14345  -1.14336  -1.14324
  Beta  occ. eigenvalues --   -1.14294  -1.14288  -1.14266  -1.14263  -1.14247
  Beta  occ. eigenvalues --   -1.14192  -1.13496  -1.13492  -1.13484  -1.13465
  Beta  occ. eigenvalues --   -1.13465  -1.13462  -1.13455  -1.13433  -1.13430
  Beta  occ. eigenvalues --   -0.15096  -0.13317  -0.12839
  Beta virt. eigenvalues --   -0.07970  -0.07859  -0.04169  -0.03809  -0.03380
  Beta virt. eigenvalues --   -0.03361  -0.02198  -0.01941  -0.01781  -0.01247
  Beta virt. eigenvalues --   -0.00484  -0.00239   0.00215   0.00252   0.00337

 Mulliken charges and spin densities:
               1          2
     1  Na   0.008076   0.299443
     2  Na   0.015033   0.072220
     3  Na   0.109391   0.295767
     4  Na  -0.325555   0.115064
     5  Na   0.458131   0.053121
     6  Na   0.109590   0.144389
     7  Na  -0.374666   0.019995
 Sum of Mulliken charges =  -0.00000   1.00000

 Dipole moment (field-independent basis, Debye):
    X=              0.2906    Y=             -0.1233    Z=              0.1040  Tot=              0.3324
 Quadrupole moment (field-independent basis, Debye-Ang):
   XX=            -60.6138   YY=            -66.3772   ZZ=            -72.9059
   XY=              0.5199   XZ=              0.1539   YZ=             -0.7585

 Normal termination of Gaussian 16 at Sun Dec  3 13:37:47 2023.
