 Gaussian 16, Revision B.01,
 Gaussian 16:  ES64L-G16RevB.01 20-Dec-2017

 -------------------------
 #P B3LYP/6-311+g(d) force
 -------------------------

 -----
 DPGEN
 -----
 Symbolic Z-matrix:
 Charge =  0 Multiplicity = 2

                         Standard orientation:
 ---------------------------------------------------------------------
 Center     Atomic      Atomic             Coordinates (Angstroms)
 Number     Number       Type             X           Y           Z
 ---------------------------------------------------------------------
      1         11           0       -2.973719   -1.812217   -0.034904
      2         11           0       -2.497675    2.031771   -0.132109
      3         11           0        0.310335    0.046674    1.893288
      4         11           0        0.860737   -2.400077    0.332365
      5         11           0        0.875604    2.537044    0.148391
      6         11           0        3.322078   -0.137612   -0.376089
      7         11           0        0.102640   -0.265583   -1.830941
 ---------------------------------------------------------------------

 SCF Done:  E(UB3LYP) =  -1136.13090074     A.U. after   21 cycles

 The electronic state is 2-A.
 Alpha  occ. eigenvalues --  -38.44355 -38.44239 -38.43988 -38.43722 -38.43627
 Alpha  occ. eigenvalues --  -38.43305 -38.42992  -2.20188  -2.19993  -2.19779
 Alpha  occ. eigenvalues --   -2.19646  -2.19596  -2.19243  -2.18887  -1.13854
 Alpha  occ. eigenvalues --   -1.13845  -1.13832  -1.13673  -1.13650  -1.13633
 Alpha  occ. eigenvalues --   -1.13458  -1.13438  -1.13419  -1.13374  -1.13338
 Alpha  occ. eigenvalues --   -1.13296  -1.13264  -1.13240  -1.13177  -1.12920
 Alpha  occ. eigenvalues --   -1.12905  -1.12814  -1.12589  -1.12549  -1.12493
 Alpha  occ. eigenvalues --   -0.18697  -0.12942  -0.12256  -0.10879
 Alpha virt. eigenvalues --   -0.05986  -0.05424  -0.04153  -0.03147  -0.02870
 Alpha virt. eigenvalues --   -0.02625  -0.01936  -0.01169  -0.00295  -0.00171
 Alpha virt. eigenvalues --   -0.00043   0.00299   0.00720   0.00832   0.00894

  Beta  occ. eigenvalues --  -38.44343 -38.44244 -38.43990 -38.43650 -38.43534
  Beta  occ. eigenvalues --  -38.43286 -38.42982  -2.20170  -2.20004  -2.19783
  Beta  occ. eigenvalues --   -2.19515  -2.19427  -2.19213  -2.18873  -1.13837
  Beta  occ. eigenvalues --   -1.13828  -1.13811  -1.13673  -1.13657  -1.13641
  Beta  occ. eigenvalues --   -1.13451  -1.13441  -1.13423  -1.13288  -1.13228
  Beta  occ. eigenvalues --   -1.13205  -1.13147  -1.13139  -1.13060  -1.12894
  Beta  occ. eigenvalues --   -1.12834  -1.12800  -1.12573  -1.12515  -1.12488
  Beta  occ. eigenvalues --   -0.17933  -0.12742  -0.12008
  Beta virt. eigenvalues --   -0.06919  -0.05903  -0.05417  -0.04142  -0.02450
  Beta virt. eigenvalues --   -0.02083  -0.01858  -0.01509  -0.01133  -0.00336
  Beta virt. eigenvalues --   -0.00180   0.00088   0.00326   0.00779   0.00825

 Mulliken charges and spin densities:
               1          2
     1  Na  -0.097644  -0.144522
     2  Na  -0.136304  -0.127987
     3  Na  -0.005699   0.601054
     4  Na   0.246377  -0.085218
     5  Na   0.074294  -0.074302
     6  Na   0.278769   0.044972
     7  Na  -0.359793   0.786003
 Sum of Mulliken charges =  -0.00000   1.00000

 Dipole moment (field-independent basis, Debye):
    X=             -0.0357    Y=             -0.0359    Z=             -0.1581  Tot=              0.1660
 Quadrupole moment (field-independent basis, Debye-Ang):
   XX=            -52.1886   YY=            -66.8439   ZZ=            -73.9140
   XY=              0.1918   XZ=             -0.7820   YZ=             -0.6498

 Normal termination of Gaussian 16 at Fri Dec  8 01:44:55 2023.
