 Gaussian 16, Revision B.01,
 Gaussian 16:  ES64L-G16RevB.01 20-Dec-2017

 -------------------------
 #P B3LYP/6-311+g(d) force
 -------------------------

 -----
 DPGEN
 -----
 Symbolic Z-matrix:
 Charge =  0 Multiplicity = 2

                         Standard orientation:
 ---------------------------------------------------------------------
 Center     Atomic      Atomic             Coordinates (Angstroms)
 Number     Number       Type             X           Y           Z
 ---------------------------------------------------------------------
      1         11           0       -4.084029   -0.879418   -0.137315
      2         11           0        3.049623   -1.998739    0.299439
      3         11           0       -0.050028   -0.557107    1.892409
      4         11           0       -0.682472   -1.381325   -1.687696
      5         11           0        3.344283    1.153171   -0.216658
      6         11           0        0.620566    2.032529   -0.758069
      7         11           0       -2.197944    1.630889    0.607890
 ---------------------------------------------------------------------

 SCF Done:  E(UB3LYP) =  -1136.11072904     A.U. after   29 cycles

 The electronic state is 2-A.
 Alpha  occ. eigenvalues --  -38.45384 -38.45133 -38.44980 -38.44493 -38.43889
 Alpha  occ. eigenvalues --  -38.43820 -38.42627  -2.21148  -2.21005  -2.20778
 Alpha  occ. eigenvalues --   -2.20346  -2.19731  -2.19686  -2.18547  -1.14851
 Alpha  occ. eigenvalues --   -1.14815  -1.14789  -1.14719  -1.14643  -1.14631
 Alpha  occ. eigenvalues --   -1.14450  -1.14432  -1.14371  -1.14025  -1.13981
 Alpha  occ. eigenvalues --   -1.13957  -1.13410  -1.13392  -1.13372  -1.13358
 Alpha  occ. eigenvalues --   -1.13348  -1.13331  -1.12263  -1.12196  -1.12175
 Alpha  occ. eigenvalues --   -0.18233  -0.14109  -0.11500  -0.10860
 Alpha virt. eigenvalues --   -0.07658  -0.05641  -0.03860  -0.03394  -0.03296
 Alpha virt. eigenvalues --   -0.02619  -0.02293  -0.01711  -0.00489  -0.00437
 Alpha virt. eigenvalues --   -0.00136   0.00147   0.00328   0.00516   0.00684

  Beta  occ. eigenvalues --  -38.45417 -38.45106 -38.44896 -38.44399 -38.43901
  Beta  occ. eigenvalues --  -38.43802 -38.42624  -2.21212  -2.20955  -2.20623
  Beta  occ. eigenvalues --   -2.20173  -2.19711  -2.19697  -2.18544  -1.14894
  Beta  occ. eigenvalues --   -1.14852  -1.14826  -1.14687  -1.14609  -1.14591
  Beta  occ. eigenvalues --   -1.14344  -1.14321  -1.14261  -1.13909  -1.13863
  Beta  occ. eigenvalues --   -1.13822  -1.13407  -1.13393  -1.13356  -1.13354
  Beta  occ. eigenvalues --   -1.13340  -1.13330  -1.12255  -1.12197  -1.12154
  Beta  occ. eigenvalues --   -0.17547  -0.14091  -0.11114
  Beta virt. eigenvalues --   -0.07577  -0.06999  -0.05479  -0.03456  -0.03121
  Beta virt. eigenvalues --   -0.02941  -0.02060  -0.01719  -0.01215  -0.00504
  Beta virt. eigenvalues --   -0.00308  -0.00082   0.00179   0.00475   0.00613

 Mulliken charges and spin densities:
               1          2
     1  Na   0.078260  -0.304364
     2  Na   0.210040   0.008160
     3  Na  -0.331134   0.427561
     4  Na  -0.345790   0.488206
     5  Na  -0.221320  -0.138927
     6  Na  -0.079939   0.174368
     7  Na   0.689882   0.344995
 Sum of Mulliken charges =  -0.00000   1.00000

 Dipole moment (field-independent basis, Debye):
    X=             -0.6083    Y=             -0.3629    Z=              0.1630  Tot=              0.7269
 Quadrupole moment (field-independent basis, Debye-Ang):
   XX=            -48.3498   YY=            -74.3522   ZZ=            -74.0171
   XY=             -0.0145   XZ=             -1.3127   YZ=              0.5482

 Normal termination of Gaussian 16 at Thu Dec  7 11:53:02 2023.
