 Gaussian 16, Revision B.01,
 Gaussian 16:  ES64L-G16RevB.01 20-Dec-2017

 -------------------------
 #P B3LYP/6-311+g(d) force
 -------------------------

 -----
 DPGEN
 -----
 Symbolic Z-matrix:
 Charge =  0 Multiplicity = 2

                         Standard orientation:
 ---------------------------------------------------------------------
 Center     Atomic      Atomic             Coordinates (Angstroms)
 Number     Number       Type             X           Y           Z
 ---------------------------------------------------------------------
      1         11           0       -1.678989   -2.127827    0.748574
      2         11           0       -3.454135    0.278744   -0.237970
      3         11           0       -0.486818    3.020940   -0.372975
      4         11           0       -0.162288   -0.635129   -1.272229
      5         11           0        2.998138    1.296960   -0.118193
      6         11           0        0.665588    0.857582    1.550576
      7         11           0        2.118505   -2.691270   -0.297785
 ---------------------------------------------------------------------

 SCF Done:  E(UB3LYP) =  -1136.12206665     A.U. after   24 cycles

 The electronic state is 2-A.
 Alpha  occ. eigenvalues --  -38.44962 -38.44394 -38.43919 -38.43836 -38.43608
 Alpha  occ. eigenvalues --  -38.43221 -38.43022  -2.20799  -2.20212  -2.19748
 Alpha  occ. eigenvalues --   -2.19640  -2.19521  -2.19208  -2.19033  -1.14553
 Alpha  occ. eigenvalues --   -1.14443  -1.14399  -1.13901  -1.13877  -1.13846
 Alpha  occ. eigenvalues --   -1.13466  -1.13407  -1.13360  -1.13327  -1.13296
 Alpha  occ. eigenvalues --   -1.13282  -1.13278  -1.13154  -1.13127  -1.12899
 Alpha  occ. eigenvalues --   -1.12861  -1.12807  -1.12725  -1.12674  -1.12618
 Alpha  occ. eigenvalues --   -0.18453  -0.13421  -0.12546  -0.09741
 Alpha virt. eigenvalues --   -0.06259  -0.05475  -0.04831  -0.03215  -0.02608
 Alpha virt. eigenvalues --   -0.01922  -0.01613  -0.01464  -0.00742  -0.00410
 Alpha virt. eigenvalues --    0.00023   0.00283   0.00640   0.00728   0.00825

  Beta  occ. eigenvalues --  -38.44954 -38.44393 -38.43902 -38.43825 -38.43581
  Beta  occ. eigenvalues --  -38.43163 -38.42980  -2.20789  -2.20212  -2.19720
  Beta  occ. eigenvalues --   -2.19621  -2.19472  -2.19102  -2.18960  -1.14536
  Beta  occ. eigenvalues --   -1.14422  -1.14395  -1.13901  -1.13865  -1.13841
  Beta  occ. eigenvalues --   -1.13443  -1.13378  -1.13336  -1.13307  -1.13271
  Beta  occ. eigenvalues --   -1.13267  -1.13253  -1.13106  -1.13094  -1.12826
  Beta  occ. eigenvalues --   -1.12784  -1.12732  -1.12656  -1.12624  -1.12562
  Beta  occ. eigenvalues --   -0.17850  -0.13179  -0.12241
  Beta virt. eigenvalues --   -0.06244  -0.06093  -0.05316  -0.04693  -0.02490
  Beta virt. eigenvalues --   -0.02023  -0.01872  -0.01432  -0.00791  -0.00719
  Beta virt. eigenvalues --   -0.00306   0.00178   0.00363   0.00676   0.00793

 Mulliken charges and spin densities:
               1          2
     1  Na   0.076772   0.199578
     2  Na   0.120235  -0.045825
     3  Na  -0.233568   0.083106
     4  Na  -0.426150   0.507365
     5  Na   0.062972  -0.037098
     6  Na   0.275417   0.288936
     7  Na   0.124322   0.003938
 Sum of Mulliken charges =  -0.00000   1.00000

 Dipole moment (field-independent basis, Debye):
    X=              0.2741    Y=              0.3219    Z=             -0.0613  Tot=              0.4272
 Quadrupole moment (field-independent basis, Debye-Ang):
   XX=            -51.9147   YY=            -61.5303   ZZ=            -77.7495
   XY=             -0.9292   XZ=             -1.2464   YZ=             -2.8932

 Normal termination of Gaussian 16 at Tue Nov 28 20:04:19 2023.
