 Gaussian 16, Revision B.01,
 Gaussian 16:  ES64L-G16RevB.01 20-Dec-2017

 -------------------------
 #P B3LYP/6-311+g(d) force
 -------------------------

 -----
 DPGEN
 -----
 Symbolic Z-matrix:
 Charge =  0 Multiplicity = 2

                         Standard orientation:
 ---------------------------------------------------------------------
 Center     Atomic      Atomic             Coordinates (Angstroms)
 Number     Number       Type             X           Y           Z
 ---------------------------------------------------------------------
      1         11           0        1.949301   -0.270732    1.512775
      2         11           0       -0.686002    0.326225   -1.297084
      3         11           0       -3.379173   -0.024185   -0.355237
      4         11           0       -1.158496   -0.698771    1.355013
      5         11           0        0.203044    2.208349    0.723424
      6         11           0        0.879884   -2.126209   -0.482478
      7         11           0        2.191442    0.585324   -1.456413
 ---------------------------------------------------------------------

 SCF Done:  E(UB3LYP) =  -1136.10084992     A.U. after   25 cycles

 The electronic state is 2-A.
 Alpha  occ. eigenvalues --  -38.44764 -38.44122 -38.44083 -38.43644 -38.43513
 Alpha  occ. eigenvalues --  -38.42628 -38.42562  -2.20683  -2.20155  -2.20143
 Alpha  occ. eigenvalues --   -2.19912  -2.19656  -2.18629  -2.18612  -1.14465
 Alpha  occ. eigenvalues --   -1.14385  -1.14257  -1.13977  -1.13906  -1.13866
 Alpha  occ. eigenvalues --   -1.13783  -1.13718  -1.13716  -1.13689  -1.13530
 Alpha  occ. eigenvalues --   -1.13498  -1.13317  -1.13268  -1.13232  -1.12346
 Alpha  occ. eigenvalues --   -1.12318  -1.12283  -1.12259  -1.12212  -1.12207
 Alpha  occ. eigenvalues --   -0.20682  -0.13941  -0.12523  -0.11633
 Alpha virt. eigenvalues --   -0.06015  -0.04277  -0.03541  -0.03477  -0.03004
 Alpha virt. eigenvalues --   -0.02713  -0.01709  -0.00620  -0.00276   0.00282
 Alpha virt. eigenvalues --    0.00555   0.00593   0.00901   0.00995   0.01033

  Beta  occ. eigenvalues --  -38.44759 -38.44072 -38.44030 -38.43589 -38.43468
  Beta  occ. eigenvalues --  -38.42604 -38.42544  -2.20676  -2.20063  -2.20052
  Beta  occ. eigenvalues --   -2.19816  -2.19578  -2.18590  -2.18585  -1.14455
  Beta  occ. eigenvalues --   -1.14370  -1.14253  -1.13908  -1.13840  -1.13779
  Beta  occ. eigenvalues --   -1.13710  -1.13656  -1.13650  -1.13624  -1.13456
  Beta  occ. eigenvalues --   -1.13429  -1.13258  -1.13189  -1.13174  -1.12325
  Beta  occ. eigenvalues --   -1.12306  -1.12224  -1.12216  -1.12184  -1.12175
  Beta  occ. eigenvalues --   -0.19817  -0.13764  -0.11390
  Beta virt. eigenvalues --   -0.08101  -0.05899  -0.03792  -0.03414  -0.03198
  Beta virt. eigenvalues --   -0.02216  -0.01829  -0.01559  -0.00307  -0.00199
  Beta virt. eigenvalues --    0.00317   0.00612   0.00727   0.00901   0.01004

 Mulliken charges and spin densities:
               1          2
     1  Na   0.845514   0.234423
     2  Na   0.158874   0.324445
     3  Na  -0.219898   0.086652
     4  Na   0.252680   0.139128
     5  Na  -1.136608   0.162973
     6  Na  -0.939001   0.298454
     7  Na   1.038439  -0.246076
 Sum of Mulliken charges =  -0.00000   1.00000

 Dipole moment (field-independent basis, Debye):
    X=             -0.2498    Y=              0.1367    Z=              0.0346  Tot=              0.2869
 Quadrupole moment (field-independent basis, Debye-Ang):
   XX=            -53.2169   YY=            -75.7909   ZZ=            -64.9029
   XY=              0.1009   XZ=              0.1490   YZ=              1.3968

 Normal termination of Gaussian 16 at Thu Dec  7 06:25:40 2023.
