 Gaussian 16, Revision B.01,
 Gaussian 16:  ES64L-G16RevB.01 20-Dec-2017

 -------------------------
 #P B3LYP/6-311+g(d) force
 -------------------------

 -----
 DPGEN
 -----
 Symbolic Z-matrix:
 Charge =  0 Multiplicity = 2

                         Standard orientation:
 ---------------------------------------------------------------------
 Center     Atomic      Atomic             Coordinates (Angstroms)
 Number     Number       Type             X           Y           Z
 ---------------------------------------------------------------------
      1         11           0       -1.109512    0.288327    1.221797
      2         11           0        2.442224    0.722544    0.845215
      3         11           0        0.622773   -2.579795   -0.043430
      4         11           0       -3.734089    1.080080   -0.622390
      5         11           0       -3.072254   -2.023630   -0.229795
      6         11           0        4.844248   -0.421420   -0.765635
      7         11           0        0.006609    2.933894   -0.405763
 ---------------------------------------------------------------------

 SCF Done:  E(UB3LYP) =  -1136.12472570     A.U. after   19 cycles

 The electronic state is 2-A.
 Alpha  occ. eigenvalues --  -38.44343 -38.44219 -38.43986 -38.43867 -38.43732
 Alpha  occ. eigenvalues --  -38.43606 -38.43505  -2.20170  -2.20076  -2.19770
 Alpha  occ. eigenvalues --   -2.19714  -2.19679  -2.19413  -2.19372  -1.13838
 Alpha  occ. eigenvalues --   -1.13797  -1.13780  -1.13756  -1.13735  -1.13692
 Alpha  occ. eigenvalues --   -1.13450  -1.13447  -1.13409  -1.13391  -1.13378
 Alpha  occ. eigenvalues --   -1.13376  -1.13343  -1.13335  -1.13287  -1.13088
 Alpha  occ. eigenvalues --   -1.13074  -1.13071  -1.13055  -1.13035  -1.12995
 Alpha  occ. eigenvalues --   -0.17398  -0.14233  -0.11967  -0.11055
 Alpha virt. eigenvalues --   -0.05786  -0.05467  -0.04749  -0.03714  -0.02482
 Alpha virt. eigenvalues --   -0.02259  -0.01690  -0.01636  -0.00876  -0.00505
 Alpha virt. eigenvalues --   -0.00314   0.00130   0.00482   0.00565   0.00584

  Beta  occ. eigenvalues --  -38.44245 -38.44163 -38.43954 -38.43859 -38.43708
  Beta  occ. eigenvalues --  -38.43605 -38.43496  -2.19989  -2.19972  -2.19715
  Beta  occ. eigenvalues --   -2.19704  -2.19638  -2.19412  -2.19364  -1.13716
  Beta  occ. eigenvalues --   -1.13692  -1.13673  -1.13665  -1.13659  -1.13617
  Beta  occ. eigenvalues --   -1.13414  -1.13407  -1.13395  -1.13385  -1.13353
  Beta  occ. eigenvalues --   -1.13343  -1.13295  -1.13288  -1.13262  -1.13088
  Beta  occ. eigenvalues --   -1.13070  -1.13059  -1.13048  -1.13023  -1.12962
  Beta  occ. eigenvalues --   -0.16858  -0.13343  -0.11700
  Beta virt. eigenvalues --   -0.07583  -0.05650  -0.05397  -0.04041  -0.03559
  Beta virt. eigenvalues --   -0.02153  -0.01906  -0.01378  -0.01106  -0.00748
  Beta virt. eigenvalues --   -0.00455  -0.00099   0.00345   0.00567   0.00607

 Mulliken charges and spin densities:
               1          2
     1  Na   0.319124  -0.069793
     2  Na  -0.365037   0.060859
     3  Na  -0.229454   0.088431
     4  Na   0.022478   0.382433
     5  Na   0.111309   0.106550
     6  Na   0.254386   0.444512
     7  Na  -0.112806  -0.012992
 Sum of Mulliken charges =  -0.00000   1.00000

 Dipole moment (field-independent basis, Debye):
    X=             -0.5660    Y=             -0.0869    Z=             -0.7480  Tot=              0.9420
 Quadrupole moment (field-independent basis, Debye-Ang):
   XX=            -64.1620   YY=            -66.7026   ZZ=            -67.4268
   XY=             -0.7083   XZ=             -0.7280   YZ=             -0.3586

 Normal termination of Gaussian 16 at Wed Nov 29 03:42:52 2023.
