 Gaussian 16, Revision B.01,
 Gaussian 16:  ES64L-G16RevB.01 20-Dec-2017

 -------------------------
 #P B3LYP/6-311+g(d) force
 -------------------------

 -----
 DPGEN
 -----
 Symbolic Z-matrix:
 Charge =  0 Multiplicity = 2

                         Standard orientation:
 ---------------------------------------------------------------------
 Center     Atomic      Atomic             Coordinates (Angstroms)
 Number     Number       Type             X           Y           Z
 ---------------------------------------------------------------------
      1         11           0       -3.514335   -1.417573   -0.314920
      2         11           0       -1.684827    1.588960    1.124982
      3         11           0       -0.129770   -1.994909   -0.731848
      4         11           0        2.144491    1.838241    0.119280
      5         11           0        0.909039   -0.895732    2.073923
      6         11           0       -0.761400    2.202854   -1.435012
      7         11           0        3.036802   -1.321840   -0.836405
 ---------------------------------------------------------------------

 SCF Done:  E(UB3LYP) =  -1136.12429217     A.U. after   19 cycles

 The electronic state is 2-A.
 Alpha  occ. eigenvalues --  -38.44350 -38.44100 -38.44096 -38.43997 -38.43885
 Alpha  occ. eigenvalues --  -38.43882 -38.43380  -2.20115  -2.19990  -2.19946
 Alpha  occ. eigenvalues --   -2.19839  -2.19777  -2.19770  -2.19258  -1.13896
 Alpha  occ. eigenvalues --   -1.13789  -1.13772  -1.13753  -1.13639  -1.13627
 Alpha  occ. eigenvalues --   -1.13607  -1.13581  -1.13579  -1.13535  -1.13513
 Alpha  occ. eigenvalues --   -1.13467  -1.13463  -1.13409  -1.13392  -1.13372
 Alpha  occ. eigenvalues --   -1.13363  -1.13348  -1.12958  -1.12925  -1.12868
 Alpha  occ. eigenvalues --   -0.18210  -0.13291  -0.12243  -0.10867
 Alpha virt. eigenvalues --   -0.06207  -0.05524  -0.04144  -0.03668  -0.02966
 Alpha virt. eigenvalues --   -0.02493  -0.01879  -0.01210  -0.00340  -0.00269
 Alpha virt. eigenvalues --    0.00132   0.00312   0.00445   0.00691   0.00724

  Beta  occ. eigenvalues --  -38.44349 -38.44082 -38.44074 -38.43988 -38.43859
  Beta  occ. eigenvalues --  -38.43796 -38.43365  -2.20114  -2.19961  -2.19905
  Beta  occ. eigenvalues --   -2.19828  -2.19727  -2.19613  -2.19232  -1.13868
  Beta  occ. eigenvalues --   -1.13783  -1.13772  -1.13754  -1.13605  -1.13596
  Beta  occ. eigenvalues --   -1.13583  -1.13561  -1.13546  -1.13517  -1.13482
  Beta  occ. eigenvalues --   -1.13458  -1.13362  -1.13356  -1.13333  -1.13319
  Beta  occ. eigenvalues --   -1.13295  -1.13253  -1.12923  -1.12902  -1.12851
  Beta  occ. eigenvalues --   -0.17515  -0.13124  -0.12055
  Beta virt. eigenvalues --   -0.07034  -0.06093  -0.05349  -0.03667  -0.03375
  Beta virt. eigenvalues --   -0.02356  -0.01858  -0.01507  -0.01127  -0.00291
  Beta virt. eigenvalues --   -0.00053   0.00191   0.00371   0.00611   0.00739

 Mulliken charges and spin densities:
               1          2
     1  Na   0.084026  -0.104415
     2  Na   0.194810   0.106073
     3  Na  -0.388738   0.311911
     4  Na  -0.079028   0.310581
     5  Na  -0.176133   0.313841
     6  Na   0.048042   0.048601
     7  Na   0.317021   0.013408
 Sum of Mulliken charges =  -0.00000   1.00000

 Dipole moment (field-independent basis, Debye):
    X=              0.0956    Y=             -0.0068    Z=             -0.0538  Tot=              0.1099
 Quadrupole moment (field-independent basis, Debye-Ang):
   XX=            -54.5478   YY=            -71.4998   ZZ=            -69.6899
   XY=             -0.1824   XZ=             -0.8986   YZ=              0.5263

 Normal termination of Gaussian 16 at Mon Dec  4 01:24:44 2023.
