 Gaussian 16, Revision B.01,
 Gaussian 16:  ES64L-G16RevB.01 20-Dec-2017

 -------------------------
 #P B3LYP/6-311+g(d) force
 -------------------------

 -----
 DPGEN
 -----
 Symbolic Z-matrix:
 Charge =  0 Multiplicity = 2

                         Standard orientation:
 ---------------------------------------------------------------------
 Center     Atomic      Atomic             Coordinates (Angstroms)
 Number     Number       Type             X           Y           Z
 ---------------------------------------------------------------------
      1         11           0       -0.366423   -0.067932    1.748898
      2         11           0        3.207595   -1.544393    1.001480
      3         11           0       -3.828059    0.516301    0.789413
      4         11           0        1.430647   -0.735683   -1.581849
      5         11           0       -2.020203   -1.864615   -0.890918
      6         11           0        2.451760    2.232104   -0.006112
      7         11           0       -0.875316    1.464218   -1.060912
 ---------------------------------------------------------------------

 SCF Done:  E(UB3LYP) =  -1136.12329041     A.U. after   26 cycles

 The electronic state is 2-A.
 Alpha  occ. eigenvalues --  -38.45155 -38.45031 -38.43969 -38.43590 -38.43572
 Alpha  occ. eigenvalues --  -38.43551 -38.42744  -2.20972  -2.20883  -2.19823
 Alpha  occ. eigenvalues --   -2.19479  -2.19396  -2.19376  -2.18687  -1.14639
 Alpha  occ. eigenvalues --   -1.14623  -1.14609  -1.14594  -1.14528  -1.14479
 Alpha  occ. eigenvalues --   -1.13500  -1.13484  -1.13446  -1.13192  -1.13167
 Alpha  occ. eigenvalues --   -1.13107  -1.13055  -1.13054  -1.13040  -1.13021
 Alpha  occ. eigenvalues --   -1.13020  -1.13009  -1.12413  -1.12361  -1.12264
 Alpha  occ. eigenvalues --   -0.18551  -0.14052  -0.11344  -0.10693
 Alpha virt. eigenvalues --   -0.06796  -0.05426  -0.04653  -0.03009  -0.02698
 Alpha virt. eigenvalues --   -0.02385  -0.02215  -0.01263  -0.00899  -0.00141
 Alpha virt. eigenvalues --    0.00129   0.00203   0.00331   0.00540   0.00695

  Beta  occ. eigenvalues --  -38.45130 -38.44987 -38.43932 -38.43578 -38.43571
  Beta  occ. eigenvalues --  -38.43507 -38.42715  -2.20927  -2.20803  -2.19759
  Beta  occ. eigenvalues --   -2.19403  -2.19377  -2.19372  -2.18639  -1.14599
  Beta  occ. eigenvalues --   -1.14591  -1.14573  -1.14542  -1.14473  -1.14415
  Beta  occ. eigenvalues --   -1.13455  -1.13432  -1.13388  -1.13132  -1.13127
  Beta  occ. eigenvalues --   -1.13070  -1.13042  -1.13030  -1.13021  -1.13012
  Beta  occ. eigenvalues --   -1.13003  -1.12989  -1.12386  -1.12285  -1.12238
  Beta  occ. eigenvalues --   -0.17781  -0.13839  -0.10527
  Beta virt. eigenvalues --   -0.07454  -0.06555  -0.05315  -0.04079  -0.02733
  Beta virt. eigenvalues --   -0.02438  -0.01863  -0.01569  -0.01100  -0.00560
  Beta virt. eigenvalues --   -0.00071   0.00153   0.00232   0.00426   0.00626

 Mulliken charges and spin densities:
               1          2
     1  Na  -0.463396   0.354792
     2  Na  -0.112515   0.150398
     3  Na   0.652579   0.154413
     4  Na   0.433605  -0.067400
     5  Na  -0.152552   0.181796
     6  Na  -0.063732   0.029759
     7  Na  -0.293989   0.196242
 Sum of Mulliken charges =  -0.00000   1.00000

 Dipole moment (field-independent basis, Debye):
    X=             -1.2264    Y=              0.2562    Z=              0.4925  Tot=              1.3462
 Quadrupole moment (field-independent basis, Debye-Ang):
   XX=            -48.0620   YY=            -76.7582   ZZ=            -68.7631
   XY=              1.6319   XZ=             -0.0710   YZ=              2.3618

 Normal termination of Gaussian 16 at Thu Dec  7 20:42:12 2023.
