 Gaussian 16, Revision B.01,
 Gaussian 16:  ES64L-G16RevB.01 20-Dec-2017

 -------------------------
 #P B3LYP/6-311+g(d) force
 -------------------------

 -----
 DPGEN
 -----
 Symbolic Z-matrix:
 Charge =  0 Multiplicity = 2

                         Standard orientation:
 ---------------------------------------------------------------------
 Center     Atomic      Atomic             Coordinates (Angstroms)
 Number     Number       Type             X           Y           Z
 ---------------------------------------------------------------------
      1         11           0       -1.560252    1.647133   -1.374741
      2         11           0        2.030265   -0.470928    1.929562
      3         11           0        3.697739   -0.953181   -1.185514
      4         11           0        1.485479    1.854477   -0.398560
      5         11           0       -1.623310    0.797137    1.910153
      6         11           0       -3.927947   -1.384417   -0.502943
      7         11           0       -0.101974   -1.490220   -0.377958
 ---------------------------------------------------------------------

 SCF Done:  E(UB3LYP) =  -1136.12378101     A.U. after   27 cycles

 The electronic state is 2-A.
 Alpha  occ. eigenvalues --  -38.44682 -38.44489 -38.44420 -38.44333 -38.43683
 Alpha  occ. eigenvalues --  -38.43413 -38.42823  -2.20515  -2.20303  -2.20288
 Alpha  occ. eigenvalues --   -2.20181  -2.19447  -2.19297  -2.18725  -1.14203
 Alpha  occ. eigenvalues --   -1.14172  -1.14119  -1.14017  -1.13969  -1.13955
 Alpha  occ. eigenvalues --   -1.13947  -1.13919  -1.13901  -1.13873  -1.13867
 Alpha  occ. eigenvalues --   -1.13757  -1.13124  -1.13116  -1.13074  -1.12997
 Alpha  occ. eigenvalues --   -1.12950  -1.12902  -1.12422  -1.12399  -1.12326
 Alpha  occ. eigenvalues --   -0.18375  -0.13810  -0.11484  -0.10788
 Alpha virt. eigenvalues --   -0.06542  -0.05533  -0.04752  -0.03167  -0.02587
 Alpha virt. eigenvalues --   -0.02349  -0.02221  -0.01483  -0.00806  -0.00241
 Alpha virt. eigenvalues --    0.00081   0.00292   0.00363   0.00422   0.00565

  Beta  occ. eigenvalues --  -38.44640 -38.44460 -38.44366 -38.44323 -38.43682
  Beta  occ. eigenvalues --  -38.43379 -38.42804  -2.20440  -2.20233  -2.20205
  Beta  occ. eigenvalues --   -2.20167  -2.19446  -2.19235  -2.18694  -1.14149
  Beta  occ. eigenvalues --   -1.14108  -1.14067  -1.13956  -1.13917  -1.13907
  Beta  occ. eigenvalues --   -1.13902  -1.13876  -1.13864  -1.13845  -1.13794
  Beta  occ. eigenvalues --   -1.13753  -1.13120  -1.13115  -1.13073  -1.12951
  Beta  occ. eigenvalues --   -1.12911  -1.12855  -1.12395  -1.12363  -1.12304
  Beta  occ. eigenvalues --   -0.17642  -0.13615  -0.10612
  Beta virt. eigenvalues --   -0.07583  -0.06315  -0.05246  -0.04301  -0.02773
  Beta virt. eigenvalues --   -0.02400  -0.01907  -0.01730  -0.01182  -0.00456
  Beta virt. eigenvalues --   -0.00108   0.00129   0.00337   0.00506   0.00532

 Mulliken charges and spin densities:
               1          2
     1  Na   0.172633   0.039299
     2  Na   0.434171   0.236601
     3  Na   0.366034   0.036441
     4  Na  -0.346458   0.331010
     5  Na  -0.018411   0.165089
     6  Na   0.209545  -0.027684
     7  Na  -0.817515   0.219244
 Sum of Mulliken charges =  -0.00000   1.00000

 Dipole moment (field-independent basis, Debye):
    X=              0.4902    Y=              0.2940    Z=              0.4138  Tot=              0.7057
 Quadrupole moment (field-independent basis, Debye-Ang):
   XX=            -53.1566   YY=            -77.9246   ZZ=            -64.5401
   XY=             -2.5053   XZ=             -1.7659   YZ=              1.2514

 Normal termination of Gaussian 16 at Wed Nov 29 16:15:36 2023.
