 Gaussian 16, Revision B.01,
 Gaussian 16:  ES64L-G16RevB.01 20-Dec-2017

 -------------------------
 #P B3LYP/6-311+g(d) force
 -------------------------

 -----
 DPGEN
 -----
 Symbolic Z-matrix:
 Charge =  0 Multiplicity = 2

                         Standard orientation:
 ---------------------------------------------------------------------
 Center     Atomic      Atomic             Coordinates (Angstroms)
 Number     Number       Type             X           Y           Z
 ---------------------------------------------------------------------
      1         11           0       -2.053299   -1.226809   -1.250967
      2         11           0        1.064174   -1.355961   -1.143547
      3         11           0       -0.499723    0.158714    1.657867
      4         11           0       -0.808182    1.818736   -1.310805
      5         11           0        3.617372   -1.240600    0.856830
      6         11           0        2.808791    1.813643    0.033756
      7         11           0       -4.129132    0.032277    1.156867
 ---------------------------------------------------------------------

 SCF Done:  E(UB3LYP) =  -1136.11790937     A.U. after   49 cycles

 The electronic state is 2-A.
 Alpha  occ. eigenvalues --  -38.45176 -38.45020 -38.43948 -38.43912 -38.43636
 Alpha  occ. eigenvalues --  -38.43418 -38.43242  -2.21013  -2.20846  -2.19851
 Alpha  occ. eigenvalues --   -2.19791  -2.19507  -2.19373  -2.19024  -1.14722
 Alpha  occ. eigenvalues --   -1.14688  -1.14591  -1.14522  -1.14495  -1.14469
 Alpha  occ. eigenvalues --   -1.13571  -1.13515  -1.13481  -1.13449  -1.13446
 Alpha  occ. eigenvalues --   -1.13427  -1.13192  -1.13150  -1.13124  -1.13071
 Alpha  occ. eigenvalues --   -1.13010  -1.12969  -1.12713  -1.12701  -1.12667
 Alpha  occ. eigenvalues --   -0.18565  -0.14149  -0.11802  -0.10759
 Alpha virt. eigenvalues --   -0.06959  -0.05494  -0.04605  -0.03327  -0.02802
 Alpha virt. eigenvalues --   -0.02549  -0.02181  -0.01231  -0.01114  -0.00212
 Alpha virt. eigenvalues --   -0.00002   0.00237   0.00360   0.00419   0.00619

  Beta  occ. eigenvalues --  -38.45132 -38.44980 -38.43940 -38.43878 -38.43601
  Beta  occ. eigenvalues --  -38.43360 -38.43275  -2.20934  -2.20772  -2.19789
  Beta  occ. eigenvalues --   -2.19777  -2.19444  -2.19269  -2.19088  -1.14648
  Beta  occ. eigenvalues --   -1.14632  -1.14537  -1.14466  -1.14448  -1.14412
  Beta  occ. eigenvalues --   -1.13522  -1.13478  -1.13460  -1.13436  -1.13417
  Beta  occ. eigenvalues --   -1.13403  -1.13145  -1.13095  -1.13079  -1.13003
  Beta  occ. eigenvalues --   -1.12926  -1.12889  -1.12757  -1.12744  -1.12703
  Beta  occ. eigenvalues --   -0.17816  -0.14135  -0.10527
  Beta virt. eigenvalues --   -0.07802  -0.06804  -0.04797  -0.04489  -0.02745
  Beta virt. eigenvalues --   -0.02739  -0.01960  -0.01641  -0.01052  -0.00757
  Beta virt. eigenvalues --   -0.00116   0.00013   0.00340   0.00371   0.00570

 Mulliken charges and spin densities:
               1          2
     1  Na   0.298846   0.014521
     2  Na  -0.605633   0.505349
     3  Na  -0.679611   0.432587
     4  Na  -0.084791   0.262141
     5  Na   0.856989  -0.171819
     6  Na   0.073354   0.139757
     7  Na   0.140846  -0.182537
 Sum of Mulliken charges =  -0.00000   1.00000

 Dipole moment (field-independent basis, Debye):
    X=              0.8536    Y=              0.6086    Z=             -0.4920  Tot=              1.1580
 Quadrupole moment (field-independent basis, Debye-Ang):
   XX=            -60.1047   YY=            -65.8646   ZZ=            -75.0711
   XY=              0.3837   XZ=              4.7379   YZ=              0.2597

 Normal termination of Gaussian 16 at Fri Dec  8 03:26:40 2023.
