 Gaussian 16, Revision B.01,
 Gaussian 16:  ES64L-G16RevB.01 20-Dec-2017

 -------------------------
 #P B3LYP/6-311+g(d) force
 -------------------------

 -----
 DPGEN
 -----
 Symbolic Z-matrix:
 Charge =  0 Multiplicity = 2

                         Standard orientation:
 ---------------------------------------------------------------------
 Center     Atomic      Atomic             Coordinates (Angstroms)
 Number     Number       Type             X           Y           Z
 ---------------------------------------------------------------------
      1         11           0        3.423256   -0.193967   -0.835031
      2         11           0       -2.565565    3.178240   -0.371025
      3         11           0        1.557729   -2.788553   -0.499262
      4         11           0        2.797741    2.400730    0.694234
      5         11           0       -3.393631   -0.301697   -0.740133
      6         11           0        0.162937    0.406475    0.793348
      7         11           0       -1.982467   -2.701227    0.957869
 ---------------------------------------------------------------------

 SCF Done:  E(UB3LYP) =  -1136.12103379     A.U. after   21 cycles

 The electronic state is 2-A.
 Alpha  occ. eigenvalues --  -38.44815 -38.44812 -38.44423 -38.43768 -38.43641
 Alpha  occ. eigenvalues --  -38.43638 -38.43461  -2.20640  -2.20616  -2.20310
 Alpha  occ. eigenvalues --   -2.19640  -2.19475  -2.19421  -2.19301  -1.14368
 Alpha  occ. eigenvalues --   -1.14305  -1.14294  -1.14286  -1.14264  -1.14250
 Alpha  occ. eigenvalues --   -1.14000  -1.13972  -1.13964  -1.13295  -1.13275
 Alpha  occ. eigenvalues --   -1.13264  -1.13144  -1.13128  -1.13095  -1.13079
 Alpha  occ. eigenvalues --   -1.13066  -1.13043  -1.12975  -1.12964  -1.12916
 Alpha  occ. eigenvalues --   -0.17138  -0.14266  -0.12540  -0.10268
 Alpha virt. eigenvalues --   -0.06845  -0.05281  -0.04221  -0.03808  -0.03020
 Alpha virt. eigenvalues --   -0.02559  -0.01581  -0.01374  -0.00998  -0.00776
 Alpha virt. eigenvalues --   -0.00271   0.00096   0.00361   0.00509   0.00680

  Beta  occ. eigenvalues --  -38.44813 -38.44809 -38.44396 -38.43721 -38.43603
  Beta  occ. eigenvalues --  -38.43580 -38.43415  -2.20641  -2.20611  -2.20269
  Beta  occ. eigenvalues --   -2.19552  -2.19405  -2.19313  -2.19221  -1.14363
  Beta  occ. eigenvalues --   -1.14305  -1.14302  -1.14285  -1.14264  -1.14216
  Beta  occ. eigenvalues --   -1.13952  -1.13945  -1.13913  -1.13238  -1.13216
  Beta  occ. eigenvalues --   -1.13205  -1.13096  -1.13079  -1.13054  -1.13006
  Beta  occ. eigenvalues --   -1.12990  -1.12973  -1.12920  -1.12912  -1.12844
  Beta  occ. eigenvalues --   -0.16811  -0.13676  -0.11784
  Beta virt. eigenvalues --   -0.07041  -0.06750  -0.05020  -0.04024  -0.03479
  Beta virt. eigenvalues --   -0.02479  -0.02307  -0.01355  -0.01188  -0.00801
  Beta virt. eigenvalues --   -0.00470   0.00017   0.00295   0.00416   0.00549

 Mulliken charges and spin densities:
               1          2
     1  Na   0.434772   0.074076
     2  Na   0.061501   0.276232
     3  Na  -0.044028   0.199284
     4  Na   0.089221   0.158621
     5  Na   0.467695   0.028897
     6  Na  -2.012009   0.058902
     7  Na   1.002849   0.203989
 Sum of Mulliken charges =  -0.00000   1.00000

 Dipole moment (field-independent basis, Debye):
    X=              0.2266    Y=             -0.0447    Z=             -0.0920  Tot=              0.2486
 Quadrupole moment (field-independent basis, Debye-Ang):
   XX=            -61.9478   YY=            -66.9036   ZZ=            -70.2639
   XY=              7.1090   XZ=             -0.0926   YZ=              0.0219

 Normal termination of Gaussian 16 at Wed Dec  6 00:53:00 2023.
