 Gaussian 16, Revision B.01,
 Gaussian 16:  ES64L-G16RevB.01 20-Dec-2017

 -------------------------
 #P B3LYP/6-311+g(d) force
 -------------------------

 -----
 DPGEN
 -----
 Symbolic Z-matrix:
 Charge =  0 Multiplicity = 2

                         Standard orientation:
 ---------------------------------------------------------------------
 Center     Atomic      Atomic             Coordinates (Angstroms)
 Number     Number       Type             X           Y           Z
 ---------------------------------------------------------------------
      1         11           0       -3.862711    1.800580   -0.021570
      2         11           0       -0.295315    1.450587   -0.225376
      3         11           0       -2.081318   -0.941566    1.785943
      4         11           0        2.429754   -0.918385    1.776572
      5         11           0        3.930735    1.574061   -0.457058
      6         11           0       -1.935201   -1.826285   -1.662378
      7         11           0        1.814055   -1.138992   -1.196133
 ---------------------------------------------------------------------

 SCF Done:  E(UB3LYP) =  -1136.11321452     A.U. after   27 cycles

 The electronic state is 2-A.
 Alpha  occ. eigenvalues --  -38.44981 -38.44856 -38.44678 -38.44648 -38.43892
 Alpha  occ. eigenvalues --  -38.43821 -38.43638  -2.20776  -2.20662  -2.20528
 Alpha  occ. eigenvalues --   -2.20438  -2.19785  -2.19589  -2.19427  -1.14471
 Alpha  occ. eigenvalues --   -1.14430  -1.14384  -1.14378  -1.14336  -1.14264
 Alpha  occ. eigenvalues --   -1.14243  -1.14176  -1.14122  -1.14111  -1.14093
 Alpha  occ. eigenvalues --   -1.14055  -1.13489  -1.13480  -1.13355  -1.13267
 Alpha  occ. eigenvalues --   -1.13259  -1.13225  -1.13099  -1.13079  -1.13062
 Alpha  occ. eigenvalues --   -0.17731  -0.14259  -0.10804  -0.10684
 Alpha virt. eigenvalues --   -0.06734  -0.06297  -0.05165  -0.03116  -0.02729
 Alpha virt. eigenvalues --   -0.02313  -0.02194  -0.01690  -0.01033  -0.00613
 Alpha virt. eigenvalues --   -0.00015   0.00037   0.00170   0.00233   0.00419

  Beta  occ. eigenvalues --  -38.44946 -38.44844 -38.44626 -38.44610 -38.43866
  Beta  occ. eigenvalues --  -38.43835 -38.43618  -2.20711  -2.20644  -2.20403
  Beta  occ. eigenvalues --   -2.20396  -2.19742  -2.19616  -2.19391  -1.14425
  Beta  occ. eigenvalues --   -1.14386  -1.14345  -1.14333  -1.14323  -1.14254
  Beta  occ. eigenvalues --   -1.14160  -1.14090  -1.14080  -1.14063  -1.14044
  Beta  occ. eigenvalues --   -1.14009  -1.13456  -1.13427  -1.13323  -1.13280
  Beta  occ. eigenvalues --   -1.13280  -1.13242  -1.13069  -1.13055  -1.13035
  Beta  occ. eigenvalues --   -0.17100  -0.14098  -0.10490
  Beta virt. eigenvalues --   -0.07161  -0.06573  -0.06020  -0.04528  -0.02789
  Beta virt. eigenvalues --   -0.02668  -0.01901  -0.01748  -0.01390  -0.00552
  Beta virt. eigenvalues --   -0.00393   0.00069   0.00108   0.00190   0.00389

 Mulliken charges and spin densities:
               1          2
     1  Na   0.662243  -0.056747
     2  Na  -1.401669   0.093814
     3  Na   0.119559   0.254799
     4  Na  -0.101421   0.293626
     5  Na   0.573040   0.056155
     6  Na  -0.066406   0.052343
     7  Na   0.214653   0.306011
 Sum of Mulliken charges =  -0.00000   1.00000

 Dipole moment (field-independent basis, Debye):
    X=              0.3806    Y=             -0.1470    Z=              0.1769  Tot=              0.4447
 Quadrupole moment (field-independent basis, Debye-Ang):
   XX=            -50.7973   YY=            -76.0708   ZZ=            -70.0622
   XY=              4.0932   XZ=              0.6952   YZ=             -2.2892

 Normal termination of Gaussian 16 at Thu Dec  7 09:27:00 2023.
