 Gaussian 16, Revision B.01,
 Gaussian 16:  ES64L-G16RevB.01 20-Dec-2017

 -------------------------
 #P B3LYP/6-311+g(d) force
 -------------------------

 -----
 DPGEN
 -----
 Symbolic Z-matrix:
 Charge =  0 Multiplicity = 2

                         Standard orientation:
 ---------------------------------------------------------------------
 Center     Atomic      Atomic             Coordinates (Angstroms)
 Number     Number       Type             X           Y           Z
 ---------------------------------------------------------------------
      1         11           0        0.116627    0.131759    1.785629
      2         11           0        0.015453    0.000164   -1.706037
      3         11           0       -0.670582   -2.712681   -0.055724
      4         11           0        2.552920   -1.600191    0.139162
      5         11           0        2.085488    1.883088   -0.253755
      6         11           0       -3.057648   -0.356517   -0.024430
      7         11           0       -1.042257    2.654379    0.115155
 ---------------------------------------------------------------------

 SCF Done:  E(UB3LYP) =  -1136.13995431     A.U. after   19 cycles

 The electronic state is 2-A.
 Alpha  occ. eigenvalues --  -38.43635 -38.43489 -38.43438 -38.43405 -38.43400
 Alpha  occ. eigenvalues --  -38.43126 -38.43055  -2.19481  -2.19365  -2.19357
 Alpha  occ. eigenvalues --   -2.19310  -2.19298  -2.19122  -2.19078  -1.13158
 Alpha  occ. eigenvalues --   -1.13149  -1.13131  -1.13113  -1.13055  -1.13048
 Alpha  occ. eigenvalues --   -1.13032  -1.13025  -1.12994  -1.12989  -1.12984
 Alpha  occ. eigenvalues --   -1.12969  -1.12963  -1.12908  -1.12903  -1.12802
 Alpha  occ. eigenvalues --   -1.12742  -1.12736  -1.12729  -1.12700  -1.12680
 Alpha  occ. eigenvalues --   -0.19303  -0.13025  -0.12851  -0.10767
 Alpha virt. eigenvalues --   -0.05193  -0.05038  -0.04888  -0.03073  -0.02946
 Alpha virt. eigenvalues --   -0.02375  -0.01317  -0.01137  -0.00153  -0.00131
 Alpha virt. eigenvalues --    0.00033   0.00367   0.00886   0.00936   0.00942

  Beta  occ. eigenvalues --  -38.43633 -38.43484 -38.43427 -38.43398 -38.43394
  Beta  occ. eigenvalues --  -38.43044 -38.42977  -2.19480  -2.19352  -2.19349
  Beta  occ. eigenvalues --   -2.19300  -2.19290  -2.18971  -2.18937  -1.13159
  Beta  occ. eigenvalues --   -1.13139  -1.13121  -1.13100  -1.13049  -1.13034
  Beta  occ. eigenvalues --   -1.13003  -1.12991  -1.12980  -1.12977  -1.12973
  Beta  occ. eigenvalues --   -1.12938  -1.12934  -1.12905  -1.12901  -1.12709
  Beta  occ. eigenvalues --   -1.12646  -1.12632  -1.12621  -1.12598  -1.12580
  Beta  occ. eigenvalues --   -0.18560  -0.12743  -0.12590
  Beta virt. eigenvalues --   -0.06815  -0.05189  -0.05038  -0.04870  -0.02228
  Beta virt. eigenvalues --   -0.02155  -0.01321  -0.01242  -0.01060  -0.00207
  Beta virt. eigenvalues --   -0.00182   0.00148   0.00386   0.00919   0.00930

 Mulliken charges and spin densities:
               1          2
     1  Na  -0.434612   0.752051
     2  Na  -0.356222   0.641265
     3  Na   0.108663  -0.095198
     4  Na   0.143590  -0.075727
     5  Na   0.326791  -0.034187
     6  Na   0.009444  -0.109797
     7  Na   0.202346  -0.078407
 Sum of Mulliken charges =  -0.00000   1.00000

 Dipole moment (field-independent basis, Debye):
    X=             -0.0566    Y=             -0.0303    Z=              0.0522  Tot=              0.0827
 Quadrupole moment (field-independent basis, Debye-Ang):
   XX=            -57.8452   YY=            -60.7280   ZZ=            -74.4808
   XY=             -0.5375   XZ=             -0.2138   YZ=             -0.3031

 Normal termination of Gaussian 16 at Fri Dec  8 05:38:24 2023.
