 Gaussian 16, Revision B.01,
 Gaussian 16:  ES64L-G16RevB.01 20-Dec-2017

 -------------------------
 #P B3LYP/6-311+g(d) force
 -------------------------

 -----
 DPGEN
 -----
 Symbolic Z-matrix:
 Charge =  0 Multiplicity = 2

                         Standard orientation:
 ---------------------------------------------------------------------
 Center     Atomic      Atomic             Coordinates (Angstroms)
 Number     Number       Type             X           Y           Z
 ---------------------------------------------------------------------
      1         11           0        2.676994    1.178014   -0.402192
      2         11           0       -1.432216   -2.820910   -0.160554
      3         11           0       -3.370543    0.310616   -0.045273
      4         11           0       -0.452149    3.167178   -0.066058
      5         11           0        0.630955   -0.163967    2.351554
      6         11           0        2.227717   -2.025285   -0.514429
      7         11           0       -0.280759    0.354354   -1.163047
 ---------------------------------------------------------------------

 SCF Done:  E(UB3LYP) =  -1136.13231788     A.U. after   19 cycles

 The electronic state is 2-A.
 Alpha  occ. eigenvalues --  -38.44386 -38.43891 -38.43878 -38.43750 -38.43708
 Alpha  occ. eigenvalues --  -38.43599 -38.42818  -2.20174  -2.19705  -2.19682
 Alpha  occ. eigenvalues --   -2.19637  -2.19550  -2.19450  -2.18863  -1.13861
 Alpha  occ. eigenvalues --   -1.13838  -1.13799  -1.13437  -1.13363  -1.13358
 Alpha  occ. eigenvalues --   -1.13354  -1.13347  -1.13325  -1.13314  -1.13292
 Alpha  occ. eigenvalues --   -1.13273  -1.13195  -1.13171  -1.13165  -1.13118
 Alpha  occ. eigenvalues --   -1.13095  -1.13084  -1.12553  -1.12507  -1.12505
 Alpha  occ. eigenvalues --   -0.18300  -0.12932  -0.12468  -0.10550
 Alpha virt. eigenvalues --   -0.05846  -0.05193  -0.04994  -0.02940  -0.02724
 Alpha virt. eigenvalues --   -0.02514  -0.01552  -0.01324  -0.00694  -0.00595
 Alpha virt. eigenvalues --   -0.00032   0.00312   0.00776   0.00809   0.00846

  Beta  occ. eigenvalues --  -38.44388 -38.43889 -38.43877 -38.43737 -38.43589
  Beta  occ. eigenvalues --  -38.43586 -38.42787  -2.20178  -2.19705  -2.19681
  Beta  occ. eigenvalues --   -2.19617  -2.19429  -2.19330  -2.18809  -1.13859
  Beta  occ. eigenvalues --   -1.13836  -1.13804  -1.13435  -1.13356  -1.13344
  Beta  occ. eigenvalues --   -1.13341  -1.13340  -1.13326  -1.13317  -1.13268
  Beta  occ. eigenvalues --   -1.13245  -1.13100  -1.13076  -1.13066  -1.13045
  Beta  occ. eigenvalues --   -1.13019  -1.13008  -1.12504  -1.12468  -1.12459
  Beta  occ. eigenvalues --   -0.17627  -0.12736  -0.12298
  Beta virt. eigenvalues --   -0.06488  -0.05828  -0.05179  -0.04899  -0.02254
  Beta virt. eigenvalues --   -0.02009  -0.01518  -0.01362  -0.01267  -0.00693
  Beta virt. eigenvalues --   -0.00636   0.00184   0.00381   0.00788   0.00856

 Mulliken charges and spin densities:
               1          2
     1  Na   0.522102   0.123771
     2  Na   0.096282  -0.005058
     3  Na   0.062339  -0.009321
     4  Na   0.152166   0.024493
     5  Na  -0.703230   0.728429
     6  Na   0.199305   0.082703
     7  Na  -0.328964   0.054983
 Sum of Mulliken charges =  -0.00000   1.00000

 Dipole moment (field-independent basis, Debye):
    X=             -0.3940    Y=              0.0994    Z=              0.1846  Tot=              0.4463
 Quadrupole moment (field-independent basis, Debye-Ang):
   XX=            -57.1566   YY=            -59.2662   ZZ=            -76.2158
   XY=             -0.3079   XZ=             -1.9355   YZ=              1.0763

 Normal termination of Gaussian 16 at Thu Dec  7 04:58:08 2023.
