 Gaussian 16, Revision B.01,
 Gaussian 16:  ES64L-G16RevB.01 20-Dec-2017

 -------------------------
 #P B3LYP/6-311+g(d) force
 -------------------------

 -----
 DPGEN
 -----
 Symbolic Z-matrix:
 Charge =  0 Multiplicity = 2

                         Standard orientation:
 ---------------------------------------------------------------------
 Center     Atomic      Atomic             Coordinates (Angstroms)
 Number     Number       Type             X           Y           Z
 ---------------------------------------------------------------------
      1         11           0        1.495005    0.641630    1.575949
      2         11           0       -1.990978    0.585158    2.068694
      3         11           0       -0.006551   -1.921009   -0.750182
      4         11           0       -1.530635    1.506160   -0.589431
      5         11           0        3.344572   -1.602208    0.278468
      6         11           0        1.724672    2.154410   -1.663500
      7         11           0       -3.036084   -1.364140   -0.919998
 ---------------------------------------------------------------------

 SCF Done:  E(UB3LYP) =  -1136.12357430     A.U. after   22 cycles

 The electronic state is 2-A.
 Alpha  occ. eigenvalues --  -38.44440 -38.44346 -38.44045 -38.43679 -38.43662
 Alpha  occ. eigenvalues --  -38.43616 -38.43343  -2.20345  -2.20156  -2.19862
 Alpha  occ. eigenvalues --   -2.19575  -2.19565  -2.19542  -2.19199  -1.14111
 Alpha  occ. eigenvalues --   -1.13982  -1.13924  -1.13815  -1.13785  -1.13779
 Alpha  occ. eigenvalues --   -1.13559  -1.13507  -1.13505  -1.13276  -1.13270
 Alpha  occ. eigenvalues --   -1.13260  -1.13232  -1.13229  -1.13218  -1.13180
 Alpha  occ. eigenvalues --   -1.13176  -1.13119  -1.12882  -1.12878  -1.12809
 Alpha  occ. eigenvalues --   -0.18370  -0.13749  -0.11762  -0.11577
 Alpha virt. eigenvalues --   -0.05923  -0.05199  -0.04865  -0.03449  -0.02876
 Alpha virt. eigenvalues --   -0.02508  -0.01797  -0.01057  -0.00816   0.00067
 Alpha virt. eigenvalues --    0.00195   0.00235   0.00486   0.00637   0.00732

  Beta  occ. eigenvalues --  -38.44373 -38.44271 -38.44039 -38.43653 -38.43651
  Beta  occ. eigenvalues --  -38.43603 -38.43338  -2.20220  -2.20017  -2.19852
  Beta  occ. eigenvalues --   -2.19555  -2.19526  -2.19518  -2.19192  -1.14036
  Beta  occ. eigenvalues --   -1.13890  -1.13835  -1.13713  -1.13698  -1.13684
  Beta  occ. eigenvalues --   -1.13547  -1.13500  -1.13499  -1.13262  -1.13233
  Beta  occ. eigenvalues --   -1.13224  -1.13219  -1.13205  -1.13169  -1.13159
  Beta  occ. eigenvalues --   -1.13144  -1.13110  -1.12879  -1.12865  -1.12799
  Beta  occ. eigenvalues --   -0.17741  -0.13541  -0.11337
  Beta virt. eigenvalues --   -0.07792  -0.05760  -0.05099  -0.04168  -0.03182
  Beta virt. eigenvalues --   -0.02355  -0.01841  -0.01720  -0.00900  -0.00393
  Beta virt. eigenvalues --    0.00122   0.00251   0.00302   0.00612   0.00736

 Mulliken charges and spin densities:
               1          2
     1  Na  -0.406183   0.120723
     2  Na   0.336152   0.326161
     3  Na  -1.066880   0.177824
     4  Na  -0.321901   0.360537
     5  Na   0.613468   0.024140
     6  Na   0.163352   0.289731
     7  Na   0.681992  -0.299116
 Sum of Mulliken charges =  -0.00000   1.00000

 Dipole moment (field-independent basis, Debye):
    X=              0.1956    Y=              0.0248    Z=              0.0546  Tot=              0.2045
 Quadrupole moment (field-independent basis, Debye-Ang):
   XX=            -53.1059   YY=            -75.0637   ZZ=            -67.5853
   XY=              0.2879   XZ=             -1.8864   YZ=             -2.3284

 Normal termination of Gaussian 16 at Wed Nov 29 02:16:11 2023.
