 Gaussian 16, Revision B.01,
 Gaussian 16:  ES64L-G16RevB.01 20-Dec-2017

 -------------------------
 #P B3LYP/6-311+g(d) force
 -------------------------

 -----
 DPGEN
 -----
 Symbolic Z-matrix:
 Charge =  0 Multiplicity = 2

                         Standard orientation:
 ---------------------------------------------------------------------
 Center     Atomic      Atomic             Coordinates (Angstroms)
 Number     Number       Type             X           Y           Z
 ---------------------------------------------------------------------
      1         11           0        2.972196   -0.473863   -0.276482
      2         11           0        1.717744    2.365895    0.249968
      3         11           0       -2.808500   -1.031704   -0.548622
      4         11           0        0.235044   -0.361622   -1.756375
      5         11           0       -1.883162    2.274364   -0.138253
      6         11           0        0.425677   -2.777408    0.582312
      7         11           0       -0.658999    0.004337    1.887453
 ---------------------------------------------------------------------

 SCF Done:  E(UB3LYP) =  -1136.13775877     A.U. after   19 cycles

 The electronic state is 2-A.
 Alpha  occ. eigenvalues --  -38.43931 -38.43716 -38.43538 -38.43457 -38.43424
 Alpha  occ. eigenvalues --  -38.43395 -38.43299  -2.19796  -2.19607  -2.19404
 Alpha  occ. eigenvalues --   -2.19396  -2.19392  -2.19247  -2.19173  -1.13485
 Alpha  occ. eigenvalues --   -1.13461  -1.13422  -1.13342  -1.13281  -1.13238
 Alpha  occ. eigenvalues --   -1.13125  -1.13090  -1.13061  -1.13055  -1.13032
 Alpha  occ. eigenvalues --   -1.13019  -1.13017  -1.13016  -1.13006  -1.12916
 Alpha  occ. eigenvalues --   -1.12904  -1.12878  -1.12846  -1.12822  -1.12793
 Alpha  occ. eigenvalues --   -0.18893  -0.13230  -0.12448  -0.11014
 Alpha virt. eigenvalues --   -0.05431  -0.05101  -0.04609  -0.03367  -0.03015
 Alpha virt. eigenvalues --   -0.02611  -0.01378  -0.01020  -0.00266  -0.00121
 Alpha virt. eigenvalues --    0.00031   0.00375   0.00848   0.00907   0.00914

  Beta  occ. eigenvalues --  -38.43914 -38.43712 -38.43534 -38.43393 -38.43377
  Beta  occ. eigenvalues --  -38.43357 -38.43281  -2.19767  -2.19601  -2.19390
  Beta  occ. eigenvalues --   -2.19272  -2.19256  -2.19244  -2.19144  -1.13459
  Beta  occ. eigenvalues --   -1.13426  -1.13401  -1.13325  -1.13274  -1.13225
  Beta  occ. eigenvalues --   -1.13095  -1.13049  -1.13016  -1.13001  -1.12967
  Beta  occ. eigenvalues --   -1.12940  -1.12929  -1.12926  -1.12922  -1.12908
  Beta  occ. eigenvalues --   -1.12893  -1.12870  -1.12812  -1.12782  -1.12773
  Beta  occ. eigenvalues --   -0.18174  -0.12983  -0.12192
  Beta virt. eigenvalues --   -0.07085  -0.05392  -0.05064  -0.04531  -0.02624
  Beta virt. eigenvalues --   -0.02261  -0.01575  -0.01261  -0.00948  -0.00250
  Beta virt. eigenvalues --   -0.00159   0.00134   0.00412   0.00887   0.00914

 Mulliken charges and spin densities:
               1          2
     1  Na   0.262365   0.011195
     2  Na  -0.147395  -0.089441
     3  Na   0.213480   0.000461
     4  Na  -0.163855   0.511063
     5  Na   0.011353  -0.032416
     6  Na   0.038043  -0.032231
     7  Na  -0.213991   0.631369
 Sum of Mulliken charges =  -0.00000   1.00000

 Dipole moment (field-independent basis, Debye):
    X=             -0.2236    Y=             -0.0768    Z=             -0.0153  Tot=              0.2369
 Quadrupole moment (field-independent basis, Debye-Ang):
   XX=            -58.1987   YY=            -63.5399   ZZ=            -72.7765
   XY=             -0.2015   XZ=              1.6769   YZ=             -0.5090

 Normal termination of Gaussian 16 at Fri Dec  8 06:25:22 2023.
