 Gaussian 16, Revision B.01,
 Gaussian 16:  ES64L-G16RevB.01 20-Dec-2017

 -------------------------
 #P B3LYP/6-311+g(d) force
 -------------------------

 -----
 DPGEN
 -----
 Symbolic Z-matrix:
 Charge =  0 Multiplicity = 2

                         Standard orientation:
 ---------------------------------------------------------------------
 Center     Atomic      Atomic             Coordinates (Angstroms)
 Number     Number       Type             X           Y           Z
 ---------------------------------------------------------------------
      1         11           0        0.261126   -0.003819   -1.540959
      2         11           0       -0.007774    0.208363    2.112123
      3         11           0        3.183385   -0.511126   -0.392601
      4         11           0        0.278394   -2.699751    0.449799
      5         11           0       -2.704151   -1.592824   -0.515529
      6         11           0       -2.253849    2.185497   -0.082807
      7         11           0        1.242870    2.413660   -0.030026
 ---------------------------------------------------------------------

 SCF Done:  E(UB3LYP) =  -1136.13660324     A.U. after   19 cycles

 The electronic state is 2-A.
 Alpha  occ. eigenvalues --  -38.43802 -38.43738 -38.43730 -38.43697 -38.43429
 Alpha  occ. eigenvalues --  -38.43243 -38.43198  -2.19648  -2.19642  -2.19553
 Alpha  occ. eigenvalues --   -2.19511  -2.19349  -2.19225  -2.19126  -1.13350
 Alpha  occ. eigenvalues --   -1.13318  -1.13293  -1.13287  -1.13282  -1.13255
 Alpha  occ. eigenvalues --   -1.13232  -1.13212  -1.13197  -1.13188  -1.13171
 Alpha  occ. eigenvalues --   -1.13153  -1.13130  -1.13015  -1.12933  -1.12906
 Alpha  occ. eigenvalues --   -1.12851  -1.12824  -1.12805  -1.12777  -1.12742
 Alpha  occ. eigenvalues --   -0.18810  -0.12848  -0.12592  -0.10985
 Alpha virt. eigenvalues --   -0.05374  -0.05186  -0.04593  -0.03139  -0.03011
 Alpha virt. eigenvalues --   -0.02668  -0.01540  -0.01091  -0.00246  -0.00149
 Alpha virt. eigenvalues --    0.00015   0.00335   0.00805   0.00880   0.00921

  Beta  occ. eigenvalues --  -38.43795 -38.43721 -38.43696 -38.43635 -38.43420
  Beta  occ. eigenvalues --  -38.43231 -38.43143  -2.19635  -2.19539  -2.19512
  Beta  occ. eigenvalues --   -2.19454  -2.19337  -2.19126  -2.19107  -1.13333
  Beta  occ. eigenvalues --   -1.13287  -1.13268  -1.13218  -1.13204  -1.13194
  Beta  occ. eigenvalues --   -1.13191  -1.13178  -1.13170  -1.13153  -1.13147
  Beta  occ. eigenvalues --   -1.13114  -1.13104  -1.12978  -1.12927  -1.12849
  Beta  occ. eigenvalues --   -1.12801  -1.12769  -1.12750  -1.12736  -1.12734
  Beta  occ. eigenvalues --   -0.18082  -0.12572  -0.12365
  Beta virt. eigenvalues --   -0.07046  -0.05338  -0.05131  -0.04543  -0.02359
  Beta virt. eigenvalues --   -0.02276  -0.01607  -0.01448  -0.01039  -0.00218
  Beta virt. eigenvalues --   -0.00176   0.00123   0.00368   0.00862   0.00884

 Mulliken charges and spin densities:
               1          2
     1  Na  -0.464175   0.382680
     2  Na  -0.371282   0.598130
     3  Na   0.294497  -0.001882
     4  Na   0.214949   0.096194
     5  Na  -0.018130  -0.018584
     6  Na  -0.008105  -0.052172
     7  Na   0.352246  -0.004366
 Sum of Mulliken charges =  -0.00000   1.00000

 Dipole moment (field-independent basis, Debye):
    X=             -0.0264    Y=              0.0756    Z=              0.1583  Tot=              0.1774
 Quadrupole moment (field-independent basis, Debye-Ang):
   XX=            -56.5845   YY=            -63.5858   ZZ=            -73.2613
   XY=             -0.9639   XZ=              0.7215   YZ=             -0.1594

 Normal termination of Gaussian 16 at Fri Dec  8 06:44:03 2023.
