 Gaussian 16, Revision B.01,
 Gaussian 16:  ES64L-G16RevB.01 20-Dec-2017

 -------------------------
 #P B3LYP/6-311+g(d) force
 -------------------------

 -----
 DPGEN
 -----
 Symbolic Z-matrix:
 Charge =  0 Multiplicity = 2

                         Standard orientation:
 ---------------------------------------------------------------------
 Center     Atomic      Atomic             Coordinates (Angstroms)
 Number     Number       Type             X           Y           Z
 ---------------------------------------------------------------------
      1         11           0       -2.627386   -1.097524   -0.647120
      2         11           0       -0.245170   -0.037873    2.048782
      3         11           0        2.847986   -0.815516    0.069872
      4         11           0       -2.228842    2.002252    0.154651
      5         11           0        1.582858    2.666263   -0.113127
      6         11           0        0.134231   -2.809247    0.153407
      7         11           0        0.536322    0.091644   -1.666465
 ---------------------------------------------------------------------

 SCF Done:  E(UB3LYP) =  -1136.13758742     A.U. after   19 cycles

 The electronic state is 2-A.
 Alpha  occ. eigenvalues --  -38.43864 -38.43700 -38.43660 -38.43658 -38.43475
 Alpha  occ. eigenvalues --  -38.43275 -38.43163  -2.19747  -2.19567  -2.19527
 Alpha  occ. eigenvalues --   -2.19503  -2.19356  -2.19274  -2.19061  -1.13492
 Alpha  occ. eigenvalues --   -1.13401  -1.13364  -1.13247  -1.13239  -1.13219
 Alpha  occ. eigenvalues --   -1.13199  -1.13190  -1.13179  -1.13156  -1.13151
 Alpha  occ. eigenvalues --   -1.13132  -1.13033  -1.13008  -1.12987  -1.12943
 Alpha  occ. eigenvalues --   -1.12902  -1.12887  -1.12733  -1.12718  -1.12696
 Alpha  occ. eigenvalues --   -0.18897  -0.13040  -0.12569  -0.10989
 Alpha virt. eigenvalues --   -0.05468  -0.04976  -0.04697  -0.03317  -0.03025
 Alpha virt. eigenvalues --   -0.02674  -0.01256  -0.01136  -0.00259  -0.00134
 Alpha virt. eigenvalues --    0.00017   0.00373   0.00882   0.00904   0.00942

  Beta  occ. eigenvalues --  -38.43859 -38.43699 -38.43654 -38.43566 -38.43458
  Beta  occ. eigenvalues --  -38.43214 -38.43155  -2.19741  -2.19527  -2.19499
  Beta  occ. eigenvalues --   -2.19393  -2.19327  -2.19162  -2.19051  -1.13481
  Beta  occ. eigenvalues --   -1.13379  -1.13362  -1.13232  -1.13208  -1.13176
  Beta  occ. eigenvalues --   -1.13163  -1.13152  -1.13135  -1.13116  -1.13070
  Beta  occ. eigenvalues --   -1.13054  -1.13007  -1.12982  -1.12961  -1.12870
  Beta  occ. eigenvalues --   -1.12825  -1.12807  -1.12724  -1.12696  -1.12676
  Beta  occ. eigenvalues --   -0.18158  -0.12796  -0.12320
  Beta virt. eigenvalues --   -0.07059  -0.05465  -0.04883  -0.04676  -0.02529
  Beta virt. eigenvalues --   -0.02241  -0.01623  -0.01178  -0.01063  -0.00277
  Beta virt. eigenvalues --   -0.00158   0.00128   0.00398   0.00874   0.00932

 Mulliken charges and spin densities:
               1          2
     1  Na   0.078906   0.057105
     2  Na  -0.458730   0.675420
     3  Na   0.215680  -0.068020
     4  Na   0.073929  -0.034156
     5  Na   0.019780  -0.123993
     6  Na   0.258944   0.056546
     7  Na  -0.188509   0.437097
 Sum of Mulliken charges =  -0.00000   1.00000

 Dipole moment (field-independent basis, Debye):
    X=              0.1860    Y=              0.2073    Z=              0.1761  Tot=              0.3295
 Quadrupole moment (field-independent basis, Debye-Ang):
   XX=            -59.7535   YY=            -61.6825   ZZ=            -72.9264
   XY=             -0.1809   XZ=              1.7250   YZ=              0.4916

 Normal termination of Gaussian 16 at Wed Nov 29 17:01:20 2023.
