 Gaussian 16, Revision B.01,
 Gaussian 16:  ES64L-G16RevB.01 20-Dec-2017

 -------------------------
 #P B3LYP/6-311+g(d) force
 -------------------------

 -----
 DPGEN
 -----
 Symbolic Z-matrix:
 Charge =  0 Multiplicity = 2

                         Standard orientation:
 ---------------------------------------------------------------------
 Center     Atomic      Atomic             Coordinates (Angstroms)
 Number     Number       Type             X           Y           Z
 ---------------------------------------------------------------------
      1         11           0       -3.023994    1.108065   -0.460361
      2         11           0        0.226353   -0.312978    1.888266
      3         11           0       -2.981765   -2.328060    0.040936
      4         11           0        3.623018   -1.563025    0.258652
      5         11           0        2.218624    1.431022   -0.954365
      6         11           0        0.239976   -0.975599   -1.384860
      7         11           0       -0.302212    2.640575    0.611733
 ---------------------------------------------------------------------

 SCF Done:  E(UB3LYP) =  -1136.12373212     A.U. after   22 cycles

 The electronic state is 2-A.
 Alpha  occ. eigenvalues --  -38.44988 -38.44905 -38.44186 -38.43870 -38.43837
 Alpha  occ. eigenvalues --  -38.43749 -38.42404  -2.20754  -2.20709  -2.20064
 Alpha  occ. eigenvalues --   -2.19744  -2.19648  -2.19635  -2.18307  -1.14434
 Alpha  occ. eigenvalues --   -1.14417  -1.14389  -1.14383  -1.14374  -1.14340
 Alpha  occ. eigenvalues --   -1.13795  -1.13753  -1.13659  -1.13430  -1.13394
 Alpha  occ. eigenvalues --   -1.13349  -1.13321  -1.13318  -1.13312  -1.13288
 Alpha  occ. eigenvalues --   -1.13269  -1.13231  -1.11982  -1.11975  -1.11949
 Alpha  occ. eigenvalues --   -0.18247  -0.13538  -0.11774  -0.10512
 Alpha virt. eigenvalues --   -0.06802  -0.05747  -0.03875  -0.03413  -0.02631
 Alpha virt. eigenvalues --   -0.02510  -0.02296  -0.01473  -0.00697  -0.00269
 Alpha virt. eigenvalues --    0.00086   0.00170   0.00528   0.00614   0.00694

  Beta  occ. eigenvalues --  -38.44988 -38.44900 -38.44149 -38.43874 -38.43799
  Beta  occ. eigenvalues --  -38.43652 -38.42394  -2.20756  -2.20700  -2.20000
  Beta  occ. eigenvalues --   -2.19676  -2.19657  -2.19457  -2.18293  -1.14437
  Beta  occ. eigenvalues --   -1.14401  -1.14386  -1.14375  -1.14366  -1.14337
  Beta  occ. eigenvalues --   -1.13752  -1.13679  -1.13616  -1.13382  -1.13331
  Beta  occ. eigenvalues --   -1.13326  -1.13310  -1.13304  -1.13295  -1.13201
  Beta  occ. eigenvalues --   -1.13138  -1.13106  -1.11975  -1.11964  -1.11913
  Beta  occ. eigenvalues --   -0.17522  -0.13347  -0.11601
  Beta virt. eigenvalues --   -0.06697  -0.06616  -0.05653  -0.03843  -0.02798
  Beta virt. eigenvalues --   -0.02351  -0.01906  -0.01619  -0.01122  -0.00728
  Beta virt. eigenvalues --   -0.00082   0.00133   0.00217   0.00637   0.00684

 Mulliken charges and spin densities:
               1          2
     1  Na  -0.106299  -0.080448
     2  Na  -0.562062   0.664668
     3  Na   0.276292  -0.035362
     4  Na   0.167254  -0.066845
     5  Na   0.260510   0.025381
     6  Na  -0.323991   0.376855
     7  Na   0.288295   0.115752
 Sum of Mulliken charges =  -0.00000   1.00000

 Dipole moment (field-independent basis, Debye):
    X=              0.3177    Y=             -0.5337    Z=             -0.0086  Tot=              0.6212
 Quadrupole moment (field-independent basis, Debye-Ang):
   XX=            -50.1609   YY=            -67.1982   ZZ=            -75.2040
   XY=             -2.5838   XZ=              0.6512   YZ=             -1.8239

 Normal termination of Gaussian 16 at Tue Dec  5 20:28:47 2023.
