 Gaussian 16, Revision B.01,
 Gaussian 16:  ES64L-G16RevB.01 20-Dec-2017

 -------------------------
 #P B3LYP/6-311+g(d) force
 -------------------------

 -----
 DPGEN
 -----
 Symbolic Z-matrix:
 Charge =  0 Multiplicity = 2

                         Standard orientation:
 ---------------------------------------------------------------------
 Center     Atomic      Atomic             Coordinates (Angstroms)
 Number     Number       Type             X           Y           Z
 ---------------------------------------------------------------------
      1         11           0        3.388589   -0.890780   -0.048425
      2         11           0        0.157256    0.210081    2.165654
      3         11           0       -2.766897   -1.412366   -0.337194
      4         11           0       -3.426118    1.545886    0.157349
      5         11           0        2.068653    3.026211   -0.283288
      6         11           0        0.635419   -2.928228   -0.113317
      7         11           0       -0.056902    0.449196   -1.540779
 ---------------------------------------------------------------------

 SCF Done:  E(UB3LYP) =  -1136.12345858     A.U. after   21 cycles

 The electronic state is 2-A.
 Alpha  occ. eigenvalues --  -38.45479 -38.45050 -38.44040 -38.43903 -38.43810
 Alpha  occ. eigenvalues --  -38.43607 -38.42974  -2.21238  -2.20845  -2.19896
 Alpha  occ. eigenvalues --   -2.19717  -2.19668  -2.19367  -2.18793  -1.14921
 Alpha  occ. eigenvalues --   -1.14895  -1.14868  -1.14543  -1.14496  -1.14480
 Alpha  occ. eigenvalues --   -1.13570  -1.13554  -1.13539  -1.13394  -1.13362
 Alpha  occ. eigenvalues --   -1.13338  -1.13331  -1.13310  -1.13286  -1.13038
 Alpha  occ. eigenvalues --   -1.13029  -1.13007  -1.12465  -1.12458  -1.12445
 Alpha  occ. eigenvalues --   -0.17674  -0.13410  -0.11679  -0.10289
 Alpha virt. eigenvalues --   -0.06924  -0.05552  -0.04547  -0.03296  -0.02549
 Alpha virt. eigenvalues --   -0.02391  -0.02366  -0.01440  -0.01081  -0.00478
 Alpha virt. eigenvalues --   -0.00137   0.00232   0.00558   0.00606   0.00649

  Beta  occ. eigenvalues --  -38.45480 -38.45050 -38.44031 -38.43796 -38.43762
  Beta  occ. eigenvalues --  -38.43607 -38.42970  -2.21241  -2.20847  -2.19882
  Beta  occ. eigenvalues --   -2.19582  -2.19519  -2.19367  -2.18789  -1.14910
  Beta  occ. eigenvalues --   -1.14897  -1.14873  -1.14548  -1.14487  -1.14478
  Beta  occ. eigenvalues --   -1.13559  -1.13536  -1.13523  -1.13312  -1.13248
  Beta  occ. eigenvalues --   -1.13244  -1.13223  -1.13200  -1.13191  -1.13033
  Beta  occ. eigenvalues --   -1.13023  -1.13008  -1.12462  -1.12451  -1.12430
  Beta  occ. eigenvalues --   -0.16991  -0.13286  -0.11492
  Beta virt. eigenvalues --   -0.06866  -0.06357  -0.05469  -0.04515  -0.02665
  Beta virt. eigenvalues --   -0.02260  -0.01828  -0.01518  -0.01264  -0.01071
  Beta virt. eigenvalues --   -0.00496   0.00064   0.00280   0.00640   0.00693

 Mulliken charges and spin densities:
               1          2
     1  Na   0.150607  -0.037144
     2  Na  -0.377688   0.702899
     3  Na   0.224083   0.087144
     4  Na   0.194504   0.028750
     5  Na  -0.091082  -0.056672
     6  Na  -0.075766   0.001895
     7  Na  -0.024657   0.273127
 Sum of Mulliken charges =  -0.00000   1.00000

 Dipole moment (field-independent basis, Debye):
    X=             -0.0649    Y=              0.2365    Z=              0.0388  Tot=              0.2483
 Quadrupole moment (field-independent basis, Debye-Ang):
   XX=            -49.8599   YY=            -65.4260   ZZ=            -77.7592
   XY=             -3.0222   XZ=             -0.0452   YZ=              0.9642

 Normal termination of Gaussian 16 at Thu Dec  7 08:09:30 2023.
