 Gaussian 16, Revision B.01,
 Gaussian 16:  ES64L-G16RevB.01 20-Dec-2017

 -------------------------
 #P B3LYP/6-311+g(d) force
 -------------------------

 -----
 DPGEN
 -----
 Symbolic Z-matrix:
 Charge =  0 Multiplicity = 2

                         Standard orientation:
 ---------------------------------------------------------------------
 Center     Atomic      Atomic             Coordinates (Angstroms)
 Number     Number       Type             X           Y           Z
 ---------------------------------------------------------------------
      1         11           0        0.244097   -0.172104    2.102849
      2         11           0       -2.553856    1.796012    0.650167
      3         11           0       -0.215416   -0.035646   -1.624744
      4         11           0       -2.480030   -1.748023   -0.413664
      5         11           0        3.251848    0.072990    0.166302
      6         11           0        0.871779    2.848741   -0.718624
      7         11           0        0.881576   -2.761969   -0.162285
 ---------------------------------------------------------------------

 SCF Done:  E(UB3LYP) =  -1136.13656472     A.U. after   18 cycles

 The electronic state is 2-A.
 Alpha  occ. eigenvalues --  -38.44000 -38.43979 -38.43817 -38.43659 -38.43538
 Alpha  occ. eigenvalues --  -38.43429 -38.43253  -2.19844  -2.19796  -2.19618
 Alpha  occ. eigenvalues --   -2.19517  -2.19361  -2.19291  -2.19242  -1.13515
 Alpha  occ. eigenvalues --   -1.13490  -1.13477  -1.13462  -1.13439  -1.13433
 Alpha  occ. eigenvalues --   -1.13290  -1.13276  -1.13259  -1.13258  -1.13167
 Alpha  occ. eigenvalues --   -1.13135  -1.13088  -1.13008  -1.13007  -1.12978
 Alpha  occ. eigenvalues --   -1.12964  -1.12902  -1.12899  -1.12861  -1.12845
 Alpha  occ. eigenvalues --   -0.18402  -0.12705  -0.12475  -0.11019
 Alpha virt. eigenvalues --   -0.05496  -0.05091  -0.04750  -0.03253  -0.03050
 Alpha virt. eigenvalues --   -0.02726  -0.01465  -0.01156  -0.00414  -0.00241
 Alpha virt. eigenvalues --    0.00002   0.00352   0.00806   0.00871   0.00877

  Beta  occ. eigenvalues --  -38.44000 -38.43890 -38.43802 -38.43651 -38.43520
  Beta  occ. eigenvalues --  -38.43424 -38.43191  -2.19798  -2.19679  -2.19591
  Beta  occ. eigenvalues --   -2.19506  -2.19329  -2.19285  -2.19131  -1.13472
  Beta  occ. eigenvalues --   -1.13458  -1.13433  -1.13401  -1.13369  -1.13331
  Beta  occ. eigenvalues --   -1.13261  -1.13256  -1.13240  -1.13237  -1.13155
  Beta  occ. eigenvalues --   -1.13122  -1.13051  -1.12992  -1.12981  -1.12959
  Beta  occ. eigenvalues --   -1.12948  -1.12892  -1.12828  -1.12786  -1.12770
  Beta  occ. eigenvalues --   -0.17695  -0.12467  -0.12184
  Beta virt. eigenvalues --   -0.07163  -0.05432  -0.05020  -0.04667  -0.02530
  Beta virt. eigenvalues --   -0.02340  -0.01718  -0.01363  -0.01057  -0.00379
  Beta virt. eigenvalues --   -0.00283   0.00111   0.00382   0.00851   0.00878

 Mulliken charges and spin densities:
               1          2
     1  Na  -0.357460   0.684076
     2  Na  -0.042798   0.114886
     3  Na  -0.008263   0.321631
     4  Na   0.249994  -0.011842
     5  Na   0.013185  -0.048285
     6  Na   0.061167   0.005406
     7  Na   0.084175  -0.065872
 Sum of Mulliken charges =  -0.00000   1.00000

 Dipole moment (field-independent basis, Debye):
    X=              0.0924    Y=             -0.0576    Z=              0.2772  Tot=              0.2979
 Quadrupole moment (field-independent basis, Debye-Ang):
   XX=            -57.7888   YY=            -62.7851   ZZ=            -73.0878
   XY=             -0.1190   XZ=             -0.9539   YZ=              0.4376

 Normal termination of Gaussian 16 at Mon Dec  4 00:53:20 2023.
