 Gaussian 16, Revision B.01,
 Gaussian 16:  ES64L-G16RevB.01 20-Dec-2017

 -------------------------
 #P B3LYP/6-311+g(d) force
 -------------------------

 -----
 DPGEN
 -----
 Symbolic Z-matrix:
 Charge =  0 Multiplicity = 2

                         Standard orientation:
 ---------------------------------------------------------------------
 Center     Atomic      Atomic             Coordinates (Angstroms)
 Number     Number       Type             X           Y           Z
 ---------------------------------------------------------------------
      1         11           0       -0.763870    2.578118    0.340649
      2         11           0       -0.455022   -0.599688   -1.566520
      3         11           0       -2.924668   -2.175656   -0.321908
      4         11           0       -3.374593    0.824572   -0.188369
      5         11           0       -0.612224   -0.749422    2.148555
      6         11           0        2.694838    1.096936   -0.557274
      7         11           0        5.435540   -0.974859    0.144867
 ---------------------------------------------------------------------

 SCF Done:  E(UB3LYP) =  -1136.10835218     A.U. after   27 cycles

 The electronic state is 2-A.
 Alpha  occ. eigenvalues --  -38.45993 -38.45116 -38.45082 -38.44223 -38.43992
 Alpha  occ. eigenvalues --  -38.43106 -38.42575  -2.21844  -2.20997  -2.20852
 Alpha  occ. eigenvalues --   -2.20067  -2.19773  -2.19013  -2.18428  -1.15539
 Alpha  occ. eigenvalues --   -1.15501  -1.15479  -1.14666  -1.14652  -1.14643
 Alpha  occ. eigenvalues --   -1.14520  -1.14518  -1.14483  -1.13721  -1.13695
 Alpha  occ. eigenvalues --   -1.13665  -1.13483  -1.13456  -1.13374  -1.12706
 Alpha  occ. eigenvalues --   -1.12682  -1.12632  -1.12124  -1.12082  -1.12069
 Alpha  occ. eigenvalues --   -0.18294  -0.13517  -0.11411  -0.10935
 Alpha virt. eigenvalues --   -0.08229  -0.05226  -0.03969  -0.03233  -0.03204
 Alpha virt. eigenvalues --   -0.02594  -0.02263  -0.02005  -0.00944  -0.00682
 Alpha virt. eigenvalues --   -0.00514   0.00020   0.00191   0.00510   0.00636

  Beta  occ. eigenvalues --  -38.45980 -38.45109 -38.45047 -38.44098 -38.43993
  Beta  occ. eigenvalues --  -38.43099 -38.42573  -2.21824  -2.20935  -2.20839
  Beta  occ. eigenvalues --   -2.19836  -2.19775  -2.19006  -2.18427  -1.15512
  Beta  occ. eigenvalues --   -1.15478  -1.15467  -1.14621  -1.14611  -1.14585
  Beta  occ. eigenvalues --   -1.14511  -1.14508  -1.14475  -1.13564  -1.13542
  Beta  occ. eigenvalues --   -1.13500  -1.13485  -1.13453  -1.13374  -1.12702
  Beta  occ. eigenvalues --   -1.12683  -1.12593  -1.12126  -1.12075  -1.12056
  Beta  occ. eigenvalues --   -0.17584  -0.13341  -0.11258
  Beta virt. eigenvalues --   -0.08082  -0.06828  -0.05112  -0.03960  -0.03004
  Beta virt. eigenvalues --   -0.02615  -0.02042  -0.01743  -0.01553  -0.00727
  Beta virt. eigenvalues --   -0.00506  -0.00384   0.00034   0.00364   0.00584

 Mulliken charges and spin densities:
               1          2
     1  Na   0.025626   0.035818
     2  Na  -0.375938   0.099640
     3  Na   0.811465   0.118785
     4  Na   0.082418   0.146648
     5  Na  -0.471078   0.581841
     6  Na  -0.163007  -0.029677
     7  Na   0.090513   0.046946
 Sum of Mulliken charges =  -0.00000   1.00000

 Dipole moment (field-independent basis, Debye):
    X=              0.0459    Y=             -0.3866    Z=              0.1668  Tot=              0.4236
 Quadrupole moment (field-independent basis, Debye-Ang):
   XX=            -55.6035   YY=            -71.6302   ZZ=            -71.6142
   XY=             -4.5946   XZ=             -0.4962   YZ=              0.7146

 Normal termination of Gaussian 16 at Fri Dec  8 05:11:55 2023.
