 Gaussian 16, Revision B.01,
 Gaussian 16:  ES64L-G16RevB.01 20-Dec-2017

 -------------------------
 #P B3LYP/6-311+g(d) force
 -------------------------

 -----
 DPGEN
 -----
 Symbolic Z-matrix:
 Charge =  0 Multiplicity = 2

                         Standard orientation:
 ---------------------------------------------------------------------
 Center     Atomic      Atomic             Coordinates (Angstroms)
 Number     Number       Type             X           Y           Z
 ---------------------------------------------------------------------
      1         11           0       -1.233918   -0.445702    1.874363
      2         11           0       -1.222959   -2.196818   -0.392532
      3         11           0        4.079594   -0.084763   -0.144539
      4         11           0        1.373630   -0.568935    0.604268
      5         11           0       -0.147824    0.169853   -1.860744
      6         11           0       -0.043687    2.421011    0.394997
      7         11           0       -2.804836    0.705353   -0.475812
 ---------------------------------------------------------------------

 SCF Done:  E(UB3LYP) =  -1136.10233029     A.U. after   24 cycles

 The electronic state is 2-A.
 Alpha  occ. eigenvalues --  -38.45523 -38.44527 -38.44284 -38.44013 -38.43057
 Alpha  occ. eigenvalues --  -38.42658 -38.42610  -2.21322  -2.20506  -2.20356
 Alpha  occ. eigenvalues --   -2.20105  -2.19184  -2.18699  -2.18534  -1.15063
 Alpha  occ. eigenvalues --   -1.14955  -1.14942  -1.14261  -1.14230  -1.14090
 Alpha  occ. eigenvalues --   -1.14081  -1.13979  -1.13926  -1.13859  -1.13758
 Alpha  occ. eigenvalues --   -1.13665  -1.12903  -1.12861  -1.12747  -1.12393
 Alpha  occ. eigenvalues --   -1.12360  -1.12294  -1.12242  -1.12196  -1.12139
 Alpha  occ. eigenvalues --   -0.20210  -0.13511  -0.11987  -0.11697
 Alpha virt. eigenvalues --   -0.07103  -0.03705  -0.03594  -0.03364  -0.02964
 Alpha virt. eigenvalues --   -0.02678  -0.02425  -0.00574  -0.00473   0.00037
 Alpha virt. eigenvalues --    0.00257   0.00344   0.00420   0.00873   0.01090

  Beta  occ. eigenvalues --  -38.45536 -38.44506 -38.44199 -38.43926 -38.43029
  Beta  occ. eigenvalues --  -38.42639 -38.42600  -2.21345  -2.20471  -2.20202
  Beta  occ. eigenvalues --   -2.19947  -2.19140  -2.18672  -2.18519  -1.15080
  Beta  occ. eigenvalues --   -1.14969  -1.14958  -1.14223  -1.14168  -1.14068
  Beta  occ. eigenvalues --   -1.13983  -1.13857  -1.13825  -1.13751  -1.13652
  Beta  occ. eigenvalues --   -1.13549  -1.12884  -1.12776  -1.12721  -1.12381
  Beta  occ. eigenvalues --   -1.12305  -1.12262  -1.12236  -1.12155  -1.12133
  Beta  occ. eigenvalues --   -0.19324  -0.13390  -0.11426
  Beta virt. eigenvalues --   -0.07685  -0.06965  -0.03678  -0.03300  -0.02920
  Beta virt. eigenvalues --   -0.02433  -0.02007  -0.01676  -0.00535  -0.00210
  Beta virt. eigenvalues --    0.00054   0.00252   0.00403   0.00573   0.00909

 Mulliken charges and spin densities:
               1          2
     1  Na   0.607381   0.286314
     2  Na  -0.461412  -0.117406
     3  Na   0.565162  -0.047115
     4  Na  -0.571255   0.307918
     5  Na   0.311044   0.671096
     6  Na  -0.683368  -0.124097
     7  Na   0.232447   0.023291
 Sum of Mulliken charges =  -0.00000   1.00000

 Dipole moment (field-independent basis, Debye):
    X=              0.4830    Y=              0.3997    Z=             -0.2784  Tot=              0.6860
 Quadrupole moment (field-independent basis, Debye-Ang):
   XX=            -48.6655   YY=            -74.6319   ZZ=            -68.4418
   XY=              1.0535   XZ=             -1.1877   YZ=              1.8150

 Normal termination of Gaussian 16 at Tue Dec  5 17:36:13 2023.
