 Gaussian 16, Revision B.01,
 Gaussian 16:  ES64L-G16RevB.01 20-Dec-2017

 -------------------------
 #P B3LYP/6-311+g(d) force
 -------------------------

 -----
 DPGEN
 -----
 Symbolic Z-matrix:
 Charge =  0 Multiplicity = 2

                         Standard orientation:
 ---------------------------------------------------------------------
 Center     Atomic      Atomic             Coordinates (Angstroms)
 Number     Number       Type             X           Y           Z
 ---------------------------------------------------------------------
      1         11           0       -0.147686   -0.465662   -1.526288
      2         11           0       -3.612774    0.434847   -0.563925
      3         11           0        0.735941    0.093747    1.832895
      4         11           0        2.460635   -1.816796   -0.498053
      5         11           0        2.699010    1.512333   -0.379765
      6         11           0       -0.692718    2.894921    0.368417
      7         11           0       -1.442408   -2.653391    0.766720
 ---------------------------------------------------------------------

 SCF Done:  E(UB3LYP) =  -1136.13246592     A.U. after   20 cycles

 The electronic state is 2-A.
 Alpha  occ. eigenvalues --  -38.44482 -38.43951 -38.43812 -38.43749 -38.43499
 Alpha  occ. eigenvalues --  -38.43400 -38.43356  -2.20239  -2.19817  -2.19636
 Alpha  occ. eigenvalues --   -2.19614  -2.19438  -2.19294  -2.19198  -1.13916
 Alpha  occ. eigenvalues --   -1.13883  -1.13876  -1.13513  -1.13490  -1.13449
 Alpha  occ. eigenvalues --   -1.13366  -1.13293  -1.13286  -1.13284  -1.13248
 Alpha  occ. eigenvalues --   -1.13238  -1.13132  -1.13071  -1.13046  -1.12971
 Alpha  occ. eigenvalues --   -1.12940  -1.12909  -1.12875  -1.12860  -1.12819
 Alpha  occ. eigenvalues --   -0.18368  -0.13053  -0.12184  -0.10623
 Alpha virt. eigenvalues --   -0.06006  -0.05312  -0.04684  -0.03163  -0.02801
 Alpha virt. eigenvalues --   -0.02285  -0.01844  -0.01219  -0.00657  -0.00306
 Alpha virt. eigenvalues --   -0.00044   0.00302   0.00698   0.00766   0.00812

  Beta  occ. eigenvalues --  -38.44467 -38.43942 -38.43790 -38.43733 -38.43456
  Beta  occ. eigenvalues --  -38.43398 -38.43277  -2.20211  -2.19804  -2.19610
  Beta  occ. eigenvalues --   -2.19575  -2.19361  -2.19197  -2.19148  -1.13890
  Beta  occ. eigenvalues --   -1.13865  -1.13859  -1.13506  -1.13472  -1.13424
  Beta  occ. eigenvalues --   -1.13340  -1.13268  -1.13263  -1.13245  -1.13216
  Beta  occ. eigenvalues --   -1.13208  -1.13075  -1.13022  -1.12983  -1.12897
  Beta  occ. eigenvalues --   -1.12869  -1.12860  -1.12837  -1.12818  -1.12771
  Beta  occ. eigenvalues --   -0.17701  -0.12754  -0.11923
  Beta virt. eigenvalues --   -0.06893  -0.05804  -0.05264  -0.04562  -0.02571
  Beta virt. eigenvalues --   -0.02155  -0.01704  -0.01341  -0.01136  -0.00618
  Beta virt. eigenvalues --   -0.00305   0.00104   0.00362   0.00771   0.00822

 Mulliken charges and spin densities:
               1          2
     1  Na  -0.024958   0.241164
     2  Na  -0.030354   0.026537
     3  Na   0.231538   0.508452
     4  Na   0.457222   0.132833
     5  Na  -0.009921   0.025806
     6  Na  -0.347683  -0.038676
     7  Na  -0.275845   0.103884
 Sum of Mulliken charges =  -0.00000   1.00000

 Dipole moment (field-independent basis, Debye):
    X=             -0.0373    Y=             -0.1244    Z=              0.0291  Tot=              0.1331
 Quadrupole moment (field-independent basis, Debye-Ang):
   XX=            -54.4601   YY=            -64.1138   ZZ=            -74.1961
   XY=              0.4045   XZ=             -1.2179   YZ=             -1.5926

 Normal termination of Gaussian 16 at Sun Dec  3 12:15:57 2023.
