 Gaussian 16, Revision B.01,
 Gaussian 16:  ES64L-G16RevB.01 20-Dec-2017

 -------------------------
 #P B3LYP/6-311+g(d) force
 -------------------------

 -----
 DPGEN
 -----
 Symbolic Z-matrix:
 Charge =  0 Multiplicity = 2

                         Standard orientation:
 ---------------------------------------------------------------------
 Center     Atomic      Atomic             Coordinates (Angstroms)
 Number     Number       Type             X           Y           Z
 ---------------------------------------------------------------------
      1         11           0        3.865766    0.543106   -0.282318
      2         11           0       -2.287757    1.626587    1.164246
      3         11           0        1.790825   -0.604224    1.628919
      4         11           0       -3.078645   -0.293873   -1.417688
      5         11           0        0.704492   -1.590375   -1.756243
      6         11           0       -1.358011   -1.628747    1.470040
      7         11           0        0.363330    1.947527   -0.806956
 ---------------------------------------------------------------------

 SCF Done:  E(UB3LYP) =  -1136.12215335     A.U. after   25 cycles

 The electronic state is 2-A.
 Alpha  occ. eigenvalues --  -38.45376 -38.44992 -38.44491 -38.43694 -38.43674
 Alpha  occ. eigenvalues --  -38.43406 -38.42579  -2.21178  -2.20805  -2.20306
 Alpha  occ. eigenvalues --   -2.19592  -2.19548  -2.19224  -2.18451  -1.14851
 Alpha  occ. eigenvalues --   -1.14826  -1.14811  -1.14522  -1.14448  -1.14425
 Alpha  occ. eigenvalues --   -1.13991  -1.13934  -1.13919  -1.13279  -1.13242
 Alpha  occ. eigenvalues --   -1.13226  -1.13215  -1.13198  -1.13181  -1.12929
 Alpha  occ. eigenvalues --   -1.12919  -1.12816  -1.12146  -1.12095  -1.12089
 Alpha  occ. eigenvalues --   -0.18203  -0.13968  -0.11552  -0.10854
 Alpha virt. eigenvalues --   -0.06976  -0.05170  -0.04492  -0.03290  -0.02863
 Alpha virt. eigenvalues --   -0.02562  -0.02391  -0.01078  -0.00565  -0.00299
 Alpha virt. eigenvalues --    0.00097   0.00216   0.00260   0.00649   0.00777

  Beta  occ. eigenvalues --  -38.45352 -38.44992 -38.44419 -38.43663 -38.43643
  Beta  occ. eigenvalues --  -38.43398 -38.42557  -2.21135  -2.20807  -2.20174
  Beta  occ. eigenvalues --   -2.19536  -2.19491  -2.19213  -2.18413  -1.14814
  Beta  occ. eigenvalues --   -1.14796  -1.14777  -1.14520  -1.14448  -1.14426
  Beta  occ. eigenvalues --   -1.13901  -1.13840  -1.13823  -1.13237  -1.13199
  Beta  occ. eigenvalues --   -1.13186  -1.13178  -1.13164  -1.13131  -1.12922
  Beta  occ. eigenvalues --   -1.12888  -1.12813  -1.12113  -1.12070  -1.12048
  Beta  occ. eigenvalues --   -0.17488  -0.13820  -0.10649
  Beta virt. eigenvalues --   -0.07677  -0.06774  -0.04510  -0.04399  -0.02927
  Beta virt. eigenvalues --   -0.02403  -0.02282  -0.01756  -0.00720  -0.00465
  Beta virt. eigenvalues --   -0.00112   0.00193   0.00233   0.00309   0.00784

 Mulliken charges and spin densities:
               1          2
     1  Na   0.704092  -0.014376
     2  Na   0.265046   0.145109
     3  Na  -0.280024   0.045201
     4  Na   0.173666   0.144318
     5  Na  -0.369468   0.508607
     6  Na  -0.068038   0.130499
     7  Na  -0.425275   0.040642
 Sum of Mulliken charges =  -0.00000   1.00000

 Dipole moment (field-independent basis, Debye):
    X=              0.3583    Y=             -0.2056    Z=             -0.7473  Tot=              0.8539
 Quadrupole moment (field-independent basis, Debye-Ang):
   XX=            -47.6639   YY=            -79.8673   ZZ=            -66.8809
   XY=              1.2716   XZ=              0.4991   YZ=              4.6016

 Normal termination of Gaussian 16 at Thu Dec  7 22:48:40 2023.
