 Gaussian 16, Revision B.01,
 Gaussian 16:  ES64L-G16RevB.01 20-Dec-2017

 -------------------------
 #P B3LYP/6-311+g(d) force
 -------------------------

 -----
 DPGEN
 -----
 Symbolic Z-matrix:
 Charge =  0 Multiplicity = 2

                         Standard orientation:
 ---------------------------------------------------------------------
 Center     Atomic      Atomic             Coordinates (Angstroms)
 Number     Number       Type             X           Y           Z
 ---------------------------------------------------------------------
      1         11           0        0.150218    1.375037   -0.178030
      2         11           0       -2.503254    3.623042    0.182634
      3         11           0       -3.247562    0.148423    0.048886
      4         11           0       -0.270093   -2.002558    1.080924
      5         11           0        3.121279   -1.272010    0.371682
      6         11           0       -2.822691   -2.764199   -0.972821
      7         11           0        5.572103    0.892265   -0.533275
 ---------------------------------------------------------------------

 SCF Done:  E(UB3LYP) =  -1136.12560149     A.U. after   19 cycles

 The electronic state is 2-A.
 Alpha  occ. eigenvalues --  -38.44780 -38.44255 -38.44095 -38.43890 -38.43858
 Alpha  occ. eigenvalues --  -38.43728 -38.43564  -2.20580  -2.20057  -2.19970
 Alpha  occ. eigenvalues --   -2.19750  -2.19650  -2.19583  -2.19365  -1.14283
 Alpha  occ. eigenvalues --   -1.14278  -1.14155  -1.13692  -1.13692  -1.13678
 Alpha  occ. eigenvalues --   -1.13673  -1.13653  -1.13590  -1.13440  -1.13423
 Alpha  occ. eigenvalues --   -1.13364  -1.13320  -1.13317  -1.13277  -1.13241
 Alpha  occ. eigenvalues --   -1.13224  -1.13197  -1.13053  -1.13036  -1.13015
 Alpha  occ. eigenvalues --   -0.17027  -0.13807  -0.12567  -0.11007
 Alpha virt. eigenvalues --   -0.05943  -0.05338  -0.04997  -0.03635  -0.02503
 Alpha virt. eigenvalues --   -0.02412  -0.02030  -0.01673  -0.01256  -0.00725
 Alpha virt. eigenvalues --   -0.00364  -0.00128   0.00441   0.00490   0.00667

  Beta  occ. eigenvalues --  -38.44762 -38.44151 -38.44069 -38.43859 -38.43850
  Beta  occ. eigenvalues --  -38.43700 -38.43564  -2.20547  -2.19925  -2.19863
  Beta  occ. eigenvalues --   -2.19679  -2.19652  -2.19532  -2.19373  -1.14261
  Beta  occ. eigenvalues --   -1.14253  -1.14129  -1.13646  -1.13622  -1.13560
  Beta  occ. eigenvalues --   -1.13559  -1.13548  -1.13547  -1.13394  -1.13377
  Beta  occ. eigenvalues --   -1.13320  -1.13317  -1.13301  -1.13278  -1.13199
  Beta  occ. eigenvalues --   -1.13184  -1.13167  -1.13067  -1.13050  -1.12958
  Beta  occ. eigenvalues --   -0.16546  -0.12956  -0.12398
  Beta virt. eigenvalues --   -0.07472  -0.05753  -0.05207  -0.04509  -0.03293
  Beta virt. eigenvalues --   -0.02291  -0.02048  -0.01841  -0.01499  -0.00883
  Beta virt. eigenvalues --   -0.00393  -0.00002   0.00008   0.00516   0.00622

 Mulliken charges and spin densities:
               1          2
     1  Na  -0.975303  -0.096869
     2  Na   0.712348   0.015089
     3  Na  -0.190197   0.377405
     4  Na  -0.480254   0.094368
     5  Na   0.031739   0.078937
     6  Na   0.399063   0.047770
     7  Na   0.502604   0.483301
 Sum of Mulliken charges =  -0.00000   1.00000

 Dipole moment (field-independent basis, Debye):
    X=             -0.9976    Y=              0.3354    Z=             -0.1114  Tot=              1.0584
 Quadrupole moment (field-independent basis, Debye-Ang):
   XX=            -68.9729   YY=            -60.1061   ZZ=            -70.0681
   XY=             -1.0573   XZ=             -0.8046   YZ=              0.3382

 Normal termination of Gaussian 16 at Tue Nov 28 20:29:29 2023.
