 Gaussian 16, Revision B.01,
 Gaussian 16:  ES64L-G16RevB.01 20-Dec-2017

 -------------------------
 #P B3LYP/6-311+g(d) force
 -------------------------

 -----
 DPGEN
 -----
 Symbolic Z-matrix:
 Charge =  0 Multiplicity = 2

                         Standard orientation:
 ---------------------------------------------------------------------
 Center     Atomic      Atomic             Coordinates (Angstroms)
 Number     Number       Type             X           Y           Z
 ---------------------------------------------------------------------
      1         11           0       -2.687114   -1.358426    1.043942
      2         11           0       -3.084417    0.280518   -1.665957
      3         11           0        0.507962   -1.980729   -1.276255
      4         11           0        1.560603    1.992956   -0.739921
      5         11           0        4.103040   -0.322822   -0.342717
      6         11           0       -1.539740    1.920935    0.941015
      7         11           0        1.139666   -0.532432    2.039893
 ---------------------------------------------------------------------

 SCF Done:  E(UB3LYP) =  -1136.12082760     A.U. after   25 cycles

 The electronic state is 2-A.
 Alpha  occ. eigenvalues --  -38.45325 -38.44593 -38.44445 -38.44442 -38.44131
 Alpha  occ. eigenvalues --  -38.43445 -38.42603  -2.21099  -2.20431  -2.20275
 Alpha  occ. eigenvalues --   -2.20270  -2.19887  -2.19256  -2.18456  -1.14777
 Alpha  occ. eigenvalues --   -1.14754  -1.14722  -1.14124  -1.14076  -1.14052
 Alpha  occ. eigenvalues --   -1.13954  -1.13936  -1.13917  -1.13909  -1.13900
 Alpha  occ. eigenvalues --   -1.13894  -1.13587  -1.13568  -1.13490  -1.12949
 Alpha  occ. eigenvalues --   -1.12923  -1.12880  -1.12137  -1.12127  -1.12093
 Alpha  occ. eigenvalues --   -0.17702  -0.14047  -0.11107  -0.10766
 Alpha virt. eigenvalues --   -0.06931  -0.05482  -0.04793  -0.03055  -0.02763
 Alpha virt. eigenvalues --   -0.02690  -0.02470  -0.01001  -0.00877  -0.00437
 Alpha virt. eigenvalues --    0.00077   0.00100   0.00199   0.00515   0.00624

  Beta  occ. eigenvalues --  -38.45312 -38.44541 -38.44435 -38.44367 -38.44120
  Beta  occ. eigenvalues --  -38.43438 -38.42594  -2.21077  -2.20332  -2.20263
  Beta  occ. eigenvalues --   -2.20132  -2.19868  -2.19243  -2.18442  -1.14754
  Beta  occ. eigenvalues --   -1.14738  -1.14709  -1.14071  -1.14009  -1.13981
  Beta  occ. eigenvalues --   -1.13926  -1.13905  -1.13879  -1.13857  -1.13799
  Beta  occ. eigenvalues --   -1.13785  -1.13576  -1.13540  -1.13479  -1.12940
  Beta  occ. eigenvalues --   -1.12909  -1.12869  -1.12132  -1.12100  -1.12077
  Beta  occ. eigenvalues --   -0.17022  -0.13756  -0.10637
  Beta virt. eigenvalues --   -0.07420  -0.06771  -0.04972  -0.04461  -0.02927
  Beta virt. eigenvalues --   -0.02519  -0.02051  -0.01859  -0.00823  -0.00575
  Beta virt. eigenvalues --   -0.00285   0.00108   0.00239   0.00248   0.00656

 Mulliken charges and spin densities:
               1          2
     1  Na   0.315552   0.105695
     2  Na   0.077371   0.179169
     3  Na  -0.376467   0.108320
     4  Na  -0.111768   0.014615
     5  Na   0.349917   0.026886
     6  Na  -0.118324   0.233601
     7  Na  -0.136281   0.331714
 Sum of Mulliken charges =  -0.00000   1.00000

 Dipole moment (field-independent basis, Debye):
    X=              0.8429    Y=             -0.5179    Z=             -0.1078  Tot=              0.9952
 Quadrupole moment (field-independent basis, Debye-Ang):
   XX=            -48.9531   YY=            -80.5019   ZZ=            -65.6050
   XY=             -0.5478   XZ=              0.1610   YZ=             -3.3132

 Normal termination of Gaussian 16 at Thu Dec  7 07:45:17 2023.
