 Gaussian 16, Revision B.01,
 Gaussian 16:  ES64L-G16RevB.01 20-Dec-2017

 -------------------------
 #P B3LYP/6-311+g(d) force
 -------------------------

 -----
 DPGEN
 -----
 Symbolic Z-matrix:
 Charge =  0 Multiplicity = 2

                         Standard orientation:
 ---------------------------------------------------------------------
 Center     Atomic      Atomic             Coordinates (Angstroms)
 Number     Number       Type             X           Y           Z
 ---------------------------------------------------------------------
      1         11           0       -2.804946   -0.956753   -1.257880
      2         11           0        2.641901   -0.718986    1.521588
      3         11           0       -0.943065   -1.120223    1.585479
      4         11           0       -3.537430    1.530549    0.583320
      5         11           0        3.796785    1.033371   -0.838942
      6         11           0        0.549469   -1.660924   -1.310482
      7         11           0        0.297286    1.892966   -0.283081
 ---------------------------------------------------------------------

 SCF Done:  E(UB3LYP) =  -1136.12201133     A.U. after   25 cycles

 The electronic state is 2-A.
 Alpha  occ. eigenvalues --  -38.45216 -38.44484 -38.44465 -38.44317 -38.43674
 Alpha  occ. eigenvalues --  -38.43322 -38.42927  -2.20992  -2.20348  -2.20345
 Alpha  occ. eigenvalues --   -2.20136  -2.19492  -2.19222  -2.18814  -1.14700
 Alpha  occ. eigenvalues --   -1.14687  -1.14578  -1.14040  -1.14025  -1.14010
 Alpha  occ. eigenvalues --   -1.14003  -1.13978  -1.13973  -1.13800  -1.13784
 Alpha  occ. eigenvalues --   -1.13760  -1.13175  -1.13148  -1.13126  -1.12924
 Alpha  occ. eigenvalues --   -1.12878  -1.12833  -1.12511  -1.12453  -1.12436
 Alpha  occ. eigenvalues --   -0.18268  -0.14357  -0.11162  -0.10877
 Alpha virt. eigenvalues --   -0.07216  -0.05187  -0.04923  -0.03162  -0.02910
 Alpha virt. eigenvalues --   -0.02495  -0.02077  -0.01283  -0.01001  -0.00242
 Alpha virt. eigenvalues --    0.00042   0.00210   0.00328   0.00424   0.00692

  Beta  occ. eigenvalues --  -38.45195 -38.44446 -38.44433 -38.44310 -38.43673
  Beta  occ. eigenvalues --  -38.43282 -38.42895  -2.20957  -2.20288  -2.20279
  Beta  occ. eigenvalues --   -2.20124  -2.19491  -2.19150  -2.18757  -1.14670
  Beta  occ. eigenvalues --   -1.14650  -1.14551  -1.13985  -1.13978  -1.13965
  Beta  occ. eigenvalues --   -1.13964  -1.13939  -1.13932  -1.13782  -1.13775
  Beta  occ. eigenvalues --   -1.13749  -1.13174  -1.13143  -1.13123  -1.12879
  Beta  occ. eigenvalues --   -1.12810  -1.12777  -1.12475  -1.12401  -1.12388
  Beta  occ. eigenvalues --   -0.17637  -0.14227  -0.10848
  Beta virt. eigenvalues --   -0.07111  -0.07101  -0.05047  -0.04293  -0.02908
  Beta virt. eigenvalues --   -0.02799  -0.01972  -0.01384  -0.01110  -0.00550
  Beta virt. eigenvalues --   -0.00183   0.00056   0.00226   0.00427   0.00588

 Mulliken charges and spin densities:
               1          2
     1  Na   0.212851   0.078942
     2  Na   0.131172   0.080230
     3  Na  -0.357386   0.388671
     4  Na   0.574743  -0.070535
     5  Na   0.699299   0.033908
     6  Na  -0.317928   0.295149
     7  Na  -0.942751   0.193636
 Sum of Mulliken charges =  -0.00000   1.00000

 Dipole moment (field-independent basis, Debye):
    X=              0.4563    Y=             -0.1980    Z=             -0.0680  Tot=              0.5020
 Quadrupole moment (field-independent basis, Debye-Ang):
   XX=            -50.9465   YY=            -76.2150   ZZ=            -69.9198
   XY=             -0.0153   XZ=              0.2681   YZ=              0.1136

 Normal termination of Gaussian 16 at Thu Dec  7 02:28:06 2023.
