 Gaussian 16, Revision B.01,
 Gaussian 16:  ES64L-G16RevB.01 20-Dec-2017

 -------------------------
 #P B3LYP/6-311+g(d) force
 -------------------------

 -----
 DPGEN
 -----
 Symbolic Z-matrix:
 Charge =  0 Multiplicity = 2

                         Standard orientation:
 ---------------------------------------------------------------------
 Center     Atomic      Atomic             Coordinates (Angstroms)
 Number     Number       Type             X           Y           Z
 ---------------------------------------------------------------------
      1         11           0       -2.754688    1.752778    0.059418
      2         11           0        1.256227    2.715527    0.085683
      3         11           0        0.894233   -2.679555   -0.342845
      4         11           0       -0.197809    0.181234   -1.415128
      5         11           0       -2.688924   -1.483393   -0.137994
      6         11           0        0.510250   -0.530544    2.229214
      7         11           0        2.980710    0.043954   -0.478347
 ---------------------------------------------------------------------

 SCF Done:  E(UB3LYP) =  -1136.13512732     A.U. after   19 cycles

 The electronic state is 2-A.
 Alpha  occ. eigenvalues --  -38.44031 -38.44001 -38.43962 -38.43709 -38.43386
 Alpha  occ. eigenvalues --  -38.43062 -38.43006  -2.19855  -2.19852  -2.19851
 Alpha  occ. eigenvalues --   -2.19573  -2.19233  -2.19038  -2.18948  -1.13587
 Alpha  occ. eigenvalues --   -1.13541  -1.13536  -1.13522  -1.13511  -1.13501
 Alpha  occ. eigenvalues --   -1.13494  -1.13490  -1.13439  -1.13224  -1.13202
 Alpha  occ. eigenvalues --   -1.13190  -1.12931  -1.12886  -1.12873  -1.12742
 Alpha  occ. eigenvalues --   -1.12703  -1.12671  -1.12606  -1.12595  -1.12576
 Alpha  occ. eigenvalues --   -0.18665  -0.13365  -0.12267  -0.10745
 Alpha virt. eigenvalues --   -0.05633  -0.05388  -0.04515  -0.03225  -0.02871
 Alpha virt. eigenvalues --   -0.02534  -0.01555  -0.01096  -0.00442  -0.00326
 Alpha virt. eigenvalues --   -0.00025   0.00345   0.00766   0.00864   0.00898

  Beta  occ. eigenvalues --  -38.44031 -38.43998 -38.43948 -38.43604 -38.43384
  Beta  occ. eigenvalues --  -38.43051 -38.42958  -2.19858  -2.19848  -2.19831
  Beta  occ. eigenvalues --   -2.19378  -2.19230  -2.18953  -2.18934  -1.13588
  Beta  occ. eigenvalues --   -1.13528  -1.13524  -1.13516  -1.13499  -1.13485
  Beta  occ. eigenvalues --   -1.13485  -1.13466  -1.13442  -1.13096  -1.13067
  Beta  occ. eigenvalues --   -1.13052  -1.12925  -1.12876  -1.12863  -1.12700
  Beta  occ. eigenvalues --   -1.12637  -1.12609  -1.12583  -1.12567  -1.12550
  Beta  occ. eigenvalues --   -0.17956  -0.13160  -0.12053
  Beta virt. eigenvalues --   -0.06752  -0.05565  -0.05393  -0.04461  -0.02512
  Beta virt. eigenvalues --   -0.02073  -0.01513  -0.01416  -0.01038  -0.00463
  Beta virt. eigenvalues --   -0.00368   0.00163   0.00395   0.00844   0.00875

 Mulliken charges and spin densities:
               1          2
     1  Na   0.053143   0.005124
     2  Na   0.010432   0.025684
     3  Na   0.346858   0.030178
     4  Na  -0.245220   0.142600
     5  Na   0.202555  -0.025677
     6  Na  -0.771635   0.761024
     7  Na   0.403866   0.061068
 Sum of Mulliken charges =  -0.00000   1.00000

 Dipole moment (field-independent basis, Debye):
    X=             -0.2678    Y=              0.0589    Z=              0.2191  Tot=              0.3510
 Quadrupole moment (field-independent basis, Debye-Ang):
   XX=            -56.2072   YY=            -63.1662   ZZ=            -74.4368
   XY=             -0.2669   XZ=             -1.5450   YZ=              1.6983

 Normal termination of Gaussian 16 at Thu Dec  7 16:34:14 2023.
