 Gaussian 16, Revision B.01,
 Gaussian 16:  ES64L-G16RevB.01 20-Dec-2017

 -------------------------
 #P B3LYP/6-311+g(d) force
 -------------------------

 -----
 DPGEN
 -----
 Symbolic Z-matrix:
 Charge =  0 Multiplicity = 2

                         Standard orientation:
 ---------------------------------------------------------------------
 Center     Atomic      Atomic             Coordinates (Angstroms)
 Number     Number       Type             X           Y           Z
 ---------------------------------------------------------------------
      1         11           0        1.032809    2.502137   -0.324108
      2         11           0       -2.720027   -1.406704   -0.179483
      3         11           0       -2.533339    1.679634    0.218937
      4         11           0       -0.157137   -0.177318   -1.802939
      5         11           0        0.882435   -2.549961   -0.021028
      6         11           0        3.168533    0.029032   -0.194422
      7         11           0        0.326726   -0.076820    2.303043
 ---------------------------------------------------------------------

 SCF Done:  E(UB3LYP) =  -1136.13534811     A.U. after   19 cycles

 The electronic state is 2-A.
 Alpha  occ. eigenvalues --  -38.44298 -38.44287 -38.43863 -38.43703 -38.43636
 Alpha  occ. eigenvalues --  -38.42909 -38.42892  -2.20150  -2.20132  -2.19727
 Alpha  occ. eigenvalues --   -2.19610  -2.19549  -2.18781  -2.18779  -1.13809
 Alpha  occ. eigenvalues --   -1.13799  -1.13796  -1.13780  -1.13776  -1.13763
 Alpha  occ. eigenvalues --   -1.13456  -1.13409  -1.13362  -1.13291  -1.13264
 Alpha  occ. eigenvalues --   -1.13221  -1.13207  -1.13194  -1.13180  -1.12477
 Alpha  occ. eigenvalues --   -1.12473  -1.12447  -1.12438  -1.12411  -1.12394
 Alpha  occ. eigenvalues --   -0.18752  -0.13328  -0.12029  -0.11328
 Alpha virt. eigenvalues --   -0.05867  -0.04999  -0.04091  -0.03548  -0.03141
 Alpha virt. eigenvalues --   -0.02926  -0.01639  -0.00849  -0.00143  -0.00110
 Alpha virt. eigenvalues --   -0.00044   0.00373   0.00769   0.00840   0.00928

  Beta  occ. eigenvalues --  -38.44284 -38.44193 -38.43861 -38.43701 -38.43568
  Beta  occ. eigenvalues --  -38.42902 -38.42885  -2.20130  -2.19956  -2.19724
  Beta  occ. eigenvalues --   -2.19547  -2.19488  -2.18771  -2.18770  -1.13801
  Beta  occ. eigenvalues --   -1.13784  -1.13769  -1.13675  -1.13640  -1.13630
  Beta  occ. eigenvalues --   -1.13454  -1.13390  -1.13357  -1.13216  -1.13203
  Beta  occ. eigenvalues --   -1.13192  -1.13181  -1.13164  -1.13129  -1.12470
  Beta  occ. eigenvalues --   -1.12463  -1.12419  -1.12412  -1.12400  -1.12392
  Beta  occ. eigenvalues --   -0.17994  -0.13128  -0.11783
  Beta virt. eigenvalues --   -0.07348  -0.05784  -0.05007  -0.04047  -0.02760
  Beta virt. eigenvalues --   -0.02127  -0.02045  -0.01544  -0.00793  -0.00176
  Beta virt. eigenvalues --   -0.00117   0.00074   0.00399   0.00864   0.00915

 Mulliken charges and spin densities:
               1          2
     1  Na   0.110741   0.013265
     2  Na   0.288616  -0.042005
     3  Na   0.000468   0.021177
     4  Na  -0.204294   0.371865
     5  Na   0.254747  -0.032266
     6  Na   0.241722  -0.034082
     7  Na  -0.692001   0.702045
 Sum of Mulliken charges =  -0.00000   1.00000

 Dipole moment (field-independent basis, Debye):
    X=              0.0808    Y=             -0.0728    Z=              0.2624  Tot=              0.2841
 Quadrupole moment (field-independent basis, Debye-Ang):
   XX=            -55.8967   YY=            -68.6598   ZZ=            -70.8721
   XY=             -0.0908   XZ=             -0.8744   YZ=              0.1397

 Normal termination of Gaussian 16 at Fri Dec  8 07:41:51 2023.
