 Gaussian 16, Revision B.01,
 Gaussian 16:  ES64L-G16RevB.01 20-Dec-2017

 -------------------------
 #P B3LYP/6-311+g(d) force
 -------------------------

 -----
 DPGEN
 -----
 Symbolic Z-matrix:
 Charge =  0 Multiplicity = 2

                         Standard orientation:
 ---------------------------------------------------------------------
 Center     Atomic      Atomic             Coordinates (Angstroms)
 Number     Number       Type             X           Y           Z
 ---------------------------------------------------------------------
      1         11           0        1.892927    2.315147   -0.099191
      2         11           0        3.008760   -0.930449   -0.269214
      3         11           0       -2.968550   -0.469437   -0.233509
      4         11           0       -0.386438   -2.907319   -0.348410
      5         11           0       -1.620068    2.501751    0.019108
      6         11           0        0.086368   -0.539090    2.143561
      7         11           0       -0.013000    0.029397   -1.212345
 ---------------------------------------------------------------------

 SCF Done:  E(UB3LYP) =  -1136.13519971     A.U. after   18 cycles

 The electronic state is 2-A.
 Alpha  occ. eigenvalues --  -38.44051 -38.43823 -38.43621 -38.43553 -38.43404
 Alpha  occ. eigenvalues --  -38.43403 -38.42645  -2.19884  -2.19704  -2.19480
 Alpha  occ. eigenvalues --   -2.19428  -2.19289  -2.19275  -2.18773  -1.13569
 Alpha  occ. eigenvalues --   -1.13543  -1.13517  -1.13415  -1.13360  -1.13336
 Alpha  occ. eigenvalues --   -1.13190  -1.13150  -1.13134  -1.13107  -1.13088
 Alpha  occ. eigenvalues --   -1.13041  -1.12975  -1.12956  -1.12924  -1.12908
 Alpha  occ. eigenvalues --   -1.12902  -1.12900  -1.12455  -1.12418  -1.12400
 Alpha  occ. eigenvalues --   -0.18893  -0.13094  -0.12679  -0.10506
 Alpha virt. eigenvalues --   -0.05621  -0.05106  -0.04842  -0.02914  -0.02799
 Alpha virt. eigenvalues --   -0.02329  -0.01534  -0.01194  -0.00423  -0.00349
 Alpha virt. eigenvalues --    0.00005   0.00343   0.00815   0.00870   0.00891

  Beta  occ. eigenvalues --  -38.44045 -38.43816 -38.43619 -38.43543 -38.43401
  Beta  occ. eigenvalues --  -38.43296 -38.42601  -2.19875  -2.19694  -2.19477
  Beta  occ. eigenvalues --   -2.19413  -2.19274  -2.19091  -2.18697  -1.13559
  Beta  occ. eigenvalues --   -1.13525  -1.13511  -1.13407  -1.13341  -1.13324
  Beta  occ. eigenvalues --   -1.13185  -1.13138  -1.13116  -1.13109  -1.13050
  Beta  occ. eigenvalues --   -1.13033  -1.12971  -1.12913  -1.12903  -1.12826
  Beta  occ. eigenvalues --   -1.12764  -1.12762  -1.12384  -1.12360  -1.12345
  Beta  occ. eigenvalues --   -0.18189  -0.12855  -0.12453
  Beta virt. eigenvalues --   -0.06538  -0.05604  -0.05086  -0.04785  -0.02169
  Beta virt. eigenvalues --   -0.02035  -0.01458  -0.01239  -0.01122  -0.00472
  Beta virt. eigenvalues --   -0.00379   0.00182   0.00396   0.00847   0.00879

 Mulliken charges and spin densities:
               1          2
     1  Na   0.308317   0.058059
     2  Na   0.347677   0.024887
     3  Na   0.488222   0.085055
     4  Na   0.463658   0.044108
     5  Na   0.271236   0.068260
     6  Na  -0.627202   0.731859
     7  Na  -1.251909  -0.012227
 Sum of Mulliken charges =  -0.00000   1.00000

 Dipole moment (field-independent basis, Debye):
    X=              0.1710    Y=             -0.1471    Z=              0.2467  Tot=              0.3343
 Quadrupole moment (field-independent basis, Debye-Ang):
   XX=            -56.1130   YY=            -60.1073   ZZ=            -75.8642
   XY=             -0.2444   XZ=             -0.2256   YZ=              1.3611

 Normal termination of Gaussian 16 at Thu Dec  7 22:12:33 2023.
