 Gaussian 16, Revision B.01,
 Gaussian 16:  ES64L-G16RevB.01 20-Dec-2017

 -------------------------
 #P B3LYP/6-311+g(d) force
 -------------------------

 -----
 DPGEN
 -----
 Symbolic Z-matrix:
 Charge =  0 Multiplicity = 2

                         Standard orientation:
 ---------------------------------------------------------------------
 Center     Atomic      Atomic             Coordinates (Angstroms)
 Number     Number       Type             X           Y           Z
 ---------------------------------------------------------------------
      1         11           0       -0.881468   -2.781926   -0.310539
      2         11           0       -1.391612   -0.357511    2.029813
      3         11           0       -3.581422   -0.221310   -0.651022
      4         11           0        4.205791   -1.127058   -0.332944
      5         11           0        0.404029    0.031743   -0.594369
      6         11           0       -1.693541    2.614092   -0.490946
      7         11           0        2.938223    1.841969    0.350007
 ---------------------------------------------------------------------

 SCF Done:  E(UB3LYP) =  -1136.11626055     A.U. after   24 cycles

 The electronic state is 2-A.
 Alpha  occ. eigenvalues --  -38.44864 -38.44577 -38.44543 -38.43807 -38.43747
 Alpha  occ. eigenvalues --  -38.43236 -38.43043  -2.20748  -2.20387  -2.20334
 Alpha  occ. eigenvalues --   -2.19740  -2.19672  -2.19089  -2.18872  -1.14442
 Alpha  occ. eigenvalues --   -1.14396  -1.14342  -1.14083  -1.14059  -1.14044
 Alpha  occ. eigenvalues --   -1.13992  -1.13972  -1.13931  -1.13454  -1.13429
 Alpha  occ. eigenvalues --   -1.13357  -1.13352  -1.13305  -1.13278  -1.12796
 Alpha  occ. eigenvalues --   -1.12735  -1.12710  -1.12570  -1.12523  -1.12505
 Alpha  occ. eigenvalues --   -0.18008  -0.14020  -0.11599  -0.10065
 Alpha virt. eigenvalues --   -0.07063  -0.05767  -0.04116  -0.03192  -0.02904
 Alpha virt. eigenvalues --   -0.02204  -0.01841  -0.01625  -0.00805  -0.00563
 Alpha virt. eigenvalues --   -0.00424   0.00034   0.00419   0.00596   0.00676

  Beta  occ. eigenvalues --  -38.44808 -38.44579 -38.44500 -38.43734 -38.43731
  Beta  occ. eigenvalues --  -38.43241 -38.43037  -2.20647  -2.20394  -2.20253
  Beta  occ. eigenvalues --   -2.19720  -2.19532  -2.19101  -2.18865  -1.14362
  Beta  occ. eigenvalues --   -1.14321  -1.14271  -1.14088  -1.14065  -1.14017
  Beta  occ. eigenvalues --   -1.13937  -1.13916  -1.13888  -1.13420  -1.13404
  Beta  occ. eigenvalues --   -1.13356  -1.13254  -1.13215  -1.13176  -1.12808
  Beta  occ. eigenvalues --   -1.12726  -1.12716  -1.12569  -1.12524  -1.12471
  Beta  occ. eigenvalues --   -0.17459  -0.13586  -0.11387
  Beta virt. eigenvalues --   -0.06803  -0.06533  -0.05377  -0.04120  -0.02799
  Beta virt. eigenvalues --   -0.02586  -0.01835  -0.01432  -0.01221  -0.00642
  Beta virt. eigenvalues --   -0.00461  -0.00052   0.00207   0.00575   0.00701

 Mulliken charges and spin densities:
               1          2
     1  Na   0.083700  -0.002965
     2  Na  -0.314902  -0.000236
     3  Na   0.316151   0.533942
     4  Na   0.149481   0.221195
     5  Na  -0.991178  -0.007198
     6  Na   0.514083   0.172639
     7  Na   0.242666   0.082623
 Sum of Mulliken charges =  -0.00000   1.00000

 Dipole moment (field-independent basis, Debye):
    X=              0.8262    Y=             -0.1352    Z=              1.2296  Tot=              1.4875
 Quadrupole moment (field-independent basis, Debye-Ang):
   XX=            -63.8473   YY=            -66.6901   ZZ=            -67.9132
   XY=              1.7201   XZ=             -3.0511   YZ=              2.1800

 Normal termination of Gaussian 16 at Tue Dec  5 16:01:07 2023.
