 Gaussian 16, Revision B.01,
 Gaussian 16:  ES64L-G16RevB.01 20-Dec-2017

 -------------------------
 #P B3LYP/6-311+g(d) force
 -------------------------

 -----
 DPGEN
 -----
 Symbolic Z-matrix:
 Charge =  0 Multiplicity = 2

                         Standard orientation:
 ---------------------------------------------------------------------
 Center     Atomic      Atomic             Coordinates (Angstroms)
 Number     Number       Type             X           Y           Z
 ---------------------------------------------------------------------
      1         11           0       -2.111669   -2.352724   -0.182176
      2         11           0        0.013921   -0.255494   -1.874574
      3         11           0       -0.233449    2.986448   -0.472150
      4         11           0        0.436378    0.689075    2.202307
      5         11           0        1.409429   -2.285611    0.492756
      6         11           0       -2.595802    0.898462    0.284021
      7         11           0        3.081191    0.319844   -0.450183
 ---------------------------------------------------------------------

 SCF Done:  E(UB3LYP) =  -1136.13831353     A.U. after   19 cycles

 The electronic state is 2-A.
 Alpha  occ. eigenvalues --  -38.44092 -38.43843 -38.43654 -38.43541 -38.43525
 Alpha  occ. eigenvalues --  -38.43488 -38.43142  -2.19949  -2.19683  -2.19586
 Alpha  occ. eigenvalues --   -2.19418  -2.19406  -2.19332  -2.18982  -1.13613
 Alpha  occ. eigenvalues --   -1.13584  -1.13567  -1.13378  -1.13348  -1.13323
 Alpha  occ. eigenvalues --   -1.13266  -1.13231  -1.13209  -1.13104  -1.13092
 Alpha  occ. eigenvalues --   -1.13082  -1.13081  -1.13058  -1.13037  -1.12995
 Alpha  occ. eigenvalues --   -1.12977  -1.12954  -1.12648  -1.12642  -1.12628
 Alpha  occ. eigenvalues --   -0.18561  -0.12947  -0.12372  -0.11312
 Alpha virt. eigenvalues --   -0.05316  -0.04902  -0.04745  -0.03513  -0.03256
 Alpha virt. eigenvalues --   -0.02905  -0.01233  -0.01022  -0.00219  -0.00092
 Alpha virt. eigenvalues --    0.00012   0.00399   0.00831   0.00893   0.00909

  Beta  occ. eigenvalues --  -38.44003 -38.43836 -38.43584 -38.43530 -38.43519
  Beta  occ. eigenvalues --  -38.43481 -38.43143  -2.19785  -2.19674  -2.19458
  Beta  occ. eigenvalues --   -2.19400  -2.19398  -2.19322  -2.18985  -1.13503
  Beta  occ. eigenvalues --   -1.13471  -1.13448  -1.13369  -1.13324  -1.13313
  Beta  occ. eigenvalues --   -1.13188  -1.13149  -1.13117  -1.13097  -1.13075
  Beta  occ. eigenvalues --   -1.13071  -1.13045  -1.13036  -1.13027  -1.12975
  Beta  occ. eigenvalues --   -1.12967  -1.12946  -1.12647  -1.12637  -1.12629
  Beta  occ. eigenvalues --   -0.17801  -0.12738  -0.12179
  Beta virt. eigenvalues --   -0.07360  -0.05272  -0.04793  -0.04664  -0.02702
  Beta virt. eigenvalues --   -0.02535  -0.01927  -0.01158  -0.00954  -0.00146
  Beta virt. eigenvalues --   -0.00103   0.00095   0.00429   0.00886   0.00903

 Mulliken charges and spin densities:
               1          2
     1  Na   0.092624  -0.046240
     2  Na  -0.186809   0.508945
     3  Na   0.150520  -0.063915
     4  Na  -0.343986   0.460915
     5  Na   0.031717   0.144938
     6  Na   0.052739   0.077092
     7  Na   0.203195  -0.081735
 Sum of Mulliken charges =  -0.00000   1.00000

 Dipole moment (field-independent basis, Debye):
    X=              0.3452    Y=              0.2136    Z=              0.1149  Tot=              0.4219
 Quadrupole moment (field-independent basis, Debye-Ang):
   XX=            -61.6972   YY=            -63.7113   ZZ=            -70.3308
   XY=              0.9749   XZ=             -0.9808   YZ=             -1.7585

 Normal termination of Gaussian 16 at Tue Dec  5 14:33:08 2023.
