 Gaussian 16, Revision B.01,
 Gaussian 16:  ES64L-G16RevB.01 20-Dec-2017

 -------------------------
 #P B3LYP/6-311+g(d) force
 -------------------------

 -----
 DPGEN
 -----
 Symbolic Z-matrix:
 Charge =  0 Multiplicity = 2

                         Standard orientation:
 ---------------------------------------------------------------------
 Center     Atomic      Atomic             Coordinates (Angstroms)
 Number     Number       Type             X           Y           Z
 ---------------------------------------------------------------------
      1         11           0       -0.764819   -2.814842   -0.224861
      2         11           0       -0.389755    3.203195   -0.241667
      3         11           0        2.652444    1.345539    0.233730
      4         11           0       -0.222408   -0.071498    2.179983
      5         11           0       -0.208794    0.377263   -1.641068
      6         11           0       -3.468653   -0.083252    0.001472
      7         11           0        2.401985   -1.956405   -0.307588
 ---------------------------------------------------------------------

 SCF Done:  E(UB3LYP) =  -1136.13516162     A.U. after   19 cycles

 The electronic state is 2-A.
 Alpha  occ. eigenvalues --  -38.44420 -38.43953 -38.43873 -38.43768 -38.43702
 Alpha  occ. eigenvalues --  -38.43388 -38.43323  -2.20179  -2.19771  -2.19714
 Alpha  occ. eigenvalues --   -2.19607  -2.19541  -2.19255  -2.19233  -1.13856
 Alpha  occ. eigenvalues --   -1.13832  -1.13824  -1.13481  -1.13422  -1.13400
 Alpha  occ. eigenvalues --   -1.13375  -1.13347  -1.13330  -1.13289  -1.13273
 Alpha  occ. eigenvalues --   -1.13241  -1.13230  -1.13213  -1.13171  -1.12937
 Alpha  occ. eigenvalues --   -1.12906  -1.12890  -1.12887  -1.12883  -1.12869
 Alpha  occ. eigenvalues --   -0.18200  -0.12698  -0.12528  -0.10706
 Alpha virt. eigenvalues --   -0.05982  -0.05135  -0.04805  -0.03104  -0.02949
 Alpha virt. eigenvalues --   -0.02661  -0.01636  -0.01320  -0.00532  -0.00421
 Alpha virt. eigenvalues --   -0.00037   0.00341   0.00766   0.00826   0.00857

  Beta  occ. eigenvalues --  -38.44421 -38.43948 -38.43771 -38.43761 -38.43694
  Beta  occ. eigenvalues --  -38.43383 -38.43267  -2.20185  -2.19764  -2.19599
  Beta  occ. eigenvalues --   -2.19531  -2.19525  -2.19228  -2.19152  -1.13846
  Beta  occ. eigenvalues --   -1.13838  -1.13828  -1.13467  -1.13406  -1.13399
  Beta  occ. eigenvalues --   -1.13287  -1.13256  -1.13245  -1.13237  -1.13225
  Beta  occ. eigenvalues --   -1.13212  -1.13190  -1.13186  -1.13161  -1.12892
  Beta  occ. eigenvalues --   -1.12886  -1.12865  -1.12864  -1.12817  -1.12800
  Beta  occ. eigenvalues --   -0.17487  -0.12489  -0.12322
  Beta virt. eigenvalues --   -0.06800  -0.05968  -0.05008  -0.04793  -0.02344
  Beta virt. eigenvalues --   -0.02236  -0.01658  -0.01502  -0.01229  -0.00571
  Beta virt. eigenvalues --   -0.00463   0.00118   0.00374   0.00769   0.00855

 Mulliken charges and spin densities:
               1          2
     1  Na   0.164826   0.002456
     2  Na   0.188949  -0.080131
     3  Na   0.178378   0.091324
     4  Na  -0.463458   0.727199
     5  Na  -0.101019   0.358736
     6  Na   0.052693  -0.104068
     7  Na  -0.020368   0.004485
 Sum of Mulliken charges =  -0.00000   1.00000

 Dipole moment (field-independent basis, Debye):
    X=             -0.4527    Y=              0.2703    Z=              0.1306  Tot=              0.5432
 Quadrupole moment (field-independent basis, Debye-Ang):
   XX=            -57.7112   YY=            -61.0836   ZZ=            -74.8785
   XY=             -0.2014   XZ=              0.0454   YZ=              1.0469

 Normal termination of Gaussian 16 at Thu Dec  7 23:07:15 2023.
