 Gaussian 16, Revision B.01,
 Gaussian 16:  ES64L-G16RevB.01 20-Dec-2017

 -------------------------
 #P B3LYP/6-311+g(d) force
 -------------------------

 -----
 DPGEN
 -----
 Symbolic Z-matrix:
 Charge =  0 Multiplicity = 2

                         Standard orientation:
 ---------------------------------------------------------------------
 Center     Atomic      Atomic             Coordinates (Angstroms)
 Number     Number       Type             X           Y           Z
 ---------------------------------------------------------------------
      1         11           0        0.868510   -0.425636    2.017340
      2         11           0        2.538346    2.521783    0.262597
      3         11           0       -2.552950   -1.046119    0.854910
      4         11           0       -3.315662    1.846617   -0.245137
      5         11           0       -0.051509   -2.399022   -0.679206
      6         11           0       -0.406774    0.375709   -1.614424
      7         11           0        2.920041   -0.873331   -0.596081
 ---------------------------------------------------------------------

 SCF Done:  E(UB3LYP) =  -1136.12489062     A.U. after   21 cycles

 The electronic state is 2-A.
 Alpha  occ. eigenvalues --  -38.44553 -38.44142 -38.44025 -38.43941 -38.43896
 Alpha  occ. eigenvalues --  -38.43777 -38.42630  -2.20420  -2.20021  -2.19955
 Alpha  occ. eigenvalues --   -2.19798  -2.19748  -2.19551  -2.18604  -1.14111
 Alpha  occ. eigenvalues --   -1.14090  -1.14037  -1.13697  -1.13685  -1.13675
 Alpha  occ. eigenvalues --   -1.13615  -1.13610  -1.13556  -1.13504  -1.13467
 Alpha  occ. eigenvalues --   -1.13459  -1.13402  -1.13394  -1.13348  -1.13224
 Alpha  occ. eigenvalues --   -1.13214  -1.13193  -1.12317  -1.12242  -1.12224
 Alpha  occ. eigenvalues --   -0.18582  -0.13715  -0.11573  -0.11178
 Alpha virt. eigenvalues --   -0.06257  -0.05576  -0.04075  -0.03472  -0.02840
 Alpha virt. eigenvalues --   -0.02645  -0.01885  -0.01088  -0.00626  -0.00152
 Alpha virt. eigenvalues --    0.00021   0.00293   0.00491   0.00683   0.00745

  Beta  occ. eigenvalues --  -38.44541 -38.44063 -38.43961 -38.43942 -38.43874
  Beta  occ. eigenvalues --  -38.43779 -38.42610  -2.20402  -2.19874  -2.19840
  Beta  occ. eigenvalues --   -2.19759  -2.19751  -2.19556  -2.18574  -1.14097
  Beta  occ. eigenvalues --   -1.14062  -1.14019  -1.13615  -1.13591  -1.13579
  Beta  occ. eigenvalues --   -1.13521  -1.13503  -1.13500  -1.13474  -1.13436
  Beta  occ. eigenvalues --   -1.13420  -1.13397  -1.13388  -1.13333  -1.13224
  Beta  occ. eigenvalues --   -1.13213  -1.13196  -1.12294  -1.12223  -1.12167
  Beta  occ. eigenvalues --   -0.17817  -0.13541  -0.11366
  Beta virt. eigenvalues --   -0.07211  -0.06187  -0.05376  -0.03813  -0.03028
  Beta virt. eigenvalues --   -0.02104  -0.01837  -0.01737  -0.00921  -0.00616
  Beta virt. eigenvalues --    0.00012   0.00056   0.00323   0.00645   0.00739

 Mulliken charges and spin densities:
               1          2
     1  Na  -0.302634   0.423429
     2  Na  -0.232955  -0.047142
     3  Na   0.177526   0.181887
     4  Na  -0.048351  -0.053041
     5  Na   0.302160   0.221501
     6  Na  -0.285962   0.253608
     7  Na   0.390216   0.019757
 Sum of Mulliken charges =  -0.00000   1.00000

 Dipole moment (field-independent basis, Debye):
    X=              0.2623    Y=              0.0439    Z=              0.1646  Tot=              0.3128
 Quadrupole moment (field-independent basis, Debye-Ang):
   XX=            -57.4100   YY=            -66.6659   ZZ=            -71.6570
   XY=             -1.8138   XZ=             -2.4097   YZ=              0.2358

 Normal termination of Gaussian 16 at Fri Dec  8 05:05:45 2023.
