 Gaussian 16, Revision B.01,
 Gaussian 16:  ES64L-G16RevB.01 20-Dec-2017

 -------------------------
 #P B3LYP/6-311+g(d) force
 -------------------------

 -----
 DPGEN
 -----
 Symbolic Z-matrix:
 Charge =  0 Multiplicity = 2

                         Standard orientation:
 ---------------------------------------------------------------------
 Center     Atomic      Atomic             Coordinates (Angstroms)
 Number     Number       Type             X           Y           Z
 ---------------------------------------------------------------------
      1         11           0       -0.273733   -0.509887    1.846360
      2         11           0       -0.224283    0.269329   -1.745459
      3         11           0       -2.625011   -1.652464    0.008182
      4         11           0        3.135873   -0.228692   -0.041473
      5         11           0       -2.237292    1.830489   -0.099080
      6         11           0        1.126292    2.692964    0.328286
      7         11           0        1.098154   -2.401739   -0.296816
 ---------------------------------------------------------------------

 SCF Done:  E(UB3LYP) =  -1136.13523627     A.U. after   19 cycles

 The electronic state is 2-A.
 Alpha  occ. eigenvalues --  -38.44034 -38.43793 -38.43722 -38.43379 -38.43333
 Alpha  occ. eigenvalues --  -38.43303 -38.43270  -2.19894  -2.19657  -2.19616
 Alpha  occ. eigenvalues --   -2.19337  -2.19262  -2.19242  -2.19172  -1.13620
 Alpha  occ. eigenvalues --   -1.13543  -1.13530  -1.13377  -1.13356  -1.13315
 Alpha  occ. eigenvalues --   -1.13299  -1.13271  -1.13219  -1.13057  -1.12980
 Alpha  occ. eigenvalues --   -1.12957  -1.12946  -1.12922  -1.12884  -1.12878
 Alpha  occ. eigenvalues --   -1.12861  -1.12847  -1.12837  -1.12823  -1.12807
 Alpha  occ. eigenvalues --   -0.19074  -0.13302  -0.12523  -0.10804
 Alpha virt. eigenvalues --   -0.05552  -0.05283  -0.04473  -0.03278  -0.02957
 Alpha virt. eigenvalues --   -0.02423  -0.01507  -0.01063  -0.00238  -0.00106
 Alpha virt. eigenvalues --    0.00004   0.00356   0.00813   0.00904   0.00930

  Beta  occ. eigenvalues --  -38.44033 -38.43787 -38.43714 -38.43327 -38.43299
  Beta  occ. eigenvalues --  -38.43290 -38.43194  -2.19895  -2.19651  -2.19606
  Beta  occ. eigenvalues --   -2.19224  -2.19190  -2.19162  -2.19125  -1.13623
  Beta  occ. eigenvalues --   -1.13534  -1.13523  -1.13363  -1.13335  -1.13298
  Beta  occ. eigenvalues --   -1.13288  -1.13241  -1.13217  -1.12991  -1.12894
  Beta  occ. eigenvalues --   -1.12888  -1.12864  -1.12853  -1.12837  -1.12821
  Beta  occ. eigenvalues --   -1.12815  -1.12804  -1.12803  -1.12779  -1.12754
  Beta  occ. eigenvalues --   -0.18337  -0.13045  -0.12277
  Beta virt. eigenvalues --   -0.06885  -0.05506  -0.05266  -0.04437  -0.02461
  Beta virt. eigenvalues --   -0.02183  -0.01431  -0.01385  -0.01003  -0.00279
  Beta virt. eigenvalues --   -0.00138   0.00136   0.00380   0.00868   0.00901

 Mulliken charges and spin densities:
               1          2
     1  Na  -0.525681   0.751508
     2  Na  -0.306362   0.555388
     3  Na   0.380654  -0.095263
     4  Na  -0.131173  -0.071440
     5  Na   0.217358  -0.057324
     6  Na  -0.024947  -0.042077
     7  Na   0.390151  -0.040793
 Sum of Mulliken charges =  -0.00000   1.00000

 Dipole moment (field-independent basis, Debye):
    X=             -0.1345    Y=              0.0334    Z=              0.0793  Tot=              0.1596
 Quadrupole moment (field-independent basis, Debye-Ang):
   XX=            -55.6901   YY=            -64.2488   ZZ=            -73.9967
   XY=              1.0519   XZ=              0.3075   YZ=              1.6542

 Normal termination of Gaussian 16 at Thu Dec  7 22:56:49 2023.
