 Gaussian 16, Revision B.01,
 Gaussian 16:  ES64L-G16RevB.01 20-Dec-2017

 -------------------------
 #P B3LYP/6-311+g(d) force
 -------------------------

 -----
 DPGEN
 -----
 Symbolic Z-matrix:
 Charge =  0 Multiplicity = 2

                         Standard orientation:
 ---------------------------------------------------------------------
 Center     Atomic      Atomic             Coordinates (Angstroms)
 Number     Number       Type             X           Y           Z
 ---------------------------------------------------------------------
      1         11           0       -3.125146   -0.057014   -0.383102
      2         11           0       -0.667427   -2.689448   -0.632834
      3         11           0       -1.026211    2.831526    0.039142
      4         11           0        2.757260    1.879656    0.085589
      5         11           0       -0.711651   -0.518482    2.358200
      6         11           0        0.223849    0.400857   -1.549197
      7         11           0        2.549328   -1.847096    0.082202
 ---------------------------------------------------------------------

 SCF Done:  E(UB3LYP) =  -1136.13584190     A.U. after   19 cycles

 The electronic state is 2-A.
 Alpha  occ. eigenvalues --  -38.44040 -38.43985 -38.43955 -38.43877 -38.43804
 Alpha  occ. eigenvalues --  -38.43296 -38.43210  -2.19863  -2.19781  -2.19775
 Alpha  occ. eigenvalues --   -2.19683  -2.19630  -2.19177  -2.19160  -1.13507
 Alpha  occ. eigenvalues --   -1.13497  -1.13484  -1.13459  -1.13453  -1.13439
 Alpha  occ. eigenvalues --   -1.13436  -1.13427  -1.13409  -1.13359  -1.13348
 Alpha  occ. eigenvalues --   -1.13345  -1.13323  -1.13291  -1.13242  -1.12891
 Alpha  occ. eigenvalues --   -1.12858  -1.12814  -1.12803  -1.12790  -1.12783
 Alpha  occ. eigenvalues --   -0.18160  -0.12764  -0.12483  -0.10822
 Alpha virt. eigenvalues --   -0.05652  -0.05383  -0.04722  -0.03208  -0.03051
 Alpha virt. eigenvalues --   -0.02673  -0.01464  -0.01152  -0.00578  -0.00424
 Alpha virt. eigenvalues --   -0.00067   0.00342   0.00745   0.00829   0.00875

  Beta  occ. eigenvalues --  -38.43986 -38.43949 -38.43933 -38.43877 -38.43801
  Beta  occ. eigenvalues --  -38.43281 -38.43162  -2.19778  -2.19773  -2.19684
  Beta  occ. eigenvalues --   -2.19664  -2.19626  -2.19136  -2.19091  -1.13455
  Beta  occ. eigenvalues --   -1.13445  -1.13438  -1.13427  -1.13419  -1.13413
  Beta  occ. eigenvalues --   -1.13371  -1.13356  -1.13353  -1.13342  -1.13338
  Beta  occ. eigenvalues --   -1.13336  -1.13326  -1.13275  -1.13244  -1.12856
  Beta  occ. eigenvalues --   -1.12799  -1.12780  -1.12775  -1.12744  -1.12726
  Beta  occ. eigenvalues --   -0.17470  -0.12590  -0.12294
  Beta virt. eigenvalues --   -0.06839  -0.05637  -0.05323  -0.04605  -0.02488
  Beta virt. eigenvalues --   -0.02310  -0.01646  -0.01385  -0.01088  -0.00602
  Beta virt. eigenvalues --   -0.00454   0.00138   0.00393   0.00818   0.00858

 Mulliken charges and spin densities:
               1          2
     1  Na   0.295898   0.034969
     2  Na   0.202250   0.063738
     3  Na  -0.005027  -0.014117
     4  Na  -0.017420  -0.009003
     5  Na  -0.735835   0.756895
     6  Na   0.293241   0.169542
     7  Na  -0.033106  -0.002025
 Sum of Mulliken charges =  -0.00000   1.00000

 Dipole moment (field-independent basis, Debye):
    X=              0.0368    Y=              0.1922    Z=              0.2010  Tot=              0.2806
 Quadrupole moment (field-independent basis, Debye-Ang):
   XX=            -57.4705   YY=            -63.0369   ZZ=            -73.7962
   XY=             -0.2277   XZ=              2.1844   YZ=              1.6704

 Normal termination of Gaussian 16 at Thu Dec  7 15:19:37 2023.
