 Gaussian 16, Revision B.01,
 Gaussian 16:  ES64L-G16RevB.01 20-Dec-2017

 -------------------------
 #P B3LYP/6-311+g(d) force
 -------------------------

 -----
 DPGEN
 -----
 Symbolic Z-matrix:
 Charge =  0 Multiplicity = 2

                         Standard orientation:
 ---------------------------------------------------------------------
 Center     Atomic      Atomic             Coordinates (Angstroms)
 Number     Number       Type             X           Y           Z
 ---------------------------------------------------------------------
      1         11           0        3.779020   -0.465929    0.359559
      2         11           0       -0.521384   -0.163881    1.682399
      3         11           0        1.358502   -1.163221   -0.866101
      4         11           0       -2.062910   -0.113679   -1.188109
      5         11           0        1.215737    2.146300   -0.558545
      6         11           0       -1.891141    2.868849    0.380407
      7         11           0       -1.877824   -3.108440    0.190390
 ---------------------------------------------------------------------

 SCF Done:  E(UB3LYP) =  -1136.12759850     A.U. after   19 cycles

 The electronic state is 2-A.
 Alpha  occ. eigenvalues --  -38.44586 -38.44112 -38.43901 -38.43637 -38.43447
 Alpha  occ. eigenvalues --  -38.43340 -38.43163  -2.20434  -2.19972  -2.19714
 Alpha  occ. eigenvalues --   -2.19485  -2.19429  -2.19269  -2.19101  -1.14224
 Alpha  occ. eigenvalues --   -1.14056  -1.14050  -1.13684  -1.13650  -1.13579
 Alpha  occ. eigenvalues --   -1.13392  -1.13373  -1.13353  -1.13166  -1.13135
 Alpha  occ. eigenvalues --   -1.13134  -1.13129  -1.13094  -1.13023  -1.12974
 Alpha  occ. eigenvalues --   -1.12935  -1.12861  -1.12791  -1.12731  -1.12688
 Alpha  occ. eigenvalues --   -0.18564  -0.13403  -0.12657  -0.09956
 Alpha virt. eigenvalues --   -0.06102  -0.05540  -0.04588  -0.03134  -0.02742
 Alpha virt. eigenvalues --   -0.01904  -0.01861  -0.01590  -0.00633  -0.00201
 Alpha virt. eigenvalues --    0.00152   0.00282   0.00721   0.00780   0.00845

  Beta  occ. eigenvalues --  -38.44587 -38.44098 -38.43900 -38.43632 -38.43424
  Beta  occ. eigenvalues --  -38.43299 -38.43085  -2.20439  -2.19949  -2.19716
  Beta  occ. eigenvalues --   -2.19479  -2.19390  -2.19195  -2.18958  -1.14227
  Beta  occ. eigenvalues --   -1.14054  -1.14049  -1.13670  -1.13606  -1.13567
  Beta  occ. eigenvalues --   -1.13394  -1.13358  -1.13355  -1.13163  -1.13129
  Beta  occ. eigenvalues --   -1.13110  -1.13107  -1.13033  -1.12994  -1.12925
  Beta  occ. eigenvalues --   -1.12863  -1.12812  -1.12692  -1.12632  -1.12584
  Beta  occ. eigenvalues --   -0.17852  -0.13239  -0.12449
  Beta virt. eigenvalues --   -0.06120  -0.05954  -0.05492  -0.04549  -0.02549
  Beta virt. eigenvalues --   -0.02076  -0.01792  -0.01550  -0.00972  -0.00575
  Beta virt. eigenvalues --   -0.00033   0.00224   0.00368   0.00733   0.00821

 Mulliken charges and spin densities:
               1          2
     1  Na   0.382581  -0.108080
     2  Na  -0.552946   0.657624
     3  Na  -0.317709   0.204092
     4  Na  -0.094257   0.279713
     5  Na  -0.220486   0.027312
     6  Na   0.493128   0.023299
     7  Na   0.309689  -0.083960
 Sum of Mulliken charges =  -0.00000   1.00000

 Dipole moment (field-independent basis, Debye):
    X=              0.4105    Y=             -0.0007    Z=              0.1797  Tot=              0.4482
 Quadrupole moment (field-independent basis, Debye-Ang):
   XX=            -54.6500   YY=            -58.5220   ZZ=            -77.0806
   XY=              0.4592   XZ=              1.6716   YZ=             -0.4406

 Normal termination of Gaussian 16 at Tue Dec  5 16:38:04 2023.
