 Gaussian 16, Revision B.01,
 Gaussian 16:  ES64L-G16RevB.01 20-Dec-2017

 -------------------------
 #P B3LYP/6-311+g(d) force
 -------------------------

 -----
 DPGEN
 -----
 Symbolic Z-matrix:
 Charge =  0 Multiplicity = 2

                         Standard orientation:
 ---------------------------------------------------------------------
 Center     Atomic      Atomic             Coordinates (Angstroms)
 Number     Number       Type             X           Y           Z
 ---------------------------------------------------------------------
      1         11           0       -1.944339   -2.847479   -0.767702
      2         11           0       -2.691596    0.213397   -1.683341
      3         11           0       -2.442148   -0.148511    2.351223
      4         11           0       -1.292226    3.129362    0.454620
      5         11           0        0.518117    0.005749   -0.544918
      6         11           0        3.873522   -1.128314    1.598985
      7         11           0        3.978670    0.775797   -1.408866
 ---------------------------------------------------------------------

 SCF Done:  E(UB3LYP) =  -1136.11267446     A.U. after   23 cycles

 The electronic state is 2-A.
 Alpha  occ. eigenvalues --  -38.45683 -38.45607 -38.44472 -38.44468 -38.44192
 Alpha  occ. eigenvalues --  -38.42580 -38.42555  -2.21433  -2.21362  -2.20315
 Alpha  occ. eigenvalues --   -2.20253  -2.20024  -2.18368  -2.18350  -1.15099
 Alpha  occ. eigenvalues --   -1.15097  -1.15050  -1.15038  -1.15027  -1.14974
 Alpha  occ. eigenvalues --   -1.14012  -1.13976  -1.13923  -1.13914  -1.13876
 Alpha  occ. eigenvalues --   -1.13854  -1.13748  -1.13671  -1.13645  -1.12042
 Alpha  occ. eigenvalues --   -1.12033  -1.12023  -1.12019  -1.12012  -1.11998
 Alpha  occ. eigenvalues --   -0.16716  -0.13967  -0.10866  -0.10455
 Alpha virt. eigenvalues --   -0.07042  -0.06099  -0.04389  -0.03182  -0.02860
 Alpha virt. eigenvalues --   -0.02536  -0.02263  -0.01450  -0.01107  -0.00765
 Alpha virt. eigenvalues --   -0.00485   0.00079   0.00105   0.00198   0.00405

  Beta  occ. eigenvalues --  -38.45652 -38.45609 -38.44444 -38.44365 -38.44170
  Beta  occ. eigenvalues --  -38.42589 -38.42556  -2.21374  -2.21365  -2.20265
  Beta  occ. eigenvalues --   -2.20061  -2.19986  -2.18372  -2.18369  -1.15058
  Beta  occ. eigenvalues --   -1.15057  -1.15038  -1.15025  -1.15019  -1.14966
  Beta  occ. eigenvalues --   -1.13968  -1.13940  -1.13882  -1.13791  -1.13746
  Beta  occ. eigenvalues --   -1.13720  -1.13694  -1.13646  -1.13624  -1.12047
  Beta  occ. eigenvalues --   -1.12046  -1.12025  -1.12016  -1.12009  -1.12007
  Beta  occ. eigenvalues --   -0.16142  -0.13726  -0.10744
  Beta virt. eigenvalues --   -0.07193  -0.06001  -0.05935  -0.04322  -0.03118
  Beta virt. eigenvalues --   -0.02467  -0.02141  -0.01767  -0.00940  -0.00776
  Beta virt. eigenvalues --   -0.00648  -0.00364   0.00161   0.00230   0.00322

 Mulliken charges and spin densities:
               1          2
     1  Na   0.652151  -0.000960
     2  Na   1.061375  -0.021937
     3  Na   0.132075   0.586102
     4  Na  -0.011708  -0.159274
     5  Na  -2.420730   0.586867
     6  Na   0.350910   0.068628
     7  Na   0.235927  -0.059425
 Sum of Mulliken charges =  -0.00000   1.00000

 Dipole moment (field-independent basis, Debye):
    X=              2.3898    Y=             -0.0375    Z=             -0.3108  Tot=              2.4102
 Quadrupole moment (field-independent basis, Debye-Ang):
   XX=            -53.6430   YY=            -72.8666   ZZ=            -67.1234
   XY=             -0.4649   XZ=              1.5653   YZ=             -6.9618

 Normal termination of Gaussian 16 at Tue Dec  5 12:18:35 2023.
