 Gaussian 16, Revision B.01,
 Gaussian 16:  ES64L-G16RevB.01 20-Dec-2017

 -------------------------
 #P B3LYP/6-311+g(d) force
 -------------------------

 -----
 DPGEN
 -----
 Symbolic Z-matrix:
 Charge =  0 Multiplicity = 2

                         Standard orientation:
 ---------------------------------------------------------------------
 Center     Atomic      Atomic             Coordinates (Angstroms)
 Number     Number       Type             X           Y           Z
 ---------------------------------------------------------------------
      1         11           0        0.218154    0.032271   -0.959549
      2         11           0       -2.272829    2.059228    0.162240
      3         11           0       -1.621110   -1.168744    1.896124
      4         11           0        3.812837    0.256633   -1.001096
      5         11           0        1.646564   -2.173017    0.400152
      6         11           0        1.571214    1.768465    1.043386
      7         11           0       -3.354831   -0.774836   -1.541257
 ---------------------------------------------------------------------

 SCF Done:  E(UB3LYP) =  -1136.12113192     A.U. after   25 cycles

 The electronic state is 2-A.
 Alpha  occ. eigenvalues --  -38.44719 -38.44528 -38.43933 -38.43924 -38.43606
 Alpha  occ. eigenvalues --  -38.43571 -38.42999  -2.20549  -2.20347  -2.19952
 Alpha  occ. eigenvalues --   -2.19754  -2.19481  -2.19402  -2.18869  -1.14222
 Alpha  occ. eigenvalues --   -1.14188  -1.14178  -1.14009  -1.13978  -1.13963
 Alpha  occ. eigenvalues --   -1.13737  -1.13649  -1.13560  -1.13420  -1.13396
 Alpha  occ. eigenvalues --   -1.13382  -1.13183  -1.13118  -1.13088  -1.13079
 Alpha  occ. eigenvalues --   -1.13069  -1.13029  -1.12598  -1.12525  -1.12463
 Alpha  occ. eigenvalues --   -0.18297  -0.14277  -0.10945  -0.10917
 Alpha virt. eigenvalues --   -0.06449  -0.05416  -0.04775  -0.03010  -0.02601
 Alpha virt. eigenvalues --   -0.02389  -0.02192  -0.01108  -0.00897  -0.00273
 Alpha virt. eigenvalues --    0.00142   0.00255   0.00354   0.00584   0.00656

  Beta  occ. eigenvalues --  -38.44691 -38.44453 -38.43915 -38.43886 -38.43585
  Beta  occ. eigenvalues --  -38.43567 -38.43000  -2.20496  -2.20208  -2.19939
  Beta  occ. eigenvalues --   -2.19670  -2.19444  -2.19398  -2.18874  -1.14184
  Beta  occ. eigenvalues --   -1.14154  -1.14142  -1.13911  -1.13881  -1.13872
  Beta  occ. eigenvalues --   -1.13693  -1.13650  -1.13551  -1.13354  -1.13335
  Beta  occ. eigenvalues --   -1.13326  -1.13159  -1.13089  -1.13086  -1.13068
  Beta  occ. eigenvalues --   -1.13040  -1.13000  -1.12606  -1.12523  -1.12450
  Beta  occ. eigenvalues --   -0.17702  -0.13825  -0.10707
  Beta virt. eigenvalues --   -0.07351  -0.06181  -0.05173  -0.04290  -0.02873
  Beta virt. eigenvalues --   -0.02371  -0.01876  -0.01481  -0.00863  -0.00640
  Beta virt. eigenvalues --   -0.00103   0.00209   0.00308   0.00465   0.00696

 Mulliken charges and spin densities:
               1          2
     1  Na  -1.715364  -0.160039
     2  Na   0.230810   0.104078
     3  Na  -0.057159   0.294104
     4  Na   1.030972   0.134782
     5  Na  -0.080599   0.136895
     6  Na   0.151184   0.229729
     7  Na   0.440157   0.260451
 Sum of Mulliken charges =  -0.00000   1.00000

 Dipole moment (field-independent basis, Debye):
    X=              0.2955    Y=             -0.0347    Z=              0.1586  Tot=              0.3371
 Quadrupole moment (field-independent basis, Debye-Ang):
   XX=            -49.7763   YY=            -76.5916   ZZ=            -66.6799
   XY=              0.2870   XZ=             -2.6342   YZ=              2.1687

 Normal termination of Gaussian 16 at Tue Dec  5 13:45:15 2023.
