 Gaussian 16, Revision B.01,
 Gaussian 16:  ES64L-G16RevB.01 20-Dec-2017

 -------------------------
 #P B3LYP/6-311+g(d) force
 -------------------------

 -----
 DPGEN
 -----
 Symbolic Z-matrix:
 Charge =  0 Multiplicity = 2

                         Standard orientation:
 ---------------------------------------------------------------------
 Center     Atomic      Atomic             Coordinates (Angstroms)
 Number     Number       Type             X           Y           Z
 ---------------------------------------------------------------------
      1         11           0        0.023619   -0.365084    2.163240
      2         11           0       -0.902951   -2.700171   -0.305128
      3         11           0        2.299989    2.052666    0.171146
      4         11           0       -3.555644   -0.189504   -0.046480
      5         11           0        3.090100   -1.396920   -0.210414
      6         11           0       -1.348803    2.600297   -0.265398
      7         11           0        0.393690   -0.001283   -1.506966
 ---------------------------------------------------------------------

 SCF Done:  E(UB3LYP) =  -1136.13246953     A.U. after   20 cycles

 The electronic state is 2-A.
 Alpha  occ. eigenvalues --  -38.44835 -38.44521 -38.43827 -38.43644 -38.43402
 Alpha  occ. eigenvalues --  -38.43216 -38.43205  -2.20601  -2.20327  -2.19664
 Alpha  occ. eigenvalues --   -2.19495  -2.19240  -2.19188  -2.19037  -1.14277
 Alpha  occ. eigenvalues --   -1.14257  -1.14241  -1.14009  -1.13981  -1.13963
 Alpha  occ. eigenvalues --   -1.13359  -1.13327  -1.13291  -1.13159  -1.13122
 Alpha  occ. eigenvalues --   -1.13110  -1.12979  -1.12905  -1.12870  -1.12854
 Alpha  occ. eigenvalues --   -1.12824  -1.12809  -1.12715  -1.12700  -1.12662
 Alpha  occ. eigenvalues --   -0.18238  -0.13133  -0.12073  -0.10516
 Alpha virt. eigenvalues --   -0.06385  -0.05391  -0.04328  -0.03175  -0.02647
 Alpha virt. eigenvalues --   -0.02493  -0.02082  -0.01278  -0.00622  -0.00342
 Alpha virt. eigenvalues --   -0.00061   0.00272   0.00695   0.00795   0.00824

  Beta  occ. eigenvalues --  -38.44837 -38.44516 -38.43822 -38.43538 -38.43395
  Beta  occ. eigenvalues --  -38.43212 -38.43153  -2.20606  -2.20320  -2.19657
  Beta  occ. eigenvalues --   -2.19300  -2.19229  -2.19095  -2.19033  -1.14271
  Beta  occ. eigenvalues --   -1.14260  -1.14245  -1.13995  -1.13967  -1.13960
  Beta  occ. eigenvalues --   -1.13352  -1.13301  -1.13291  -1.13031  -1.12986
  Beta  occ. eigenvalues --   -1.12973  -1.12955  -1.12872  -1.12849  -1.12804
  Beta  occ. eigenvalues --   -1.12771  -1.12749  -1.12693  -1.12685  -1.12661
  Beta  occ. eigenvalues --   -0.17535  -0.12963  -0.11844
  Beta virt. eigenvalues --   -0.06575  -0.06325  -0.05384  -0.04290  -0.02457
  Beta virt. eigenvalues --   -0.01997  -0.01913  -0.01407  -0.01220  -0.00651
  Beta virt. eigenvalues --   -0.00373   0.00109   0.00320   0.00762   0.00797

 Mulliken charges and spin densities:
               1          2
     1  Na  -0.531335   0.769586
     2  Na   0.165638  -0.073148
     3  Na   0.120935   0.051217
     4  Na   0.018998  -0.028541
     5  Na   0.297783  -0.035050
     6  Na   0.047244  -0.037704
     7  Na  -0.119262   0.353641
 Sum of Mulliken charges =  -0.00000   1.00000

 Dipole moment (field-independent basis, Debye):
    X=              0.0761    Y=             -0.2233    Z=              0.1771  Tot=              0.2950
 Quadrupole moment (field-independent basis, Debye-Ang):
   XX=            -50.3163   YY=            -65.7689   ZZ=            -76.0354
   XY=             -0.1098   XZ=              0.5212   YZ=              0.9122

 Normal termination of Gaussian 16 at Thu Dec  7 03:51:34 2023.
