 Gaussian 16, Revision B.01,
 Gaussian 16:  ES64L-G16RevB.01 20-Dec-2017

 -------------------------
 #P B3LYP/6-311+g(d) force
 -------------------------

 -----
 DPGEN
 -----
 Symbolic Z-matrix:
 Charge =  0 Multiplicity = 2

                         Standard orientation:
 ---------------------------------------------------------------------
 Center     Atomic      Atomic             Coordinates (Angstroms)
 Number     Number       Type             X           Y           Z
 ---------------------------------------------------------------------
      1         11           0        2.121408    2.113548    0.411113
      2         11           0       -0.027476    0.115828    1.977725
      3         11           0       -3.376651   -0.586124    0.280692
      4         11           0       -0.472619   -2.580202   -0.064933
      5         11           0        3.201393   -1.188164   -0.173379
      6         11           0       -1.728536    2.225555   -0.666896
      7         11           0        0.282481   -0.100440   -1.764321
 ---------------------------------------------------------------------

 SCF Done:  E(UB3LYP) =  -1136.13319485     A.U. after   20 cycles

 The electronic state is 2-A.
 Alpha  occ. eigenvalues --  -38.44627 -38.44596 -38.43837 -38.43509 -38.43483
 Alpha  occ. eigenvalues --  -38.43230 -38.42908  -2.20431  -2.20392  -2.19733
 Alpha  occ. eigenvalues --   -2.19444  -2.19349  -2.19080  -2.18785  -1.14101
 Alpha  occ. eigenvalues --   -1.14091  -1.14072  -1.14072  -1.14044  -1.14029
 Alpha  occ. eigenvalues --   -1.13412  -1.13373  -1.13349  -1.13143  -1.13101
 Alpha  occ. eigenvalues --   -1.13064  -1.13031  -1.13002  -1.12976  -1.12766
 Alpha  occ. eigenvalues --   -1.12731  -1.12703  -1.12493  -1.12459  -1.12381
 Alpha  occ. eigenvalues --   -0.18547  -0.13307  -0.11876  -0.10952
 Alpha virt. eigenvalues --   -0.06351  -0.05137  -0.03974  -0.03380  -0.02817
 Alpha virt. eigenvalues --   -0.02661  -0.02086  -0.01132  -0.00312  -0.00111
 Alpha virt. eigenvalues --   -0.00026   0.00304   0.00701   0.00757   0.00876

  Beta  occ. eigenvalues --  -38.44626 -38.44594 -38.43752 -38.43499 -38.43408
  Beta  occ. eigenvalues --  -38.43211 -38.42902  -2.20431  -2.20390  -2.19577
  Beta  occ. eigenvalues --   -2.19334  -2.19309  -2.19049  -2.18778  -1.14098
  Beta  occ. eigenvalues --   -1.14082  -1.14072  -1.14062  -1.14039  -1.14029
  Beta  occ. eigenvalues --   -1.13310  -1.13261  -1.13237  -1.13053  -1.13022
  Beta  occ. eigenvalues --   -1.12999  -1.12984  -1.12967  -1.12956  -1.12734
  Beta  occ. eigenvalues --   -1.12701  -1.12683  -1.12486  -1.12431  -1.12374
  Beta  occ. eigenvalues --   -0.17817  -0.13098  -0.11582
  Beta virt. eigenvalues --   -0.07062  -0.06279  -0.05109  -0.03912  -0.02692
  Beta virt. eigenvalues --   -0.02055  -0.01980  -0.01618  -0.01050  -0.00302
  Beta virt. eigenvalues --   -0.00121   0.00070   0.00328   0.00790   0.00855

 Mulliken charges and spin densities:
               1          2
     1  Na   0.090584   0.004191
     2  Na  -0.305388   0.649317
     3  Na   0.045644  -0.025729
     4  Na   0.053298  -0.088727
     5  Na   0.078772  -0.096730
     6  Na   0.104662   0.011246
     7  Na  -0.067572   0.546433
 Sum of Mulliken charges =  -0.00000   1.00000

 Dipole moment (field-independent basis, Debye):
    X=              0.1348    Y=             -0.1594    Z=              0.2122  Tot=              0.2977
 Quadrupole moment (field-independent basis, Debye-Ang):
   XX=            -50.2730   YY=            -68.9702   ZZ=            -73.5084
   XY=             -0.2615   XZ=             -0.2840   YZ=             -0.5672

 Normal termination of Gaussian 16 at Thu Dec  7 14:57:16 2023.
