 Gaussian 16, Revision B.01,
 Gaussian 16:  ES64L-G16RevB.01 20-Dec-2017

 -------------------------
 #P B3LYP/6-311+g(d) force
 -------------------------

 -----
 DPGEN
 -----
 Symbolic Z-matrix:
 Charge =  0 Multiplicity = 2

                         Standard orientation:
 ---------------------------------------------------------------------
 Center     Atomic      Atomic             Coordinates (Angstroms)
 Number     Number       Type             X           Y           Z
 ---------------------------------------------------------------------
      1         11           0        5.544238    0.044494   -0.338407
      2         11           0        2.029164    1.479301   -0.129586
      3         11           0       -0.899866   -0.204243   -1.221904
      4         11           0        1.818419   -1.785415    0.506457
      5         11           0       -2.041378   -1.170767    1.531697
      6         11           0       -4.213058   -0.549938   -1.248370
      7         11           0       -2.237519    2.186568    0.900114
 ---------------------------------------------------------------------

 SCF Done:  E(UB3LYP) =  -1136.10558667     A.U. after   34 cycles

 The electronic state is 2-A.
 Alpha  occ. eigenvalues --  -38.45188 -38.44868 -38.44603 -38.44529 -38.43990
 Alpha  occ. eigenvalues --  -38.43609 -38.43525  -2.21045  -2.20815  -2.20441
 Alpha  occ. eigenvalues --   -2.20330  -2.19831  -2.19357  -2.19347  -1.14772
 Alpha  occ. eigenvalues --   -1.14743  -1.14626  -1.14520  -1.14492  -1.14399
 Alpha  occ. eigenvalues --   -1.14119  -1.14091  -1.14042  -1.14028  -1.14004
 Alpha  occ. eigenvalues --   -1.13930  -1.13511  -1.13477  -1.13431  -1.13046
 Alpha  occ. eigenvalues --   -1.13031  -1.13029  -1.13027  -1.12978  -1.12930
 Alpha  occ. eigenvalues --   -0.18152  -0.14031  -0.11416  -0.10293
 Alpha virt. eigenvalues --   -0.07865  -0.05169  -0.04939  -0.03264  -0.03091
 Alpha virt. eigenvalues --   -0.02182  -0.02022  -0.01857  -0.01414  -0.00806
 Alpha virt. eigenvalues --   -0.00347   0.00024   0.00157   0.00486   0.00623

  Beta  occ. eigenvalues --  -38.45179 -38.44852 -38.44529 -38.44520 -38.43931
  Beta  occ. eigenvalues --  -38.43593 -38.43521  -2.21031  -2.20792  -2.20318
  Beta  occ. eigenvalues --   -2.20303  -2.19723  -2.19339  -2.19327  -1.14766
  Beta  occ. eigenvalues --   -1.14704  -1.14624  -1.14486  -1.14448  -1.14392
  Beta  occ. eigenvalues --   -1.14037  -1.14026  -1.13999  -1.13996  -1.13929
  Beta  occ. eigenvalues --   -1.13898  -1.13436  -1.13395  -1.13363  -1.13040
  Beta  occ. eigenvalues --   -1.13028  -1.13009  -1.13007  -1.12959  -1.12923
  Beta  occ. eigenvalues --   -0.17464  -0.13780  -0.10086
  Beta virt. eigenvalues --   -0.07770  -0.07447  -0.04852  -0.04600  -0.03056
  Beta virt. eigenvalues --   -0.02719  -0.01711  -0.01667  -0.01332  -0.01190
  Beta virt. eigenvalues --   -0.00697  -0.00241   0.00150   0.00222   0.00561

 Mulliken charges and spin densities:
               1          2
     1  Na   0.063521   0.105354
     2  Na  -0.173203   0.177762
     3  Na  -0.190846   0.195580
     4  Na   0.002906  -0.035466
     5  Na   0.138373   0.209823
     6  Na   0.375067   0.193195
     7  Na  -0.215818   0.153752
 Sum of Mulliken charges =  -0.00000   1.00000

 Dipole moment (field-independent basis, Debye):
    X=             -1.6935    Y=             -0.6084    Z=              0.6643  Tot=              1.9182
 Quadrupole moment (field-independent basis, Debye-Ang):
   XX=            -71.0451   YY=            -72.3435   ZZ=            -64.3441
   XY=             -2.1805   XZ=             -2.8477   YZ=             -0.2492

 Normal termination of Gaussian 16 at Fri Dec  8 07:08:07 2023.
