 Gaussian 16, Revision B.01,
 Gaussian 16:  ES64L-G16RevB.01 20-Dec-2017

 -------------------------
 #P B3LYP/6-311+g(d) force
 -------------------------

 -----
 DPGEN
 -----
 Symbolic Z-matrix:
 Charge =  0 Multiplicity = 2

                         Standard orientation:
 ---------------------------------------------------------------------
 Center     Atomic      Atomic             Coordinates (Angstroms)
 Number     Number       Type             X           Y           Z
 ---------------------------------------------------------------------
      1         11           0       -3.510373    0.437045    0.396267
      2         11           0        2.267940   -1.224799   -1.749577
      3         11           0        2.547792   -1.425821    1.300316
      4         11           0       -2.153988   -2.253833   -0.934580
      5         11           0       -0.768040    0.006292    2.053967
      6         11           0       -0.957548    2.375335   -1.233273
      7         11           0        2.574217    2.085782    0.166880
 ---------------------------------------------------------------------

 SCF Done:  E(UB3LYP) =  -1136.11734647     A.U. after   22 cycles

 The electronic state is 2-A.
 Alpha  occ. eigenvalues --  -38.44562 -38.44533 -38.44507 -38.44406 -38.44380
 Alpha  occ. eigenvalues --  -38.44096 -38.43555  -2.20413  -2.20347  -2.20281
 Alpha  occ. eigenvalues --   -2.20219  -2.20166  -2.19939  -2.19325  -1.14121
 Alpha  occ. eigenvalues --   -1.14088  -1.14055  -1.14046  -1.13993  -1.13968
 Alpha  occ. eigenvalues --   -1.13947  -1.13931  -1.13907  -1.13881  -1.13851
 Alpha  occ. eigenvalues --   -1.13850  -1.13838  -1.13827  -1.13804  -1.13600
 Alpha  occ. eigenvalues --   -1.13590  -1.13574  -1.13004  -1.12985  -1.12957
 Alpha  occ. eigenvalues --   -0.17348  -0.14024  -0.11217  -0.10967
 Alpha virt. eigenvalues --   -0.06280  -0.05945  -0.05335  -0.03382  -0.02894
 Alpha virt. eigenvalues --   -0.02661  -0.01793  -0.01234  -0.00688  -0.00570
 Alpha virt. eigenvalues --   -0.00131   0.00122   0.00209   0.00347   0.00382

  Beta  occ. eigenvalues --  -38.44561 -38.44498 -38.44483 -38.44410 -38.44299
  Beta  occ. eigenvalues --  -38.44080 -38.43539  -2.20413  -2.20278  -2.20236
  Beta  occ. eigenvalues --   -2.20175  -2.20070  -2.19911  -2.19295  -1.14105
  Beta  occ. eigenvalues --   -1.14080  -1.14047  -1.14014  -1.13945  -1.13919
  Beta  occ. eigenvalues --   -1.13911  -1.13900  -1.13880  -1.13843  -1.13835
  Beta  occ. eigenvalues --   -1.13814  -1.13780  -1.13743  -1.13737  -1.13582
  Beta  occ. eigenvalues --   -1.13559  -1.13544  -1.12981  -1.12963  -1.12937
  Beta  occ. eigenvalues --   -0.16716  -0.13877  -0.11019
  Beta virt. eigenvalues --   -0.07358  -0.06143  -0.05689  -0.04595  -0.03186
  Beta virt. eigenvalues --   -0.02398  -0.01891  -0.01751  -0.01097  -0.00641
  Beta virt. eigenvalues --   -0.00228  -0.00013   0.00252   0.00399   0.00457

 Mulliken charges and spin densities:
               1          2
     1  Na   0.742295   0.168209
     2  Na  -0.298416   0.357857
     3  Na   0.463935  -0.048105
     4  Na  -0.184601   0.099997
     5  Na  -0.446366   0.370337
     6  Na  -0.237556   0.058606
     7  Na  -0.039290  -0.006900
 Sum of Mulliken charges =  -0.00000   1.00000

 Dipole moment (field-independent basis, Debye):
    X=             -0.2189    Y=             -0.1351    Z=             -0.0366  Tot=              0.2598
 Quadrupole moment (field-independent basis, Debye-Ang):
   XX=            -55.0452   YY=            -75.0173   ZZ=            -68.8534
   XY=             -0.0561   XZ=              0.9637   YZ=              1.5681

 Normal termination of Gaussian 16 at Sun Dec  3 12:01:12 2023.
