 Gaussian 16, Revision B.01,
 Gaussian 16:  ES64L-G16RevB.01 20-Dec-2017

 -------------------------
 #P B3LYP/6-311+g(d) force
 -------------------------

 -----
 DPGEN
 -----
 Symbolic Z-matrix:
 Charge =  0 Multiplicity = 2

                         Standard orientation:
 ---------------------------------------------------------------------
 Center     Atomic      Atomic             Coordinates (Angstroms)
 Number     Number       Type             X           Y           Z
 ---------------------------------------------------------------------
      1         11           0       -1.402844   -1.926989   -0.297510
      2         11           0        0.647887   -0.227876    1.601807
      3         11           0        1.107621    3.357528   -0.194969
      4         11           0       -1.854161    1.839244   -0.712954
      5         11           0       -4.270371   -0.467026    0.284624
      6         11           0        3.772560    0.163184    0.008939
      7         11           0        1.999309   -2.738064   -0.689938
 ---------------------------------------------------------------------

 SCF Done:  E(UB3LYP) =  -1136.12415132     A.U. after   22 cycles

 The electronic state is 2-A.
 Alpha  occ. eigenvalues --  -38.45233 -38.44537 -38.44180 -38.43692 -38.43513
 Alpha  occ. eigenvalues --  -38.43425 -38.43385  -2.21074  -2.20344  -2.19998
 Alpha  occ. eigenvalues --   -2.19474  -2.19347  -2.19317  -2.19234  -1.14773
 Alpha  occ. eigenvalues --   -1.14737  -1.14678  -1.14032  -1.14000  -1.13986
 Alpha  occ. eigenvalues --   -1.13703  -1.13676  -1.13617  -1.13152  -1.13130
 Alpha  occ. eigenvalues --   -1.13112  -1.13018  -1.13011  -1.13008  -1.12983
 Alpha  occ. eigenvalues --   -1.12962  -1.12957  -1.12876  -1.12874  -1.12829
 Alpha  occ. eigenvalues --   -0.17443  -0.13906  -0.12587  -0.09932
 Alpha virt. eigenvalues --   -0.06952  -0.05535  -0.04703  -0.03085  -0.02973
 Alpha virt. eigenvalues --   -0.02467  -0.01829  -0.01214  -0.01057  -0.00864
 Alpha virt. eigenvalues --   -0.00127  -0.00056   0.00433   0.00515   0.00746

  Beta  occ. eigenvalues --  -38.45207 -38.44532 -38.44175 -38.43691 -38.43432
  Beta  occ. eigenvalues --  -38.43403 -38.43320  -2.21027  -2.20341  -2.19992
  Beta  occ. eigenvalues --   -2.19473  -2.19284  -2.19195  -2.19113  -1.14729
  Beta  occ. eigenvalues --   -1.14705  -1.14644  -1.14036  -1.13996  -1.13947
  Beta  occ. eigenvalues --   -1.13701  -1.13670  -1.13593  -1.13152  -1.13120
  Beta  occ. eigenvalues --   -1.13113  -1.12998  -1.12979  -1.12907  -1.12903
  Beta  occ. eigenvalues --   -1.12885  -1.12854  -1.12794  -1.12789  -1.12760
  Beta  occ. eigenvalues --   -0.16953  -0.13173  -0.12310
  Beta virt. eigenvalues --   -0.06826  -0.06475  -0.05436  -0.04429  -0.02764
  Beta virt. eigenvalues --   -0.02392  -0.02296  -0.01338  -0.01062  -0.00873
  Beta virt. eigenvalues --   -0.00767   0.00153   0.00225   0.00589   0.00666

 Mulliken charges and spin densities:
               1          2
     1  Na  -0.701943   0.004707
     2  Na   0.376727  -0.009697
     3  Na   0.007442  -0.044767
     4  Na  -0.289556   0.048875
     5  Na   0.656503   0.418867
     6  Na  -0.107220   0.577898
     7  Na   0.058047   0.004118
 Sum of Mulliken charges =  -0.00000   1.00000

 Dipole moment (field-independent basis, Debye):
    X=              0.1221    Y=             -0.3788    Z=              0.1506  Tot=              0.4255
 Quadrupole moment (field-independent basis, Debye-Ang):
   XX=            -75.9539   YY=            -63.9674   ZZ=            -65.0485
   XY=              0.0438   XZ=             -1.4816   YZ=              1.3599

 Normal termination of Gaussian 16 at Wed Nov 29 01:16:49 2023.
