 Gaussian 16, Revision B.01,
 Gaussian 16:  ES64L-G16RevB.01 20-Dec-2017

 -------------------------
 #P B3LYP/6-311+g(d) force
 -------------------------

 -----
 DPGEN
 -----
 Symbolic Z-matrix:
 Charge =  0 Multiplicity = 2

                         Standard orientation:
 ---------------------------------------------------------------------
 Center     Atomic      Atomic             Coordinates (Angstroms)
 Number     Number       Type             X           Y           Z
 ---------------------------------------------------------------------
      1         11           0       -3.082077   -0.479664   -0.479336
      2         11           0        2.783672   -1.528544   -0.380157
      3         11           0       -0.936245    2.594212   -0.240387
      4         11           0       -0.361234    0.177717    1.924984
      5         11           0        0.162508   -0.125573   -1.775419
      6         11           0        2.194443    1.625558    0.359655
      7         11           0       -0.761067   -2.263706    0.590659
 ---------------------------------------------------------------------

 SCF Done:  E(UB3LYP) =  -1136.13201183     A.U. after   19 cycles

 The electronic state is 2-A.
 Alpha  occ. eigenvalues --  -38.44117 -38.43840 -38.43544 -38.43507 -38.43490
 Alpha  occ. eigenvalues --  -38.43241 -38.42910  -2.19984  -2.19850  -2.19501
 Alpha  occ. eigenvalues --   -2.19400  -2.19394  -2.19219  -2.18806  -1.13680
 Alpha  occ. eigenvalues --   -1.13649  -1.13636  -1.13615  -1.13483  -1.13441
 Alpha  occ. eigenvalues --   -1.13202  -1.13160  -1.13153  -1.13095  -1.13074
 Alpha  occ. eigenvalues --   -1.13054  -1.13045  -1.13022  -1.12987  -1.12904
 Alpha  occ. eigenvalues --   -1.12853  -1.12792  -1.12488  -1.12477  -1.12426
 Alpha  occ. eigenvalues --   -0.19342  -0.13290  -0.12326  -0.11402
 Alpha virt. eigenvalues --   -0.05574  -0.04793  -0.04133  -0.03497  -0.03007
 Alpha virt. eigenvalues --   -0.02871  -0.01577  -0.00864  -0.00133   0.00147
 Alpha virt. eigenvalues --    0.00232   0.00354   0.00843   0.00933   0.00972

  Beta  occ. eigenvalues --  -38.44107 -38.43747 -38.43541 -38.43482 -38.43437
  Beta  occ. eigenvalues --  -38.43219 -38.42904  -2.19968  -2.19681  -2.19390
  Beta  occ. eigenvalues --   -2.19388  -2.19372  -2.19183  -2.18799  -1.13668
  Beta  occ. eigenvalues --   -1.13613  -1.13606  -1.13527  -1.13366  -1.13325
  Beta  occ. eigenvalues --   -1.13141  -1.13096  -1.13088  -1.13072  -1.13048
  Beta  occ. eigenvalues --   -1.13022  -1.13020  -1.12984  -1.12981  -1.12864
  Beta  occ. eigenvalues --   -1.12800  -1.12771  -1.12485  -1.12453  -1.12414
  Beta  occ. eigenvalues --   -0.18585  -0.13033  -0.12049
  Beta virt. eigenvalues --   -0.07405  -0.05505  -0.04775  -0.04113  -0.02719
  Beta virt. eigenvalues --   -0.02230  -0.01785  -0.01451  -0.00821   0.00013
  Beta virt. eigenvalues --    0.00112   0.00227   0.00375   0.00907   0.00930

 Mulliken charges and spin densities:
               1          2
     1  Na  -0.010054  -0.031418
     2  Na   0.067570  -0.053805
     3  Na   0.059597  -0.057012
     4  Na  -0.302385   0.402262
     5  Na  -0.557268   0.654824
     6  Na   0.203054  -0.004042
     7  Na   0.539488   0.089191
 Sum of Mulliken charges =  -0.00000   1.00000

 Dipole moment (field-independent basis, Debye):
    X=             -0.1634    Y=              0.0462    Z=             -0.1536  Tot=              0.2289
 Quadrupole moment (field-independent basis, Debye-Ang):
   XX=            -55.9024   YY=            -67.3863   ZZ=            -71.2001
   XY=             -0.7323   XZ=              1.7627   YZ=             -0.0501

 Normal termination of Gaussian 16 at Thu Dec  7 21:43:08 2023.
