 Gaussian 16, Revision B.01,
 Gaussian 16:  ES64L-G16RevB.01 20-Dec-2017

 -------------------------
 #P B3LYP/6-311+g(d) force
 -------------------------

 -----
 DPGEN
 -----
 Symbolic Z-matrix:
 Charge =  0 Multiplicity = 2

                         Standard orientation:
 ---------------------------------------------------------------------
 Center     Atomic      Atomic             Coordinates (Angstroms)
 Number     Number       Type             X           Y           Z
 ---------------------------------------------------------------------
      1         11           0        1.840511    2.379959    0.460282
      2         11           0       -0.148257   -0.541105    2.074019
      3         11           0        2.872061   -0.779452   -0.276598
      4         11           0       -1.985847    2.273850   -0.371344
      5         11           0       -2.774546   -0.865909    0.087823
      6         11           0        0.055913   -2.812005   -0.447329
      7         11           0        0.140165    0.344662   -1.526853
 ---------------------------------------------------------------------

 SCF Done:  E(UB3LYP) =  -1136.13778547     A.U. after   18 cycles

 The electronic state is 2-A.
 Alpha  occ. eigenvalues --  -38.43744 -38.43680 -38.43677 -38.43618 -38.43522
 Alpha  occ. eigenvalues --  -38.43210 -38.42997  -2.19617  -2.19577  -2.19518
 Alpha  occ. eigenvalues --   -2.19509  -2.19386  -2.19099  -2.19035  -1.13326
 Alpha  occ. eigenvalues --   -1.13279  -1.13273  -1.13257  -1.13218  -1.13204
 Alpha  occ. eigenvalues --   -1.13190  -1.13188  -1.13175  -1.13168  -1.13144
 Alpha  occ. eigenvalues --   -1.13140  -1.13104  -1.13025  -1.13001  -1.12801
 Alpha  occ. eigenvalues --   -1.12758  -1.12726  -1.12703  -1.12665  -1.12647
 Alpha  occ. eigenvalues --   -0.18927  -0.13123  -0.12561  -0.10910
 Alpha virt. eigenvalues --   -0.05268  -0.05184  -0.04695  -0.03276  -0.02988
 Alpha virt. eigenvalues --   -0.02558  -0.01315  -0.01091  -0.00281  -0.00134
 Alpha virt. eigenvalues --    0.00010   0.00367   0.00849   0.00904   0.00923

  Beta  occ. eigenvalues --  -38.43737 -38.43671 -38.43612 -38.43585 -38.43515
  Beta  occ. eigenvalues --  -38.43198 -38.42940  -2.19608  -2.19502  -2.19501
  Beta  occ. eigenvalues --   -2.19408  -2.19376  -2.19081  -2.18933  -1.13316
  Beta  occ. eigenvalues --   -1.13257  -1.13247  -1.13219  -1.13180  -1.13169
  Beta  occ. eigenvalues --   -1.13153  -1.13151  -1.13136  -1.13115  -1.13087
  Beta  occ. eigenvalues --   -1.13085  -1.13057  -1.13009  -1.12996  -1.12780
  Beta  occ. eigenvalues --   -1.12734  -1.12704  -1.12633  -1.12591  -1.12577
  Beta  occ. eigenvalues --   -0.18206  -0.12868  -0.12313
  Beta virt. eigenvalues --   -0.06989  -0.05251  -0.05122  -0.04629  -0.02485
  Beta virt. eigenvalues --   -0.02259  -0.01506  -0.01232  -0.01005  -0.00283
  Beta virt. eigenvalues --   -0.00180   0.00144   0.00401   0.00897   0.00918

 Mulliken charges and spin densities:
               1          2
     1  Na  -0.019453   0.083915
     2  Na  -0.586522   0.682002
     3  Na   0.195673  -0.030545
     4  Na   0.163590  -0.024837
     5  Na   0.315369   0.032994
     6  Na   0.194586  -0.013143
     7  Na  -0.263244   0.269614
 Sum of Mulliken charges =  -0.00000   1.00000

 Dipole moment (field-independent basis, Debye):
    X=              0.1178    Y=              0.0433    Z=              0.2643  Tot=              0.2926
 Quadrupole moment (field-independent basis, Debye-Ang):
   XX=            -58.6041   YY=            -61.9982   ZZ=            -73.2846
   XY=              0.0619   XZ=              0.5646   YZ=              1.9530

 Normal termination of Gaussian 16 at Fri Dec  8 05:23:36 2023.
