 Gaussian 16, Revision B.01,
 Gaussian 16:  ES64L-G16RevB.01 20-Dec-2017

 -------------------------
 #P B3LYP/6-311+g(d) force
 -------------------------

 -----
 DPGEN
 -----
 Symbolic Z-matrix:
 Charge =  0 Multiplicity = 2

                         Standard orientation:
 ---------------------------------------------------------------------
 Center     Atomic      Atomic             Coordinates (Angstroms)
 Number     Number       Type             X           Y           Z
 ---------------------------------------------------------------------
      1         11           0        3.548985    0.476436    0.882603
      2         11           0        2.188041   -1.787816   -0.594097
      3         11           0       -0.293564   -0.241137    1.910092
      4         11           0        1.091209    1.909132   -0.854360
      5         11           0       -2.587553    1.844448   -0.158138
      6         11           0       -3.349044   -1.280678    0.529989
      7         11           0       -0.598074   -0.920385   -1.716089
 ---------------------------------------------------------------------

 SCF Done:  E(UB3LYP) =  -1136.12090614     A.U. after   28 cycles

 The electronic state is 2-A.
 Alpha  occ. eigenvalues --  -38.45293 -38.44955 -38.44542 -38.43849 -38.43532
 Alpha  occ. eigenvalues --  -38.43472 -38.42698  -2.21120  -2.20817  -2.20375
 Alpha  occ. eigenvalues --   -2.19681  -2.19469  -2.19374  -2.18569  -1.14812
 Alpha  occ. eigenvalues --   -1.14758  -1.14740  -1.14508  -1.14457  -1.14443
 Alpha  occ. eigenvalues --   -1.14048  -1.14033  -1.14015  -1.13358  -1.13341
 Alpha  occ. eigenvalues --   -1.13320  -1.13217  -1.13111  -1.13085  -1.13028
 Alpha  occ. eigenvalues --   -1.13004  -1.13003  -1.12267  -1.12238  -1.12187
 Alpha  occ. eigenvalues --   -0.18660  -0.14446  -0.11401  -0.10825
 Alpha virt. eigenvalues --   -0.07036  -0.05411  -0.04550  -0.03140  -0.02796
 Alpha virt. eigenvalues --   -0.02519  -0.02367  -0.01101  -0.00729  -0.00225
 Alpha virt. eigenvalues --    0.00137   0.00230   0.00280   0.00618   0.00734

  Beta  occ. eigenvalues --  -38.45244 -38.44926 -38.44534 -38.43847 -38.43456
  Beta  occ. eigenvalues --  -38.43449 -38.42679  -2.21029  -2.20763  -2.20363
  Beta  occ. eigenvalues --   -2.19680  -2.19351  -2.19319  -2.18538  -1.14747
  Beta  occ. eigenvalues --   -1.14700  -1.14669  -1.14477  -1.14417  -1.14403
  Beta  occ. eigenvalues --   -1.14040  -1.14012  -1.14009  -1.13355  -1.13341
  Beta  occ. eigenvalues --   -1.13309  -1.13131  -1.13021  -1.13007  -1.12992
  Beta  occ. eigenvalues --   -1.12965  -1.12928  -1.12243  -1.12193  -1.12170
  Beta  occ. eigenvalues --   -0.17929  -0.14175  -0.10567
  Beta virt. eigenvalues --   -0.07574  -0.06779  -0.05433  -0.03858  -0.02869
  Beta virt. eigenvalues --   -0.02524  -0.01922  -0.01626  -0.01062  -0.00437
  Beta virt. eigenvalues --   -0.00185   0.00179   0.00236   0.00442   0.00701

 Mulliken charges and spin densities:
               1          2
     1  Na   0.777311   0.292830
     2  Na  -0.311461  -0.024822
     3  Na  -0.468506   0.350196
     4  Na  -0.562836  -0.072180
     5  Na  -0.006467  -0.000568
     6  Na   0.461482   0.019609
     7  Na   0.110478   0.434935
 Sum of Mulliken charges =  -0.00000   1.00000

 Dipole moment (field-independent basis, Debye):
    X=             -0.3225    Y=             -0.1001    Z=              0.7248  Tot=              0.7996
 Quadrupole moment (field-independent basis, Debye-Ang):
   XX=            -47.5785   YY=            -78.3918   ZZ=            -69.2710
   XY=              0.7452   XZ=              1.7350   YZ=              0.0487

 Normal termination of Gaussian 16 at Thu Dec  7 17:43:22 2023.
