 Gaussian 16, Revision B.01,
 Gaussian 16:  ES64L-G16RevB.01 20-Dec-2017

 -------------------------
 #P B3LYP/6-311+g(d) force
 -------------------------

 -----
 DPGEN
 -----
 Symbolic Z-matrix:
 Charge =  0 Multiplicity = 2

                         Standard orientation:
 ---------------------------------------------------------------------
 Center     Atomic      Atomic             Coordinates (Angstroms)
 Number     Number       Type             X           Y           Z
 ---------------------------------------------------------------------
      1         11           0       -1.597622    2.247114   -0.060834
      2         11           0        1.701161    0.105524    1.797156
      3         11           0       -1.625082   -1.113257    1.780679
      4         11           0       -3.475083   -0.889940   -0.807686
      5         11           0        1.558030    2.091329   -0.598420
      6         11           0        3.623333   -1.365647   -0.663084
      7         11           0       -0.184737   -1.075123   -1.447812
 ---------------------------------------------------------------------

 SCF Done:  E(UB3LYP) =  -1136.12666200     A.U. after   23 cycles

 The electronic state is 2-A.
 Alpha  occ. eigenvalues --  -38.44497 -38.44410 -38.44160 -38.44160 -38.44113
 Alpha  occ. eigenvalues --  -38.43089 -38.42980  -2.20347  -2.20265  -2.20049
 Alpha  occ. eigenvalues --   -2.19996  -2.19942  -2.18980  -2.18821  -1.14050
 Alpha  occ. eigenvalues --   -1.14008  -1.13990  -1.13949  -1.13901  -1.13889
 Alpha  occ. eigenvalues --   -1.13737  -1.13731  -1.13669  -1.13658  -1.13631
 Alpha  occ. eigenvalues --   -1.13609  -1.13604  -1.13601  -1.13566  -1.12676
 Alpha  occ. eigenvalues --   -1.12667  -1.12602  -1.12492  -1.12479  -1.12441
 Alpha  occ. eigenvalues --   -0.18386  -0.13950  -0.11412  -0.11188
 Alpha virt. eigenvalues --   -0.06462  -0.05348  -0.04763  -0.03330  -0.02667
 Alpha virt. eigenvalues --   -0.02440  -0.02245  -0.01196  -0.00640  -0.00147
 Alpha virt. eigenvalues --    0.00184   0.00245   0.00423   0.00502   0.00722

  Beta  occ. eigenvalues --  -38.44457 -38.44401 -38.44155 -38.44107 -38.44046
  Beta  occ. eigenvalues --  -38.43082 -38.42976  -2.20274  -2.20248  -2.19955
  Beta  occ. eigenvalues --   -2.19933  -2.19874  -2.18968  -2.18815  -1.13994
  Beta  occ. eigenvalues --   -1.13956  -1.13947  -1.13929  -1.13890  -1.13858
  Beta  occ. eigenvalues --   -1.13672  -1.13653  -1.13624  -1.13597  -1.13586
  Beta  occ. eigenvalues --   -1.13578  -1.13551  -1.13544  -1.13505  -1.12668
  Beta  occ. eigenvalues --   -1.12650  -1.12593  -1.12478  -1.12470  -1.12439
  Beta  occ. eigenvalues --   -0.17665  -0.13836  -0.11046
  Beta virt. eigenvalues --   -0.07397  -0.06258  -0.05180  -0.04192  -0.03082
  Beta virt. eigenvalues --   -0.02212  -0.01918  -0.01767  -0.01024  -0.00288
  Beta virt. eigenvalues --   -0.00103   0.00213   0.00332   0.00550   0.00655

 Mulliken charges and spin densities:
               1          2
     1  Na  -0.419056   0.087206
     2  Na   0.072974   0.168527
     3  Na  -0.183033   0.168617
     4  Na   1.145246   0.148631
     5  Na   0.045092   0.061080
     6  Na   0.248206  -0.011151
     7  Na  -0.909430   0.377090
 Sum of Mulliken charges =  -0.00000   1.00000

 Dipole moment (field-independent basis, Debye):
    X=             -0.3893    Y=             -0.3510    Z=             -0.2303  Tot=              0.5725
 Quadrupole moment (field-independent basis, Debye-Ang):
   XX=            -50.3065   YY=            -76.6825   ZZ=            -68.5919
   XY=              0.1049   XZ=              0.2357   YZ=              0.6446

 Normal termination of Gaussian 16 at Wed Nov 29 16:34:02 2023.
