 Gaussian 16, Revision B.01,
 Gaussian 16:  ES64L-G16RevB.01 20-Dec-2017

 -------------------------
 #P B3LYP/6-311+g(d) force
 -------------------------

 -----
 DPGEN
 -----
 Symbolic Z-matrix:
 Charge =  0 Multiplicity = 2

                         Standard orientation:
 ---------------------------------------------------------------------
 Center     Atomic      Atomic             Coordinates (Angstroms)
 Number     Number       Type             X           Y           Z
 ---------------------------------------------------------------------
      1         11           0       -0.206825    0.066023    2.213670
      2         11           0       -0.192404   -0.172337   -1.565513
      3         11           0        3.066772   -1.103256   -0.851942
      4         11           0       -0.088789   -2.828553    0.547846
      5         11           0       -3.211584   -0.942996   -0.372709
      6         11           0        2.607489    2.164986    0.366111
      7         11           0       -1.974658    2.816134   -0.337462
 ---------------------------------------------------------------------

 SCF Done:  E(UB3LYP) =  -1136.12920912     A.U. after   22 cycles

 The electronic state is 2-A.
 Alpha  occ. eigenvalues --  -38.44649 -38.44278 -38.44097 -38.43952 -38.43910
 Alpha  occ. eigenvalues --  -38.43613 -38.43165  -2.20445  -2.20035  -2.19942
 Alpha  occ. eigenvalues --   -2.19719  -2.19702  -2.19525  -2.19015  -1.14139
 Alpha  occ. eigenvalues --   -1.14098  -1.14063  -1.13712  -1.13689  -1.13683
 Alpha  occ. eigenvalues --   -1.13607  -1.13567  -1.13556  -1.13403  -1.13387
 Alpha  occ. eigenvalues --   -1.13366  -1.13359  -1.13349  -1.13343  -1.13222
 Alpha  occ. eigenvalues --   -1.13168  -1.13147  -1.12705  -1.12677  -1.12639
 Alpha  occ. eigenvalues --   -0.17822  -0.12916  -0.11829  -0.10947
 Alpha virt. eigenvalues --   -0.06109  -0.05366  -0.04637  -0.03210  -0.02956
 Alpha virt. eigenvalues --   -0.02715  -0.01812  -0.01275  -0.00769  -0.00421
 Alpha virt. eigenvalues --   -0.00051   0.00307   0.00661   0.00701   0.00739

  Beta  occ. eigenvalues --  -38.44639 -38.44276 -38.43992 -38.43956 -38.43889
  Beta  occ. eigenvalues --  -38.43568 -38.43152  -2.20428  -2.20033  -2.19749
  Beta  occ. eigenvalues --   -2.19711  -2.19681  -2.19443  -2.18996  -1.14118
  Beta  occ. eigenvalues --   -1.14086  -1.14052  -1.13705  -1.13689  -1.13679
  Beta  occ. eigenvalues --   -1.13479  -1.13435  -1.13413  -1.13389  -1.13366
  Beta  occ. eigenvalues --   -1.13365  -1.13346  -1.13341  -1.13325  -1.13163
  Beta  occ. eigenvalues --   -1.13112  -1.13083  -1.12688  -1.12644  -1.12624
  Beta  occ. eigenvalues --   -0.17113  -0.12669  -0.11637
  Beta virt. eigenvalues --   -0.07079  -0.06074  -0.05212  -0.04492  -0.02613
  Beta virt. eigenvalues --   -0.02236  -0.01786  -0.01690  -0.01182  -0.00756
  Beta virt. eigenvalues --   -0.00393   0.00076   0.00359   0.00741   0.00757

 Mulliken charges and spin densities:
               1          2
     1  Na  -0.153652   0.611758
     2  Na   0.243975   0.257375
     3  Na   0.118288   0.066831
     4  Na   0.026788   0.135217
     5  Na   0.130702  -0.027034
     6  Na  -0.168742   0.019079
     7  Na  -0.197359  -0.063225
 Sum of Mulliken charges =  -0.00000   1.00000

 Dipole moment (field-independent basis, Debye):
    X=             -0.3237    Y=             -0.0159    Z=              0.0674  Tot=              0.3310
 Quadrupole moment (field-independent basis, Debye-Ang):
   XX=            -56.1781   YY=            -63.8821   ZZ=            -73.7073
   XY=              1.0305   XZ=             -0.2262   YZ=              0.6306

 Normal termination of Gaussian 16 at Thu Dec  7 15:56:03 2023.
