 Gaussian 16, Revision B.01,
 Gaussian 16:  ES64L-G16RevB.01 20-Dec-2017

 -------------------------
 #P B3LYP/6-311+g(d) force
 -------------------------

 -----
 DPGEN
 -----
 Symbolic Z-matrix:
 Charge =  0 Multiplicity = 2

                         Standard orientation:
 ---------------------------------------------------------------------
 Center     Atomic      Atomic             Coordinates (Angstroms)
 Number     Number       Type             X           Y           Z
 ---------------------------------------------------------------------
      1         11           0       -1.107857   -0.451564    1.740128
      2         11           0        2.054729   -0.894446    1.811579
      3         11           0        2.790398    1.450269   -1.175096
      4         11           0       -0.153696    2.680387    0.144559
      5         11           0       -3.202157    0.865323   -0.326037
      6         11           0        1.934881   -1.877315   -1.087202
      7         11           0       -2.316298   -1.772653   -1.107930
 ---------------------------------------------------------------------

 SCF Done:  E(UB3LYP) =  -1136.12108496     A.U. after   22 cycles

 The electronic state is 2-A.
 Alpha  occ. eigenvalues --  -38.44474 -38.44331 -38.44248 -38.44122 -38.44091
 Alpha  occ. eigenvalues --  -38.44077 -38.42811  -2.20382  -2.20219  -2.20121
 Alpha  occ. eigenvalues --   -2.20025  -2.19937  -2.19917  -2.18617  -1.14180
 Alpha  occ. eigenvalues --   -1.14055  -1.14001  -1.13929  -1.13915  -1.13829
 Alpha  occ. eigenvalues --   -1.13768  -1.13755  -1.13719  -1.13685  -1.13652
 Alpha  occ. eigenvalues --   -1.13641  -1.13623  -1.13592  -1.13579  -1.13575
 Alpha  occ. eigenvalues --   -1.13557  -1.13522  -1.12298  -1.12293  -1.12255
 Alpha  occ. eigenvalues --   -0.18057  -0.14249  -0.11627  -0.11453
 Alpha virt. eigenvalues --   -0.05727  -0.05673  -0.04971  -0.03566  -0.02895
 Alpha virt. eigenvalues --   -0.02788  -0.01550  -0.00732  -0.00441  -0.00385
 Alpha virt. eigenvalues --   -0.00132   0.00343   0.00388   0.00586   0.00637

  Beta  occ. eigenvalues --  -38.44465 -38.44281 -38.44218 -38.44087 -38.44060
  Beta  occ. eigenvalues --  -38.44024 -38.42812  -2.20367  -2.20131  -2.20065
  Beta  occ. eigenvalues --   -2.19906  -2.19886  -2.19873  -2.18621  -1.14159
  Beta  occ. eigenvalues --   -1.14035  -1.13990  -1.13876  -1.13828  -1.13768
  Beta  occ. eigenvalues --   -1.13727  -1.13717  -1.13683  -1.13611  -1.13578
  Beta  occ. eigenvalues --   -1.13560  -1.13554  -1.13552  -1.13543  -1.13538
  Beta  occ. eigenvalues --   -1.13530  -1.13487  -1.12302  -1.12286  -1.12256
  Beta  occ. eigenvalues --   -0.17417  -0.13915  -0.11435
  Beta virt. eigenvalues --   -0.07636  -0.05628  -0.05390  -0.04351  -0.03453
  Beta virt. eigenvalues --   -0.02362  -0.01910  -0.01464  -0.00635  -0.00323
  Beta virt. eigenvalues --   -0.00111  -0.00025   0.00442   0.00562   0.00641

 Mulliken charges and spin densities:
               1          2
     1  Na  -0.482072   0.304275
     2  Na   0.346647   0.046248
     3  Na   0.084681   0.064906
     4  Na  -0.491000  -0.020824
     5  Na   0.960535   0.149790
     6  Na  -0.323756   0.408435
     7  Na  -0.095035   0.047170
 Sum of Mulliken charges =  -0.00000   1.00000

 Dipole moment (field-independent basis, Debye):
    X=             -0.1860    Y=             -0.3699    Z=             -0.3185  Tot=              0.5224
 Quadrupole moment (field-independent basis, Debye-Ang):
   XX=            -57.6605   YY=            -73.4446   ZZ=            -67.6728
   XY=             -1.4847   XZ=              1.0301   YZ=              1.2869

 Normal termination of Gaussian 16 at Tue Nov 28 19:20:05 2023.
