 Gaussian 16, Revision B.01,
 Gaussian 16:  ES64L-G16RevB.01 20-Dec-2017

 -------------------------
 #P B3LYP/6-311+g(d) force
 -------------------------

 -----
 DPGEN
 -----
 Symbolic Z-matrix:
 Charge =  0 Multiplicity = 2

                         Standard orientation:
 ---------------------------------------------------------------------
 Center     Atomic      Atomic             Coordinates (Angstroms)
 Number     Number       Type             X           Y           Z
 ---------------------------------------------------------------------
      1         11           0       -4.163446    0.623007   -0.479154
      2         11           0        1.767136    2.789101    0.221378
      3         11           0        4.774926    0.542506    0.448566
      4         11           0       -0.607237   -2.649976   -0.522428
      5         11           0       -3.487632   -2.264770    1.014734
      6         11           0        3.701583   -2.202770   -0.468162
      7         11           0       -1.985331    3.162902   -0.214935
 ---------------------------------------------------------------------

 SCF Done:  E(UB3LYP) =  -1136.10543756     A.U. after   24 cycles

 The electronic state is 2-A.
 Alpha  occ. eigenvalues --  -38.45000 -38.44917 -38.44859 -38.44818 -38.44113
 Alpha  occ. eigenvalues --  -38.44087 -38.44024  -2.20802  -2.20716  -2.20636
 Alpha  occ. eigenvalues --   -2.20619  -2.19866  -2.19859  -2.19853  -1.14522
 Alpha  occ. eigenvalues --   -1.14465  -1.14444  -1.14400  -1.14390  -1.14381
 Alpha  occ. eigenvalues --   -1.14292  -1.14285  -1.14269  -1.14255  -1.14240
 Alpha  occ. eigenvalues --   -1.14236  -1.13570  -1.13554  -1.13531  -1.13521
 Alpha  occ. eigenvalues --   -1.13511  -1.13510  -1.13486  -1.13469  -1.13453
 Alpha  occ. eigenvalues --   -0.15687  -0.14444  -0.12736  -0.10579
 Alpha virt. eigenvalues --   -0.07881  -0.04978  -0.04561  -0.03690  -0.03357
 Alpha virt. eigenvalues --   -0.02766  -0.02260  -0.01620  -0.01007  -0.00887
 Alpha virt. eigenvalues --   -0.00506  -0.00357   0.00152   0.00353   0.00576

  Beta  occ. eigenvalues --  -38.44987 -38.44927 -38.44805 -38.44778 -38.44136
  Beta  occ. eigenvalues --  -38.44008 -38.43961  -2.20784  -2.20739  -2.20548
  Beta  occ. eigenvalues --   -2.20536  -2.19913  -2.19736  -2.19713  -1.14492
  Beta  occ. eigenvalues --   -1.14457  -1.14415  -1.14406  -1.14403  -1.14375
  Beta  occ. eigenvalues --   -1.14225  -1.14222  -1.14217  -1.14207  -1.14184
  Beta  occ. eigenvalues --   -1.14176  -1.13595  -1.13589  -1.13523  -1.13432
  Beta  occ. eigenvalues --   -1.13420  -1.13412  -1.13410  -1.13396  -1.13373
  Beta  occ. eigenvalues --   -0.15183  -0.13845  -0.12095
  Beta virt. eigenvalues --   -0.07842  -0.07417  -0.04656  -0.04078  -0.03491
  Beta virt. eigenvalues --   -0.02954  -0.02495  -0.02162  -0.01447  -0.00842
  Beta virt. eigenvalues --   -0.00712  -0.00218  -0.00136   0.00257   0.00470

 Mulliken charges and spin densities:
               1          2
     1  Na  -0.181332   0.313784
     2  Na  -0.156565   0.369877
     3  Na   0.391942   0.079177
     4  Na  -0.470402   0.263785
     5  Na   0.431905  -0.043751
     6  Na  -0.046837   0.191722
     7  Na   0.031289  -0.174593
 Sum of Mulliken charges =  -0.00000   1.00000

 Dipole moment (field-independent basis, Debye):
    X=              0.3563    Y=             -1.2107    Z=              0.2205  Tot=              1.2812
 Quadrupole moment (field-independent basis, Debye-Ang):
   XX=            -59.4591   YY=            -70.7259   ZZ=            -70.7972
   XY=              5.3879   XZ=             -1.3953   YZ=              0.7058

 Normal termination of Gaussian 16 at Mon Dec  4 05:22:34 2023.
