 Gaussian 16, Revision B.01,
 Gaussian 16:  ES64L-G16RevB.01 20-Dec-2017

 -------------------------
 #P B3LYP/6-311+g(d) force
 -------------------------

 -----
 DPGEN
 -----
 Symbolic Z-matrix:
 Charge =  0 Multiplicity = 2

                         Standard orientation:
 ---------------------------------------------------------------------
 Center     Atomic      Atomic             Coordinates (Angstroms)
 Number     Number       Type             X           Y           Z
 ---------------------------------------------------------------------
      1         11           0        1.698735    3.026478   -0.831180
      2         11           0        3.043784   -0.833470   -1.180594
      3         11           0        1.732759    0.719250    1.669652
      4         11           0        1.627433   -2.799344    0.817444
      5         11           0       -0.815668    0.249919   -0.140300
      6         11           0       -3.853378    0.802498    1.150313
      7         11           0       -3.433665   -1.165331   -1.485335
 ---------------------------------------------------------------------

 SCF Done:  E(UB3LYP) =  -1136.11711689     A.U. after   23 cycles

 The electronic state is 2-A.
 Alpha  occ. eigenvalues --  -38.45692 -38.44523 -38.44252 -38.43852 -38.43744
 Alpha  occ. eigenvalues --  -38.42852 -38.42699  -2.21488  -2.20362  -2.20098
 Alpha  occ. eigenvalues --   -2.19774  -2.19650  -2.18691  -2.18505  -1.15157
 Alpha  occ. eigenvalues --   -1.15149  -1.15120  -1.14044  -1.14003  -1.13975
 Alpha  occ. eigenvalues --   -1.13778  -1.13761  -1.13714  -1.13532  -1.13441
 Alpha  occ. eigenvalues --   -1.13414  -1.13323  -1.13296  -1.13236  -1.12359
 Alpha  occ. eigenvalues --   -1.12348  -1.12337  -1.12179  -1.12157  -1.12143
 Alpha  occ. eigenvalues --   -0.17436  -0.14475  -0.11285  -0.09896
 Alpha virt. eigenvalues --   -0.06864  -0.05665  -0.04471  -0.03468  -0.02692
 Alpha virt. eigenvalues --   -0.02476  -0.01820  -0.01247  -0.00821  -0.00528
 Alpha virt. eigenvalues --   -0.00338   0.00124   0.00284   0.00462   0.00565

  Beta  occ. eigenvalues --  -38.45685 -38.44480 -38.44218 -38.43829 -38.43708
  Beta  occ. eigenvalues --  -38.42846 -38.42686  -2.21477  -2.20281  -2.20035
  Beta  occ. eigenvalues --   -2.19740  -2.19586  -2.18683  -2.18480  -1.15147
  Beta  occ. eigenvalues --   -1.15137  -1.15106  -1.13988  -1.13947  -1.13923
  Beta  occ. eigenvalues --   -1.13733  -1.13718  -1.13666  -1.13465  -1.13413
  Beta  occ. eigenvalues --   -1.13389  -1.13278  -1.13243  -1.13188  -1.12354
  Beta  occ. eigenvalues --   -1.12344  -1.12317  -1.12163  -1.12130  -1.12128
  Beta  occ. eigenvalues --   -0.16854  -0.14214  -0.11159
  Beta virt. eigenvalues --   -0.06678  -0.06260  -0.05149  -0.04334  -0.03271
  Beta virt. eigenvalues --   -0.02468  -0.02078  -0.01346  -0.00988  -0.00640
  Beta virt. eigenvalues --   -0.00284  -0.00087   0.00196   0.00425   0.00604

 Mulliken charges and spin densities:
               1          2
     1  Na   0.279338   0.133990
     2  Na   0.331400   0.251478
     3  Na   0.497667   0.218791
     4  Na   0.127821  -0.031421
     5  Na  -2.355875   0.452021
     6  Na   0.867376  -0.176117
     7  Na   0.252274   0.151259
 Sum of Mulliken charges =  -0.00000   1.00000

 Dipole moment (field-independent basis, Debye):
    X=             -2.0440    Y=              0.0392    Z=              0.4781  Tot=              2.0995
 Quadrupole moment (field-independent basis, Debye-Ang):
   XX=            -53.7518   YY=            -70.8569   ZZ=            -68.1858
   XY=             -0.4689   XZ=             -2.7697   YZ=              1.5723

 Normal termination of Gaussian 16 at Tue Dec  5 09:54:59 2023.
