 Gaussian 16, Revision B.01,
 Gaussian 16:  ES64L-G16RevB.01 20-Dec-2017

 -------------------------
 #P B3LYP/6-311+g(d) force
 -------------------------

 -----
 DPGEN
 -----
 Symbolic Z-matrix:
 Charge =  0 Multiplicity = 2

                         Standard orientation:
 ---------------------------------------------------------------------
 Center     Atomic      Atomic             Coordinates (Angstroms)
 Number     Number       Type             X           Y           Z
 ---------------------------------------------------------------------
      1         11           0        1.908158   -2.991575    0.627985
      2         11           0        4.145555   -0.274144    0.480694
      3         11           0        2.814011    2.204436   -0.944963
      4         11           0       -3.895656   -1.310959   -0.627552
      5         11           0       -3.078529    2.038383    1.231435
      6         11           0       -1.270503   -3.116382   -0.519160
      7         11           0       -0.623037    3.450242   -0.248439
 ---------------------------------------------------------------------

 SCF Done:  E(UB3LYP) =  -1136.10925845     A.U. after   21 cycles

 The electronic state is 2-A.
 Alpha  occ. eigenvalues --  -38.44991 -38.44898 -38.44571 -38.44383 -38.44283
 Alpha  occ. eigenvalues --  -38.44264 -38.43818  -2.20785  -2.20688  -2.20355
 Alpha  occ. eigenvalues --   -2.20185  -2.20094  -2.20078  -2.19631  -1.14474
 Alpha  occ. eigenvalues --   -1.14454  -1.14435  -1.14366  -1.14347  -1.14321
 Alpha  occ. eigenvalues --   -1.14023  -1.14018  -1.13993  -1.13893  -1.13858
 Alpha  occ. eigenvalues --   -1.13854  -1.13747  -1.13742  -1.13727  -1.13724
 Alpha  occ. eigenvalues --   -1.13704  -1.13695  -1.13280  -1.13276  -1.13259
 Alpha  occ. eigenvalues --   -0.15739  -0.14006  -0.13587  -0.10770
 Alpha virt. eigenvalues --   -0.07718  -0.04751  -0.04256  -0.03698  -0.03623
 Alpha virt. eigenvalues --   -0.02292  -0.02036  -0.01587  -0.01230  -0.01063
 Alpha virt. eigenvalues --   -0.00810  -0.00159   0.00198   0.00389   0.00765

  Beta  occ. eigenvalues --  -38.44989 -38.44867 -38.44558 -38.44374 -38.44235
  Beta  occ. eigenvalues --  -38.44202 -38.43749  -2.20788  -2.20632  -2.20337
  Beta  occ. eigenvalues --   -2.20177  -2.20005  -2.19964  -2.19502  -1.14467
  Beta  occ. eigenvalues --   -1.14461  -1.14409  -1.14322  -1.14312  -1.14276
  Beta  occ. eigenvalues --   -1.14013  -1.14008  -1.13958  -1.13863  -1.13860
  Beta  occ. eigenvalues --   -1.13820  -1.13687  -1.13683  -1.13666  -1.13647
  Beta  occ. eigenvalues --   -1.13633  -1.13614  -1.13192  -1.13190  -1.13175
  Beta  occ. eigenvalues --   -0.15216  -0.13261  -0.12817
  Beta virt. eigenvalues --   -0.07869  -0.07646  -0.04239  -0.03815  -0.03491
  Beta virt. eigenvalues --   -0.03353  -0.02063  -0.01804  -0.01362  -0.01084
  Beta virt. eigenvalues --   -0.00791  -0.00535   0.00047   0.00303   0.00447

 Mulliken charges and spin densities:
               1          2
     1  Na   0.179438   0.308783
     2  Na   0.206852   0.040276
     3  Na  -0.093695   0.205377
     4  Na   0.007072   0.238965
     5  Na  -0.095264   0.110926
     6  Na  -0.054137   0.035418
     7  Na  -0.150266   0.060254
 Sum of Mulliken charges =  -0.00000   1.00000

 Dipole moment (field-independent basis, Debye):
    X=             -0.1366    Y=              0.6220    Z=              0.1924  Tot=              0.6653
 Quadrupole moment (field-independent basis, Debye-Ang):
   XX=            -59.8188   YY=            -71.7472   ZZ=            -69.6931
   XY=             -2.1387   XZ=             -0.3300   YZ=             -1.4503

 Normal termination of Gaussian 16 at Sun Dec  3 19:46:58 2023.
