 Gaussian 16, Revision B.01,
 Gaussian 16:  ES64L-G16RevB.01 20-Dec-2017

 -------------------------
 #P B3LYP/6-311+g(d) force
 -------------------------

 -----
 DPGEN
 -----
 Symbolic Z-matrix:
 Charge =  0 Multiplicity = 2

                         Standard orientation:
 ---------------------------------------------------------------------
 Center     Atomic      Atomic             Coordinates (Angstroms)
 Number     Number       Type             X           Y           Z
 ---------------------------------------------------------------------
      1         11           0        0.194837    0.009031    1.990100
      2         11           0       -1.107097   -2.483780    0.079444
      3         11           0       -2.823253    0.094873   -0.093086
      4         11           0        0.016547    0.078970   -1.696205
      5         11           0       -0.616917    2.796861   -0.018782
      6         11           0        2.270720    1.287531   -0.029850
      7         11           0        2.065163   -1.783486   -0.231622
 ---------------------------------------------------------------------

 SCF Done:  E(UB3LYP) =  -1136.13390746     A.U. after   19 cycles

 The electronic state is 2-A.
 Alpha  occ. eigenvalues --  -38.43621 -38.43423 -38.43335 -38.43287 -38.43252
 Alpha  occ. eigenvalues --  -38.43242 -38.43229  -2.19600  -2.19334  -2.19327
 Alpha  occ. eigenvalues --   -2.19285  -2.19235  -2.19195  -2.19191  -1.13302
 Alpha  occ. eigenvalues --   -1.13244  -1.13215  -1.13140  -1.13087  -1.13050
 Alpha  occ. eigenvalues --   -1.13013  -1.12986  -1.12976  -1.12947  -1.12930
 Alpha  occ. eigenvalues --   -1.12893  -1.12883  -1.12881  -1.12873  -1.12850
 Alpha  occ. eigenvalues --   -1.12836  -1.12825  -1.12819  -1.12797  -1.12760
 Alpha  occ. eigenvalues --   -0.19833  -0.13121  -0.12942  -0.11336
 Alpha virt. eigenvalues --   -0.04946  -0.04807  -0.04701  -0.03259  -0.03125
 Alpha virt. eigenvalues --   -0.02783  -0.01044  -0.00967  -0.00033   0.00151
 Alpha virt. eigenvalues --    0.00245   0.00372   0.00963   0.00997   0.01010

  Beta  occ. eigenvalues --  -38.43526 -38.43419 -38.43331 -38.43276 -38.43246
  Beta  occ. eigenvalues --  -38.43219 -38.43165  -2.19426  -2.19324  -2.19272
  Beta  occ. eigenvalues --   -2.19231  -2.19194  -2.19185  -2.19178  -1.13203
  Beta  occ. eigenvalues --   -1.13126  -1.13096  -1.13081  -1.13066  -1.13012
  Beta  occ. eigenvalues --   -1.12995  -1.12959  -1.12954  -1.12900  -1.12895
  Beta  occ. eigenvalues --   -1.12865  -1.12859  -1.12851  -1.12837  -1.12825
  Beta  occ. eigenvalues --   -1.12810  -1.12789  -1.12781  -1.12759  -1.12757
  Beta  occ. eigenvalues --   -0.19051  -0.12826  -0.12659
  Beta virt. eigenvalues --   -0.07309  -0.04948  -0.04796  -0.04707  -0.02377
  Beta virt. eigenvalues --   -0.02283  -0.01671  -0.00982  -0.00903   0.00083
  Beta virt. eigenvalues --    0.00112   0.00184   0.00381   0.00982   0.00991

 Mulliken charges and spin densities:
               1          2
     1  Na  -0.783740   0.676797
     2  Na   0.244990  -0.009103
     3  Na   0.120976  -0.073183
     4  Na  -0.705312   0.462300
     5  Na   0.177006  -0.077453
     6  Na   0.543670   0.017216
     7  Na   0.402409   0.003426
 Sum of Mulliken charges =  -0.00000   1.00000

 Dipole moment (field-independent basis, Debye):
    X=             -0.1562    Y=              0.0897    Z=              0.2233  Tot=              0.2869
 Quadrupole moment (field-independent basis, Debye-Ang):
   XX=            -61.9680   YY=            -61.6236   ZZ=            -71.5475
   XY=             -0.6885   XZ=             -0.3584   YZ=              0.1673

 Normal termination of Gaussian 16 at Fri Dec  8 19:28:01 2023.
