 Gaussian 16, Revision B.01,
 Gaussian 16:  ES64L-G16RevB.01 20-Dec-2017

 -------------------------
 #P B3LYP/6-311+g(d) force
 -------------------------

 -----
 DPGEN
 -----
 Symbolic Z-matrix:
 Charge =  0 Multiplicity = 2

                         Standard orientation:
 ---------------------------------------------------------------------
 Center     Atomic      Atomic             Coordinates (Angstroms)
 Number     Number       Type             X           Y           Z
 ---------------------------------------------------------------------
      1         11           0        0.176568   -1.090617   -0.610541
      2         11           0        1.115249    2.330733    0.783783
      3         11           0        3.083086   -1.548016    0.927106
      4         11           0       -3.411102   -1.390207   -0.882844
      5         11           0       -2.491162    1.817334   -0.303112
      6         11           0        2.962560    0.450208   -1.652743
      7         11           0       -1.435199   -0.569436    1.738351
 ---------------------------------------------------------------------

 SCF Done:  E(UB3LYP) =  -1136.11977226     A.U. after   24 cycles

 The electronic state is 2-A.
 Alpha  occ. eigenvalues --  -38.44887 -38.44193 -38.44139 -38.44099 -38.43857
 Alpha  occ. eigenvalues --  -38.43790 -38.42688  -2.20703  -2.20062  -2.20048
 Alpha  occ. eigenvalues --   -2.19978  -2.19819  -2.19646  -2.18491  -1.14369
 Alpha  occ. eigenvalues --   -1.14362  -1.14355  -1.13903  -1.13745  -1.13716
 Alpha  occ. eigenvalues --   -1.13699  -1.13672  -1.13660  -1.13633  -1.13608
 Alpha  occ. eigenvalues --   -1.13593  -1.13511  -1.13450  -1.13408  -1.13308
 Alpha  occ. eigenvalues --   -1.13293  -1.13270  -1.12170  -1.12164  -1.12124
 Alpha  occ. eigenvalues --   -0.18293  -0.14575  -0.10953  -0.10579
 Alpha virt. eigenvalues --   -0.06494  -0.05570  -0.05059  -0.03042  -0.02574
 Alpha virt. eigenvalues --   -0.02381  -0.01980  -0.01161  -0.00739  -0.00386
 Alpha virt. eigenvalues --    0.00145   0.00242   0.00314   0.00445   0.00599

  Beta  occ. eigenvalues --  -38.44882 -38.44141 -38.44127 -38.44041 -38.43838
  Beta  occ. eigenvalues --  -38.43759 -38.42684  -2.20695  -2.19966  -2.19958
  Beta  occ. eigenvalues --   -2.19942  -2.19792  -2.19589  -2.18485  -1.14366
  Beta  occ. eigenvalues --   -1.14357  -1.14329  -1.13832  -1.13679  -1.13676
  Beta  occ. eigenvalues --   -1.13643  -1.13639  -1.13605  -1.13569  -1.13555
  Beta  occ. eigenvalues --   -1.13547  -1.13438  -1.13428  -1.13398  -1.13267
  Beta  occ. eigenvalues --   -1.13248  -1.13236  -1.12168  -1.12149  -1.12115
  Beta  occ. eigenvalues --   -0.17648  -0.14216  -0.10801
  Beta virt. eigenvalues --   -0.06964  -0.06253  -0.05381  -0.04458  -0.02958
  Beta virt. eigenvalues --   -0.02404  -0.01759  -0.01365  -0.01029  -0.00424
  Beta virt. eigenvalues --   -0.00188   0.00242   0.00311   0.00465   0.00566

 Mulliken charges and spin densities:
               1          2
     1  Na  -0.737783   0.358878
     2  Na  -0.321488  -0.015613
     3  Na   0.221109  -0.020482
     4  Na   0.537769   0.280790
     5  Na  -0.261107   0.076380
     6  Na   0.428496   0.111225
     7  Na   0.133004   0.208822
 Sum of Mulliken charges =  -0.00000   1.00000

 Dipole moment (field-independent basis, Debye):
    X=              0.2935    Y=             -0.3214    Z=              0.3230  Tot=              0.5420
 Quadrupole moment (field-independent basis, Debye-Ang):
   XX=            -52.0015   YY=            -75.9975   ZZ=            -66.6521
   XY=             -1.1605   XZ=              2.3972   YZ=             -2.2515

 Normal termination of Gaussian 16 at Fri Dec  8 07:41:31 2023.
