 Gaussian 16, Revision B.01,
 Gaussian 16:  ES64L-G16RevB.01 20-Dec-2017

 -------------------------
 #P B3LYP/6-311+g(d) force
 -------------------------

 -----
 DPGEN
 -----
 Symbolic Z-matrix:
 Charge =  0 Multiplicity = 2

                         Standard orientation:
 ---------------------------------------------------------------------
 Center     Atomic      Atomic             Coordinates (Angstroms)
 Number     Number       Type             X           Y           Z
 ---------------------------------------------------------------------
      1         11           0        3.684650   -1.109185    0.512462
      2         11           0       -4.186283    0.357241    0.268389
      3         11           0        2.174207    2.301782   -0.206952
      4         11           0       -0.916798    1.613703   -0.991750
      5         11           0        1.234729   -0.971971   -0.952322
      6         11           0       -1.471223   -2.226442   -0.696886
      7         11           0       -0.519282    0.034871    2.067058
 ---------------------------------------------------------------------

 SCF Done:  E(UB3LYP) =  -1136.11212935     A.U. after   28 cycles

 The electronic state is 2-A.
 Alpha  occ. eigenvalues --  -38.46280 -38.45727 -38.44610 -38.43323 -38.43219
 Alpha  occ. eigenvalues --  -38.42761 -38.42688  -2.22061  -2.21481  -2.20454
 Alpha  occ. eigenvalues --   -2.19196  -2.19059  -2.18738  -2.18675  -1.15756
 Alpha  occ. eigenvalues --   -1.15708  -1.15671  -1.15152  -1.15140  -1.15096
 Alpha  occ. eigenvalues --   -1.14200  -1.14076  -1.14058  -1.12951  -1.12842
 Alpha  occ. eigenvalues --   -1.12801  -1.12747  -1.12723  -1.12701  -1.12466
 Alpha  occ. eigenvalues --   -1.12392  -1.12374  -1.12341  -1.12305  -1.12276
 Alpha  occ. eigenvalues --   -0.18389  -0.13849  -0.11319  -0.10651
 Alpha virt. eigenvalues --   -0.07779  -0.05107  -0.03975  -0.03332  -0.03127
 Alpha virt. eigenvalues --   -0.02290  -0.02198  -0.01295  -0.00961  -0.00411
 Alpha virt. eigenvalues --   -0.00142   0.00134   0.00312   0.00619   0.00680

  Beta  occ. eigenvalues --  -38.46244 -38.45703 -38.44573 -38.43288 -38.43217
  Beta  occ. eigenvalues --  -38.42728 -38.42652  -2.21993  -2.21436  -2.20385
  Beta  occ. eigenvalues --   -2.19137  -2.19059  -2.18679  -2.18618  -1.15703
  Beta  occ. eigenvalues --   -1.15665  -1.15620  -1.15119  -1.15107  -1.15067
  Beta  occ. eigenvalues --   -1.14157  -1.14026  -1.14009  -1.12895  -1.12790
  Beta  occ. eigenvalues --   -1.12765  -1.12738  -1.12725  -1.12691  -1.12399
  Beta  occ. eigenvalues --   -1.12340  -1.12329  -1.12291  -1.12253  -1.12238
  Beta  occ. eigenvalues --   -0.17739  -0.13491  -0.11011
  Beta virt. eigenvalues --   -0.07486  -0.07028  -0.05097  -0.03488  -0.03052
  Beta virt. eigenvalues --   -0.02844  -0.01756  -0.01587  -0.01247  -0.00540
  Beta virt. eigenvalues --   -0.00326  -0.00060   0.00179   0.00494   0.00690

 Mulliken charges and spin densities:
               1          2
     1  Na   0.371455   0.367053
     2  Na   0.342237   0.258086
     3  Na   0.273946  -0.006185
     4  Na  -0.435720   0.002768
     5  Na  -0.056143   0.023818
     6  Na  -0.227326  -0.028911
     7  Na  -0.268450   0.383370
 Sum of Mulliken charges =  -0.00000   1.00000

 Dipole moment (field-independent basis, Debye):
    X=             -1.0752    Y=              0.2042    Z=              0.7468  Tot=              1.3250
 Quadrupole moment (field-independent basis, Debye-Ang):
   XX=            -47.8653   YY=            -76.5708   ZZ=            -69.4689
   XY=              1.8609   XZ=              2.7781   YZ=             -0.5764

 Normal termination of Gaussian 16 at Fri Dec  8 04:48:13 2023.
