 Gaussian 16, Revision B.01,
 Gaussian 16:  ES64L-G16RevB.01 20-Dec-2017

 -------------------------
 #P B3LYP/6-311+g(d) force
 -------------------------

 -----
 DPGEN
 -----
 Symbolic Z-matrix:
 Charge =  0 Multiplicity = 2

                         Standard orientation:
 ---------------------------------------------------------------------
 Center     Atomic      Atomic             Coordinates (Angstroms)
 Number     Number       Type             X           Y           Z
 ---------------------------------------------------------------------
      1         11           0       -1.939472    2.283365    0.025716
      2         11           0        3.271410   -0.467101    0.416215
      3         11           0        1.823927    2.218228   -0.267221
      4         11           0        0.244283   -0.405819   -1.811618
      5         11           0        0.423273   -2.582566    0.030160
      6         11           0       -3.184428   -0.956428   -0.248341
      7         11           0       -0.638993   -0.089680    1.855089
 ---------------------------------------------------------------------

 SCF Done:  E(UB3LYP) =  -1136.13026472     A.U. after   19 cycles

 The electronic state is 2-A.
 Alpha  occ. eigenvalues --  -38.44814 -38.44556 -38.43558 -38.43515 -38.43502
 Alpha  occ. eigenvalues --  -38.43276 -38.43031  -2.20625  -2.20390  -2.19489
 Alpha  occ. eigenvalues --   -2.19466  -2.19354  -2.19131  -2.18954  -1.14303
 Alpha  occ. eigenvalues --   -1.14284  -1.14258  -1.14079  -1.14046  -1.14021
 Alpha  occ. eigenvalues --   -1.13257  -1.13175  -1.13157  -1.13108  -1.13105
 Alpha  occ. eigenvalues --   -1.13054  -1.13021  -1.13010  -1.12982  -1.12806
 Alpha  occ. eigenvalues --   -1.12799  -1.12763  -1.12636  -1.12611  -1.12535
 Alpha  occ. eigenvalues --   -0.18710  -0.13512  -0.12073  -0.10686
 Alpha virt. eigenvalues --   -0.06330  -0.05205  -0.04091  -0.03504  -0.02724
 Alpha virt. eigenvalues --   -0.02447  -0.02052  -0.01002  -0.00331  -0.00157
 Alpha virt. eigenvalues --   -0.00043   0.00327   0.00744   0.00801   0.00864

  Beta  occ. eigenvalues --  -38.44810 -38.44549 -38.43512 -38.43483 -38.43423
  Beta  occ. eigenvalues --  -38.43271 -38.43019  -2.20621  -2.20379  -2.19353
  Beta  occ. eigenvalues --   -2.19350  -2.19321  -2.19124  -2.18939  -1.14284
  Beta  occ. eigenvalues --   -1.14282  -1.14254  -1.14075  -1.14022  -1.14017
  Beta  occ. eigenvalues --   -1.13166  -1.13101  -1.13070  -1.13013  -1.13008
  Beta  occ. eigenvalues --   -1.12997  -1.12987  -1.12968  -1.12950  -1.12803
  Beta  occ. eigenvalues --   -1.12774  -1.12759  -1.12619  -1.12562  -1.12526
  Beta  occ. eigenvalues --   -0.17988  -0.13311  -0.11808
  Beta virt. eigenvalues --   -0.06828  -0.06229  -0.05189  -0.04067  -0.02743
  Beta virt. eigenvalues --   -0.01984  -0.01911  -0.01430  -0.00938  -0.00371
  Beta virt. eigenvalues --   -0.00183   0.00105   0.00360   0.00817   0.00883

 Mulliken charges and spin densities:
               1          2
     1  Na  -0.044520  -0.098165
     2  Na  -0.003356   0.030681
     3  Na   0.041704  -0.075841
     4  Na  -0.318167   0.663600
     5  Na   0.358528  -0.049479
     6  Na   0.251909  -0.103168
     7  Na  -0.286098   0.632371
 Sum of Mulliken charges =  -0.00000   1.00000

 Dipole moment (field-independent basis, Debye):
    X=             -0.3563    Y=             -0.1965    Z=              0.0693  Tot=              0.4128
 Quadrupole moment (field-independent basis, Debye-Ang):
   XX=            -51.2030   YY=            -67.8691   ZZ=            -74.2499
   XY=              0.1255   XZ=              2.4429   YZ=             -0.8570

 Normal termination of Gaussian 16 at Tue Dec  5 15:34:23 2023.
