 Gaussian 16, Revision B.01,
 Gaussian 16:  ES64L-G16RevB.01 20-Dec-2017

 -------------------------
 #P B3LYP/6-311+g(d) force
 -------------------------

 -----
 DPGEN
 -----
 Symbolic Z-matrix:
 Charge =  0 Multiplicity = 2

                         Standard orientation:
 ---------------------------------------------------------------------
 Center     Atomic      Atomic             Coordinates (Angstroms)
 Number     Number       Type             X           Y           Z
 ---------------------------------------------------------------------
      1         11           0       -2.894898   -1.040859   -0.135892
      2         11           0       -0.149682    0.037871   -1.429169
      3         11           0        3.095170   -1.138328   -0.182456
      4         11           0        2.040522    2.328180   -0.231381
      5         11           0       -2.010739    2.450767   -0.049521
      6         11           0       -0.239494   -2.791306   -0.018108
      7         11           0        0.159121    0.153676    2.046527
 ---------------------------------------------------------------------

 SCF Done:  E(UB3LYP) =  -1136.13645287     A.U. after   19 cycles

 The electronic state is 2-A.
 Alpha  occ. eigenvalues --  -38.44196 -38.44002 -38.43862 -38.43770 -38.43319
 Alpha  occ. eigenvalues --  -38.43158 -38.42921  -2.19992  -2.19816  -2.19741
 Alpha  occ. eigenvalues --   -2.19586  -2.19207  -2.19055  -2.18949  -1.13666
 Alpha  occ. eigenvalues --   -1.13644  -1.13640  -1.13502  -1.13481  -1.13443
 Alpha  occ. eigenvalues --   -1.13438  -1.13399  -1.13379  -1.13268  -1.13246
 Alpha  occ. eigenvalues --   -1.13219  -1.12888  -1.12829  -1.12818  -1.12790
 Alpha  occ. eigenvalues --   -1.12706  -1.12680  -1.12632  -1.12575  -1.12561
 Alpha  occ. eigenvalues --   -0.18642  -0.13087  -0.12422  -0.10416
 Alpha virt. eigenvalues --   -0.05733  -0.05481  -0.04642  -0.03031  -0.02704
 Alpha virt. eigenvalues --   -0.02304  -0.01658  -0.01325  -0.00576  -0.00367
 Alpha virt. eigenvalues --    0.00005   0.00331   0.00758   0.00813   0.00883

  Beta  occ. eigenvalues --  -38.44193 -38.43996 -38.43857 -38.43768 -38.43217
  Beta  occ. eigenvalues --  -38.43151 -38.42870  -2.19989  -2.19808  -2.19734
  Beta  occ. eigenvalues --   -2.19584  -2.19047  -2.19018  -2.18857  -1.13650
  Beta  occ. eigenvalues --   -1.13642  -1.13639  -1.13490  -1.13462  -1.13437
  Beta  occ. eigenvalues --   -1.13435  -1.13387  -1.13364  -1.13260  -1.13232
  Beta  occ. eigenvalues --   -1.13219  -1.12788  -1.12752  -1.12697  -1.12687
  Beta  occ. eigenvalues --   -1.12684  -1.12661  -1.12561  -1.12510  -1.12497
  Beta  occ. eigenvalues --   -0.17928  -0.12851  -0.12198
  Beta virt. eigenvalues --   -0.06494  -0.05735  -0.05431  -0.04625  -0.02268
  Beta virt. eigenvalues --   -0.01951  -0.01573  -0.01279  -0.01214  -0.00628
  Beta virt. eigenvalues --   -0.00408   0.00156   0.00372   0.00803   0.00829

 Mulliken charges and spin densities:
               1          2
     1  Na   0.373296   0.035650
     2  Na  -0.590655   0.290651
     3  Na   0.133232  -0.016923
     4  Na   0.130599  -0.064134
     5  Na   0.198582  -0.054313
     6  Na   0.293413   0.024644
     7  Na  -0.538467   0.784424
 Sum of Mulliken charges =  -0.00000   1.00000

 Dipole moment (field-independent basis, Debye):
    X=              0.2030    Y=              0.2317    Z=              0.1412  Tot=              0.3389
 Quadrupole moment (field-independent basis, Debye-Ang):
   XX=            -54.3357   YY=            -61.1271   ZZ=            -76.3944
   XY=             -0.5499   XZ=             -0.6472   YZ=             -0.2249

 Normal termination of Gaussian 16 at Fri Dec  8 06:37:36 2023.
