 Gaussian 16, Revision B.01,
 Gaussian 16:  ES64L-G16RevB.01 20-Dec-2017

 -------------------------
 #P B3LYP/6-311+g(d) force
 -------------------------

 -----
 DPGEN
 -----
 Symbolic Z-matrix:
 Charge =  0 Multiplicity = 2

                         Standard orientation:
 ---------------------------------------------------------------------
 Center     Atomic      Atomic             Coordinates (Angstroms)
 Number     Number       Type             X           Y           Z
 ---------------------------------------------------------------------
      1         11           0       -2.228977   -1.622244    0.442497
      2         11           0       -0.189826    0.465214    1.870751
      3         11           0        0.576223   -2.518615   -0.322644
      4         11           0        3.254270   -0.309315    0.321973
      5         11           0       -2.445362    1.436457   -0.362693
      6         11           0        0.119454   -0.142198   -1.730404
      7         11           0        0.914217    2.690700   -0.219479
 ---------------------------------------------------------------------

 SCF Done:  E(UB3LYP) =  -1136.13091441     A.U. after   19 cycles

 The electronic state is 2-A.
 Alpha  occ. eigenvalues --  -38.44221 -38.43636 -38.43483 -38.43451 -38.43420
 Alpha  occ. eigenvalues --  -38.43301 -38.43247  -2.20016  -2.19550  -2.19469
 Alpha  occ. eigenvalues --   -2.19451  -2.19320  -2.19260  -2.19207  -1.13691
 Alpha  occ. eigenvalues --   -1.13669  -1.13657  -1.13347  -1.13278  -1.13226
 Alpha  occ. eigenvalues --   -1.13198  -1.13136  -1.13131  -1.13103  -1.13061
 Alpha  occ. eigenvalues --   -1.13053  -1.12998  -1.12987  -1.12973  -1.12926
 Alpha  occ. eigenvalues --   -1.12898  -1.12891  -1.12821  -1.12811  -1.12758
 Alpha  occ. eigenvalues --   -0.19359  -0.13019  -0.12703  -0.11110
 Alpha virt. eigenvalues --   -0.05661  -0.04803  -0.04384  -0.03269  -0.03114
 Alpha virt. eigenvalues --   -0.02594  -0.01526  -0.00929  -0.00077  -0.00030
 Alpha virt. eigenvalues --    0.00163   0.00359   0.00871   0.00908   0.00986

  Beta  occ. eigenvalues --  -38.44218 -38.43624 -38.43444 -38.43405 -38.43341
  Beta  occ. eigenvalues --  -38.43288 -38.43237  -2.20012  -2.19533  -2.19327
  Beta  occ. eigenvalues --   -2.19313  -2.19307  -2.19241  -2.19190  -1.13679
  Beta  occ. eigenvalues --   -1.13665  -1.13656  -1.13267  -1.13261  -1.13187
  Beta  occ. eigenvalues --   -1.13174  -1.13073  -1.13051  -1.13018  -1.12998
  Beta  occ. eigenvalues --   -1.12966  -1.12956  -1.12936  -1.12928  -1.12919
  Beta  occ. eigenvalues --   -1.12881  -1.12841  -1.12792  -1.12761  -1.12751
  Beta  occ. eigenvalues --   -0.18603  -0.12770  -0.12421
  Beta virt. eigenvalues --   -0.07140  -0.05618  -0.04786  -0.04364  -0.02498
  Beta virt. eigenvalues --   -0.02293  -0.01544  -0.01417  -0.00859  -0.00075
  Beta virt. eigenvalues --    0.00011   0.00176   0.00381   0.00895   0.00922

 Mulliken charges and spin densities:
               1          2
     1  Na   0.210246   0.085863
     2  Na  -0.471965   0.625670
     3  Na   0.353660   0.033587
     4  Na  -0.135279  -0.061204
     5  Na   0.298870   0.009013
     6  Na  -0.247346   0.419664
     7  Na  -0.008186  -0.112593
 Sum of Mulliken charges =  -0.00000   1.00000

 Dipole moment (field-independent basis, Debye):
    X=              0.3539    Y=              0.3533    Z=              0.1954  Tot=              0.5369
 Quadrupole moment (field-independent basis, Debye-Ang):
   XX=            -56.7010   YY=            -64.7101   ZZ=            -72.5535
   XY=              0.0134   XZ=              1.0334   YZ=             -1.5322

 Normal termination of Gaussian 16 at Tue Dec  5 21:21:31 2023.
