 Gaussian 16, Revision B.01,
 Gaussian 16:  ES64L-G16RevB.01 20-Dec-2017

 -------------------------
 #P B3LYP/6-311+g(d) force
 -------------------------

 -----
 DPGEN
 -----
 Symbolic Z-matrix:
 Charge =  0 Multiplicity = 2

                         Standard orientation:
 ---------------------------------------------------------------------
 Center     Atomic      Atomic             Coordinates (Angstroms)
 Number     Number       Type             X           Y           Z
 ---------------------------------------------------------------------
      1         11           0       -0.082255   -0.480403   -1.620189
      2         11           0        1.647326   -0.201428    1.852248
      3         11           0       -1.405942   -1.695107    1.438141
      4         11           0        1.610413    2.294015   -0.462221
      5         11           0        3.492161   -1.435979   -0.894240
      6         11           0       -3.847608   -0.565978   -0.929093
      7         11           0       -1.414096    2.084880    0.615355
 ---------------------------------------------------------------------

 SCF Done:  E(UB3LYP) =  -1136.12855388     A.U. after   23 cycles

 The electronic state is 2-A.
 Alpha  occ. eigenvalues --  -38.44692 -38.44546 -38.43989 -38.43975 -38.43965
 Alpha  occ. eigenvalues --  -38.43075 -38.42956  -2.20473  -2.20403  -2.19866
 Alpha  occ. eigenvalues --   -2.19821  -2.19746  -2.18924  -2.18833  -1.14143
 Alpha  occ. eigenvalues --   -1.14131  -1.14109  -1.14096  -1.14065  -1.14002
 Alpha  occ. eigenvalues --   -1.13574  -1.13519  -1.13495  -1.13485  -1.13474
 Alpha  occ. eigenvalues --   -1.13423  -1.13413  -1.13403  -1.13374  -1.12629
 Alpha  occ. eigenvalues --   -1.12597  -1.12565  -1.12512  -1.12492  -1.12428
 Alpha  occ. eigenvalues --   -0.18201  -0.13455  -0.11504  -0.11169
 Alpha virt. eigenvalues --   -0.06493  -0.05141  -0.04589  -0.03229  -0.02761
 Alpha virt. eigenvalues --   -0.02558  -0.02249  -0.01222  -0.00749  -0.00143
 Alpha virt. eigenvalues --    0.00161   0.00284   0.00303   0.00610   0.00702

  Beta  occ. eigenvalues --  -38.44675 -38.44503 -38.43953 -38.43932 -38.43924
  Beta  occ. eigenvalues --  -38.43070 -38.42949  -2.20443  -2.20325  -2.19764
  Beta  occ. eigenvalues --   -2.19730  -2.19722  -2.18918  -2.18823  -1.14118
  Beta  occ. eigenvalues --   -1.14109  -1.14079  -1.14048  -1.14010  -1.13941
  Beta  occ. eigenvalues --   -1.13494  -1.13447  -1.13432  -1.13422  -1.13409
  Beta  occ. eigenvalues --   -1.13391  -1.13379  -1.13355  -1.13339  -1.12627
  Beta  occ. eigenvalues --   -1.12578  -1.12560  -1.12492  -1.12488  -1.12420
  Beta  occ. eigenvalues --   -0.17461  -0.13278  -0.11058
  Beta virt. eigenvalues --   -0.07505  -0.06255  -0.04997  -0.04155  -0.02955
  Beta virt. eigenvalues --   -0.02189  -0.02079  -0.01778  -0.01018  -0.00489
  Beta virt. eigenvalues --   -0.00073   0.00195   0.00353   0.00410   0.00711

 Mulliken charges and spin densities:
               1          2
     1  Na  -0.412980   0.367162
     2  Na   0.217433   0.100097
     3  Na  -0.176776   0.213258
     4  Na   0.169993   0.033077
     5  Na  -0.012817   0.088359
     6  Na   0.490905   0.084865
     7  Na  -0.275757   0.113181
 Sum of Mulliken charges =  -0.00000   1.00000

 Dipole moment (field-independent basis, Debye):
    X=             -0.6174    Y=             -0.1039    Z=             -0.2473  Tot=              0.6731
 Quadrupole moment (field-independent basis, Debye-Ang):
   XX=            -51.1437   YY=            -75.4184   ZZ=            -67.8330
   XY=              0.6024   XZ=              0.6737   YZ=              0.3669

 Normal termination of Gaussian 16 at Tue Dec  5 10:08:04 2023.
