 Gaussian 16, Revision B.01,
 Gaussian 16:  ES64L-G16RevB.01 20-Dec-2017

 -------------------------
 #P B3LYP/6-311+g(d) force
 -------------------------

 -----
 DPGEN
 -----
 Symbolic Z-matrix:
 Charge =  0 Multiplicity = 2

                         Standard orientation:
 ---------------------------------------------------------------------
 Center     Atomic      Atomic             Coordinates (Angstroms)
 Number     Number       Type             X           Y           Z
 ---------------------------------------------------------------------
      1         11           0        3.262171    1.683949   -0.564957
      2         11           0        0.442813    2.924388   -0.325083
      3         11           0       -2.961230    2.327636    0.340643
      4         11           0       -3.976664   -0.577789    0.675427
      5         11           0       -2.536752   -2.763663   -0.762243
      6         11           0        1.443109   -2.201486   -0.345201
      7         11           0        4.326552   -1.393035    0.981416
 ---------------------------------------------------------------------

 SCF Done:  E(UB3LYP) =  -1136.11077284     A.U. after   22 cycles

 The electronic state is 2-A.
 Alpha  occ. eigenvalues --  -38.45648 -38.44986 -38.44562 -38.44319 -38.44024
 Alpha  occ. eigenvalues --  -38.43815 -38.43515  -2.21403  -2.20817  -2.20425
 Alpha  occ. eigenvalues --   -2.20148  -2.19858  -2.19644  -2.19333  -1.15100
 Alpha  occ. eigenvalues --   -1.15083  -1.15018  -1.14511  -1.14484  -1.14425
 Alpha  occ. eigenvalues --   -1.14149  -1.14099  -1.14072  -1.13805  -1.13792
 Alpha  occ. eigenvalues --   -1.13768  -1.13517  -1.13505  -1.13484  -1.13309
 Alpha  occ. eigenvalues --   -1.13283  -1.13267  -1.13011  -1.12996  -1.12980
 Alpha  occ. eigenvalues --   -0.16254  -0.14668  -0.12982  -0.10819
 Alpha virt. eigenvalues --   -0.07359  -0.05082  -0.04187  -0.03583  -0.03465
 Alpha virt. eigenvalues --   -0.02509  -0.02378  -0.01527  -0.01194  -0.00704
 Alpha virt. eigenvalues --   -0.00363  -0.00067   0.00137   0.00524   0.00605

  Beta  occ. eigenvalues --  -38.45633 -38.44942 -38.44553 -38.44265 -38.43975
  Beta  occ. eigenvalues --  -38.43772 -38.43502  -2.21380  -2.20742  -2.20415
  Beta  occ. eigenvalues --   -2.20047  -2.19769  -2.19565  -2.19315  -1.15087
  Beta  occ. eigenvalues --   -1.15069  -1.14973  -1.14447  -1.14436  -1.14357
  Beta  occ. eigenvalues --   -1.14107  -1.14088  -1.14068  -1.13733  -1.13722
  Beta  occ. eigenvalues --   -1.13706  -1.13455  -1.13446  -1.13425  -1.13264
  Beta  occ. eigenvalues --   -1.13228  -1.13208  -1.12992  -1.12987  -1.12951
  Beta  occ. eigenvalues --   -0.15745  -0.14050  -0.12310
  Beta virt. eigenvalues --   -0.07572  -0.07349  -0.04631  -0.03959  -0.03275
  Beta virt. eigenvalues --   -0.03017  -0.02290  -0.02094  -0.01335  -0.00872
  Beta virt. eigenvalues --   -0.00482  -0.00135   0.00150   0.00282   0.00559

 Mulliken charges and spin densities:
               1          2
     1  Na  -0.063906   0.020087
     2  Na   0.166019  -0.001434
     3  Na  -0.140532   0.365340
     4  Na  -0.121737   0.011717
     5  Na  -0.086855   0.177949
     6  Na  -0.903098   0.188453
     7  Na   1.150109   0.237888
 Sum of Mulliken charges =  -0.00000   1.00000

 Dipole moment (field-independent basis, Debye):
    X=              1.2673    Y=             -0.4427    Z=              0.1548  Tot=              1.3513
 Quadrupole moment (field-independent basis, Debye-Ang):
   XX=            -56.4529   YY=            -73.0463   ZZ=            -71.0158
   XY=              1.7717   XZ=              0.4198   YZ=              0.2365

 Normal termination of Gaussian 16 at Sun Dec  3 21:18:29 2023.
