 Gaussian 16, Revision B.01,
 Gaussian 16:  ES64L-G16RevB.01 20-Dec-2017

 -------------------------
 #P B3LYP/6-311+g(d) force
 -------------------------

 -----
 DPGEN
 -----
 Symbolic Z-matrix:
 Charge =  0 Multiplicity = 2

                         Standard orientation:
 ---------------------------------------------------------------------
 Center     Atomic      Atomic             Coordinates (Angstroms)
 Number     Number       Type             X           Y           Z
 ---------------------------------------------------------------------
      1         11           0       -3.170795    0.122591   -0.243040
      2         11           0       -1.142449   -2.786411   -0.032362
      3         11           0        0.020431   -0.160587    2.146183
      4         11           0        0.113323   -0.277685   -1.505199
      5         11           0        2.587703    1.790070   -0.123337
      6         11           0       -0.906000    3.134507   -0.071496
      7         11           0        2.497787   -1.822485   -0.170749
 ---------------------------------------------------------------------

 SCF Done:  E(UB3LYP) =  -1136.13702041     A.U. after   20 cycles

 The electronic state is 2-A.
 Alpha  occ. eigenvalues --  -38.43921 -38.43921 -38.43876 -38.43793 -38.43694
 Alpha  occ. eigenvalues --  -38.43581 -38.43100  -2.19727  -2.19725  -2.19650
 Alpha  occ. eigenvalues --   -2.19643  -2.19554  -2.19441  -2.19090  -1.13409
 Alpha  occ. eigenvalues --   -1.13405  -1.13393  -1.13388  -1.13369  -1.13367
 Alpha  occ. eigenvalues --   -1.13352  -1.13328  -1.13305  -1.13298  -1.13290
 Alpha  occ. eigenvalues --   -1.13270  -1.13256  -1.13217  -1.13172  -1.13102
 Alpha  occ. eigenvalues --   -1.13060  -1.13058  -1.12776  -1.12720  -1.12716
 Alpha  occ. eigenvalues --   -0.18353  -0.12788  -0.12521  -0.10532
 Alpha virt. eigenvalues --   -0.05520  -0.05405  -0.05076  -0.02958  -0.02826
 Alpha virt. eigenvalues --   -0.02507  -0.01440  -0.01324  -0.00697  -0.00590
 Alpha virt. eigenvalues --   -0.00010   0.00337   0.00796   0.00833   0.00841

  Beta  occ. eigenvalues --  -38.43919 -38.43916 -38.43877 -38.43786 -38.43687
  Beta  occ. eigenvalues --  -38.43475 -38.43047  -2.19724  -2.19720  -2.19653
  Beta  occ. eigenvalues --   -2.19635  -2.19546  -2.19245  -2.18995  -1.13402
  Beta  occ. eigenvalues --   -1.13394  -1.13382  -1.13376  -1.13368  -1.13366
  Beta  occ. eigenvalues --   -1.13342  -1.13318  -1.13308  -1.13294  -1.13272
  Beta  occ. eigenvalues --   -1.13266  -1.13249  -1.13185  -1.13170  -1.12972
  Beta  occ. eigenvalues --   -1.12923  -1.12918  -1.12707  -1.12650  -1.12645
  Beta  occ. eigenvalues --   -0.17638  -0.12566  -0.12329
  Beta virt. eigenvalues --   -0.06575  -0.05537  -0.05408  -0.04970  -0.02202
  Beta virt. eigenvalues --   -0.02095  -0.01422  -0.01354  -0.01243  -0.00742
  Beta virt. eigenvalues --   -0.00654   0.00150   0.00380   0.00826   0.00831

 Mulliken charges and spin densities:
               1          2
     1  Na   0.036119  -0.047208
     2  Na   0.382752   0.013649
     3  Na  -0.528491   0.820399
     4  Na  -0.258690   0.343675
     5  Na   0.037581  -0.058361
     6  Na  -0.057733  -0.069364
     7  Na   0.388461  -0.002790
 Sum of Mulliken charges =  -0.00000   1.00000

 Dipole moment (field-independent basis, Debye):
    X=              0.0386    Y=             -0.0211    Z=              0.1186  Tot=              0.1265
 Quadrupole moment (field-independent basis, Debye-Ang):
   XX=            -57.6174   YY=            -59.1746   ZZ=            -76.0387
   XY=             -0.0220   XZ=              0.2216   YZ=             -0.1512

 Normal termination of Gaussian 16 at Fri Dec  8 01:06:04 2023.
