 Gaussian 16, Revision B.01,
 Gaussian 16:  ES64L-G16RevB.01 20-Dec-2017

 -------------------------
 #P B3LYP/6-311+g(d) force
 -------------------------

 -----
 DPGEN
 -----
 Symbolic Z-matrix:
 Charge =  0 Multiplicity = 2

                         Standard orientation:
 ---------------------------------------------------------------------
 Center     Atomic      Atomic             Coordinates (Angstroms)
 Number     Number       Type             X           Y           Z
 ---------------------------------------------------------------------
      1         11           0       -1.587639    0.066679   -1.859667
      2         11           0        4.386641   -0.052301    0.436202
      3         11           0        1.603659    1.905485   -0.821481
      4         11           0       -2.809578    2.062085    0.493142
      5         11           0        0.479358   -0.125688    2.087386
      6         11           0        1.172052   -2.123430   -0.962844
      7         11           0       -3.244493   -1.732829    0.627262
 ---------------------------------------------------------------------

 SCF Done:  E(UB3LYP) =  -1136.11210191     A.U. after   30 cycles

 The electronic state is 2-A.
 Alpha  occ. eigenvalues --  -38.46069 -38.45659 -38.44732 -38.43818 -38.43682
 Alpha  occ. eigenvalues --  -38.43657 -38.43363  -2.21804  -2.21423  -2.20494
 Alpha  occ. eigenvalues --   -2.19607  -2.19532  -2.19469  -2.19154  -1.15481
 Alpha  occ. eigenvalues --   -1.15465  -1.15427  -1.15109  -1.15068  -1.15032
 Alpha  occ. eigenvalues --   -1.14175  -1.14143  -1.14129  -1.13301  -1.13285
 Alpha  occ. eigenvalues --   -1.13221  -1.13219  -1.13207  -1.13160  -1.13134
 Alpha  occ. eigenvalues --   -1.13111  -1.13102  -1.12843  -1.12823  -1.12767
 Alpha  occ. eigenvalues --   -0.17454  -0.13705  -0.10954  -0.10509
 Alpha virt. eigenvalues --   -0.07531  -0.05655  -0.04698  -0.03068  -0.02958
 Alpha virt. eigenvalues --   -0.02586  -0.02419  -0.01441  -0.01089  -0.00539
 Alpha virt. eigenvalues --   -0.00024   0.00064   0.00166   0.00441   0.00518

  Beta  occ. eigenvalues --  -38.46067 -38.45601 -38.44719 -38.43797 -38.43683
  Beta  occ. eigenvalues --  -38.43601 -38.43336  -2.21802  -2.21315  -2.20471
  Beta  occ. eigenvalues --   -2.19571  -2.19471  -2.19430  -2.19106  -1.15475
  Beta  occ. eigenvalues --   -1.15464  -1.15426  -1.15033  -1.14994  -1.14952
  Beta  occ. eigenvalues --   -1.14155  -1.14125  -1.14114  -1.13279  -1.13242
  Beta  occ. eigenvalues --   -1.13193  -1.13185  -1.13141  -1.13125  -1.13105
  Beta  occ. eigenvalues --   -1.13093  -1.13056  -1.12812  -1.12772  -1.12736
  Beta  occ. eigenvalues --   -0.16726  -0.13603  -0.10307
  Beta virt. eigenvalues --   -0.07351  -0.07105  -0.05629  -0.04137  -0.02786
  Beta virt. eigenvalues --   -0.02739  -0.02006  -0.01774  -0.01297  -0.00763
  Beta virt. eigenvalues --   -0.00432  -0.00004   0.00069   0.00324   0.00496

 Mulliken charges and spin densities:
               1          2
     1  Na   0.327694   0.313169
     2  Na   0.204197   0.036706
     3  Na  -0.086407   0.039945
     4  Na  -0.049108   0.031675
     5  Na  -0.276984   0.472532
     6  Na  -0.141085   0.039838
     7  Na   0.021693   0.066136
 Sum of Mulliken charges =  -0.00000   1.00000

 Dipole moment (field-independent basis, Debye):
    X=              1.3149    Y=             -0.2954    Z=              0.7626  Tot=              1.5484
 Quadrupole moment (field-independent basis, Debye-Ang):
   XX=            -43.3866   YY=            -78.7712   ZZ=            -70.3531
   XY=              0.2447   XZ=             -0.3936   YZ=              0.0903

 Normal termination of Gaussian 16 at Fri Dec  8 07:49:18 2023.
