 Gaussian 16, Revision B.01,
 Gaussian 16:  ES64L-G16RevB.01 20-Dec-2017

 -------------------------
 #P B3LYP/6-311+g(d) force
 -------------------------

 -----
 DPGEN
 -----
 Symbolic Z-matrix:
 Charge =  0 Multiplicity = 2

                         Standard orientation:
 ---------------------------------------------------------------------
 Center     Atomic      Atomic             Coordinates (Angstroms)
 Number     Number       Type             X           Y           Z
 ---------------------------------------------------------------------
      1         11           0        2.750359    1.431483    0.243188
      2         11           0        2.582425   -2.169391   -0.292219
      3         11           0       -0.004489   -0.064522   -1.699851
      4         11           0       -1.583073   -2.488381    0.247255
      5         11           0       -3.046434    0.450640   -0.393799
      6         11           0       -0.381490    0.005538    2.004826
      7         11           0       -0.317298    2.834633   -0.109400
 ---------------------------------------------------------------------

 SCF Done:  E(UB3LYP) =  -1136.13763601     A.U. after   19 cycles

 The electronic state is 2-A.
 Alpha  occ. eigenvalues --  -38.43986 -38.43967 -38.43850 -38.43648 -38.43632
 Alpha  occ. eigenvalues --  -38.43346 -38.43028  -2.19836  -2.19804  -2.19624
 Alpha  occ. eigenvalues --   -2.19550  -2.19491  -2.19295  -2.18903  -1.13520
 Alpha  occ. eigenvalues --   -1.13494  -1.13481  -1.13476  -1.13471  -1.13441
 Alpha  occ. eigenvalues --   -1.13302  -1.13275  -1.13270  -1.13251  -1.13200
 Alpha  occ. eigenvalues --   -1.13172  -1.13157  -1.13126  -1.13112  -1.12983
 Alpha  occ. eigenvalues --   -1.12936  -1.12912  -1.12584  -1.12567  -1.12534
 Alpha  occ. eigenvalues --   -0.18580  -0.13099  -0.12253  -0.10804
 Alpha virt. eigenvalues --   -0.05571  -0.05456  -0.04581  -0.03256  -0.02815
 Alpha virt. eigenvalues --   -0.02590  -0.01565  -0.01161  -0.00489  -0.00301
 Alpha virt. eigenvalues --   -0.00025   0.00346   0.00774   0.00852   0.00886

  Beta  occ. eigenvalues --  -38.43983 -38.43955 -38.43849 -38.43623 -38.43556
  Beta  occ. eigenvalues --  -38.43279 -38.43023  -2.19817  -2.19801  -2.19624
  Beta  occ. eigenvalues --   -2.19478  -2.19382  -2.19175  -2.18897  -1.13504
  Beta  occ. eigenvalues --   -1.13473  -1.13471  -1.13464  -1.13453  -1.13439
  Beta  occ. eigenvalues --   -1.13290  -1.13276  -1.13271  -1.13193  -1.13129
  Beta  occ. eigenvalues --   -1.13109  -1.13095  -1.13058  -1.13029  -1.12903
  Beta  occ. eigenvalues --   -1.12854  -1.12816  -1.12579  -1.12548  -1.12520
  Beta  occ. eigenvalues --   -0.17842  -0.12876  -0.12003
  Beta virt. eigenvalues --   -0.06896  -0.05521  -0.05404  -0.04551  -0.02490
  Beta virt. eigenvalues --   -0.02085  -0.01597  -0.01417  -0.01079  -0.00518
  Beta virt. eigenvalues --   -0.00353   0.00117   0.00376   0.00840   0.00859

 Mulliken charges and spin densities:
               1          2
     1  Na  -0.024431  -0.045976
     2  Na  -0.055349  -0.091186
     3  Na  -0.170617   0.567961
     4  Na   0.129112  -0.039943
     5  Na   0.337812   0.012025
     6  Na  -0.301680   0.651640
     7  Na   0.085153  -0.054521
 Sum of Mulliken charges =  -0.00000   1.00000

 Dipole moment (field-independent basis, Debye):
    X=             -0.0444    Y=             -0.0886    Z=              0.1040  Tot=              0.1437
 Quadrupole moment (field-independent basis, Debye-Ang):
   XX=            -56.4267   YY=            -63.0465   ZZ=            -74.1579
   XY=              0.0956   XZ=              1.2147   YZ=              0.0100

 Normal termination of Gaussian 16 at Thu Dec  7 03:40:39 2023.
