 Gaussian 16, Revision B.01,
 Gaussian 16:  ES64L-G16RevB.01 20-Dec-2017

 -------------------------
 #P B3LYP/6-311+g(d) force
 -------------------------

 -----
 DPGEN
 -----
 Symbolic Z-matrix:
 Charge =  0 Multiplicity = 2

                         Standard orientation:
 ---------------------------------------------------------------------
 Center     Atomic      Atomic             Coordinates (Angstroms)
 Number     Number       Type             X           Y           Z
 ---------------------------------------------------------------------
      1         11           0        1.810577    1.341964    2.231419
      2         11           0       -0.348238   -0.952799   -0.623413
      3         11           0        1.543795    2.088933   -1.562505
      4         11           0       -3.774583   -1.258065   -0.171675
      5         11           0        2.306468   -1.691157   -1.982770
      6         11           0        0.882839   -1.723511    2.175013
      7         11           0       -2.420858    2.194635   -0.066069
 ---------------------------------------------------------------------

 SCF Done:  E(UB3LYP) =  -1136.11465426     A.U. after   30 cycles

 The electronic state is 2-A.
 Alpha  occ. eigenvalues --  -38.45112 -38.44740 -38.44520 -38.44403 -38.43660
 Alpha  occ. eigenvalues --  -38.43379 -38.42769  -2.20861  -2.20564  -2.20336
 Alpha  occ. eigenvalues --   -2.20174  -2.19436  -2.19342  -2.18610  -1.14541
 Alpha  occ. eigenvalues --   -1.14521  -1.14473  -1.14273  -1.14188  -1.14155
 Alpha  occ. eigenvalues --   -1.13991  -1.13975  -1.13963  -1.13855  -1.13830
 Alpha  occ. eigenvalues --   -1.13795  -1.13116  -1.13107  -1.13065  -1.13039
 Alpha  occ. eigenvalues --   -1.13014  -1.12971  -1.12300  -1.12267  -1.12246
 Alpha  occ. eigenvalues --   -0.17369  -0.12794  -0.12248  -0.11299
 Alpha virt. eigenvalues --   -0.06145  -0.05507  -0.04251  -0.03531  -0.03111
 Alpha virt. eigenvalues --   -0.02887  -0.01649  -0.01440  -0.00514  -0.00336
 Alpha virt. eigenvalues --   -0.00054   0.00273   0.00298   0.00519   0.00681

  Beta  occ. eigenvalues --  -38.45090 -38.44674 -38.44455 -38.44397 -38.43646
  Beta  occ. eigenvalues --  -38.43342 -38.42777  -2.20818  -2.20443  -2.20215
  Beta  occ. eigenvalues --   -2.20162  -2.19412  -2.19277  -2.18627  -1.14511
  Beta  occ. eigenvalues --   -1.14493  -1.14439  -1.14178  -1.14109  -1.14078
  Beta  occ. eigenvalues --   -1.13909  -1.13899  -1.13872  -1.13843  -1.13821
  Beta  occ. eigenvalues --   -1.13789  -1.13096  -1.13091  -1.13038  -1.12994
  Beta  occ. eigenvalues --   -1.12946  -1.12927  -1.12313  -1.12262  -1.12256
  Beta  occ. eigenvalues --   -0.16599  -0.12571  -0.11114
  Beta virt. eigenvalues --   -0.08500  -0.05627  -0.05094  -0.03909  -0.02937
  Beta virt. eigenvalues --   -0.02821  -0.02590  -0.01514  -0.00975  -0.00507
  Beta virt. eigenvalues --   -0.00112   0.00137   0.00321   0.00435   0.00616

 Mulliken charges and spin densities:
               1          2
     1  Na   0.079290   0.261493
     2  Na  -2.242660   0.193769
     3  Na  -0.098972   0.313014
     4  Na   0.912533  -0.051616
     5  Na   1.658919   0.000227
     6  Na  -0.271892   0.176677
     7  Na  -0.037217   0.106436
 Sum of Mulliken charges =  -0.00000   1.00000

 Dipole moment (field-independent basis, Debye):
    X=             -0.3613    Y=              0.3125    Z=             -0.0702  Tot=              0.4828
 Quadrupole moment (field-independent basis, Debye-Ang):
   XX=            -59.5900   YY=            -59.1385   ZZ=            -75.5563
   XY=              0.3311   XZ=             -2.1969   YZ=              5.8200

 Normal termination of Gaussian 16 at Sun Dec  3 13:19:20 2023.
