 Gaussian 16, Revision B.01,
 Gaussian 16:  ES64L-G16RevB.01 20-Dec-2017

 -------------------------
 #P B3LYP/6-311+g(d) force
 -------------------------

 -----
 DPGEN
 -----
 Symbolic Z-matrix:
 Charge =  0 Multiplicity = 2

                         Standard orientation:
 ---------------------------------------------------------------------
 Center     Atomic      Atomic             Coordinates (Angstroms)
 Number     Number       Type             X           Y           Z
 ---------------------------------------------------------------------
      1         11           0       -2.975365   -0.854326   -0.146769
      2         11           0       -0.100642   -2.813770   -0.077905
      3         11           0        0.089647   -0.146789    1.700173
      4         11           0        2.355103    2.339191   -0.059702
      5         11           0       -1.858837    2.359719    0.218849
      6         11           0       -0.289842    0.481183   -1.464168
      7         11           0        2.779937   -1.365208   -0.170477
 ---------------------------------------------------------------------

 SCF Done:  E(UB3LYP) =  -1136.13375903     A.U. after   19 cycles

 The electronic state is 2-A.
 Alpha  occ. eigenvalues --  -38.44103 -38.44038 -38.44010 -38.43947 -38.43146
 Alpha  occ. eigenvalues --  -38.42906 -38.42816  -2.19894  -2.19889  -2.19881
 Alpha  occ. eigenvalues --   -2.19818  -2.19050  -2.18937  -2.18802  -1.13640
 Alpha  occ. eigenvalues --   -1.13567  -1.13561  -1.13552  -1.13548  -1.13546
 Alpha  occ. eigenvalues --   -1.13536  -1.13519  -1.13508  -1.13497  -1.13470
 Alpha  occ. eigenvalues --   -1.13443  -1.12761  -1.12709  -1.12687  -1.12658
 Alpha  occ. eigenvalues --   -1.12580  -1.12532  -1.12479  -1.12415  -1.12405
 Alpha  occ. eigenvalues --   -0.18939  -0.13268  -0.12590  -0.10102
 Alpha virt. eigenvalues --   -0.05817  -0.05500  -0.04721  -0.03015  -0.02618
 Alpha virt. eigenvalues --   -0.01859  -0.01672  -0.01371  -0.00575  -0.00356
 Alpha virt. eigenvalues --    0.00049   0.00341   0.00776   0.00823   0.00881

  Beta  occ. eigenvalues --  -38.44102 -38.44034 -38.44001 -38.43938 -38.43138
  Beta  occ. eigenvalues --  -38.42849 -38.42732  -2.19891  -2.19880  -2.19876
  Beta  occ. eigenvalues --   -2.19807  -2.19040  -2.18833  -2.18650  -1.13629
  Beta  occ. eigenvalues --   -1.13561  -1.13554  -1.13550  -1.13536  -1.13524
  Beta  occ. eigenvalues --   -1.13522  -1.13507  -1.13502  -1.13485  -1.13443
  Beta  occ. eigenvalues --   -1.13434  -1.12747  -1.12689  -1.12666  -1.12579
  Beta  occ. eigenvalues --   -1.12507  -1.12454  -1.12378  -1.12305  -1.12295
  Beta  occ. eigenvalues --   -0.18226  -0.13018  -0.12345
  Beta virt. eigenvalues --   -0.06233  -0.05808  -0.05445  -0.04708  -0.02223
  Beta virt. eigenvalues --   -0.01895  -0.01605  -0.01308  -0.00877  -0.00612
  Beta virt. eigenvalues --   -0.00397   0.00190   0.00383   0.00795   0.00851

 Mulliken charges and spin densities:
               1          2
     1  Na   0.397842   0.042445
     2  Na   0.191245  -0.001331
     3  Na  -0.337622   0.655532
     4  Na   0.026132  -0.103603
     5  Na   0.280611  -0.078865
     6  Na  -0.591318   0.528309
     7  Na   0.033110  -0.042487
 Sum of Mulliken charges =  -0.00000   1.00000

 Dipole moment (field-independent basis, Debye):
    X=              0.0833    Y=              0.2875    Z=              0.0917  Tot=              0.3131
 Quadrupole moment (field-independent basis, Debye-Ang):
   XX=            -53.4648   YY=            -59.7000   ZZ=            -77.7230
   XY=              0.3461   XZ=             -0.7812   YZ=              1.4189

 Normal termination of Gaussian 16 at Wed Nov 29 02:47:12 2023.
