 Gaussian 16, Revision B.01,
 Gaussian 16:  ES64L-G16RevB.01 20-Dec-2017

 -------------------------
 #P B3LYP/6-311+g(d) force
 -------------------------

 -----
 DPGEN
 -----
 Symbolic Z-matrix:
 Charge =  0 Multiplicity = 2

                         Standard orientation:
 ---------------------------------------------------------------------
 Center     Atomic      Atomic             Coordinates (Angstroms)
 Number     Number       Type             X           Y           Z
 ---------------------------------------------------------------------
      1         11           0       -1.442148    1.685235   -1.033386
      2         11           0        2.128057   -2.543838    0.472394
      3         11           0       -3.492427   -0.827936    0.334033
      4         11           0        1.141241    2.603893    0.715112
      5         11           0        2.304345    0.547512   -1.116959
      6         11           0       -0.499835   -1.428175   -1.431776
      7         11           0       -0.139233   -0.036691    2.060581
 ---------------------------------------------------------------------

 SCF Done:  E(UB3LYP) =  -1136.13356664     A.U. after   20 cycles

 The electronic state is 2-A.
 Alpha  occ. eigenvalues --  -38.44135 -38.44095 -38.43888 -38.43688 -38.43393
 Alpha  occ. eigenvalues --  -38.43366 -38.42981  -2.19981  -2.19932  -2.19796
 Alpha  occ. eigenvalues --   -2.19586  -2.19307  -2.19186  -2.18910  -1.13653
 Alpha  occ. eigenvalues --   -1.13620  -1.13601  -1.13599  -1.13589  -1.13570
 Alpha  occ. eigenvalues --   -1.13502  -1.13474  -1.13409  -1.13303  -1.13256
 Alpha  occ. eigenvalues --   -1.13188  -1.13010  -1.12973  -1.12908  -1.12846
 Alpha  occ. eigenvalues --   -1.12846  -1.12819  -1.12579  -1.12567  -1.12537
 Alpha  occ. eigenvalues --   -0.18693  -0.12945  -0.12262  -0.11422
 Alpha virt. eigenvalues --   -0.05715  -0.04964  -0.04128  -0.03441  -0.03231
 Alpha virt. eigenvalues --   -0.03006  -0.01603  -0.01007  -0.00348   0.00106
 Alpha virt. eigenvalues --    0.00298   0.00357   0.00734   0.00784   0.00831

  Beta  occ. eigenvalues --  -38.44135 -38.44001 -38.43862 -38.43662 -38.43363
  Beta  occ. eigenvalues --  -38.43356 -38.42971  -2.19935  -2.19807  -2.19751
  Beta  occ. eigenvalues --   -2.19541  -2.19242  -2.19182  -2.18896  -1.13603
  Beta  occ. eigenvalues --   -1.13586  -1.13576  -1.13537  -1.13490  -1.13473
  Beta  occ. eigenvalues --   -1.13467  -1.13432  -1.13375  -1.13266  -1.13211
  Beta  occ. eigenvalues --   -1.13157  -1.12966  -1.12913  -1.12873  -1.12844
  Beta  occ. eigenvalues --   -1.12830  -1.12808  -1.12574  -1.12549  -1.12507
  Beta  occ. eigenvalues --   -0.17891  -0.12784  -0.12075
  Beta virt. eigenvalues --   -0.07418  -0.05585  -0.04844  -0.04033  -0.02844
  Beta virt. eigenvalues --   -0.02537  -0.01997  -0.01483  -0.00897  -0.00106
  Beta virt. eigenvalues --    0.00054   0.00363   0.00399   0.00809   0.00849

 Mulliken charges and spin densities:
               1          2
     1  Na  -0.261395   0.141206
     2  Na   0.077180  -0.183072
     3  Na   0.211358  -0.138621
     4  Na   0.859718  -0.064305
     5  Na  -0.239795   0.181303
     6  Na  -0.031724   0.287951
     7  Na  -0.615342   0.775538
 Sum of Mulliken charges =  -0.00000   1.00000

 Dipole moment (field-independent basis, Debye):
    X=             -0.4635    Y=             -0.2323    Z=              0.1516  Tot=              0.5402
 Quadrupole moment (field-independent basis, Debye-Ang):
   XX=            -58.3288   YY=            -67.1918   ZZ=            -69.1627
   XY=              0.6420   XZ=             -0.8543   YZ=             -1.8562

 Normal termination of Gaussian 16 at Thu Dec  7 05:36:41 2023.
