 Gaussian 16, Revision B.01,
 Gaussian 16:  ES64L-G16RevB.01 20-Dec-2017

 -------------------------
 #P B3LYP/6-311+g(d) force
 -------------------------

 -----
 DPGEN
 -----
 Symbolic Z-matrix:
 Charge =  0 Multiplicity = 2

                         Standard orientation:
 ---------------------------------------------------------------------
 Center     Atomic      Atomic             Coordinates (Angstroms)
 Number     Number       Type             X           Y           Z
 ---------------------------------------------------------------------
      1         11           0       -0.028799    0.037349    2.134329
      2         11           0        1.119941    2.581549   -0.299228
      3         11           0       -2.342779    2.304812   -0.067397
      4         11           0        0.289897   -0.329990   -1.804759
      5         11           0       -3.205580   -1.648211   -0.082627
      6         11           0        0.873819   -2.902358   -0.042501
      7         11           0        3.293502   -0.043150    0.162183
 ---------------------------------------------------------------------

 SCF Done:  E(UB3LYP) =  -1136.13132939     A.U. after   20 cycles

 The electronic state is 2-A.
 Alpha  occ. eigenvalues --  -38.44717 -38.44284 -38.44025 -38.43931 -38.43797
 Alpha  occ. eigenvalues --  -38.43607 -38.43140  -2.20440  -2.20097  -2.19799
 Alpha  occ. eigenvalues --   -2.19766  -2.19617  -2.19512  -2.19004  -1.14124
 Alpha  occ. eigenvalues --   -1.14093  -1.14083  -1.13766  -1.13762  -1.13741
 Alpha  occ. eigenvalues --   -1.13476  -1.13461  -1.13442  -1.13430  -1.13397
 Alpha  occ. eigenvalues --   -1.13382  -1.13357  -1.13278  -1.13232  -1.13184
 Alpha  occ. eigenvalues --   -1.13143  -1.13118  -1.12691  -1.12666  -1.12634
 Alpha  occ. eigenvalues --   -0.17993  -0.12620  -0.12272  -0.10674
 Alpha virt. eigenvalues --   -0.06207  -0.05451  -0.04603  -0.03097  -0.02928
 Alpha virt. eigenvalues --   -0.02670  -0.01833  -0.01283  -0.00727  -0.00472
 Alpha virt. eigenvalues --   -0.00070   0.00330   0.00690   0.00747   0.00781

  Beta  occ. eigenvalues --  -38.44722 -38.44279 -38.44026 -38.43835 -38.43790
  Beta  occ. eigenvalues --  -38.43538 -38.43131  -2.20450  -2.20092  -2.19802
  Beta  occ. eigenvalues --   -2.19609  -2.19589  -2.19386  -2.18990  -1.14122
  Beta  occ. eigenvalues --   -1.14101  -1.14091  -1.13762  -1.13741  -1.13735
  Beta  occ. eigenvalues --   -1.13465  -1.13463  -1.13446  -1.13337  -1.13312
  Beta  occ. eigenvalues --   -1.13276  -1.13255  -1.13249  -1.13230  -1.13101
  Beta  occ. eigenvalues --   -1.13057  -1.13029  -1.12679  -1.12633  -1.12629
  Beta  occ. eigenvalues --   -0.17241  -0.12472  -0.12061
  Beta virt. eigenvalues --   -0.06755  -0.06201  -0.05368  -0.04542  -0.02382
  Beta virt. eigenvalues --   -0.02176  -0.01789  -0.01586  -0.01217  -0.00788
  Beta virt. eigenvalues --   -0.00503   0.00086   0.00361   0.00723   0.00820

 Mulliken charges and spin densities:
               1          2
     1  Na  -0.371267   0.802636
     2  Na   0.098108  -0.018266
     3  Na  -0.056028  -0.106623
     4  Na   0.069136   0.589752
     5  Na  -0.081036  -0.146548
     6  Na   0.084476  -0.147669
     7  Na   0.256611   0.026719
 Sum of Mulliken charges =  -0.00000   1.00000

 Dipole moment (field-independent basis, Debye):
    X=             -0.0991    Y=             -0.2920    Z=              0.1071  Tot=              0.3264
 Quadrupole moment (field-independent basis, Debye-Ang):
   XX=            -54.6613   YY=            -63.8644   ZZ=            -74.9498
   XY=             -0.1863   XZ=              0.7699   YZ=             -0.7714

 Normal termination of Gaussian 16 at Thu Dec  7 21:15:25 2023.
