 Gaussian 16, Revision B.01,
 Gaussian 16:  ES64L-G16RevB.01 20-Dec-2017

 -------------------------
 #P B3LYP/6-311+g(d) force
 -------------------------

 -----
 DPGEN
 -----
 Symbolic Z-matrix:
 Charge =  0 Multiplicity = 2

                         Standard orientation:
 ---------------------------------------------------------------------
 Center     Atomic      Atomic             Coordinates (Angstroms)
 Number     Number       Type             X           Y           Z
 ---------------------------------------------------------------------
      1         11           0       -0.011580    0.059644   -1.779619
      2         11           0        1.472992   -2.389716   -0.022903
      3         11           0       -2.067379   -2.183282   -0.219135
      4         11           0        3.237421    0.531192   -0.084535
      5         11           0       -2.971365    0.976211    0.260877
      6         11           0        0.051727    2.868299   -0.326222
      7         11           0        0.288184    0.137651    2.171536
 ---------------------------------------------------------------------

 SCF Done:  E(UB3LYP) =  -1136.13826239     A.U. after   19 cycles

 The electronic state is 2-A.
 Alpha  occ. eigenvalues --  -38.44328 -38.44023 -38.44002 -38.43424 -38.43302
 Alpha  occ. eigenvalues --  -38.43265 -38.43219  -2.20134  -2.19859  -2.19847
 Alpha  occ. eigenvalues --   -2.19380  -2.19150  -2.19134  -2.19066  -1.13807
 Alpha  occ. eigenvalues --   -1.13794  -1.13776  -1.13525  -1.13517  -1.13514
 Alpha  occ. eigenvalues --   -1.13493  -1.13487  -1.13472  -1.13071  -1.13055
 Alpha  occ. eigenvalues --   -1.13000  -1.12825  -1.12817  -1.12809  -1.12805
 Alpha  occ. eigenvalues --   -1.12794  -1.12752  -1.12747  -1.12721  -1.12682
 Alpha  occ. eigenvalues --   -0.18525  -0.13020  -0.12260  -0.11004
 Alpha virt. eigenvalues --   -0.05875  -0.04958  -0.04511  -0.03336  -0.02938
 Alpha virt. eigenvalues --   -0.02857  -0.01658  -0.00964  -0.00341  -0.00222
 Alpha virt. eigenvalues --   -0.00050   0.00370   0.00794   0.00880   0.00885

  Beta  occ. eigenvalues --  -38.44327 -38.44020 -38.43906 -38.43353 -38.43299
  Beta  occ. eigenvalues --  -38.43259 -38.43211  -2.20135  -2.19844  -2.19681
  Beta  occ. eigenvalues --   -2.19250  -2.19147  -2.19127  -2.19055  -1.13801
  Beta  occ. eigenvalues --   -1.13786  -1.13776  -1.13520  -1.13494  -1.13490
  Beta  occ. eigenvalues --   -1.13401  -1.13366  -1.13346  -1.12987  -1.12966
  Beta  occ. eigenvalues --   -1.12911  -1.12817  -1.12811  -1.12796  -1.12790
  Beta  occ. eigenvalues --   -1.12771  -1.12745  -1.12731  -1.12697  -1.12678
  Beta  occ. eigenvalues --   -0.17778  -0.12827  -0.12011
  Beta virt. eigenvalues --   -0.07075  -0.05810  -0.04973  -0.04447  -0.02556
  Beta virt. eigenvalues --   -0.02148  -0.01797  -0.01561  -0.00898  -0.00390
  Beta virt. eigenvalues --   -0.00271   0.00095   0.00385   0.00850   0.00875

 Mulliken charges and spin densities:
               1          2
     1  Na  -0.125042   0.510137
     2  Na   0.160766  -0.031133
     3  Na   0.093798  -0.046309
     4  Na   0.189737  -0.092800
     5  Na   0.081449   0.013120
     6  Na   0.132968  -0.089445
     7  Na  -0.533675   0.736429
 Sum of Mulliken charges =  -0.00000   1.00000

 Dipole moment (field-independent basis, Debye):
    X=              0.2373    Y=              0.1790    Z=              0.2073  Tot=              0.3624
 Quadrupole moment (field-independent basis, Debye-Ang):
   XX=            -55.7735   YY=            -65.5830   ZZ=            -72.8728
   XY=              0.3278   XZ=             -0.8414   YZ=              0.1084

 Normal termination of Gaussian 16 at Thu Dec  7 21:50:41 2023.
