 Gaussian 16, Revision B.01,
 Gaussian 16:  ES64L-G16RevB.01 20-Dec-2017

 -------------------------
 #P B3LYP/6-311+g(d) force
 -------------------------

 -----
 DPGEN
 -----
 Symbolic Z-matrix:
 Charge =  0 Multiplicity = 2

                         Standard orientation:
 ---------------------------------------------------------------------
 Center     Atomic      Atomic             Coordinates (Angstroms)
 Number     Number       Type             X           Y           Z
 ---------------------------------------------------------------------
      1         11           0        1.880148   -2.400600   -0.000673
      2         11           0       -0.304823    0.045563    2.195330
      3         11           0       -1.777598   -2.312018   -0.081657
      4         11           0       -2.921642    0.841126   -0.381038
      5         11           0        2.868728    0.681070   -0.232827
      6         11           0        0.294017    3.134500    0.065352
      7         11           0       -0.038829    0.010358   -1.564487
 ---------------------------------------------------------------------

 SCF Done:  E(UB3LYP) =  -1136.13872790     A.U. after   19 cycles

 The electronic state is 2-A.
 Alpha  occ. eigenvalues --  -38.43876 -38.43803 -38.43632 -38.43603 -38.43555
 Alpha  occ. eigenvalues --  -38.43427 -38.43106  -2.19728  -2.19663  -2.19497
 Alpha  occ. eigenvalues --   -2.19427  -2.19409  -2.19276  -2.19115  -1.13431
 Alpha  occ. eigenvalues --   -1.13387  -1.13358  -1.13320  -1.13289  -1.13281
 Alpha  occ. eigenvalues --   -1.13206  -1.13165  -1.13139  -1.13127  -1.13086
 Alpha  occ. eigenvalues --   -1.13082  -1.13067  -1.13053  -1.13049  -1.12946
 Alpha  occ. eigenvalues --   -1.12934  -1.12912  -1.12792  -1.12752  -1.12732
 Alpha  occ. eigenvalues --   -0.18651  -0.13019  -0.12451  -0.10857
 Alpha virt. eigenvalues --   -0.05426  -0.05019  -0.04963  -0.03147  -0.02909
 Alpha virt. eigenvalues --   -0.02730  -0.01336  -0.01216  -0.00370  -0.00310
 Alpha virt. eigenvalues --   -0.00022   0.00358   0.00830   0.00871   0.00883

  Beta  occ. eigenvalues --  -38.43865 -38.43698 -38.43627 -38.43602 -38.43548
  Beta  occ. eigenvalues --  -38.43425 -38.43049  -2.19713  -2.19492  -2.19469
  Beta  occ. eigenvalues --   -2.19420  -2.19410  -2.19276  -2.19012  -1.13414
  Beta  occ. eigenvalues --   -1.13363  -1.13345  -1.13201  -1.13191  -1.13157
  Beta  occ. eigenvalues --   -1.13154  -1.13144  -1.13129  -1.13115  -1.13071
  Beta  occ. eigenvalues --   -1.13061  -1.13060  -1.13052  -1.13045  -1.12942
  Beta  occ. eigenvalues --   -1.12927  -1.12906  -1.12721  -1.12673  -1.12660
  Beta  occ. eigenvalues --   -0.17927  -0.12770  -0.12249
  Beta virt. eigenvalues --   -0.06886  -0.05426  -0.05017  -0.04883  -0.02363
  Beta virt. eigenvalues --   -0.02148  -0.01625  -0.01247  -0.01139  -0.00424
  Beta virt. eigenvalues --   -0.00364   0.00133   0.00388   0.00860   0.00885

 Mulliken charges and spin densities:
               1          2
     1  Na   0.115439  -0.004350
     2  Na  -0.662377   0.795417
     3  Na   0.294857   0.033239
     4  Na   0.281535  -0.019749
     5  Na   0.193263  -0.013440
     6  Na   0.074890  -0.045328
     7  Na  -0.297608   0.254212
 Sum of Mulliken charges =  -0.00000   1.00000

 Dipole moment (field-independent basis, Debye):
    X=             -0.1862    Y=              0.0979    Z=              0.1934  Tot=              0.2858
 Quadrupole moment (field-independent basis, Debye-Ang):
   XX=            -59.3390   YY=            -60.4425   ZZ=            -74.0679
   XY=             -0.3480   XZ=              0.5762   YZ=             -0.1444

 Normal termination of Gaussian 16 at Thu Dec  7 19:27:32 2023.
