 Gaussian 16, Revision B.01,
 Gaussian 16:  ES64L-G16RevB.01 20-Dec-2017

 -------------------------
 #P B3LYP/6-311+g(d) force
 -------------------------

 -----
 DPGEN
 -----
 Symbolic Z-matrix:
 Charge =  0 Multiplicity = 2

                         Standard orientation:
 ---------------------------------------------------------------------
 Center     Atomic      Atomic             Coordinates (Angstroms)
 Number     Number       Type             X           Y           Z
 ---------------------------------------------------------------------
      1         11           0       -2.263373    0.262433   -0.920017
      2         11           0       -3.562859   -2.963407   -0.535516
      3         11           0        2.943210   -1.060488    0.326395
      4         11           0       -2.490421    3.813684   -0.021477
      5         11           0        5.748305    0.370706   -0.803498
      6         11           0       -0.332100   -1.747725    1.044225
      7         11           0       -0.042761    1.324796    0.909887
 ---------------------------------------------------------------------

 SCF Done:  E(UB3LYP) =  -1136.12079249     A.U. after   18 cycles

 The electronic state is 2-A.
 Alpha  occ. eigenvalues --  -38.44564 -38.44339 -38.44189 -38.43993 -38.43906
 Alpha  occ. eigenvalues --  -38.43824 -38.43500  -2.20366  -2.20251  -2.20081
 Alpha  occ. eigenvalues --   -2.19818  -2.19772  -2.19619  -2.19313  -1.14053
 Alpha  occ. eigenvalues --   -1.13998  -1.13997  -1.13987  -1.13939  -1.13844
 Alpha  occ. eigenvalues --   -1.13779  -1.13764  -1.13636  -1.13520  -1.13486
 Alpha  occ. eigenvalues --   -1.13442  -1.13441  -1.13393  -1.13385  -1.13279
 Alpha  occ. eigenvalues --   -1.13277  -1.13230  -1.13000  -1.12998  -1.12960
 Alpha  occ. eigenvalues --   -0.17396  -0.13696  -0.12336  -0.11401
 Alpha virt. eigenvalues --   -0.05957  -0.05284  -0.04710  -0.03652  -0.02628
 Alpha virt. eigenvalues --   -0.02140  -0.01954  -0.01841  -0.01120  -0.00955
 Alpha virt. eigenvalues --   -0.00493  -0.00058   0.00294   0.00543   0.00640

  Beta  occ. eigenvalues --  -38.44463 -38.44311 -38.44179 -38.43983 -38.43869
  Beta  occ. eigenvalues --  -38.43781 -38.43504  -2.20204  -2.20178  -2.20062
  Beta  occ. eigenvalues --   -2.19755  -2.19752  -2.19539  -2.19330  -1.14025
  Beta  occ. eigenvalues --   -1.13906  -1.13871  -1.13869  -1.13864  -1.13796
  Beta  occ. eigenvalues --   -1.13756  -1.13747  -1.13619  -1.13478  -1.13448
  Beta  occ. eigenvalues --   -1.13428  -1.13427  -1.13373  -1.13327  -1.13223
  Beta  occ. eigenvalues --   -1.13220  -1.13181  -1.13019  -1.13016  -1.12909
  Beta  occ. eigenvalues --   -0.16867  -0.12818  -0.12018
  Beta virt. eigenvalues --   -0.08032  -0.05737  -0.04955  -0.04354  -0.03417
  Beta virt. eigenvalues --   -0.02267  -0.01982  -0.01735  -0.01399  -0.00763
  Beta virt. eigenvalues --   -0.00687  -0.00185   0.00029   0.00433   0.00615

 Mulliken charges and spin densities:
               1          2
     1  Na  -0.417831   0.173137
     2  Na   0.505561   0.206524
     3  Na  -0.221943   0.147171
     4  Na   0.451862   0.028645
     5  Na   0.357868   0.364111
     6  Na  -0.266645   0.005639
     7  Na  -0.408872   0.074773
 Sum of Mulliken charges =  -0.00000   1.00000

 Dipole moment (field-independent basis, Debye):
    X=             -0.5719    Y=              0.5121    Z=              0.0734  Tot=              0.7711
 Quadrupole moment (field-independent basis, Debye-Ang):
   XX=            -63.7680   YY=            -60.8338   ZZ=            -69.8595
   XY=              1.4740   XZ=             -0.8636   YZ=             -0.9983

 Normal termination of Gaussian 16 at Wed Nov 29 03:45:57 2023.
