 Gaussian 16, Revision B.01,
 Gaussian 16:  ES64L-G16RevB.01 20-Dec-2017

 -------------------------
 #P B3LYP/6-311+g(d) force
 -------------------------

 -----
 DPGEN
 -----
 Symbolic Z-matrix:
 Charge =  0 Multiplicity = 2

                         Standard orientation:
 ---------------------------------------------------------------------
 Center     Atomic      Atomic             Coordinates (Angstroms)
 Number     Number       Type             X           Y           Z
 ---------------------------------------------------------------------
      1         11           0        1.946058   -1.483897    1.720991
      2         11           0        0.954232    0.347723   -1.247399
      3         11           0       -2.247286    1.629019    0.402107
      4         11           0       -1.309573   -1.887371    0.194475
      5         11           0       -4.447814   -0.851780   -0.483531
      6         11           0        1.278935    3.391511    0.356170
      7         11           0        3.825449   -1.145204   -0.942814
 ---------------------------------------------------------------------

 SCF Done:  E(UB3LYP) =  -1136.12172728     A.U. after   22 cycles

 The electronic state is 2-A.
 Alpha  occ. eigenvalues --  -38.44525 -38.44390 -38.44376 -38.43847 -38.43823
 Alpha  occ. eigenvalues --  -38.43563 -38.43494  -2.20326  -2.20262  -2.20225
 Alpha  occ. eigenvalues --   -2.19686  -2.19678  -2.19429  -2.19262  -1.14033
 Alpha  occ. eigenvalues --   -1.14022  -1.13970  -1.13945  -1.13916  -1.13888
 Alpha  occ. eigenvalues --   -1.13884  -1.13878  -1.13855  -1.13396  -1.13362
 Alpha  occ. eigenvalues --   -1.13347  -1.13328  -1.13319  -1.13245  -1.13087
 Alpha  occ. eigenvalues --   -1.13063  -1.13043  -1.12937  -1.12931  -1.12889
 Alpha  occ. eigenvalues --   -0.17493  -0.14125  -0.11847  -0.10273
 Alpha virt. eigenvalues --   -0.06831  -0.05636  -0.04193  -0.03602  -0.02927
 Alpha virt. eigenvalues --   -0.02390  -0.01727  -0.01443  -0.00957  -0.00697
 Alpha virt. eigenvalues --   -0.00183  -0.00114   0.00374   0.00592   0.00663

  Beta  occ. eigenvalues --  -38.44519 -38.44361 -38.44361 -38.43803 -38.43790
  Beta  occ. eigenvalues --  -38.43500 -38.43491  -2.20318  -2.20239  -2.20176
  Beta  occ. eigenvalues --   -2.19630  -2.19597  -2.19296  -2.19273  -1.14027
  Beta  occ. eigenvalues --   -1.14012  -1.13948  -1.13912  -1.13900  -1.13858
  Beta  occ. eigenvalues --   -1.13856  -1.13834  -1.13810  -1.13362  -1.13320
  Beta  occ. eigenvalues --   -1.13292  -1.13272  -1.13262  -1.13186  -1.12991
  Beta  occ. eigenvalues --   -1.12977  -1.12955  -1.12944  -1.12939  -1.12895
  Beta  occ. eigenvalues --   -0.16930  -0.13604  -0.11660
  Beta virt. eigenvalues --   -0.06693  -0.06573  -0.05563  -0.03736  -0.03325
  Beta virt. eigenvalues --   -0.02609  -0.02090  -0.01528  -0.01177  -0.00548
  Beta virt. eigenvalues --   -0.00336  -0.00029   0.00014   0.00530   0.00687

 Mulliken charges and spin densities:
               1          2
     1  Na   0.108929   0.085140
     2  Na   0.582381   0.283413
     3  Na  -0.143737   0.125856
     4  Na  -0.571681   0.021482
     5  Na   0.374001   0.277557
     6  Na  -0.192185  -0.078404
     7  Na  -0.157708   0.284956
 Sum of Mulliken charges =  -0.00000   1.00000

 Dipole moment (field-independent basis, Debye):
    X=             -0.2245    Y=             -0.1282    Z=              0.8321  Tot=              0.8713
 Quadrupole moment (field-independent basis, Debye-Ang):
   XX=            -62.6645   YY=            -70.2802   ZZ=            -66.9467
   XY=              1.0011   XZ=              4.6656   YZ=              3.0679

 Normal termination of Gaussian 16 at Wed Nov 29 00:22:07 2023.
