 Gaussian 16, Revision B.01,
 Gaussian 16:  ES64L-G16RevB.01 20-Dec-2017

 -------------------------
 #P B3LYP/6-311+g(d) force
 -------------------------

 -----
 DPGEN
 -----
 Symbolic Z-matrix:
 Charge =  0 Multiplicity = 2

                         Standard orientation:
 ---------------------------------------------------------------------
 Center     Atomic      Atomic             Coordinates (Angstroms)
 Number     Number       Type             X           Y           Z
 ---------------------------------------------------------------------
      1         11           0        0.386440   -0.115947    1.971845
      2         11           0        2.853052    0.886974   -0.259175
      3         11           0        0.143963   -0.099426   -1.776963
      4         11           0        0.019445    2.818187    0.263086
      5         11           0       -2.095369   -2.109653    0.221250
      6         11           0        1.752675   -2.320909   -0.123352
      7         11           0       -3.060207    0.940774   -0.296691
 ---------------------------------------------------------------------

 SCF Done:  E(UB3LYP) =  -1136.13873384     A.U. after   19 cycles

 The electronic state is 2-A.
 Alpha  occ. eigenvalues --  -38.43951 -38.43904 -38.43610 -38.43535 -38.43454
 Alpha  occ. eigenvalues --  -38.43363 -38.43042  -2.19796  -2.19773  -2.19464
 Alpha  occ. eigenvalues --   -2.19450  -2.19420  -2.19253  -2.18897  -1.13495
 Alpha  occ. eigenvalues --   -1.13462  -1.13453  -1.13442  -1.13425  -1.13415
 Alpha  occ. eigenvalues --   -1.13152  -1.13126  -1.13118  -1.13107  -1.13103
 Alpha  occ. eigenvalues --   -1.13086  -1.13071  -1.13065  -1.13037  -1.12912
 Alpha  occ. eigenvalues --   -1.12910  -1.12872  -1.12578  -1.12562  -1.12527
 Alpha  occ. eigenvalues --   -0.18865  -0.13230  -0.12316  -0.10969
 Alpha virt. eigenvalues --   -0.05587  -0.05210  -0.04462  -0.03301  -0.02908
 Alpha virt. eigenvalues --   -0.02697  -0.01473  -0.01024  -0.00313  -0.00172
 Alpha virt. eigenvalues --   -0.00012   0.00369   0.00817   0.00901   0.00918

  Beta  occ. eigenvalues --  -38.43949 -38.43894 -38.43607 -38.43443 -38.43382
  Beta  occ. eigenvalues --  -38.43355 -38.43036  -2.19782  -2.19772  -2.19447
  Beta  occ. eigenvalues --   -2.19297  -2.19287  -2.19243  -2.18889  -1.13480
  Beta  occ. eigenvalues --   -1.13455  -1.13434  -1.13427  -1.13416  -1.13410
  Beta  occ. eigenvalues --   -1.13122  -1.13101  -1.13083  -1.13053  -1.13013
  Beta  occ. eigenvalues --   -1.12992  -1.12976  -1.12957  -1.12941  -1.12890
  Beta  occ. eigenvalues --   -1.12875  -1.12852  -1.12571  -1.12538  -1.12523
  Beta  occ. eigenvalues --   -0.18113  -0.12997  -0.12060
  Beta virt. eigenvalues --   -0.07027  -0.05525  -0.05214  -0.04429  -0.02532
  Beta virt. eigenvalues --   -0.02112  -0.01631  -0.01377  -0.00966  -0.00342
  Beta virt. eigenvalues --   -0.00222   0.00117   0.00396   0.00882   0.00901

 Mulliken charges and spin densities:
               1          2
     1  Na  -0.319853   0.739003
     2  Na   0.358563  -0.022182
     3  Na  -0.236544   0.583036
     4  Na  -0.020968  -0.067595
     5  Na   0.033871  -0.081831
     6  Na   0.230004  -0.092953
     7  Na  -0.045073  -0.057478
 Sum of Mulliken charges =  -0.00000   1.00000

 Dipole moment (field-independent basis, Debye):
    X=              0.0169    Y=             -0.0546    Z=              0.0214  Tot=              0.0610
 Quadrupole moment (field-independent basis, Debye-Ang):
   XX=            -56.7187   YY=            -64.3441   ZZ=            -73.1808
   XY=             -0.2830   XZ=             -0.3447   YZ=             -0.3016

 Normal termination of Gaussian 16 at Thu Dec  7 09:25:15 2023.
