 Gaussian 16, Revision B.01,
 Gaussian 16:  ES64L-G16RevB.01 20-Dec-2017

 -------------------------
 #P B3LYP/6-311+g(d) force
 -------------------------

 -----
 DPGEN
 -----
 Symbolic Z-matrix:
 Charge =  0 Multiplicity = 2

                         Standard orientation:
 ---------------------------------------------------------------------
 Center     Atomic      Atomic             Coordinates (Angstroms)
 Number     Number       Type             X           Y           Z
 ---------------------------------------------------------------------
      1         11           0       -1.929713    1.397743   -0.825411
      2         11           0        0.474430   -0.578827    1.658996
      3         11           0       -2.277020   -1.000468    0.806990
      4         11           0        0.360255    0.309606   -1.651548
      5         11           0        0.160182   -2.231896   -0.699072
      6         11           0        2.634089   -0.134128   -0.119458
      7         11           0        0.577777    2.237970    0.829504
 ---------------------------------------------------------------------

 SCF Done:  E(UB3LYP) =  -1136.09383188     A.U. after   20 cycles

 The electronic state is 2-A.
 Alpha  occ. eigenvalues --  -38.44434 -38.44006 -38.43755 -38.43725 -38.43678
 Alpha  occ. eigenvalues --  -38.43410 -38.43258  -2.20717  -2.20225  -2.19798
 Alpha  occ. eigenvalues --   -2.19783  -2.19685  -2.19496  -2.19276  -1.14614
 Alpha  occ. eigenvalues --   -1.14435  -1.14352  -1.14015  -1.13950  -1.13882
 Alpha  occ. eigenvalues --   -1.13553  -1.13509  -1.13428  -1.13416  -1.13393
 Alpha  occ. eigenvalues --   -1.13342  -1.13334  -1.13308  -1.13218  -1.13183
 Alpha  occ. eigenvalues --   -1.13123  -1.13021  -1.12977  -1.12915  -1.12860
 Alpha  occ. eigenvalues --   -0.21050  -0.13466  -0.12774  -0.12468
 Alpha virt. eigenvalues --   -0.04933  -0.04115  -0.04093  -0.03712  -0.03462
 Alpha virt. eigenvalues --   -0.03248  -0.00952  -0.00539  -0.00181   0.00372
 Alpha virt. eigenvalues --    0.00802   0.00874   0.01015   0.01111   0.01151

  Beta  occ. eigenvalues --  -38.44346 -38.43927 -38.43736 -38.43714 -38.43660
  Beta  occ. eigenvalues --  -38.43387 -38.43235  -2.20559  -2.20084  -2.19771
  Beta  occ. eigenvalues --   -2.19765  -2.19655  -2.19459  -2.19236  -1.14496
  Beta  occ. eigenvalues --   -1.14339  -1.14240  -1.13923  -1.13861  -1.13779
  Beta  occ. eigenvalues --   -1.13534  -1.13473  -1.13394  -1.13388  -1.13351
  Beta  occ. eigenvalues --   -1.13331  -1.13304  -1.13264  -1.13197  -1.13149
  Beta  occ. eigenvalues --   -1.13065  -1.12999  -1.12946  -1.12861  -1.12838
  Beta  occ. eigenvalues --   -0.20272  -0.13155  -0.12478
  Beta virt. eigenvalues --   -0.08226  -0.04921  -0.04062  -0.04014  -0.02895
  Beta virt. eigenvalues --   -0.02659  -0.02011  -0.00908  -0.00497  -0.00004
  Beta virt. eigenvalues --    0.00403   0.00810   0.00881   0.01037   0.01184

 Mulliken charges and spin densities:
               1          2
     1  Na   0.290679   0.091013
     2  Na   0.292454   0.524401
     3  Na  -0.157570  -0.049048
     4  Na   0.244159   0.390169
     5  Na  -0.289373   0.094348
     6  Na   0.176081  -0.084048
     7  Na  -0.556429   0.033165
 Sum of Mulliken charges =  -0.00000   1.00000

 Dipole moment (field-independent basis, Debye):
    X=              0.0001    Y=              0.0631    Z=              0.2432  Tot=              0.2512
 Quadrupole moment (field-independent basis, Debye-Ang):
   XX=            -61.8289   YY=            -68.4740   ZZ=            -66.9807
   XY=              0.2227   XZ=             -0.4165   YZ=              1.4444

 Normal termination of Gaussian 16 at Fri Dec  8 19:24:58 2023.
