 Gaussian 16, Revision B.01,
 Gaussian 16:  ES64L-G16RevB.01 20-Dec-2017

 -------------------------
 #P B3LYP/6-311+g(d) force
 -------------------------

 -----
 DPGEN
 -----
 Symbolic Z-matrix:
 Charge =  0 Multiplicity = 2

                         Standard orientation:
 ---------------------------------------------------------------------
 Center     Atomic      Atomic             Coordinates (Angstroms)
 Number     Number       Type             X           Y           Z
 ---------------------------------------------------------------------
      1         11           0        1.527205   -2.266151   -0.522479
      2         11           0       -0.327620   -2.820292    1.745223
      3         11           0       -3.482351    2.218330   -0.749794
      4         11           0       -2.070669   -1.420605   -1.749060
      5         11           0        1.625854    2.994585    1.061479
      6         11           0       -1.063508    0.505632    1.524856
      7         11           0        3.791090    0.788501   -1.310225
 ---------------------------------------------------------------------

 SCF Done:  E(UB3LYP) =  -1136.11268833     A.U. after   20 cycles

 The electronic state is 2-A.
 Alpha  occ. eigenvalues --  -38.45274 -38.44658 -38.44499 -38.44201 -38.44186
 Alpha  occ. eigenvalues --  -38.44098 -38.43966  -2.21034  -2.20388  -2.20231
 Alpha  occ. eigenvalues --   -2.20020  -2.19968  -2.19945  -2.19793  -1.14718
 Alpha  occ. eigenvalues --   -1.14683  -1.14632  -1.14069  -1.14048  -1.14025
 Alpha  occ. eigenvalues --   -1.13912  -1.13899  -1.13858  -1.13823  -1.13687
 Alpha  occ. eigenvalues --   -1.13662  -1.13621  -1.13618  -1.13599  -1.13592
 Alpha  occ. eigenvalues --   -1.13570  -1.13528  -1.13474  -1.13439  -1.13419
 Alpha  occ. eigenvalues --   -0.16875  -0.12523  -0.12432  -0.11128
 Alpha virt. eigenvalues --   -0.06665  -0.05606  -0.05183  -0.03358  -0.03157
 Alpha virt. eigenvalues --   -0.02488  -0.01783  -0.01179  -0.01053  -0.00510
 Alpha virt. eigenvalues --   -0.00446  -0.00145   0.00040   0.00368   0.00612

  Beta  occ. eigenvalues --  -38.45217 -38.44665 -38.44492 -38.44173 -38.44171
  Beta  occ. eigenvalues --  -38.44060 -38.43915  -2.20925  -2.20401  -2.20219
  Beta  occ. eigenvalues --   -2.19996  -2.19900  -2.19890  -2.19702  -1.14642
  Beta  occ. eigenvalues --   -1.14610  -1.14556  -1.14078  -1.14052  -1.14032
  Beta  occ. eigenvalues --   -1.13902  -1.13889  -1.13848  -1.13787  -1.13670
  Beta  occ. eigenvalues --   -1.13643  -1.13581  -1.13565  -1.13558  -1.13545
  Beta  occ. eigenvalues --   -1.13535  -1.13490  -1.13416  -1.13372  -1.13346
  Beta  occ. eigenvalues --   -0.16213  -0.12350  -0.12119
  Beta virt. eigenvalues --   -0.07727  -0.06207  -0.05161  -0.04860  -0.02996
  Beta virt. eigenvalues --   -0.02757  -0.02097  -0.01575  -0.01091  -0.00752
  Beta virt. eigenvalues --   -0.00366  -0.00214  -0.00013   0.00257   0.00445

 Mulliken charges and spin densities:
               1          2
     1  Na  -0.423582   0.248582
     2  Na   0.458424   0.046355
     3  Na   0.115076   0.010828
     4  Na  -0.208962   0.333351
     5  Na  -0.053021   0.008214
     6  Na   0.108365   0.226747
     7  Na   0.003700   0.125924
 Sum of Mulliken charges =  -0.00000   1.00000

 Dipole moment (field-independent basis, Debye):
    X=             -0.7935    Y=             -0.1775    Z=             -0.2818  Tot=              0.8605
 Quadrupole moment (field-independent basis, Debye-Ang):
   XX=            -66.2902   YY=            -61.3248   ZZ=            -68.8884
   XY=             -1.2530   XZ=             -0.2769   YZ=             -0.7265

 Normal termination of Gaussian 16 at Sun Dec  3 19:56:04 2023.
