 Gaussian 16, Revision B.01,
 Gaussian 16:  ES64L-G16RevB.01 20-Dec-2017

 -------------------------
 #P B3LYP/6-311+g(d) force
 -------------------------

 -----
 DPGEN
 -----
 Symbolic Z-matrix:
 Charge =  0 Multiplicity = 2

                         Standard orientation:
 ---------------------------------------------------------------------
 Center     Atomic      Atomic             Coordinates (Angstroms)
 Number     Number       Type             X           Y           Z
 ---------------------------------------------------------------------
      1         11           0        1.631956   -1.865016    0.187531
      2         11           0        2.241835    1.525506    0.042471
      3         11           0       -1.490204    0.771032   -1.007275
      4         11           0       -1.906207   -2.365597    1.031142
      5         11           0       -4.360117   -0.735510   -0.599363
      6         11           0       -0.799791    3.546665    0.760228
      7         11           0        4.682528   -0.877080   -0.414734
 ---------------------------------------------------------------------

 SCF Done:  E(UB3LYP) =  -1136.12813305     A.U. after   19 cycles

 The electronic state is 2-A.
 Alpha  occ. eigenvalues --  -38.44409 -38.44170 -38.43926 -38.43774 -38.43732
 Alpha  occ. eigenvalues --  -38.43688 -38.43516  -2.20230  -2.20020  -2.19746
 Alpha  occ. eigenvalues --   -2.19619  -2.19548  -2.19518  -2.19370  -1.13943
 Alpha  occ. eigenvalues --   -1.13940  -1.13805  -1.13734  -1.13707  -1.13630
 Alpha  occ. eigenvalues --   -1.13424  -1.13407  -1.13382  -1.13294  -1.13265
 Alpha  occ. eigenvalues --   -1.13252  -1.13236  -1.13231  -1.13191  -1.13186
 Alpha  occ. eigenvalues --   -1.13143  -1.13124  -1.13026  -1.13009  -1.12983
 Alpha  occ. eigenvalues --   -0.16951  -0.14228  -0.12421  -0.10465
 Alpha virt. eigenvalues --   -0.06064  -0.05656  -0.04248  -0.03756  -0.02755
 Alpha virt. eigenvalues --   -0.02379  -0.01952  -0.01371  -0.00831  -0.00592
 Alpha virt. eigenvalues --   -0.00396  -0.00083   0.00535   0.00568   0.00667

  Beta  occ. eigenvalues --  -38.44403 -38.44159 -38.43895 -38.43737 -38.43728
  Beta  occ. eigenvalues --  -38.43650 -38.43452  -2.20220  -2.20003  -2.19694
  Beta  occ. eigenvalues --   -2.19532  -2.19528  -2.19483  -2.19250  -1.13938
  Beta  occ. eigenvalues --   -1.13932  -1.13786  -1.13722  -1.13676  -1.13615
  Beta  occ. eigenvalues --   -1.13393  -1.13371  -1.13312  -1.13235  -1.13208
  Beta  occ. eigenvalues --   -1.13200  -1.13198  -1.13192  -1.13191  -1.13187
  Beta  occ. eigenvalues --   -1.13147  -1.13043  -1.12939  -1.12927  -1.12912
  Beta  occ. eigenvalues --   -0.16414  -0.13738  -0.12124
  Beta virt. eigenvalues --   -0.06803  -0.05908  -0.05556  -0.03701  -0.03487
  Beta virt. eigenvalues --   -0.02490  -0.02171  -0.01647  -0.00973  -0.00719
  Beta virt. eigenvalues --   -0.00252  -0.00211   0.00206   0.00635   0.00705

 Mulliken charges and spin densities:
               1          2
     1  Na  -0.835040   0.334052
     2  Na  -0.651265   0.050939
     3  Na  -0.358660   0.178084
     4  Na   0.072682  -0.259419
     5  Na   0.291547   0.298477
     6  Na   0.329669  -0.013538
     7  Na   1.151067   0.411406
 Sum of Mulliken charges =  -0.00000   1.00000

 Dipole moment (field-independent basis, Debye):
    X=              0.2936    Y=              0.2421    Z=              0.4304  Tot=              0.5745
 Quadrupole moment (field-independent basis, Debye-Ang):
   XX=            -61.7041   YY=            -66.0807   ZZ=            -68.7895
   XY=             -0.7225   XZ=             -2.9007   YZ=              1.6028

 Normal termination of Gaussian 16 at Tue Nov 28 19:25:47 2023.
