 Gaussian 16, Revision B.01,
 Gaussian 16:  ES64L-G16RevB.01 20-Dec-2017

 -------------------------
 #P B3LYP/6-311+g(d) force
 -------------------------

 -----
 DPGEN
 -----
 Symbolic Z-matrix:
 Charge =  0 Multiplicity = 2

                         Standard orientation:
 ---------------------------------------------------------------------
 Center     Atomic      Atomic             Coordinates (Angstroms)
 Number     Number       Type             X           Y           Z
 ---------------------------------------------------------------------
      1         11           0       -2.019464   -2.189680    0.115954
      2         11           0        0.245563   -0.050199    2.134168
      3         11           0        1.378762   -2.010458   -0.882720
      4         11           0        3.706763   -0.102017    0.289787
      5         11           0       -0.822273    0.607786   -1.730852
      6         11           0        1.232409    2.659698   -0.261616
      7         11           0       -3.721760    1.084871    0.335280
 ---------------------------------------------------------------------

 SCF Done:  E(UB3LYP) =  -1136.12364746     A.U. after   23 cycles

 The electronic state is 2-A.
 Alpha  occ. eigenvalues --  -38.45451 -38.45297 -38.44634 -38.43530 -38.43384
 Alpha  occ. eigenvalues --  -38.43202 -38.42874  -2.21198  -2.21084  -2.20448
 Alpha  occ. eigenvalues --   -2.19356  -2.19284  -2.19014  -2.18743  -1.14873
 Alpha  occ. eigenvalues --   -1.14854  -1.14835  -1.14771  -1.14743  -1.14711
 Alpha  occ. eigenvalues --   -1.14120  -1.14085  -1.14063  -1.13040  -1.13034
 Alpha  occ. eigenvalues --   -1.12986  -1.12977  -1.12919  -1.12913  -1.12696
 Alpha  occ. eigenvalues --   -1.12679  -1.12637  -1.12420  -1.12399  -1.12384
 Alpha  occ. eigenvalues --   -0.17957  -0.13408  -0.11429  -0.10839
 Alpha virt. eigenvalues --   -0.07268  -0.05156  -0.04045  -0.03340  -0.02930
 Alpha virt. eigenvalues --   -0.02656  -0.02416  -0.01222  -0.00653  -0.00323
 Alpha virt. eigenvalues --    0.00017   0.00153   0.00325   0.00692   0.00731

  Beta  occ. eigenvalues --  -38.45449 -38.45298 -38.44553 -38.43526 -38.43318
  Beta  occ. eigenvalues --  -38.43195 -38.42851  -2.21195  -2.21087  -2.20298
  Beta  occ. eigenvalues --   -2.19352  -2.19162  -2.19005  -2.18703  -1.14864
  Beta  occ. eigenvalues --   -1.14850  -1.14834  -1.14771  -1.14737  -1.14714
  Beta  occ. eigenvalues --   -1.14018  -1.13982  -1.13952  -1.13037  -1.13013
  Beta  occ. eigenvalues --   -1.12979  -1.12901  -1.12835  -1.12819  -1.12682
  Beta  occ. eigenvalues --   -1.12657  -1.12629  -1.12392  -1.12364  -1.12348
  Beta  occ. eigenvalues --   -0.17222  -0.13275  -0.11185
  Beta virt. eigenvalues --   -0.07207  -0.06903  -0.05125  -0.03748  -0.02954
  Beta virt. eigenvalues --   -0.02515  -0.01921  -0.01677  -0.01155  -0.00607
  Beta virt. eigenvalues --   -0.00166   0.00012   0.00175   0.00487   0.00751

 Mulliken charges and spin densities:
               1          2
     1  Na   0.029676   0.087278
     2  Na  -0.214069   0.592986
     3  Na  -0.226092   0.088577
     4  Na   0.215595   0.046824
     5  Na   0.338606   0.232903
     6  Na  -0.159795  -0.024064
     7  Na   0.016078  -0.024504
 Sum of Mulliken charges =  -0.00000   1.00000

 Dipole moment (field-independent basis, Debye):
    X=             -0.2592    Y=              0.2045    Z=              0.5600  Tot=              0.6501
 Quadrupole moment (field-independent basis, Debye-Ang):
   XX=            -46.0409   YY=            -73.1505   ZZ=            -73.1695
   XY=             -0.8595   XZ=             -1.0897   YZ=              1.2159

 Normal termination of Gaussian 16 at Thu Dec  7 20:15:58 2023.
