 Gaussian 16, Revision B.01,
 Gaussian 16:  ES64L-G16RevB.01 20-Dec-2017

 -------------------------
 #P B3LYP/6-311+g(d) force
 -------------------------

 -----
 DPGEN
 -----
 Symbolic Z-matrix:
 Charge =  0 Multiplicity = 2

                         Standard orientation:
 ---------------------------------------------------------------------
 Center     Atomic      Atomic             Coordinates (Angstroms)
 Number     Number       Type             X           Y           Z
 ---------------------------------------------------------------------
      1         11           0       -3.825630   -0.486070   -1.157258
      2         11           0        2.715712    2.247553   -1.193639
      3         11           0       -1.221543   -3.167064   -0.749834
      4         11           0       -3.222789    1.522207    1.310417
      5         11           0        1.297897   -3.162428    1.208227
      6         11           0       -0.028832    3.679519    0.449911
      7         11           0        4.285184   -0.633715    0.132176
 ---------------------------------------------------------------------

 SCF Done:  E(UB3LYP) =  -1136.10491848     A.U. after   22 cycles

 The electronic state is 2-A.
 Alpha  occ. eigenvalues --  -38.45256 -38.44661 -38.44464 -38.44418 -38.44415
 Alpha  occ. eigenvalues --  -38.44334 -38.43914  -2.21015  -2.20415  -2.20253
 Alpha  occ. eigenvalues --   -2.20220  -2.20198  -2.20115  -2.19697  -1.14695
 Alpha  occ. eigenvalues --   -1.14685  -1.14662  -1.14104  -1.14091  -1.14064
 Alpha  occ. eigenvalues --   -1.13971  -1.13920  -1.13901  -1.13873  -1.13866
 Alpha  occ. eigenvalues --   -1.13861  -1.13855  -1.13839  -1.13805  -1.13770
 Alpha  occ. eigenvalues --   -1.13749  -1.13740  -1.13354  -1.13341  -1.13319
 Alpha  occ. eigenvalues --   -0.15407  -0.13657  -0.13237  -0.10598
 Alpha virt. eigenvalues --   -0.07706  -0.04863  -0.04669  -0.03589  -0.03528
 Alpha virt. eigenvalues --   -0.02139  -0.01907  -0.01556  -0.01368  -0.01154
 Alpha virt. eigenvalues --   -0.00971  -0.00181   0.00155   0.00303   0.00619

  Beta  occ. eigenvalues --  -38.45258 -38.44668 -38.44441 -38.44394 -38.44377
  Beta  occ. eigenvalues --  -38.44258 -38.43844  -2.21023  -2.20434  -2.20214
  Beta  occ. eigenvalues --   -2.20163  -2.20144  -2.19973  -2.19566  -1.14700
  Beta  occ. eigenvalues --   -1.14692  -1.14645  -1.14122  -1.14108  -1.14035
  Beta  occ. eigenvalues --   -1.13931  -1.13895  -1.13871  -1.13839  -1.13821
  Beta  occ. eigenvalues --   -1.13817  -1.13815  -1.13805  -1.13761  -1.13673
  Beta  occ. eigenvalues --   -1.13656  -1.13642  -1.13264  -1.13255  -1.13234
  Beta  occ. eigenvalues --   -0.14941  -0.12915  -0.12511
  Beta virt. eigenvalues --   -0.07841  -0.07490  -0.04442  -0.04184  -0.03416
  Beta virt. eigenvalues --   -0.03337  -0.01881  -0.01523  -0.01380  -0.01106
  Beta virt. eigenvalues --   -0.00965  -0.00722  -0.00011   0.00159   0.00377

 Mulliken charges and spin densities:
               1          2
     1  Na   0.140138   0.196844
     2  Na  -0.087376  -0.054629
     3  Na  -0.206200   0.083745
     4  Na  -0.034501  -0.006975
     5  Na   0.053849   0.063593
     6  Na  -0.028026   0.342149
     7  Na   0.162117   0.375272
 Sum of Mulliken charges =  -0.00000   1.00000

 Dipole moment (field-independent basis, Debye):
    X=             -0.7255    Y=             -0.2978    Z=              0.1159  Tot=              0.7927
 Quadrupole moment (field-independent basis, Debye-Ang):
   XX=            -67.8821   YY=            -72.7485   ZZ=            -63.0188
   XY=             -1.8356   XZ=              1.3027   YZ=              0.7661

 Normal termination of Gaussian 16 at Sun Dec  3 14:24:19 2023.
