 Gaussian 16, Revision B.01,
 Gaussian 16:  ES64L-G16RevB.01 20-Dec-2017

 -------------------------
 #P B3LYP/6-311+g(d) force
 -------------------------

 -----
 DPGEN
 -----
 Symbolic Z-matrix:
 Charge =  0 Multiplicity = 2

                         Standard orientation:
 ---------------------------------------------------------------------
 Center     Atomic      Atomic             Coordinates (Angstroms)
 Number     Number       Type             X           Y           Z
 ---------------------------------------------------------------------
      1         11           0       -3.984852    0.911722   -0.007372
      2         11           0        4.344504    0.687028    0.460793
      3         11           0       -1.745068    3.280414   -0.428676
      4         11           0        1.936349    3.534169   -0.075829
      5         11           0        2.948077   -2.772458    0.048185
      6         11           0       -0.338363   -3.587858   -0.979851
      7         11           0       -3.160648   -2.053017    0.982751
 ---------------------------------------------------------------------

 SCF Done:  E(UB3LYP) =  -1136.10508138     A.U. after   26 cycles

 The electronic state is 2-A.
 Alpha  occ. eigenvalues --  -38.45515 -38.45271 -38.44837 -38.44672 -38.44528
 Alpha  occ. eigenvalues --  -38.44018 -38.44014  -2.21239  -2.21016  -2.20633
 Alpha  occ. eigenvalues --   -2.20484  -2.20298  -2.19809  -2.19794  -1.14931
 Alpha  occ. eigenvalues --   -1.14917  -1.14868  -1.14701  -1.14687  -1.14646
 Alpha  occ. eigenvalues --   -1.14317  -1.14292  -1.14270  -1.14151  -1.14148
 Alpha  occ. eigenvalues --   -1.14121  -1.13966  -1.13954  -1.13926  -1.13468
 Alpha  occ. eigenvalues --   -1.13462  -1.13454  -1.13440  -1.13438  -1.13421
 Alpha  occ. eigenvalues --   -0.15469  -0.13848  -0.13446  -0.10728
 Alpha virt. eigenvalues --   -0.08070  -0.05045  -0.04470  -0.03502  -0.03452
 Alpha virt. eigenvalues --   -0.02486  -0.02279  -0.01848  -0.01493  -0.00889
 Alpha virt. eigenvalues --   -0.00552  -0.00252   0.00000   0.00257   0.00514

  Beta  occ. eigenvalues --  -38.45515 -38.45255 -38.44796 -38.44662 -38.44491
  Beta  occ. eigenvalues --  -38.43968 -38.43955  -2.21243  -2.20992  -2.20560
  Beta  occ. eigenvalues --   -2.20471  -2.20231  -2.19724  -2.19675  -1.14939
  Beta  occ. eigenvalues --   -1.14923  -1.14838  -1.14689  -1.14675  -1.14597
  Beta  occ. eigenvalues --   -1.14263  -1.14245  -1.14216  -1.14144  -1.14141
  Beta  occ. eigenvalues --   -1.14080  -1.13922  -1.13911  -1.13868  -1.13410
  Beta  occ. eigenvalues --   -1.13406  -1.13384  -1.13373  -1.13360  -1.13342
  Beta  occ. eigenvalues --   -0.14965  -0.13111  -0.12722
  Beta virt. eigenvalues --   -0.08309  -0.07624  -0.04522  -0.03912  -0.03320
  Beta virt. eigenvalues --   -0.03176  -0.02284  -0.02073  -0.01721  -0.01359
  Beta virt. eigenvalues --   -0.00561  -0.00386   0.00072   0.00186   0.00274

 Mulliken charges and spin densities:
               1          2
     1  Na   0.049252   0.124642
     2  Na   0.011160   0.300793
     3  Na   0.210443   0.184996
     4  Na   0.178075   0.005765
     5  Na  -0.049186   0.103872
     6  Na  -0.172424   0.127079
     7  Na  -0.227319   0.152852
 Sum of Mulliken charges =  -0.00000   1.00000

 Dipole moment (field-independent basis, Debye):
    X=             -0.2943    Y=             -0.4005    Z=              0.0719  Tot=              0.5022
 Quadrupole moment (field-independent basis, Debye-Ang):
   XX=            -63.4245   YY=            -65.1365   ZZ=            -72.1323
   XY=              0.3790   XZ=              1.1981   YZ=             -1.1828

 Normal termination of Gaussian 16 at Sun Dec  3 19:35:49 2023.
