 Gaussian 16, Revision B.01,
 Gaussian 16:  ES64L-G16RevB.01 20-Dec-2017

 -------------------------
 #P B3LYP/6-311+g(d) force
 -------------------------

 -----
 DPGEN
 -----
 Symbolic Z-matrix:
 Charge =  0 Multiplicity = 2

                         Standard orientation:
 ---------------------------------------------------------------------
 Center     Atomic      Atomic             Coordinates (Angstroms)
 Number     Number       Type             X           Y           Z
 ---------------------------------------------------------------------
      1         11           0       -1.124291    1.891070    0.349390
      2         11           0        3.601095   -1.092999   -0.941227
      3         11           0       -3.474742    0.873623   -1.081604
      4         11           0       -2.571880   -1.862747    0.971841
      5         11           0        0.062586   -0.992126   -1.735993
      6         11           0        0.806099   -0.619050    2.085549
      7         11           0        2.701134    1.802230    0.352044
 ---------------------------------------------------------------------

 SCF Done:  E(UB3LYP) =  -1136.11807983     A.U. after   28 cycles

 The electronic state is 2-A.
 Alpha  occ. eigenvalues --  -38.44770 -38.44641 -38.44508 -38.44477 -38.44268
 Alpha  occ. eigenvalues --  -38.43938 -38.42848  -2.20637  -2.20484  -2.20290
 Alpha  occ. eigenvalues --   -2.20280  -2.20077  -2.19758  -2.18732  -1.14352
 Alpha  occ. eigenvalues --   -1.14281  -1.14237  -1.14163  -1.14120  -1.14090
 Alpha  occ. eigenvalues --   -1.13990  -1.13968  -1.13942  -1.13934  -1.13914
 Alpha  occ. eigenvalues --   -1.13893  -1.13756  -1.13734  -1.13707  -1.13438
 Alpha  occ. eigenvalues --   -1.13414  -1.13395  -1.12421  -1.12400  -1.12375
 Alpha  occ. eigenvalues --   -0.18021  -0.14249  -0.11600  -0.10751
 Alpha virt. eigenvalues --   -0.06903  -0.05552  -0.04784  -0.03238  -0.02712
 Alpha virt. eigenvalues --   -0.02553  -0.02416  -0.01371  -0.00950  -0.00198
 Alpha virt. eigenvalues --    0.00079   0.00217   0.00314   0.00353   0.00546

  Beta  occ. eigenvalues --  -38.44730 -38.44554 -38.44495 -38.44439 -38.44249
  Beta  occ. eigenvalues --  -38.43940 -38.42841  -2.20564  -2.20326  -2.20266
  Beta  occ. eigenvalues --   -2.20211  -2.20041  -2.19763  -2.18723  -1.14302
  Beta  occ. eigenvalues --   -1.14226  -1.14189  -1.14058  -1.14012  -1.13976
  Beta  occ. eigenvalues --   -1.13967  -1.13943  -1.13892  -1.13885  -1.13873
  Beta  occ. eigenvalues --   -1.13859  -1.13730  -1.13706  -1.13685  -1.13437
  Beta  occ. eigenvalues --   -1.13420  -1.13389  -1.12416  -1.12378  -1.12358
  Beta  occ. eigenvalues --   -0.17369  -0.13928  -0.10516
  Beta virt. eigenvalues --   -0.07781  -0.06721  -0.05329  -0.04244  -0.02912
  Beta virt. eigenvalues --   -0.02456  -0.02037  -0.01830  -0.01201  -0.00629
  Beta virt. eigenvalues --   -0.00138   0.00131   0.00235   0.00431   0.00566

 Mulliken charges and spin densities:
               1          2
     1  Na  -0.776635   0.146368
     2  Na   0.162493   0.118922
     3  Na   0.997059   0.060271
     4  Na   0.057275   0.135897
     5  Na  -0.571810   0.124149
     6  Na  -0.040954   0.399444
     7  Na   0.172571   0.014949
 Sum of Mulliken charges =  -0.00000   1.00000

 Dipole moment (field-independent basis, Debye):
    X=             -0.1453    Y=             -0.4191    Z=              0.0261  Tot=              0.4444
 Quadrupole moment (field-independent basis, Debye-Ang):
   XX=            -48.6253   YY=            -77.5549   ZZ=            -69.9639
   XY=              1.9980   XZ=              1.8978   YZ=             -5.4053

 Normal termination of Gaussian 16 at Thu Dec  7 18:49:36 2023.
