 Gaussian 16, Revision B.01,
 Gaussian 16:  ES64L-G16RevB.01 20-Dec-2017

 -------------------------
 #P B3LYP/6-311+g(d) force
 -------------------------

 -----
 DPGEN
 -----
 Symbolic Z-matrix:
 Charge =  0 Multiplicity = 2

                         Standard orientation:
 ---------------------------------------------------------------------
 Center     Atomic      Atomic             Coordinates (Angstroms)
 Number     Number       Type             X           Y           Z
 ---------------------------------------------------------------------
      1         11           0        0.196666    3.192376    0.406018
      2         11           0        5.287034   -0.580565   -1.420997
      3         11           0        2.960368    1.020254    0.380516
      4         11           0        2.038071   -2.312016    1.690113
      5         11           0       -0.385536   -0.238809   -0.150771
      6         11           0       -3.851658   -1.132750   -1.189610
      7         11           0       -6.244945    0.051510    0.284731
 ---------------------------------------------------------------------

 SCF Done:  E(UB3LYP) =  -1136.10853490     A.U. after   21 cycles

 The electronic state is 2-A.
 Alpha  occ. eigenvalues --  -38.45029 -38.45007 -38.44319 -38.44297 -38.43889
 Alpha  occ. eigenvalues --  -38.43605 -38.43469  -2.20812  -2.20792  -2.20127
 Alpha  occ. eigenvalues --   -2.20108  -2.19671  -2.19465  -2.19275  -1.14475
 Alpha  occ. eigenvalues --   -1.14474  -1.14455  -1.14443  -1.14440  -1.14417
 Alpha  occ. eigenvalues --   -1.13803  -1.13789  -1.13781  -1.13780  -1.13756
 Alpha  occ. eigenvalues --   -1.13741  -1.13339  -1.13323  -1.13291  -1.13172
 Alpha  occ. eigenvalues --   -1.13149  -1.13060  -1.12933  -1.12932  -1.12894
 Alpha  occ. eigenvalues --   -0.16301  -0.13811  -0.11633  -0.11361
 Alpha virt. eigenvalues --   -0.07270  -0.04828  -0.04631  -0.03376  -0.03134
 Alpha virt. eigenvalues --   -0.02341  -0.02042  -0.01664  -0.01376  -0.00863
 Alpha virt. eigenvalues --   -0.00691  -0.00268   0.00266   0.00429   0.00530

  Beta  occ. eigenvalues --  -38.45003 -38.44948 -38.44320 -38.44283 -38.43836
  Beta  occ. eigenvalues --  -38.43584 -38.43437  -2.20784  -2.20663  -2.20129
  Beta  occ. eigenvalues --   -2.20084  -2.19573  -2.19430  -2.19216  -1.14470
  Beta  occ. eigenvalues --   -1.14438  -1.14435  -1.14375  -1.14347  -1.14316
  Beta  occ. eigenvalues --   -1.13790  -1.13785  -1.13783  -1.13780  -1.13748
  Beta  occ. eigenvalues --   -1.13699  -1.13267  -1.13256  -1.13230  -1.13149
  Beta  occ. eigenvalues --   -1.13108  -1.13029  -1.12893  -1.12887  -1.12859
  Beta  occ. eigenvalues --   -0.15664  -0.13664  -0.11107
  Beta virt. eigenvalues --   -0.07879  -0.06805  -0.04484  -0.04399  -0.03197
  Beta virt. eigenvalues --   -0.02868  -0.01986  -0.01720  -0.01397  -0.01210
  Beta virt. eigenvalues --   -0.00570  -0.00426  -0.00070   0.00324   0.00527

 Mulliken charges and spin densities:
               1          2
     1  Na   0.379409   0.140925
     2  Na   0.344030   0.202772
     3  Na   0.219529   0.367522
     4  Na   0.543367   0.239075
     5  Na  -1.038519   0.093677
     6  Na  -0.604517  -0.060360
     7  Na   0.156701   0.016389
 Sum of Mulliken charges =  -0.00000   1.00000

 Dipole moment (field-independent basis, Debye):
    X=             -1.6261    Y=             -0.2091    Z=              0.4806  Tot=              1.7084
 Quadrupole moment (field-independent basis, Debye-Ang):
   XX=            -61.5976   YY=            -66.3577   ZZ=            -66.9010
   XY=             -6.0283   XZ=             -4.0541   YZ=              2.1570

 Normal termination of Gaussian 16 at Wed Nov 29 03:46:16 2023.
