 Gaussian 16, Revision B.01,
 Gaussian 16:  ES64L-G16RevB.01 20-Dec-2017

 -------------------------
 #P B3LYP/6-311+g(d) force
 -------------------------

 -----
 DPGEN
 -----
 Symbolic Z-matrix:
 Charge =  0 Multiplicity = 2

                         Standard orientation:
 ---------------------------------------------------------------------
 Center     Atomic      Atomic             Coordinates (Angstroms)
 Number     Number       Type             X           Y           Z
 ---------------------------------------------------------------------
      1         11           0        0.226436    0.222076   -1.728049
      2         11           0        0.262681   -0.136993    2.013105
      3         11           0        3.349563    0.826112   -0.393598
      4         11           0       -0.425403    2.933870    0.410485
      5         11           0       -3.112738    0.850963   -0.299358
      6         11           0        1.577359   -2.229407    0.121210
      7         11           0       -1.877898   -2.466620   -0.123795
 ---------------------------------------------------------------------

 SCF Done:  E(UB3LYP) =  -1136.13630574     A.U. after   20 cycles

 The electronic state is 2-A.
 Alpha  occ. eigenvalues --  -38.44318 -38.44064 -38.43678 -38.43589 -38.43449
 Alpha  occ. eigenvalues --  -38.43402 -38.43343  -2.20114  -2.19873  -2.19584
 Alpha  occ. eigenvalues --   -2.19507  -2.19308  -2.19275  -2.19166  -1.13787
 Alpha  occ. eigenvalues --   -1.13765  -1.13755  -1.13549  -1.13531  -1.13515
 Alpha  occ. eigenvalues --   -1.13293  -1.13230  -1.13197  -1.13189  -1.13162
 Alpha  occ. eigenvalues --   -1.13119  -1.12988  -1.12976  -1.12947  -1.12938
 Alpha  occ. eigenvalues --   -1.12912  -1.12904  -1.12838  -1.12825  -1.12804
 Alpha  occ. eigenvalues --   -0.18418  -0.13009  -0.12289  -0.10823
 Alpha virt. eigenvalues --   -0.05906  -0.05039  -0.04700  -0.03184  -0.02915
 Alpha virt. eigenvalues --   -0.02599  -0.01815  -0.01072  -0.00462  -0.00263
 Alpha virt. eigenvalues --   -0.00049   0.00318   0.00763   0.00844   0.00877

  Beta  occ. eigenvalues --  -38.44308 -38.44060 -38.43582 -38.43529 -38.43438
  Beta  occ. eigenvalues --  -38.43391 -38.43342  -2.20098  -2.19868  -2.19409
  Beta  occ. eigenvalues --   -2.19397  -2.19293  -2.19258  -2.19166  -1.13762
  Beta  occ. eigenvalues --   -1.13756  -1.13744  -1.13535  -1.13530  -1.13510
  Beta  occ. eigenvalues --   -1.13189  -1.13128  -1.13102  -1.13086  -1.13069
  Beta  occ. eigenvalues --   -1.13035  -1.12967  -1.12934  -1.12930  -1.12909
  Beta  occ. eigenvalues --   -1.12899  -1.12897  -1.12833  -1.12824  -1.12797
  Beta  occ. eigenvalues --   -0.17702  -0.12759  -0.12048
  Beta virt. eigenvalues --   -0.06966  -0.05809  -0.05019  -0.04617  -0.02472
  Beta virt. eigenvalues --   -0.02187  -0.01685  -0.01575  -0.01020  -0.00470
  Beta virt. eigenvalues --   -0.00297   0.00093   0.00359   0.00824   0.00854

 Mulliken charges and spin densities:
               1          2
     1  Na  -0.220873   0.596848
     2  Na  -0.213997   0.596337
     3  Na   0.155395  -0.041239
     4  Na   0.003085  -0.052601
     5  Na   0.030685  -0.038970
     6  Na   0.342530   0.019187
     7  Na  -0.096824  -0.079561
 Sum of Mulliken charges =  -0.00000   1.00000

 Dipole moment (field-independent basis, Debye):
    X=              0.2100    Y=              0.2419    Z=             -0.0061  Tot=              0.3204
 Quadrupole moment (field-independent basis, Debye-Ang):
   XX=            -55.2997   YY=            -64.4309   ZZ=            -73.9141
   XY=              1.0336   XZ=              0.1468   YZ=              0.6188

 Normal termination of Gaussian 16 at Thu Dec  7 12:04:08 2023.
