 Gaussian 16, Revision B.01,
 Gaussian 16:  ES64L-G16RevB.01 20-Dec-2017

 -------------------------
 #P B3LYP/6-311+g(d) force
 -------------------------

 -----
 DPGEN
 -----
 Symbolic Z-matrix:
 Charge =  0 Multiplicity = 2

                         Standard orientation:
 ---------------------------------------------------------------------
 Center     Atomic      Atomic             Coordinates (Angstroms)
 Number     Number       Type             X           Y           Z
 ---------------------------------------------------------------------
      1         11           0       -3.052718    0.877508   -0.095480
      2         11           0        2.851214    0.674030   -0.294889
      3         11           0        1.571798   -2.602638   -0.255425
      4         11           0       -1.924697   -1.896674   -0.178888
      5         11           0        0.212479   -0.347107    2.198049
      6         11           0       -0.068787    0.171453   -1.467171
      7         11           0        0.410711    3.123428    0.093803
 ---------------------------------------------------------------------

 SCF Done:  E(UB3LYP) =  -1136.13500851     A.U. after   20 cycles

 The electronic state is 2-A.
 Alpha  occ. eigenvalues --  -38.43926 -38.43852 -38.43729 -38.43641 -38.43431
 Alpha  occ. eigenvalues --  -38.43359 -38.43023  -2.19786  -2.19719  -2.19599
 Alpha  occ. eigenvalues --   -2.19453  -2.19377  -2.19214  -2.19067  -1.13525
 Alpha  occ. eigenvalues --   -1.13441  -1.13432  -1.13416  -1.13380  -1.13339
 Alpha  occ. eigenvalues --   -1.13260  -1.13225  -1.13214  -1.13133  -1.13113
 Alpha  occ. eigenvalues --   -1.13110  -1.13090  -1.13019  -1.12988  -1.12888
 Alpha  occ. eigenvalues --   -1.12868  -1.12858  -1.12741  -1.12706  -1.12675
 Alpha  occ. eigenvalues --   -0.18815  -0.13166  -0.12443  -0.10815
 Alpha virt. eigenvalues --   -0.05513  -0.04990  -0.04872  -0.03173  -0.02871
 Alpha virt. eigenvalues --   -0.02619  -0.01407  -0.01193  -0.00392  -0.00177
 Alpha virt. eigenvalues --   -0.00018   0.00352   0.00810   0.00883   0.00908

  Beta  occ. eigenvalues --  -38.43925 -38.43844 -38.43641 -38.43623 -38.43421
  Beta  occ. eigenvalues --  -38.43353 -38.42970  -2.19786  -2.19707  -2.19454
  Beta  occ. eigenvalues --   -2.19403  -2.19364  -2.19206  -2.18971  -1.13526
  Beta  occ. eigenvalues --   -1.13432  -1.13417  -1.13409  -1.13353  -1.13335
  Beta  occ. eigenvalues --   -1.13135  -1.13129  -1.13103  -1.13094  -1.13093
  Beta  occ. eigenvalues --   -1.13086  -1.13074  -1.12994  -1.12969  -1.12877
  Beta  occ. eigenvalues --   -1.12858  -1.12840  -1.12674  -1.12637  -1.12604
  Beta  occ. eigenvalues --   -0.18084  -0.12923  -0.12242
  Beta virt. eigenvalues --   -0.06823  -0.05492  -0.04957  -0.04843  -0.02373
  Beta virt. eigenvalues --   -0.02115  -0.01525  -0.01321  -0.01127  -0.00432
  Beta virt. eigenvalues --   -0.00223   0.00149   0.00387   0.00852   0.00897

 Mulliken charges and spin densities:
               1          2
     1  Na   0.105854  -0.017638
     2  Na   0.253074  -0.001403
     3  Na   0.321640   0.030380
     4  Na   0.452788   0.077925
     5  Na  -0.726926   0.758531
     6  Na  -0.444250   0.166436
     7  Na   0.037819  -0.014232
 Sum of Mulliken charges =  -0.00000   1.00000

 Dipole moment (field-independent basis, Debye):
    X=              0.0688    Y=              0.2140    Z=              0.2592  Tot=              0.3431
 Quadrupole moment (field-independent basis, Debye-Ang):
   XX=            -58.4411   YY=            -60.9385   ZZ=            -74.3047
   XY=             -1.6256   XZ=             -0.6806   YZ=              1.3013

 Normal termination of Gaussian 16 at Fri Dec  8 04:52:21 2023.
