 Gaussian 16, Revision B.01,
 Gaussian 16:  ES64L-G16RevB.01 20-Dec-2017

 -------------------------
 #P B3LYP/6-311+g(d) force
 -------------------------

 -----
 DPGEN
 -----
 Symbolic Z-matrix:
 Charge =  0 Multiplicity = 2

                         Standard orientation:
 ---------------------------------------------------------------------
 Center     Atomic      Atomic             Coordinates (Angstroms)
 Number     Number       Type             X           Y           Z
 ---------------------------------------------------------------------
      1         11           0       -0.727926    0.248451    1.445493
      2         11           0       -2.231493   -2.449111   -1.121370
      3         11           0        1.006341   -3.040813    0.637345
      4         11           0       -0.879802    3.575742   -0.018894
      5         11           0        3.994432   -0.923722   -0.270806
      6         11           0        2.422297    2.312910   -0.571735
      7         11           0       -3.583848    0.276543   -0.100033
 ---------------------------------------------------------------------

 SCF Done:  E(UB3LYP) =  -1136.11885406     A.U. after   21 cycles

 The electronic state is 2-A.
 Alpha  occ. eigenvalues --  -38.44658 -38.44644 -38.44338 -38.44233 -38.44223
 Alpha  occ. eigenvalues --  -38.44203 -38.43583  -2.20486  -2.20457  -2.20115
 Alpha  occ. eigenvalues --   -2.20072  -2.19995  -2.19975  -2.19376  -1.14180
 Alpha  occ. eigenvalues --   -1.14168  -1.14134  -1.14123  -1.14089  -1.14081
 Alpha  occ. eigenvalues --   -1.13791  -1.13769  -1.13755  -1.13741  -1.13728
 Alpha  occ. eigenvalues --   -1.13689  -1.13672  -1.13662  -1.13662  -1.13636
 Alpha  occ. eigenvalues --   -1.13630  -1.13581  -1.13045  -1.13026  -1.13006
 Alpha  occ. eigenvalues --   -0.16791  -0.13497  -0.12875  -0.10088
 Alpha virt. eigenvalues --   -0.07002  -0.06013  -0.03984  -0.03628  -0.03170
 Alpha virt. eigenvalues --   -0.02304  -0.01807  -0.01557  -0.01256  -0.01028
 Alpha virt. eigenvalues --   -0.00025   0.00080   0.00320   0.00472   0.00722

  Beta  occ. eigenvalues --  -38.44626 -38.44607 -38.44332 -38.44206 -38.44189
  Beta  occ. eigenvalues --  -38.44179 -38.43542  -2.20425  -2.20394  -2.20105
  Beta  occ. eigenvalues --   -2.20014  -2.19949  -2.19931  -2.19300  -1.14143
  Beta  occ. eigenvalues --   -1.14131  -1.14091  -1.14081  -1.14034  -1.14016
  Beta  occ. eigenvalues --   -1.13782  -1.13766  -1.13744  -1.13707  -1.13689
  Beta  occ. eigenvalues --   -1.13643  -1.13635  -1.13631  -1.13623  -1.13609
  Beta  occ. eigenvalues --   -1.13583  -1.13535  -1.12991  -1.12973  -1.12958
  Beta  occ. eigenvalues --   -0.16336  -0.12800  -0.12559
  Beta virt. eigenvalues --   -0.07002  -0.06722  -0.05810  -0.03780  -0.03126
  Beta virt. eigenvalues --   -0.02569  -0.02144  -0.01650  -0.01365  -0.01039
  Beta virt. eigenvalues --   -0.00802   0.00203   0.00325   0.00387   0.00519

 Mulliken charges and spin densities:
               1          2
     1  Na   0.001572   0.235611
     2  Na  -0.044051   0.088313
     3  Na  -0.089998   0.205459
     4  Na   0.279319  -0.079680
     5  Na   0.036835   0.119473
     6  Na  -0.256627   0.175582
     7  Na   0.072949   0.255241
 Sum of Mulliken charges =  -0.00000   1.00000

 Dipole moment (field-independent basis, Debye):
    X=             -0.8433    Y=              0.3397    Z=             -0.1796  Tot=              0.9267
 Quadrupole moment (field-independent basis, Debye-Ang):
   XX=            -69.3523   YY=            -59.2104   ZZ=            -71.4318
   XY=             -5.9940   XZ=             -0.2356   YZ=              0.9545

 Normal termination of Gaussian 16 at Sun Dec  3 14:03:56 2023.
