 Gaussian 16, Revision B.01,
 Gaussian 16:  ES64L-G16RevB.01 20-Dec-2017

 -------------------------
 #P B3LYP/6-311+g(d) force
 -------------------------

 -----
 DPGEN
 -----
 Symbolic Z-matrix:
 Charge =  0 Multiplicity = 2

                         Standard orientation:
 ---------------------------------------------------------------------
 Center     Atomic      Atomic             Coordinates (Angstroms)
 Number     Number       Type             X           Y           Z
 ---------------------------------------------------------------------
      1         11           0       -0.327377    0.172618    2.313939
      2         11           0        1.310930    2.329250    0.069763
      3         11           0        3.502322   -0.096360   -1.343063
      4         11           0       -0.419776   -1.023512   -1.281332
      5         11           0       -3.836580   -1.348759   -0.327235
      6         11           0       -2.601354    1.645810   -0.448314
      7         11           0        2.371834   -1.679047    1.016242
 ---------------------------------------------------------------------

 SCF Done:  E(UB3LYP) =  -1136.12271306     A.U. after   23 cycles

 The electronic state is 2-A.
 Alpha  occ. eigenvalues --  -38.44914 -38.44514 -38.44148 -38.44129 -38.44008
 Alpha  occ. eigenvalues --  -38.43552 -38.42977  -2.20725  -2.20347  -2.19982
 Alpha  occ. eigenvalues --   -2.19955  -2.19882  -2.19405  -2.18803  -1.14444
 Alpha  occ. eigenvalues --   -1.14409  -1.14320  -1.14046  -1.14018  -1.13952
 Alpha  occ. eigenvalues --   -1.13728  -1.13626  -1.13622  -1.13621  -1.13616
 Alpha  occ. eigenvalues --   -1.13588  -1.13544  -1.13517  -1.13478  -1.13078
 Alpha  occ. eigenvalues --   -1.13056  -1.13008  -1.12484  -1.12463  -1.12426
 Alpha  occ. eigenvalues --   -0.17997  -0.14163  -0.11374  -0.10877
 Alpha virt. eigenvalues --   -0.06670  -0.05616  -0.04480  -0.03051  -0.02963
 Alpha virt. eigenvalues --   -0.02583  -0.02464  -0.01223  -0.00761  -0.00345
 Alpha virt. eigenvalues --    0.00116   0.00140   0.00428   0.00494   0.00715

  Beta  occ. eigenvalues --  -38.44903 -38.44502 -38.44157 -38.44094 -38.43970
  Beta  occ. eigenvalues --  -38.43482 -38.42949  -2.20706  -2.20324  -2.19972
  Beta  occ. eigenvalues --   -2.19918  -2.19815  -2.19277  -2.18753  -1.14407
  Beta  occ. eigenvalues --   -1.14398  -1.14311  -1.14026  -1.14003  -1.13940
  Beta  occ. eigenvalues --   -1.13685  -1.13636  -1.13624  -1.13599  -1.13577
  Beta  occ. eigenvalues --   -1.13566  -1.13494  -1.13472  -1.13416  -1.12990
  Beta  occ. eigenvalues --   -1.12970  -1.12907  -1.12446  -1.12428  -1.12383
  Beta  occ. eigenvalues --   -0.17322  -0.13932  -0.10790
  Beta virt. eigenvalues --   -0.07405  -0.06511  -0.05330  -0.03987  -0.02875
  Beta virt. eigenvalues --   -0.02632  -0.02207  -0.01725  -0.01027  -0.00446
  Beta virt. eigenvalues --   -0.00269   0.00151   0.00221   0.00523   0.00597

 Mulliken charges and spin densities:
               1          2
     1  Na  -0.020687   0.468115
     2  Na  -0.465296   0.161992
     3  Na   0.608878   0.287818
     4  Na  -0.783892   0.281588
     5  Na   0.360060  -0.128797
     6  Na   0.196353   0.018091
     7  Na   0.104584  -0.088808
 Sum of Mulliken charges =  -0.00000   1.00000

 Dipole moment (field-independent basis, Debye):
    X=             -0.7262    Y=              0.0241    Z=              0.0570  Tot=              0.7288
 Quadrupole moment (field-independent basis, Debye-Ang):
   XX=            -54.5230   YY=            -72.9822   ZZ=            -69.9977
   XY=              0.0151   XZ=             -2.2359   YZ=             -5.0110

 Normal termination of Gaussian 16 at Fri Dec  8 00:46:58 2023.
