 Gaussian 16, Revision B.01,
 Gaussian 16:  ES64L-G16RevB.01 20-Dec-2017

 -------------------------
 #P B3LYP/6-311+g(d) force
 -------------------------

 -----
 DPGEN
 -----
 Symbolic Z-matrix:
 Charge =  0 Multiplicity = 2

                         Standard orientation:
 ---------------------------------------------------------------------
 Center     Atomic      Atomic             Coordinates (Angstroms)
 Number     Number       Type             X           Y           Z
 ---------------------------------------------------------------------
      1         11           0        0.036261    0.229961    1.746830
      2         11           0       -1.563880    2.319070   -0.172316
      3         11           0        3.060724   -0.893292   -0.014577
      4         11           0       -0.049264   -2.678532    0.174117
      5         11           0       -3.247196   -0.753311    0.036639
      6         11           0        1.749954    2.159809   -0.078849
      7         11           0        0.013401   -0.383704   -1.691844
 ---------------------------------------------------------------------

 SCF Done:  E(UB3LYP) =  -1136.13582335     A.U. after   19 cycles

 The electronic state is 2-A.
 Alpha  occ. eigenvalues --  -38.44405 -38.44124 -38.43280 -38.43237 -38.43194
 Alpha  occ. eigenvalues --  -38.43110 -38.43066  -2.20206  -2.19971  -2.19191
 Alpha  occ. eigenvalues --   -2.19132  -2.19117  -2.19114  -2.19066  -1.13878
 Alpha  occ. eigenvalues --   -1.13864  -1.13847  -1.13645  -1.13633  -1.13614
 Alpha  occ. eigenvalues --   -1.13029  -1.12904  -1.12880  -1.12824  -1.12814
 Alpha  occ. eigenvalues --   -1.12789  -1.12784  -1.12775  -1.12753  -1.12721
 Alpha  occ. eigenvalues --   -1.12713  -1.12699  -1.12694  -1.12667  -1.12654
 Alpha  occ. eigenvalues --   -0.19158  -0.13185  -0.12573  -0.10564
 Alpha virt. eigenvalues --   -0.06006  -0.04955  -0.04453  -0.03061  -0.02832
 Alpha virt. eigenvalues --   -0.02213  -0.01877  -0.01018  -0.00232  -0.00126
 Alpha virt. eigenvalues --    0.00007   0.00338   0.00811   0.00901   0.00929

  Beta  occ. eigenvalues --  -38.44405 -38.44120 -38.43270 -38.43229 -38.43186
  Beta  occ. eigenvalues --  -38.43036 -38.42985  -2.20208  -2.19968  -2.19175
  Beta  occ. eigenvalues --   -2.19122  -2.19106  -2.18980  -2.18919  -1.13869
  Beta  occ. eigenvalues --   -1.13861  -1.13850  -1.13644  -1.13615  -1.13606
  Beta  occ. eigenvalues --   -1.12992  -1.12879  -1.12833  -1.12806  -1.12784
  Beta  occ. eigenvalues --   -1.12772  -1.12767  -1.12738  -1.12711  -1.12687
  Beta  occ. eigenvalues --   -1.12628  -1.12618  -1.12601  -1.12570  -1.12555
  Beta  occ. eigenvalues --   -0.18416  -0.12954  -0.12295
  Beta virt. eigenvalues --   -0.06624  -0.05984  -0.04964  -0.04437  -0.02296
  Beta virt. eigenvalues --   -0.02003  -0.01799  -0.01167  -0.00965  -0.00276
  Beta virt. eigenvalues --   -0.00178   0.00142   0.00363   0.00845   0.00900

 Mulliken charges and spin densities:
               1          2
     1  Na  -0.427643   0.725754
     2  Na   0.137030  -0.077097
     3  Na   0.237837  -0.056170
     4  Na   0.192137  -0.153234
     5  Na   0.052440  -0.101998
     6  Na   0.276753  -0.031548
     7  Na  -0.468555   0.694293
 Sum of Mulliken charges =  -0.00000   1.00000

 Dipole moment (field-independent basis, Debye):
    X=             -0.1628    Y=             -0.2164    Z=              0.0229  Tot=              0.2718
 Quadrupole moment (field-independent basis, Debye-Ang):
   XX=            -51.8495   YY=            -64.6552   ZZ=            -75.3775
   XY=             -0.0555   XZ=             -0.0992   YZ=             -1.3395

 Normal termination of Gaussian 16 at Thu Dec  7 13:47:30 2023.
