 Gaussian 16, Revision B.01,
 Gaussian 16:  ES64L-G16RevB.01 20-Dec-2017

 -------------------------
 #P B3LYP/6-311+g(d) force
 -------------------------

 -----
 DPGEN
 -----
 Symbolic Z-matrix:
 Charge =  0 Multiplicity = 2

                         Standard orientation:
 ---------------------------------------------------------------------
 Center     Atomic      Atomic             Coordinates (Angstroms)
 Number     Number       Type             X           Y           Z
 ---------------------------------------------------------------------
      1         11           0       -2.172595   -3.032115    1.151444
      2         11           0        3.595989   -1.297498   -1.144219
      3         11           0       -2.629509    2.872255   -0.185596
      4         11           0       -3.603472   -0.514679   -0.795312
      5         11           0        3.546660    1.483193    0.928868
      6         11           0        0.901557   -3.074518   -0.089344
      7         11           0        0.361369    3.563361    0.134159
 ---------------------------------------------------------------------

 SCF Done:  E(UB3LYP) =  -1136.10731866     A.U. after   28 cycles

 The electronic state is 2-A.
 Alpha  occ. eigenvalues --  -38.45108 -38.45074 -38.44865 -38.44451 -38.43959
 Alpha  occ. eigenvalues --  -38.43883 -38.43831  -2.20878  -2.20850  -2.20645
 Alpha  occ. eigenvalues --   -2.20261  -2.19772  -2.19697  -2.19639  -1.14543
 Alpha  occ. eigenvalues --   -1.14536  -1.14529  -1.14521  -1.14520  -1.14466
 Alpha  occ. eigenvalues --   -1.14324  -1.14317  -1.14298  -1.13962  -1.13926
 Alpha  occ. eigenvalues --   -1.13909  -1.13426  -1.13423  -1.13401  -1.13359
 Alpha  occ. eigenvalues --   -1.13346  -1.13327  -1.13290  -1.13279  -1.13265
 Alpha  occ. eigenvalues --   -0.15716  -0.13850  -0.13566  -0.10230
 Alpha virt. eigenvalues --   -0.08021  -0.04727  -0.04616  -0.03577  -0.03291
 Alpha virt. eigenvalues --   -0.02272  -0.02219  -0.01646  -0.01377  -0.00915
 Alpha virt. eigenvalues --   -0.00786   0.00071   0.00182   0.00338   0.00730

  Beta  occ. eigenvalues --  -38.45079 -38.45064 -38.44871 -38.44433 -38.43916
  Beta  occ. eigenvalues --  -38.43832 -38.43755  -2.20862  -2.20798  -2.20662
  Beta  occ. eigenvalues --   -2.20237  -2.19696  -2.19601  -2.19497  -1.14536
  Beta  occ. eigenvalues --   -1.14533  -1.14499  -1.14487  -1.14470  -1.14428
  Beta  occ. eigenvalues --   -1.14338  -1.14331  -1.14275  -1.13933  -1.13916
  Beta  occ. eigenvalues --   -1.13862  -1.13374  -1.13373  -1.13338  -1.13293
  Beta  occ. eigenvalues --   -1.13282  -1.13268  -1.13191  -1.13184  -1.13172
  Beta  occ. eigenvalues --   -0.15243  -0.13151  -0.12887
  Beta virt. eigenvalues --   -0.08094  -0.07072  -0.04373  -0.04284  -0.03307
  Beta virt. eigenvalues --   -0.02944  -0.01971  -0.01867  -0.01579  -0.01271
  Beta virt. eigenvalues --   -0.00723  -0.00429   0.00107   0.00242   0.00508

 Mulliken charges and spin densities:
               1          2
     1  Na   0.293991  -0.055617
     2  Na   0.317451   0.016811
     3  Na   0.162995   0.050858
     4  Na  -0.203986   0.393044
     5  Na   0.121813   0.243974
     6  Na  -0.436667   0.205723
     7  Na  -0.255596   0.145207
 Sum of Mulliken charges =  -0.00000   1.00000

 Dipole moment (field-independent basis, Debye):
    X=              0.8552    Y=             -0.2329    Z=              0.2044  Tot=              0.9096
 Quadrupole moment (field-independent basis, Debye-Ang):
   XX=            -65.0654   YY=            -70.4347   ZZ=            -66.6644
   XY=              1.3814   XZ=             -2.3366   YZ=              0.7815

 Normal termination of Gaussian 16 at Mon Dec  4 05:44:13 2023.
