 Gaussian 16, Revision B.01,
 Gaussian 16:  ES64L-G16RevB.01 20-Dec-2017

 -------------------------
 #P B3LYP/6-311+g(d) force
 -------------------------

 -----
 DPGEN
 -----
 Symbolic Z-matrix:
 Charge =  0 Multiplicity = 2

                         Standard orientation:
 ---------------------------------------------------------------------
 Center     Atomic      Atomic             Coordinates (Angstroms)
 Number     Number       Type             X           Y           Z
 ---------------------------------------------------------------------
      1         11           0       -2.412822   -1.555329   -0.417911
      2         11           0       -0.358883   -0.012107    2.112003
      3         11           0        0.943936    2.611848    0.056073
      4         11           0        3.414823   -0.195593   -0.128399
      5         11           0       -2.468837    1.560982   -0.148151
      6         11           0        0.679959   -2.539899    0.139704
      7         11           0        0.201824    0.130098   -1.613318
 ---------------------------------------------------------------------

 SCF Done:  E(UB3LYP) =  -1136.13601510     A.U. after   19 cycles

 The electronic state is 2-A.
 Alpha  occ. eigenvalues --  -38.44441 -38.43679 -38.43578 -38.43440 -38.43275
 Alpha  occ. eigenvalues --  -38.43236 -38.42977  -2.20229  -2.19593  -2.19479
 Alpha  occ. eigenvalues --   -2.19361  -2.19262  -2.19145  -2.18880  -1.13906
 Alpha  occ. eigenvalues --   -1.13879  -1.13873  -1.13265  -1.13234  -1.13214
 Alpha  occ. eigenvalues --   -1.13202  -1.13140  -1.13119  -1.13054  -1.13003
 Alpha  occ. eigenvalues --   -1.12998  -1.12984  -1.12936  -1.12865  -1.12808
 Alpha  occ. eigenvalues --   -1.12790  -1.12746  -1.12568  -1.12548  -1.12491
 Alpha  occ. eigenvalues --   -0.19080  -0.13140  -0.12397  -0.11039
 Alpha virt. eigenvalues --   -0.05919  -0.04806  -0.04322  -0.03207  -0.02922
 Alpha virt. eigenvalues --   -0.02735  -0.01753  -0.00898  -0.00165  -0.00079
 Alpha virt. eigenvalues --    0.00013   0.00338   0.00811   0.00916   0.00960

  Beta  occ. eigenvalues --  -38.44443 -38.43576 -38.43570 -38.43428 -38.43270
  Beta  occ. eigenvalues --  -38.43176 -38.42969  -2.20234  -2.19469  -2.19404
  Beta  occ. eigenvalues --   -2.19342  -2.19155  -2.19138  -2.18869  -1.13897
  Beta  occ. eigenvalues --   -1.13885  -1.13878  -1.13215  -1.13141  -1.13123
  Beta  occ. eigenvalues --   -1.13112  -1.13079  -1.13063  -1.13029  -1.12977
  Beta  occ. eigenvalues --   -1.12962  -1.12950  -1.12868  -1.12792  -1.12782
  Beta  occ. eigenvalues --   -1.12755  -1.12737  -1.12561  -1.12506  -1.12489
  Beta  occ. eigenvalues --   -0.18320  -0.12911  -0.12138
  Beta virt. eigenvalues --   -0.07041  -0.05874  -0.04814  -0.04303  -0.02463
  Beta virt. eigenvalues --   -0.02086  -0.01712  -0.01582  -0.00844  -0.00197
  Beta virt. eigenvalues --   -0.00072   0.00112   0.00364   0.00857   0.00917

 Mulliken charges and spin densities:
               1          2
     1  Na   0.295031   0.060510
     2  Na  -0.620892   0.697735
     3  Na   0.141295  -0.075176
     4  Na   0.032625  -0.085994
     5  Na   0.364705   0.026198
     6  Na   0.241335   0.004171
     7  Na  -0.454099   0.372556
 Sum of Mulliken charges =  -0.00000   1.00000

 Dipole moment (field-independent basis, Debye):
    X=              0.3978    Y=              0.1150    Z=              0.2074  Tot=              0.4631
 Quadrupole moment (field-independent basis, Debye-Ang):
   XX=            -54.4349   YY=            -66.2428   ZZ=            -72.8459
   XY=             -0.1311   XZ=              1.0669   YZ=              0.4612

 Normal termination of Gaussian 16 at Tue Dec  5 19:55:55 2023.
