 Gaussian 16, Revision B.01,
 Gaussian 16:  ES64L-G16RevB.01 20-Dec-2017

 -------------------------
 #P B3LYP/6-311+g(d) force
 -------------------------

 -----
 DPGEN
 -----
 Symbolic Z-matrix:
 Charge =  0 Multiplicity = 2

                         Standard orientation:
 ---------------------------------------------------------------------
 Center     Atomic      Atomic             Coordinates (Angstroms)
 Number     Number       Type             X           Y           Z
 ---------------------------------------------------------------------
      1         11           0       -0.990314    2.921019    0.293504
      2         11           0       -2.981507    0.316511   -0.547727
      3         11           0        2.528960   -2.047635   -0.194770
      4         11           0       -1.596799   -2.699224    0.190669
      5         11           0        0.214957   -0.010543   -1.918710
      6         11           0        2.765472    1.706025   -0.096766
      7         11           0        0.059230   -0.186152    2.273800
 ---------------------------------------------------------------------

 SCF Done:  E(UB3LYP) =  -1136.13484926     A.U. after   19 cycles

 The electronic state is 2-A.
 Alpha  occ. eigenvalues --  -38.44266 -38.44212 -38.44151 -38.43936 -38.43607
 Alpha  occ. eigenvalues --  -38.43597 -38.43422  -2.20088  -2.19988  -2.19929
 Alpha  occ. eigenvalues --   -2.19807  -2.19453  -2.19400  -2.19226  -1.13741
 Alpha  occ. eigenvalues --   -1.13718  -1.13709  -1.13674  -1.13651  -1.13625
 Alpha  occ. eigenvalues --   -1.13615  -1.13588  -1.13561  -1.13482  -1.13437
 Alpha  occ. eigenvalues --   -1.13436  -1.13134  -1.13122  -1.13113  -1.13071
 Alpha  occ. eigenvalues --   -1.13050  -1.13033  -1.12898  -1.12885  -1.12868
 Alpha  occ. eigenvalues --   -0.17890  -0.12786  -0.12081  -0.11086
 Alpha virt. eigenvalues --   -0.05738  -0.05293  -0.04759  -0.03327  -0.03091
 Alpha virt. eigenvalues --   -0.02989  -0.01428  -0.01243  -0.00525  -0.00448
 Alpha virt. eigenvalues --   -0.00081   0.00384   0.00729   0.00781   0.00843

  Beta  occ. eigenvalues --  -38.44211 -38.44165 -38.44149 -38.43870 -38.43597
  Beta  occ. eigenvalues --  -38.43596 -38.43420  -2.19990  -2.19928  -2.19901
  Beta  occ. eigenvalues --   -2.19684  -2.19437  -2.19399  -2.19223  -1.13664
  Beta  occ. eigenvalues --   -1.13652  -1.13625  -1.13617  -1.13602  -1.13593
  Beta  occ. eigenvalues --   -1.13582  -1.13571  -1.13560  -1.13402  -1.13353
  Beta  occ. eigenvalues --   -1.13344  -1.13125  -1.13110  -1.13091  -1.13055
  Beta  occ. eigenvalues --   -1.13049  -1.13030  -1.12891  -1.12875  -1.12865
  Beta  occ. eigenvalues --   -0.17146  -0.12591  -0.11895
  Beta virt. eigenvalues --   -0.07180  -0.05784  -0.05128  -0.04633  -0.02592
  Beta virt. eigenvalues --   -0.02320  -0.02026  -0.01332  -0.01169  -0.00562
  Beta virt. eigenvalues --   -0.00489   0.00070   0.00415   0.00781   0.00860

 Mulliken charges and spin densities:
               1          2
     1  Na  -0.032170  -0.025045
     2  Na   0.183470   0.030587
     3  Na   0.064973  -0.120482
     4  Na   0.046357  -0.063886
     5  Na   0.070769   0.492261
     6  Na   0.040872  -0.092033
     7  Na  -0.374271   0.778598
 Sum of Mulliken charges =  -0.00000   1.00000

 Dipole moment (field-independent basis, Debye):
    X=              0.4916    Y=             -0.1213    Z=              0.0383  Tot=              0.5078
 Quadrupole moment (field-independent basis, Debye-Ang):
   XX=            -59.7878   YY=            -63.1975   ZZ=            -72.2958
   XY=              0.1952   XZ=              0.6374   YZ=              0.3990

 Normal termination of Gaussian 16 at Thu Dec  7 20:15:15 2023.
