 Gaussian 16, Revision B.01,
 Gaussian 16:  ES64L-G16RevB.01 20-Dec-2017

 -------------------------
 #P B3LYP/6-311+g(d) force
 -------------------------

 -----
 DPGEN
 -----
 Symbolic Z-matrix:
 Charge =  0 Multiplicity = 2

                         Standard orientation:
 ---------------------------------------------------------------------
 Center     Atomic      Atomic             Coordinates (Angstroms)
 Number     Number       Type             X           Y           Z
 ---------------------------------------------------------------------
      1         11           0        1.241319    3.188270   -1.592802
      2         11           0        3.007100    0.340095    0.636678
      3         11           0       -2.621905   -0.645562    1.180383
      4         11           0        2.824121   -3.156343   -0.658198
      5         11           0       -5.284056   -0.401579   -0.904274
      6         11           0        0.319251    1.170526    2.308669
      7         11           0        0.514170   -0.495407   -0.970455
 ---------------------------------------------------------------------

 SCF Done:  E(UB3LYP) =  -1136.11057604     A.U. after   24 cycles

 The electronic state is 2-A.
 Alpha  occ. eigenvalues --  -38.45172 -38.44837 -38.44822 -38.44627 -38.43947
 Alpha  occ. eigenvalues --  -38.43786 -38.42971  -2.21034  -2.20704  -2.20586
 Alpha  occ. eigenvalues --   -2.20414  -2.19799  -2.19580  -2.18748  -1.14786
 Alpha  occ. eigenvalues --   -1.14731  -1.14603  -1.14399  -1.14382  -1.14295
 Alpha  occ. eigenvalues --   -1.14241  -1.14240  -1.14210  -1.14068  -1.14058
 Alpha  occ. eigenvalues --   -1.14009  -1.13473  -1.13445  -1.13405  -1.13271
 Alpha  occ. eigenvalues --   -1.13254  -1.13211  -1.12424  -1.12421  -1.12381
 Alpha  occ. eigenvalues --   -0.17393  -0.13278  -0.11714  -0.11257
 Alpha virt. eigenvalues --   -0.07328  -0.05459  -0.04256  -0.03215  -0.02782
 Alpha virt. eigenvalues --   -0.02643  -0.02341  -0.01430  -0.01345  -0.00829
 Alpha virt. eigenvalues --   -0.00392  -0.00224   0.00005   0.00528   0.00590

  Beta  occ. eigenvalues --  -38.45173 -38.44830 -38.44781 -38.44529 -38.43882
  Beta  occ. eigenvalues --  -38.43785 -38.42985  -2.21039  -2.20692  -2.20509
  Beta  occ. eigenvalues --   -2.20231  -2.19679  -2.19583  -2.18774  -1.14792
  Beta  occ. eigenvalues --   -1.14706  -1.14620  -1.14390  -1.14356  -1.14292
  Beta  occ. eigenvalues --   -1.14188  -1.14187  -1.14161  -1.13941  -1.13928
  Beta  occ. eigenvalues --   -1.13891  -1.13391  -1.13363  -1.13324  -1.13279
  Beta  occ. eigenvalues --   -1.13260  -1.13177  -1.12443  -1.12439  -1.12396
  Beta  occ. eigenvalues --   -0.16863  -0.12874  -0.11349
  Beta virt. eigenvalues --   -0.07689  -0.06991  -0.05071  -0.04056  -0.02907
  Beta virt. eigenvalues --   -0.02437  -0.02365  -0.02032  -0.01202  -0.00812
  Beta virt. eigenvalues --   -0.00629  -0.00247  -0.00015   0.00064   0.00594

 Mulliken charges and spin densities:
               1          2
     1  Na  -0.063971   0.370209
     2  Na   0.941087   0.141279
     3  Na   0.080419  -0.048969
     4  Na   0.119564  -0.158713
     5  Na   0.011222   0.239592
     6  Na  -0.130494   0.123769
     7  Na  -0.957827   0.332834
 Sum of Mulliken charges =  -0.00000   1.00000

 Dipole moment (field-independent basis, Debye):
    X=              0.0712    Y=              0.8697    Z=              0.0780  Tot=              0.8760
 Quadrupole moment (field-independent basis, Debye-Ang):
   XX=            -58.3599   YY=            -69.4512   ZZ=            -68.6397
   XY=              1.2062   XZ=              7.7190   YZ=             -1.0681

 Normal termination of Gaussian 16 at Wed Nov 29 01:50:00 2023.
