 Gaussian 16, Revision B.01,
 Gaussian 16:  ES64L-G16RevB.01 20-Dec-2017

 -------------------------
 #P B3LYP/6-311+g(d) force
 -------------------------

 -----
 DPGEN
 -----
 Symbolic Z-matrix:
 Charge =  0 Multiplicity = 2

                         Standard orientation:
 ---------------------------------------------------------------------
 Center     Atomic      Atomic             Coordinates (Angstroms)
 Number     Number       Type             X           Y           Z
 ---------------------------------------------------------------------
      1         11           0       -0.843889    1.387684   -1.570496
      2         11           0       -0.536956    0.394546    2.120517
      3         11           0        2.169343   -0.588741   -1.681819
      4         11           0        2.806496   -1.540752    1.266711
      5         11           0        1.498520    2.809382    0.267621
      6         11           0       -4.132084   -0.128406    0.277962
      7         11           0       -0.961429   -2.333713   -0.680497
 ---------------------------------------------------------------------

 SCF Done:  E(UB3LYP) =  -1136.12537734     A.U. after   20 cycles

 The electronic state is 2-A.
 Alpha  occ. eigenvalues --  -38.44859 -38.44666 -38.44329 -38.44082 -38.43858
 Alpha  occ. eigenvalues --  -38.43619 -38.42955  -2.20592  -2.20471  -2.20099
 Alpha  occ. eigenvalues --   -2.19884  -2.19712  -2.19473  -2.18766  -1.14271
 Alpha  occ. eigenvalues --   -1.14261  -1.14216  -1.14144  -1.14108  -1.14087
 Alpha  occ. eigenvalues --   -1.13797  -1.13785  -1.13693  -1.13595  -1.13531
 Alpha  occ. eigenvalues --   -1.13517  -1.13387  -1.13360  -1.13319  -1.13161
 Alpha  occ. eigenvalues --   -1.13131  -1.13087  -1.12429  -1.12428  -1.12418
 Alpha  occ. eigenvalues --   -0.17656  -0.12753  -0.11543  -0.11503
 Alpha virt. eigenvalues --   -0.06509  -0.04805  -0.04666  -0.03306  -0.03131
 Alpha virt. eigenvalues --   -0.03012  -0.02187  -0.00894  -0.00831  -0.00115
 Alpha virt. eigenvalues --    0.00048   0.00241   0.00280   0.00648   0.00759

  Beta  occ. eigenvalues --  -38.44862 -38.44589 -38.44313 -38.44059 -38.43826
  Beta  occ. eigenvalues --  -38.43579 -38.42957  -2.20599  -2.20329  -2.20071
  Beta  occ. eigenvalues --   -2.19842  -2.19654  -2.19401  -2.18771  -1.14272
  Beta  occ. eigenvalues --   -1.14264  -1.14222  -1.14050  -1.14008  -1.13980
  Beta  occ. eigenvalues --   -1.13775  -1.13752  -1.13677  -1.13567  -1.13496
  Beta  occ. eigenvalues --   -1.13486  -1.13336  -1.13322  -1.13278  -1.13114
  Beta  occ. eigenvalues --   -1.13067  -1.13037  -1.12435  -1.12425  -1.12412
  Beta  occ. eigenvalues --   -0.16848  -0.12664  -0.11389
  Beta virt. eigenvalues --   -0.07596  -0.06358  -0.04677  -0.04084  -0.03113
  Beta virt. eigenvalues --   -0.02441  -0.02239  -0.02023  -0.00847  -0.00458
  Beta virt. eigenvalues --   -0.00050   0.00030   0.00300   0.00383   0.00721

 Mulliken charges and spin densities:
               1          2
     1  Na  -0.116886   0.308072
     2  Na  -0.372270   0.659480
     3  Na   0.211471   0.157274
     4  Na   0.032030   0.038809
     5  Na   0.125639  -0.105884
     6  Na   0.165650  -0.075440
     7  Na  -0.045633   0.017689
 Sum of Mulliken charges =  -0.00000   1.00000

 Dipole moment (field-independent basis, Debye):
    X=             -0.7183    Y=             -0.1728    Z=              0.2508  Tot=              0.7802
 Quadrupole moment (field-independent basis, Debye-Ang):
   XX=            -54.6991   YY=            -73.2562   ZZ=            -67.1901
   XY=              0.5933   XZ=              0.7916   YZ=             -0.0489

 Normal termination of Gaussian 16 at Sun Dec  3 16:44:01 2023.
