 Gaussian 16, Revision B.01,
 Gaussian 16:  ES64L-G16RevB.01 20-Dec-2017

 -------------------------
 #P B3LYP/6-311+g(d) force
 -------------------------

 -----
 DPGEN
 -----
 Symbolic Z-matrix:
 Charge =  0 Multiplicity = 2

                         Standard orientation:
 ---------------------------------------------------------------------
 Center     Atomic      Atomic             Coordinates (Angstroms)
 Number     Number       Type             X           Y           Z
 ---------------------------------------------------------------------
      1         11           0        2.530868    1.917586    0.330627
      2         11           0       -0.794924   -2.721842   -0.545052
      3         11           0       -3.024614   -0.101621    0.630139
      4         11           0       -0.252613   -0.066524    1.785144
      5         11           0        0.059179   -0.100944   -1.682099
      6         11           0       -1.128913    2.710621   -0.679388
      7         11           0        2.611018   -1.637276    0.160629
 ---------------------------------------------------------------------

 SCF Done:  E(UB3LYP) =  -1136.13553100     A.U. after   19 cycles

 The electronic state is 2-A.
 Alpha  occ. eigenvalues --  -38.43824 -38.43785 -38.43778 -38.43564 -38.43484
 Alpha  occ. eigenvalues --  -38.43343 -38.43273  -2.19662  -2.19625  -2.19609
 Alpha  occ. eigenvalues --   -2.19523  -2.19325  -2.19282  -2.19234  -1.13452
 Alpha  occ. eigenvalues --   -1.13306  -1.13303  -1.13297  -1.13290  -1.13281
 Alpha  occ. eigenvalues --   -1.13272  -1.13266  -1.13227  -1.13191  -1.13134
 Alpha  occ. eigenvalues --   -1.13120  -1.13109  -1.13046  -1.12971  -1.12946
 Alpha  occ. eigenvalues --   -1.12927  -1.12881  -1.12871  -1.12835  -1.12816
 Alpha  occ. eigenvalues --   -0.18769  -0.12961  -0.12482  -0.10979
 Alpha virt. eigenvalues --   -0.05281  -0.05247  -0.04616  -0.03252  -0.03018
 Alpha virt. eigenvalues --   -0.02516  -0.01441  -0.01179  -0.00375  -0.00144
 Alpha virt. eigenvalues --    0.00062   0.00343   0.00850   0.00874   0.00899

  Beta  occ. eigenvalues --  -38.43822 -38.43775 -38.43765 -38.43492 -38.43464
  Beta  occ. eigenvalues --  -38.43326 -38.43199  -2.19628  -2.19622  -2.19607
  Beta  occ. eigenvalues --   -2.19391  -2.19291  -2.19212  -2.19143  -1.13402
  Beta  occ. eigenvalues --   -1.13303  -1.13294  -1.13278  -1.13270  -1.13265
  Beta  occ. eigenvalues --   -1.13258  -1.13256  -1.13220  -1.13108  -1.13055
  Beta  occ. eigenvalues --   -1.13039  -1.13026  -1.13002  -1.12938  -1.12926
  Beta  occ. eigenvalues --   -1.12856  -1.12833  -1.12823  -1.12783  -1.12742
  Beta  occ. eigenvalues --   -0.18082  -0.12664  -0.12186
  Beta virt. eigenvalues --   -0.07103  -0.05270  -0.05156  -0.04557  -0.02513
  Beta virt. eigenvalues --   -0.02293  -0.01511  -0.01313  -0.01103  -0.00334
  Beta virt. eigenvalues --   -0.00162   0.00147   0.00382   0.00868   0.00909

 Mulliken charges and spin densities:
               1          2
     1  Na  -0.159924  -0.037410
     2  Na   0.176317  -0.005564
     3  Na   0.182038   0.087897
     4  Na  -0.094029   0.551689
     5  Na   0.090867   0.461145
     6  Na  -0.087983  -0.003473
     7  Na  -0.107286  -0.054284
 Sum of Mulliken charges =  -0.00000   1.00000

 Dipole moment (field-independent basis, Debye):
    X=              0.1418    Y=              0.0184    Z=              0.1465  Tot=              0.2047
 Quadrupole moment (field-independent basis, Debye-Ang):
   XX=            -57.6164   YY=            -61.9209   ZZ=            -73.7056
   XY=             -0.0638   XZ=              0.8056   YZ=             -0.1253

 Normal termination of Gaussian 16 at Sun Dec  3 22:06:18 2023.
