 Gaussian 16, Revision B.01,
 Gaussian 16:  ES64L-G16RevB.01 20-Dec-2017

 -------------------------
 #P B3LYP/6-311+g(d) force
 -------------------------

 -----
 DPGEN
 -----
 Symbolic Z-matrix:
 Charge =  0 Multiplicity = 2

                         Standard orientation:
 ---------------------------------------------------------------------
 Center     Atomic      Atomic             Coordinates (Angstroms)
 Number     Number       Type             X           Y           Z
 ---------------------------------------------------------------------
      1         11           0       -3.208871    0.250685   -0.395319
      2         11           0        3.010221    0.833882   -0.205060
      3         11           0        2.298943   -2.237071   -0.299708
      4         11           0       -0.158988   -0.066076    2.044780
      5         11           0       -1.530170   -2.521709    0.132719
      6         11           0       -0.349734    0.701783   -1.690761
      7         11           0       -0.061400    3.038507    0.413349
 ---------------------------------------------------------------------

 SCF Done:  E(UB3LYP) =  -1136.13411984     A.U. after   19 cycles

 The electronic state is 2-A.
 Alpha  occ. eigenvalues --  -38.44251 -38.44056 -38.43726 -38.43595 -38.43582
 Alpha  occ. eigenvalues --  -38.43571 -38.43470  -2.20103  -2.19887  -2.19605
 Alpha  occ. eigenvalues --   -2.19500  -2.19423  -2.19407  -2.19315  -1.13804
 Alpha  occ. eigenvalues --   -1.13750  -1.13738  -1.13578  -1.13557  -1.13518
 Alpha  occ. eigenvalues --   -1.13275  -1.13241  -1.13230  -1.13197  -1.13151
 Alpha  occ. eigenvalues --   -1.13131  -1.13093  -1.13085  -1.13076  -1.13070
 Alpha  occ. eigenvalues --   -1.13062  -1.13040  -1.12974  -1.12965  -1.12941
 Alpha  occ. eigenvalues --   -0.18324  -0.13189  -0.12350  -0.10812
 Alpha virt. eigenvalues --   -0.05759  -0.05145  -0.04853  -0.03254  -0.03032
 Alpha virt. eigenvalues --   -0.02552  -0.01623  -0.01099  -0.00477  -0.00445
 Alpha virt. eigenvalues --   -0.00033   0.00348   0.00818   0.00828   0.00853

  Beta  occ. eigenvalues --  -38.44237 -38.44051 -38.43629 -38.43593 -38.43577
  Beta  occ. eigenvalues --  -38.43518 -38.43459  -2.20079  -2.19878  -2.19428
  Beta  occ. eigenvalues --   -2.19418  -2.19406  -2.19401  -2.19298  -1.13778
  Beta  occ. eigenvalues --   -1.13730  -1.13715  -1.13573  -1.13539  -1.13511
  Beta  occ. eigenvalues --   -1.13168  -1.13142  -1.13119  -1.13109  -1.13090
  Beta  occ. eigenvalues --   -1.13077  -1.13071  -1.13067  -1.13060  -1.13054
  Beta  occ. eigenvalues --   -1.13047  -1.13034  -1.12950  -1.12936  -1.12929
  Beta  occ. eigenvalues --   -0.17630  -0.12920  -0.12135
  Beta virt. eigenvalues --   -0.06960  -0.05677  -0.05114  -0.04737  -0.02528
  Beta virt. eigenvalues --   -0.02295  -0.01572  -0.01508  -0.01020  -0.00511
  Beta virt. eigenvalues --   -0.00465   0.00119   0.00404   0.00835   0.00865

 Mulliken charges and spin densities:
               1          2
     1  Na   0.293560  -0.021740
     2  Na   0.083171   0.006546
     3  Na  -0.177300  -0.039971
     4  Na  -0.200041   0.647184
     5  Na  -0.058857  -0.008931
     6  Na  -0.013901   0.480450
     7  Na   0.073368  -0.063538
 Sum of Mulliken charges =  -0.00000   1.00000

 Dipole moment (field-independent basis, Debye):
    X=             -0.2478    Y=              0.1880    Z=              0.0588  Tot=              0.3165
 Quadrupole moment (field-independent basis, Debye-Ang):
   XX=            -58.5030   YY=            -62.7657   ZZ=            -73.9086
   XY=              0.6287   XZ=             -0.1969   YZ=              1.5222

 Normal termination of Gaussian 16 at Tue Dec  5 14:15:03 2023.
