 Gaussian 16, Revision B.01,
 Gaussian 16:  ES64L-G16RevB.01 20-Dec-2017

 -------------------------
 #P B3LYP/6-311+g(d) force
 -------------------------

 -----
 DPGEN
 -----
 Symbolic Z-matrix:
 Charge =  0 Multiplicity = 2

                         Standard orientation:
 ---------------------------------------------------------------------
 Center     Atomic      Atomic             Coordinates (Angstroms)
 Number     Number       Type             X           Y           Z
 ---------------------------------------------------------------------
      1         11           0        2.507761   -1.571636    0.282441
      2         11           0       -2.998004    0.378815   -0.262614
      3         11           0        0.083943   -0.161383   -1.679892
      4         11           0       -1.270005   -2.536900   -0.244003
      5         11           0       -0.906218    2.543238    0.356429
      6         11           0       -0.038911   -0.240583    2.029254
      7         11           0        2.621434    1.588448   -0.481615
 ---------------------------------------------------------------------

 SCF Done:  E(UB3LYP) =  -1136.13610760     A.U. after   19 cycles

 The electronic state is 2-A.
 Alpha  occ. eigenvalues --  -38.43969 -38.43856 -38.43726 -38.43711 -38.43339
 Alpha  occ. eigenvalues --  -38.43118 -38.42959  -2.19863  -2.19726  -2.19638
 Alpha  occ. eigenvalues --   -2.19580  -2.19348  -2.19010  -2.18856  -1.13558
 Alpha  occ. eigenvalues --   -1.13520  -1.13506  -1.13430  -1.13405  -1.13368
 Alpha  occ. eigenvalues --   -1.13301  -1.13269  -1.13264  -1.13253  -1.13220
 Alpha  occ. eigenvalues --   -1.13208  -1.13049  -1.13000  -1.12965  -1.12687
 Alpha  occ. eigenvalues --   -1.12667  -1.12624  -1.12538  -1.12518  -1.12484
 Alpha  occ. eigenvalues --   -0.19086  -0.13404  -0.12253  -0.11161
 Alpha virt. eigenvalues --   -0.05581  -0.05113  -0.04219  -0.03463  -0.02914
 Alpha virt. eigenvalues --   -0.02767  -0.01514  -0.00987  -0.00146  -0.00057
 Alpha virt. eigenvalues --    0.00061   0.00367   0.00810   0.00907   0.00955

  Beta  occ. eigenvalues --  -38.43964 -38.43848 -38.43717 -38.43615 -38.43273
  Beta  occ. eigenvalues --  -38.43111 -38.42951  -2.19856  -2.19715  -2.19565
  Beta  occ. eigenvalues --   -2.19462  -2.19228  -2.19000  -2.18844  -1.13558
  Beta  occ. eigenvalues --   -1.13506  -1.13489  -1.13421  -1.13367  -1.13363
  Beta  occ. eigenvalues --   -1.13245  -1.13206  -1.13200  -1.13187  -1.13141
  Beta  occ. eigenvalues --   -1.13128  -1.12970  -1.12916  -1.12879  -1.12671
  Beta  occ. eigenvalues --   -1.12647  -1.12610  -1.12532  -1.12497  -1.12465
  Beta  occ. eigenvalues --   -0.18345  -0.13137  -0.11982
  Beta virt. eigenvalues --   -0.07212  -0.05535  -0.05084  -0.04206  -0.02655
  Beta virt. eigenvalues --   -0.02129  -0.01692  -0.01417  -0.00921  -0.00140
  Beta virt. eigenvalues --   -0.00062   0.00124   0.00391   0.00886   0.00902

 Mulliken charges and spin densities:
               1          2
     1  Na   0.236248  -0.009042
     2  Na   0.104862  -0.034944
     3  Na  -0.335254   0.422699
     4  Na   0.244063  -0.053232
     5  Na   0.158201   0.038337
     6  Na  -0.438360   0.642056
     7  Na   0.030241  -0.005875
 Sum of Mulliken charges =  -0.00000   1.00000

 Dipole moment (field-independent basis, Debye):
    X=              0.1509    Y=             -0.1393    Z=              0.1133  Tot=              0.2346
 Quadrupole moment (field-independent basis, Debye-Ang):
   XX=            -56.3841   YY=            -65.7314   ZZ=            -72.4020
   XY=              0.3069   XZ=              0.4046   YZ=             -0.3868

 Normal termination of Gaussian 16 at Thu Dec  7 11:15:38 2023.
