 Gaussian 16, Revision B.01,
 Gaussian 16:  ES64L-G16RevB.01 20-Dec-2017

 -------------------------
 #P B3LYP/6-311+g(d) force
 -------------------------

 -----
 DPGEN
 -----
 Symbolic Z-matrix:
 Charge =  0 Multiplicity = 2

                         Standard orientation:
 ---------------------------------------------------------------------
 Center     Atomic      Atomic             Coordinates (Angstroms)
 Number     Number       Type             X           Y           Z
 ---------------------------------------------------------------------
      1         11           0       -0.165170   -1.773581   -0.586156
      2         11           0        2.951197   -3.285714    0.035319
      3         11           0        3.012308   -0.052675    0.198792
      4         11           0        2.951287    3.506485   -0.465088
      5         11           0       -0.223350    1.881450    0.673500
      6         11           0       -2.868591   -0.690989    0.550645
      7         11           0       -5.657680    0.415023   -0.407011
 ---------------------------------------------------------------------

 SCF Done:  E(UB3LYP) =  -1136.12415160     A.U. after   19 cycles

 The electronic state is 2-A.
 Alpha  occ. eigenvalues --  -38.44788 -38.44410 -38.44155 -38.44123 -38.43973
 Alpha  occ. eigenvalues --  -38.43594 -38.43264  -2.20571  -2.20240  -2.20021
 Alpha  occ. eigenvalues --   -2.19895  -2.19818  -2.19422  -2.19150  -1.14273
 Alpha  occ. eigenvalues --   -1.14258  -1.14154  -1.13885  -1.13861  -1.13858
 Alpha  occ. eigenvalues --   -1.13713  -1.13688  -1.13645  -1.13566  -1.13563
 Alpha  occ. eigenvalues --   -1.13522  -1.13516  -1.13511  -1.13416  -1.13083
 Alpha  occ. eigenvalues --   -1.13074  -1.13045  -1.12849  -1.12813  -1.12792
 Alpha  occ. eigenvalues --   -0.16908  -0.14063  -0.12502  -0.11045
 Alpha virt. eigenvalues --   -0.06177  -0.05248  -0.04774  -0.03770  -0.02624
 Alpha virt. eigenvalues --   -0.02403  -0.01870  -0.01532  -0.01192  -0.00817
 Alpha virt. eigenvalues --   -0.00484  -0.00054   0.00299   0.00475   0.00633

  Beta  occ. eigenvalues --  -38.44767 -38.44294 -38.44123 -38.44112 -38.43956
  Beta  occ. eigenvalues --  -38.43576 -38.43254  -2.20533  -2.20023  -2.19964
  Beta  occ. eigenvalues --   -2.19874  -2.19788  -2.19388  -2.19143  -1.14248
  Beta  occ. eigenvalues --   -1.14230  -1.14122  -1.13743  -1.13713  -1.13711
  Beta  occ. eigenvalues --   -1.13677  -1.13647  -1.13596  -1.13551  -1.13546
  Beta  occ. eigenvalues --   -1.13505  -1.13500  -1.13486  -1.13391  -1.13055
  Beta  occ. eigenvalues --   -1.13049  -1.13027  -1.12832  -1.12810  -1.12736
  Beta  occ. eigenvalues --   -0.16354  -0.13179  -0.12400
  Beta virt. eigenvalues --   -0.07500  -0.05893  -0.05123  -0.04376  -0.03404
  Beta virt. eigenvalues --   -0.02416  -0.02076  -0.01748  -0.01297  -0.00746
  Beta virt. eigenvalues --   -0.00563  -0.00070   0.00151   0.00418   0.00606

 Mulliken charges and spin densities:
               1          2
     1  Na  -0.843849  -0.035108
     2  Na   0.929777   0.124218
     3  Na  -0.828644   0.255472
     4  Na   0.570396   0.049005
     5  Na  -0.183012   0.047451
     6  Na   0.144306   0.024816
     7  Na   0.211026   0.534145
 Sum of Mulliken charges =  -0.00000   1.00000

 Dipole moment (field-independent basis, Debye):
    X=              0.6720    Y=              0.4058    Z=             -0.1937  Tot=              0.8086
 Quadrupole moment (field-independent basis, Debye-Ang):
   XX=            -67.7607   YY=            -59.9601   ZZ=            -70.6247
   XY=             -0.6842   XZ=              0.3383   YZ=             -1.0914

 Normal termination of Gaussian 16 at Tue Nov 28 20:33:48 2023.
