 Gaussian 16, Revision B.01,
 Gaussian 16:  ES64L-G16RevB.01 20-Dec-2017

 -------------------------
 #P B3LYP/6-311+g(d) force
 -------------------------

 -----
 DPGEN
 -----
 Symbolic Z-matrix:
 Charge =  0 Multiplicity = 2

                         Standard orientation:
 ---------------------------------------------------------------------
 Center     Atomic      Atomic             Coordinates (Angstroms)
 Number     Number       Type             X           Y           Z
 ---------------------------------------------------------------------
      1         11           0        0.966114   -1.965841   -0.114080
      2         11           0        4.189027   -2.628939   -0.543700
      3         11           0        3.476383    0.639659    0.804495
      4         11           0        1.747278    3.737752   -0.625895
      5         11           0       -0.304633    1.246555    0.349656
      6         11           0       -3.501249   -0.725234    0.534736
      7         11           0       -6.572921   -0.303951   -0.405212
 ---------------------------------------------------------------------

 SCF Done:  E(UB3LYP) =  -1136.12198215     A.U. after   20 cycles

 The electronic state is 2-A.
 Alpha  occ. eigenvalues --  -38.45263 -38.44526 -38.44227 -38.44077 -38.44063
 Alpha  occ. eigenvalues --  -38.43765 -38.43347  -2.21054  -2.20357  -2.20033
 Alpha  occ. eigenvalues --   -2.19867  -2.19865  -2.19612  -2.19130  -1.14761
 Alpha  occ. eigenvalues --   -1.14733  -1.14633  -1.14045  -1.14042  -1.13960
 Alpha  occ. eigenvalues --   -1.13696  -1.13693  -1.13658  -1.13536  -1.13529
 Alpha  occ. eigenvalues --   -1.13504  -1.13503  -1.13500  -1.13491  -1.13306
 Alpha  occ. eigenvalues --   -1.13303  -1.13199  -1.12819  -1.12815  -1.12771
 Alpha  occ. eigenvalues --   -0.16769  -0.13531  -0.12577  -0.11138
 Alpha virt. eigenvalues --   -0.06326  -0.05492  -0.04557  -0.03858  -0.02513
 Alpha virt. eigenvalues --   -0.02403  -0.02010  -0.01960  -0.01131  -0.00922
 Alpha virt. eigenvalues --   -0.00346  -0.00209   0.00085   0.00378   0.00616

  Beta  occ. eigenvalues --  -38.45234 -38.44486 -38.44216 -38.44061 -38.43982
  Beta  occ. eigenvalues --  -38.43730 -38.43357  -2.21000  -2.20286  -2.20013
  Beta  occ. eigenvalues --   -2.19837  -2.19716  -2.19553  -2.19155  -1.14719
  Beta  occ. eigenvalues --   -1.14697  -1.14591  -1.13998  -1.13997  -1.13894
  Beta  occ. eigenvalues --   -1.13682  -1.13675  -1.13644  -1.13516  -1.13509
  Beta  occ. eigenvalues --   -1.13470  -1.13405  -1.13400  -1.13400  -1.13267
  Beta  occ. eigenvalues --   -1.13263  -1.13140  -1.12843  -1.12839  -1.12734
  Beta  occ. eigenvalues --   -0.16162  -0.12949  -0.12243
  Beta virt. eigenvalues --   -0.07766  -0.06165  -0.04950  -0.04164  -0.03666
  Beta virt. eigenvalues --   -0.02390  -0.02139  -0.01781  -0.01477  -0.01015
  Beta virt. eigenvalues --   -0.00630  -0.00109  -0.00018   0.00284   0.00495

 Mulliken charges and spin densities:
               1          2
     1  Na  -1.088126   0.127435
     2  Na   1.275296   0.258247
     3  Na  -0.060000   0.270718
     4  Na   0.797934   0.158772
     5  Na  -0.956039   0.119986
     6  Na  -0.223585  -0.333981
     7  Na   0.254520   0.398823
 Sum of Mulliken charges =  -0.00000   1.00000

 Dipole moment (field-independent basis, Debye):
    X=              2.0571    Y=              0.0638    Z=             -0.4453  Tot=              2.1057
 Quadrupole moment (field-independent basis, Debye-Ang):
   XX=            -59.9300   YY=            -63.4235   ZZ=            -70.4762
   XY=             -3.6343   XZ=              1.7490   YZ=             -0.3979

 Normal termination of Gaussian 16 at Tue Nov 28 18:56:41 2023.
