 Gaussian 16, Revision B.01,
 Gaussian 16:  ES64L-G16RevB.01 20-Dec-2017

 -------------------------
 #P B3LYP/6-311+g(d) force
 -------------------------

 -----
 DPGEN
 -----
 Symbolic Z-matrix:
 Charge =  0 Multiplicity = 2

                         Standard orientation:
 ---------------------------------------------------------------------
 Center     Atomic      Atomic             Coordinates (Angstroms)
 Number     Number       Type             X           Y           Z
 ---------------------------------------------------------------------
      1         11           0       -0.665706    2.411236    1.911908
      2         11           0       -0.032989    1.791459   -2.319388
      3         11           0        4.307151   -0.354460    0.088227
      4         11           0        1.434606   -0.387305   -0.091478
      5         11           0       -2.489155    0.719785   -0.290394
      6         11           0       -1.580262   -2.419542   -1.495661
      7         11           0       -0.973646   -1.761173    2.196786
 ---------------------------------------------------------------------

 SCF Done:  E(UB3LYP) =  -1136.11694297     A.U. after   27 cycles

 The electronic state is 2-A.
 Alpha  occ. eigenvalues --  -38.44764 -38.44718 -38.44570 -38.44219 -38.43821
 Alpha  occ. eigenvalues --  -38.43674 -38.42441  -2.20565  -2.20527  -2.20358
 Alpha  occ. eigenvalues --   -2.20016  -2.19703  -2.19483  -2.18371  -1.14230
 Alpha  occ. eigenvalues --   -1.14215  -1.14203  -1.14175  -1.14170  -1.14139
 Alpha  occ. eigenvalues --   -1.14038  -1.14010  -1.13970  -1.13686  -1.13679
 Alpha  occ. eigenvalues --   -1.13627  -1.13403  -1.13381  -1.13310  -1.13226
 Alpha  occ. eigenvalues --   -1.13120  -1.13112  -1.12064  -1.12031  -1.11997
 Alpha  occ. eigenvalues --   -0.17862  -0.12247  -0.12101  -0.11746
 Alpha virt. eigenvalues --   -0.06174  -0.05306  -0.04476  -0.03188  -0.03074
 Alpha virt. eigenvalues --   -0.02876  -0.01595  -0.01220  -0.00976  -0.00050
 Alpha virt. eigenvalues --   -0.00027   0.00219   0.00398   0.00550   0.00706

  Beta  occ. eigenvalues --  -38.44702 -38.44668 -38.44534 -38.44187 -38.43810
  Beta  occ. eigenvalues --  -38.43684 -38.42431  -2.20451  -2.20434  -2.20292
  Beta  occ. eigenvalues --   -2.19956  -2.19689  -2.19500  -2.18356  -1.14150
  Beta  occ. eigenvalues --   -1.14138  -1.14133  -1.14101  -1.14094  -1.14078
  Beta  occ. eigenvalues --   -1.13991  -1.13961  -1.13921  -1.13644  -1.13632
  Beta  occ. eigenvalues --   -1.13587  -1.13380  -1.13340  -1.13310  -1.13237
  Beta  occ. eigenvalues --   -1.13132  -1.13123  -1.12034  -1.12018  -1.11992
  Beta  occ. eigenvalues --   -0.17000  -0.12077  -0.11553
  Beta virt. eigenvalues --   -0.08310  -0.05850  -0.04730  -0.04185  -0.02842
  Beta virt. eigenvalues --   -0.02521  -0.02360  -0.01560  -0.00974  -0.00646
  Beta virt. eigenvalues --    0.00005   0.00100   0.00261   0.00418   0.00692

 Mulliken charges and spin densities:
               1          2
     1  Na  -0.069082   0.432066
     2  Na   0.101444   0.310785
     3  Na  -0.559780  -0.363358
     4  Na  -1.285002  -0.098943
     5  Na   1.116898   0.013548
     6  Na   0.509614   0.316815
     7  Na   0.185908   0.389087
 Sum of Mulliken charges =  -0.00000   1.00000

 Dipole moment (field-independent basis, Debye):
    X=             -0.7000    Y=              0.3429    Z=              0.1109  Tot=              0.7873
 Quadrupole moment (field-independent basis, Debye-Ang):
   XX=            -66.1385   YY=            -69.4819   ZZ=            -58.6454
   XY=              2.1314   XZ=              0.8165   YZ=              1.8381

 Normal termination of Gaussian 16 at Mon Dec  4 01:04:21 2023.
