 Gaussian 16, Revision B.01,
 Gaussian 16:  ES64L-G16RevB.01 20-Dec-2017

 -------------------------
 #P B3LYP/6-311+g(d) force
 -------------------------

 -----
 DPGEN
 -----
 Symbolic Z-matrix:
 Charge =  0 Multiplicity = 2

                         Standard orientation:
 ---------------------------------------------------------------------
 Center     Atomic      Atomic             Coordinates (Angstroms)
 Number     Number       Type             X           Y           Z
 ---------------------------------------------------------------------
      1         11           0       -2.241807    2.208475    0.105808
      2         11           0        1.252950    2.222620    0.150542
      3         11           0        0.530230    0.067716   -1.726622
      4         11           0        0.501671   -2.484968    0.225375
      5         11           0        3.198698   -0.267846   -0.109104
      6         11           0       -2.995099   -1.383684   -0.558120
      7         11           0       -0.246643   -0.362313    1.912121
 ---------------------------------------------------------------------

 SCF Done:  E(UB3LYP) =  -1136.12757893     A.U. after   19 cycles

 The electronic state is 2-A.
 Alpha  occ. eigenvalues --  -38.44400 -38.44234 -38.43694 -38.43660 -38.43618
 Alpha  occ. eigenvalues --  -38.43131 -38.43100  -2.20182  -2.20128  -2.19701
 Alpha  occ. eigenvalues --   -2.19587  -2.19464  -2.19080  -2.19050  -1.13856
 Alpha  occ. eigenvalues --   -1.13836  -1.13831  -1.13819  -1.13796  -1.13754
 Alpha  occ. eigenvalues --   -1.13434  -1.13404  -1.13359  -1.13290  -1.13219
 Alpha  occ. eigenvalues --   -1.13171  -1.13137  -1.13120  -1.13110  -1.12755
 Alpha  occ. eigenvalues --   -1.12750  -1.12734  -1.12701  -1.12652  -1.12648
 Alpha  occ. eigenvalues --   -0.19066  -0.13260  -0.12303  -0.10917
 Alpha virt. eigenvalues --   -0.05947  -0.05236  -0.04083  -0.03410  -0.02867
 Alpha virt. eigenvalues --   -0.02481  -0.01841  -0.01028  -0.00166  -0.00059
 Alpha virt. eigenvalues --   -0.00001   0.00306   0.00748   0.00883   0.00922

  Beta  occ. eigenvalues --  -38.44386 -38.44229 -38.43661 -38.43630 -38.43529
  Beta  occ. eigenvalues --  -38.43117 -38.43090  -2.20156  -2.20123  -2.19583
  Beta  occ. eigenvalues --   -2.19467  -2.19425  -2.19059  -2.19036  -1.13828
  Beta  occ. eigenvalues --   -1.13826  -1.13815  -1.13803  -1.13785  -1.13737
  Beta  occ. eigenvalues --   -1.13354  -1.13307  -1.13274  -1.13202  -1.13133
  Beta  occ. eigenvalues --   -1.13128  -1.13111  -1.13099  -1.13050  -1.12738
  Beta  occ. eigenvalues --   -1.12732  -1.12677  -1.12669  -1.12638  -1.12635
  Beta  occ. eigenvalues --   -0.18332  -0.13006  -0.12031
  Beta virt. eigenvalues --   -0.07034  -0.05817  -0.05219  -0.04062  -0.02675
  Beta virt. eigenvalues --   -0.02081  -0.01715  -0.01485  -0.00971  -0.00165
  Beta virt. eigenvalues --   -0.00074   0.00109   0.00347   0.00812   0.00889

 Mulliken charges and spin densities:
               1          2
     1  Na  -0.109318  -0.096991
     2  Na   0.162430  -0.034110
     3  Na  -0.547359   0.605220
     4  Na   0.434084   0.009300
     5  Na   0.557401   0.008350
     6  Na  -0.115014   0.029672
     7  Na  -0.382225   0.478558
 Sum of Mulliken charges =  -0.00000   1.00000

 Dipole moment (field-independent basis, Debye):
    X=             -0.1586    Y=             -0.1142    Z=             -0.0623  Tot=              0.2051
 Quadrupole moment (field-independent basis, Debye-Ang):
   XX=            -52.6860   YY=            -67.6993   ZZ=            -73.1510
   XY=             -0.3712   XZ=              1.6502   YZ=              1.4335

 Normal termination of Gaussian 16 at Fri Dec  8 04:20:43 2023.
