 Gaussian 16, Revision B.01,
 Gaussian 16:  ES64L-G16RevB.01 20-Dec-2017

 -------------------------
 #P B3LYP/6-311+g(d) force
 -------------------------

 -----
 DPGEN
 -----
 Symbolic Z-matrix:
 Charge =  0 Multiplicity = 2

                         Standard orientation:
 ---------------------------------------------------------------------
 Center     Atomic      Atomic             Coordinates (Angstroms)
 Number     Number       Type             X           Y           Z
 ---------------------------------------------------------------------
      1         11           0        3.814645    0.478192   -0.599568
      2         11           0        1.247286    2.695378   -0.132607
      3         11           0       -4.460570   -0.201765    0.581833
      4         11           0        1.718161   -2.089809   -1.077130
      5         11           0       -2.693666    2.040054   -0.682924
      6         11           0       -1.571806   -2.469186   -0.381329
      7         11           0        1.945950   -0.452864    2.291726
 ---------------------------------------------------------------------

 SCF Done:  E(UB3LYP) =  -1136.10923543     A.U. after   31 cycles

 The electronic state is 2-A.
 Alpha  occ. eigenvalues --  -38.45488 -38.45230 -38.44858 -38.44625 -38.44371
 Alpha  occ. eigenvalues --  -38.43600 -38.43545  -2.21279  -2.21054  -2.20633
 Alpha  occ. eigenvalues --   -2.20381  -2.20125  -2.19435  -2.19373  -1.14966
 Alpha  occ. eigenvalues --   -1.14939  -1.14912  -1.14725  -1.14716  -1.14698
 Alpha  occ. eigenvalues --   -1.14307  -1.14294  -1.14274  -1.14058  -1.14055
 Alpha  occ. eigenvalues --   -1.14014  -1.13817  -1.13804  -1.13755  -1.13086
 Alpha  occ. eigenvalues --   -1.13061  -1.13049  -1.13045  -1.13020  -1.13017
 Alpha  occ. eigenvalues --   -0.16820  -0.14380  -0.11971  -0.10029
 Alpha virt. eigenvalues --   -0.07661  -0.06634  -0.03991  -0.03575  -0.03081
 Alpha virt. eigenvalues --   -0.02487  -0.02239  -0.02056  -0.01191  -0.00597
 Alpha virt. eigenvalues --   -0.00376  -0.00185   0.00186   0.00320   0.00604

  Beta  occ. eigenvalues --  -38.45487 -38.45214 -38.44859 -38.44614 -38.44377
  Beta  occ. eigenvalues --  -38.43516 -38.43480  -2.21276  -2.21029  -2.20635
  Beta  occ. eigenvalues --   -2.20362  -2.20138  -2.19321  -2.19212  -1.14966
  Beta  occ. eigenvalues --   -1.14936  -1.14911  -1.14708  -1.14695  -1.14656
  Beta  occ. eigenvalues --   -1.14307  -1.14296  -1.14273  -1.14046  -1.14027
  Beta  occ. eigenvalues --   -1.14001  -1.13824  -1.13810  -1.13761  -1.13011
  Beta  occ. eigenvalues --   -1.12989  -1.12973  -1.12933  -1.12901  -1.12896
  Beta  occ. eigenvalues --   -0.16286  -0.14230  -0.11813
  Beta virt. eigenvalues --   -0.07493  -0.06566  -0.06028  -0.03811  -0.03427
  Beta virt. eigenvalues --   -0.02935  -0.02222  -0.01783  -0.01280  -0.01038
  Beta virt. eigenvalues --   -0.00370  -0.00235  -0.00015   0.00407   0.00481

 Mulliken charges and spin densities:
               1          2
     1  Na   0.831868   0.279751
     2  Na  -0.365809   0.038321
     3  Na   0.347872  -0.000125
     4  Na  -0.040889   0.130001
     5  Na  -0.177862  -0.034311
     6  Na  -0.377426  -0.023524
     7  Na  -0.217755   0.609887
 Sum of Mulliken charges =  -0.00000   1.00000

 Dipole moment (field-independent basis, Debye):
    X=             -1.2945    Y=              0.3994    Z=             -0.1653  Tot=              1.3647
 Quadrupole moment (field-independent basis, Debye-Ang):
   XX=            -47.4723   YY=            -72.7691   ZZ=            -78.4099
   XY=              2.5531   XZ=             -5.2970   YZ=             -1.2898

 Normal termination of Gaussian 16 at Mon Dec  4 04:23:02 2023.
