 Gaussian 16, Revision B.01,
 Gaussian 16:  ES64L-G16RevB.01 20-Dec-2017

 -------------------------
 #P B3LYP/6-311+g(d) force
 -------------------------

 -----
 DPGEN
 -----
 Symbolic Z-matrix:
 Charge =  0 Multiplicity = 2

                         Standard orientation:
 ---------------------------------------------------------------------
 Center     Atomic      Atomic             Coordinates (Angstroms)
 Number     Number       Type             X           Y           Z
 ---------------------------------------------------------------------
      1         11           0        0.128958    1.257681   -1.070144
      2         11           0        1.522389   -0.216117    1.618594
      3         11           0       -2.317686    1.887895   -0.006176
      4         11           0       -4.608386   -0.490174   -0.073635
      5         11           0       -1.538120   -1.514320    0.594366
      6         11           0        2.229502   -1.781637   -1.319777
      7         11           0        4.583343    0.856672    0.256772
 ---------------------------------------------------------------------

 SCF Done:  E(UB3LYP) =  -1136.10374549     A.U. after   33 cycles

 The electronic state is 2-A.
 Alpha  occ. eigenvalues --  -38.45907 -38.45679 -38.44955 -38.43860 -38.43251
 Alpha  occ. eigenvalues --  -38.43104 -38.42887  -2.21775  -2.21461  -2.20767
 Alpha  occ. eigenvalues --   -2.19708  -2.19113  -2.19050  -2.18850  -1.15462
 Alpha  occ. eigenvalues --   -1.15438  -1.15399  -1.15159  -1.15106  -1.15092
 Alpha  occ. eigenvalues --   -1.14424  -1.14391  -1.14370  -1.13362  -1.13348
 Alpha  occ. eigenvalues --   -1.13340  -1.12996  -1.12832  -1.12794  -1.12733
 Alpha  occ. eigenvalues --   -1.12690  -1.12648  -1.12479  -1.12459  -1.12394
 Alpha  occ. eigenvalues --   -0.18249  -0.14825  -0.11415  -0.10465
 Alpha virt. eigenvalues --   -0.07803  -0.05212  -0.04667  -0.03613  -0.02786
 Alpha virt. eigenvalues --   -0.02126  -0.02058  -0.01552  -0.01336  -0.01026
 Alpha virt. eigenvalues --   -0.00137   0.00144   0.00265   0.00453   0.00722

  Beta  occ. eigenvalues --  -38.45889 -38.45683 -38.44852 -38.43794 -38.43247
  Beta  occ. eigenvalues --  -38.43093 -38.42864  -2.21748  -2.21472  -2.20575
  Beta  occ. eigenvalues --   -2.19585  -2.19112  -2.19033  -2.18809  -1.15434
  Beta  occ. eigenvalues --   -1.15402  -1.15375  -1.15165  -1.15116  -1.15080
  Beta  occ. eigenvalues --   -1.14292  -1.14260  -1.14245  -1.13275  -1.13268
  Beta  occ. eigenvalues --   -1.13261  -1.12967  -1.12834  -1.12790  -1.12700
  Beta  occ. eigenvalues --   -1.12678  -1.12638  -1.12450  -1.12423  -1.12368
  Beta  occ. eigenvalues --   -0.17659  -0.14058  -0.10257
  Beta virt. eigenvalues --   -0.07819  -0.07637  -0.04896  -0.04020  -0.03362
  Beta virt. eigenvalues --   -0.02665  -0.01918  -0.01510  -0.01388  -0.00926
  Beta virt. eigenvalues --   -0.00558   0.00004   0.00226   0.00359   0.00526

 Mulliken charges and spin densities:
               1          2
     1  Na  -0.223242   0.012907
     2  Na   0.063661   0.092728
     3  Na  -0.007544   0.069062
     4  Na   0.133262   0.329582
     5  Na  -0.326533  -0.084936
     6  Na   0.209359   0.098544
     7  Na   0.151036   0.482112
 Sum of Mulliken charges =  -0.00000   1.00000

 Dipole moment (field-independent basis, Debye):
    X=              1.6507    Y=             -0.3541    Z=             -0.1877  Tot=              1.6987
 Quadrupole moment (field-independent basis, Debye-Ang):
   XX=            -60.5480   YY=            -81.6833   ZZ=            -60.5850
   XY=             -3.2372   XZ=             -1.1560   YZ=              5.4594

 Normal termination of Gaussian 16 at Fri Dec  8 19:59:33 2023.
