 Gaussian 16, Revision B.01,
 Gaussian 16:  ES64L-G16RevB.01 20-Dec-2017

 -------------------------
 #P B3LYP/6-311+g(d) force
 -------------------------

 -----
 DPGEN
 -----
 Symbolic Z-matrix:
 Charge =  0 Multiplicity = 2

                         Standard orientation:
 ---------------------------------------------------------------------
 Center     Atomic      Atomic             Coordinates (Angstroms)
 Number     Number       Type             X           Y           Z
 ---------------------------------------------------------------------
      1         11           0        0.228416    1.135364   -0.349096
      2         11           0        3.245084    1.928953   -0.407882
      3         11           0       -3.054781    2.173373    0.503526
      4         11           0        2.222986   -0.955791    1.649103
      5         11           0       -1.299367   -1.592574    1.570372
      6         11           0       -2.430256   -0.881528   -1.291256
      7         11           0        1.087919   -1.807797   -1.674767
 ---------------------------------------------------------------------

 SCF Done:  E(UB3LYP) =  -1136.12741807     A.U. after   23 cycles

 The electronic state is 2-A.
 Alpha  occ. eigenvalues --  -38.44156 -38.44152 -38.43939 -38.43919 -38.43902
 Alpha  occ. eigenvalues --  -38.43754 -38.42912  -2.20033  -2.20001  -2.19798
 Alpha  occ. eigenvalues --   -2.19764  -2.19715  -2.19538  -2.18882  -1.13754
 Alpha  occ. eigenvalues --   -1.13717  -1.13690  -1.13656  -1.13623  -1.13608
 Alpha  occ. eigenvalues --   -1.13475  -1.13459  -1.13449  -1.13413  -1.13401
 Alpha  occ. eigenvalues --   -1.13395  -1.13369  -1.13366  -1.13343  -1.13210
 Alpha  occ. eigenvalues --   -1.13201  -1.13170  -1.12592  -1.12557  -1.12496
 Alpha  occ. eigenvalues --   -0.18279  -0.13515  -0.11434  -0.11213
 Alpha virt. eigenvalues --   -0.05989  -0.05520  -0.04584  -0.03316  -0.02656
 Alpha virt. eigenvalues --   -0.02361  -0.01857  -0.01279  -0.00731  -0.00069
 Alpha virt. eigenvalues --    0.00060   0.00231   0.00306   0.00537   0.00745

  Beta  occ. eigenvalues --  -38.44130 -38.44108 -38.43900 -38.43897 -38.43864
  Beta  occ. eigenvalues --  -38.43752 -38.42895  -2.19994  -2.19914  -2.19721
  Beta  occ. eigenvalues --   -2.19712  -2.19665  -2.19535  -2.18856  -1.13729
  Beta  occ. eigenvalues --   -1.13682  -1.13625  -1.13601  -1.13583  -1.13538
  Beta  occ. eigenvalues --   -1.13419  -1.13410  -1.13389  -1.13385  -1.13359
  Beta  occ. eigenvalues --   -1.13343  -1.13342  -1.13321  -1.13303  -1.13206
  Beta  occ. eigenvalues --   -1.13197  -1.13168  -1.12549  -1.12530  -1.12484
  Beta  occ. eigenvalues --   -0.17574  -0.13371  -0.11178
  Beta virt. eigenvalues --   -0.07267  -0.05945  -0.05344  -0.04045  -0.02934
  Beta virt. eigenvalues --   -0.02138  -0.01819  -0.01705  -0.01030  -0.00360
  Beta virt. eigenvalues --    0.00002   0.00145   0.00283   0.00368   0.00583

 Mulliken charges and spin densities:
               1          2
     1  Na  -2.674734   0.323689
     2  Na   0.571580  -0.027841
     3  Na   0.866116  -0.109853
     4  Na   0.241895   0.152305
     5  Na  -0.079690   0.269074
     6  Na   1.274219   0.125923
     7  Na  -0.199387   0.266703
 Sum of Mulliken charges =  -0.00000   1.00000

 Dipole moment (field-independent basis, Debye):
    X=              0.1775    Y=             -0.5117    Z=              0.0257  Tot=              0.5422
 Quadrupole moment (field-independent basis, Debye-Ang):
   XX=            -53.3903   YY=            -71.0231   ZZ=            -68.3222
   XY=              0.1668   XZ=             -0.4169   YZ=              1.3282

 Normal termination of Gaussian 16 at Wed Dec  6 00:40:34 2023.
