 Gaussian 16, Revision B.01,
 Gaussian 16:  ES64L-G16RevB.01 20-Dec-2017

 -------------------------
 #P B3LYP/6-311+g(d) force
 -------------------------

 -----
 DPGEN
 -----
 Symbolic Z-matrix:
 Charge =  0 Multiplicity = 2

                         Standard orientation:
 ---------------------------------------------------------------------
 Center     Atomic      Atomic             Coordinates (Angstroms)
 Number     Number       Type             X           Y           Z
 ---------------------------------------------------------------------
      1         11           0        0.452058   -0.186300   -1.838980
      2         11           0        2.861626    1.511749    0.297751
      3         11           0       -0.233569   -0.144704    2.194727
      4         11           0       -3.454506    0.458952    0.169619
      5         11           0        2.436411   -1.764257    0.079638
      6         11           0       -1.369250   -2.504971   -0.381991
      7         11           0       -0.692772    2.629531   -0.520764
 ---------------------------------------------------------------------

 SCF Done:  E(UB3LYP) =  -1136.13378389     A.U. after   19 cycles

 The electronic state is 2-A.
 Alpha  occ. eigenvalues --  -38.44618 -38.44342 -38.44036 -38.43794 -38.43558
 Alpha  occ. eigenvalues --  -38.43247 -38.43050  -2.20393  -2.20173  -2.19853
 Alpha  occ. eigenvalues --   -2.19656  -2.19507  -2.19081  -2.18880  -1.14069
 Alpha  occ. eigenvalues --   -1.14046  -1.14039  -1.13835  -1.13808  -1.13789
 Alpha  occ. eigenvalues --   -1.13536  -1.13519  -1.13495  -1.13378  -1.13314
 Alpha  occ. eigenvalues --   -1.13276  -1.13176  -1.13139  -1.13129  -1.12772
 Alpha  occ. eigenvalues --   -1.12743  -1.12700  -1.12580  -1.12541  -1.12496
 Alpha  occ. eigenvalues --   -0.18303  -0.13146  -0.11907  -0.11097
 Alpha virt. eigenvalues --   -0.06149  -0.05223  -0.04156  -0.03473  -0.02937
 Alpha virt. eigenvalues --   -0.02873  -0.01833  -0.01075  -0.00377  -0.00165
 Alpha virt. eigenvalues --   -0.00073   0.00353   0.00637   0.00738   0.00853

  Beta  occ. eigenvalues --  -38.44621 -38.44253 -38.44032 -38.43789 -38.43483
  Beta  occ. eigenvalues --  -38.43239 -38.43039  -2.20400  -2.20007  -2.19848
  Beta  occ. eigenvalues --   -2.19650  -2.19371  -2.19070  -2.18861  -1.14062
  Beta  occ. eigenvalues --   -1.14052  -1.14045  -1.13725  -1.13693  -1.13667
  Beta  occ. eigenvalues --   -1.13536  -1.13502  -1.13488  -1.13360  -1.13293
  Beta  occ. eigenvalues --   -1.13272  -1.13088  -1.13045  -1.13031  -1.12756
  Beta  occ. eigenvalues --   -1.12723  -1.12694  -1.12559  -1.12517  -1.12488
  Beta  occ. eigenvalues --   -0.17552  -0.12977  -0.11654
  Beta virt. eigenvalues --   -0.07200  -0.05996  -0.05248  -0.04052  -0.02763
  Beta virt. eigenvalues --   -0.02130  -0.01901  -0.01712  -0.01026  -0.00403
  Beta virt. eigenvalues --   -0.00182   0.00063   0.00373   0.00783   0.00843

 Mulliken charges and spin densities:
               1          2
     1  Na   0.148761   0.512136
     2  Na   0.001128   0.018285
     3  Na  -0.460888   0.714013
     4  Na   0.003377  -0.043574
     5  Na   0.246225  -0.035458
     6  Na   0.068087  -0.110117
     7  Na  -0.006689  -0.055285
 Sum of Mulliken charges =  -0.00000   1.00000

 Dipole moment (field-independent basis, Debye):
    X=             -0.1200    Y=             -0.0493    Z=              0.3610  Tot=              0.3836
 Quadrupole moment (field-independent basis, Debye-Ang):
   XX=            -53.6082   YY=            -68.5927   ZZ=            -72.1751
   XY=              0.3587   XZ=              0.9840   YZ=              0.2320

 Normal termination of Gaussian 16 at Thu Dec  7 07:25:41 2023.
