 Gaussian 16, Revision B.01,
 Gaussian 16:  ES64L-G16RevB.01 20-Dec-2017

 -------------------------
 #P B3LYP/6-311+g(d) force
 -------------------------

 -----
 DPGEN
 -----
 Symbolic Z-matrix:
 Charge =  0 Multiplicity = 2

                         Standard orientation:
 ---------------------------------------------------------------------
 Center     Atomic      Atomic             Coordinates (Angstroms)
 Number     Number       Type             X           Y           Z
 ---------------------------------------------------------------------
      1         11           0        2.606335    1.407027   -0.403581
      2         11           0       -2.881683    0.491067   -0.237581
      3         11           0        0.143668   -0.279903   -1.667781
      4         11           0        2.325630   -2.012539   -0.017901
      5         11           0       -0.697981    2.855742    0.160410
      6         11           0       -1.890557   -2.377548    0.041316
      7         11           0        0.394588   -0.083846    2.125117
 ---------------------------------------------------------------------

 SCF Done:  E(UB3LYP) =  -1136.13641213     A.U. after   19 cycles

 The electronic state is 2-A.
 Alpha  occ. eigenvalues --  -38.43962 -38.43859 -38.43789 -38.43676 -38.43592
 Alpha  occ. eigenvalues --  -38.43326 -38.43070  -2.19823  -2.19713  -2.19666
 Alpha  occ. eigenvalues --   -2.19575  -2.19452  -2.19309  -2.18915  -1.13529
 Alpha  occ. eigenvalues --   -1.13486  -1.13453  -1.13402  -1.13388  -1.13335
 Alpha  occ. eigenvalues --   -1.13329  -1.13318  -1.13290  -1.13281  -1.13250
 Alpha  occ. eigenvalues --   -1.13222  -1.13115  -1.13093  -1.13064  -1.12981
 Alpha  occ. eigenvalues --   -1.12937  -1.12933  -1.12589  -1.12575  -1.12558
 Alpha  occ. eigenvalues --   -0.18771  -0.13348  -0.12267  -0.10972
 Alpha virt. eigenvalues --   -0.05523  -0.05314  -0.04485  -0.03398  -0.02852
 Alpha virt. eigenvalues --   -0.02781  -0.01414  -0.01123  -0.00286  -0.00203
 Alpha virt. eigenvalues --   -0.00012   0.00366   0.00808   0.00857   0.00930

  Beta  occ. eigenvalues --  -38.43950 -38.43853 -38.43689 -38.43672 -38.43590
  Beta  occ. eigenvalues --  -38.43263 -38.43068  -2.19805  -2.19707  -2.19571
  Beta  occ. eigenvalues --   -2.19482  -2.19451  -2.19195  -2.18914  -1.13510
  Beta  occ. eigenvalues --   -1.13458  -1.13440  -1.13394  -1.13355  -1.13330
  Beta  occ. eigenvalues --   -1.13328  -1.13246  -1.13205  -1.13199  -1.13163
  Beta  occ. eigenvalues --   -1.13150  -1.13106  -1.13083  -1.13062  -1.12905
  Beta  occ. eigenvalues --   -1.12857  -1.12848  -1.12590  -1.12561  -1.12553
  Beta  occ. eigenvalues --   -0.18037  -0.13100  -0.12053
  Beta virt. eigenvalues --   -0.07015  -0.05524  -0.05242  -0.04464  -0.02591
  Beta virt. eigenvalues --   -0.02094  -0.01687  -0.01321  -0.01054  -0.00344
  Beta virt. eigenvalues --   -0.00227   0.00127   0.00398   0.00854   0.00894

 Mulliken charges and spin densities:
               1          2
     1  Na   0.220060   0.002036
     2  Na   0.045276  -0.003407
     3  Na  -0.179160   0.344347
     4  Na   0.245773  -0.050518
     5  Na   0.035997  -0.019595
     6  Na   0.209419  -0.041548
     7  Na  -0.577365   0.768686
 Sum of Mulliken charges =  -0.00000   1.00000

 Dipole moment (field-independent basis, Debye):
    X=              0.3905    Y=             -0.2308    Z=              0.1373  Tot=              0.4739
 Quadrupole moment (field-independent basis, Debye-Ang):
   XX=            -58.2625   YY=            -63.2201   ZZ=            -73.3092
   XY=              0.0338   XZ=             -0.5021   YZ=             -0.5959

 Normal termination of Gaussian 16 at Tue Dec  5 17:58:18 2023.
