 Gaussian 16, Revision B.01,
 Gaussian 16:  ES64L-G16RevB.01 20-Dec-2017

 -------------------------
 #P B3LYP/6-311+g(d) force
 -------------------------

 -----
 DPGEN
 -----
 Symbolic Z-matrix:
 Charge =  0 Multiplicity = 2

                         Standard orientation:
 ---------------------------------------------------------------------
 Center     Atomic      Atomic             Coordinates (Angstroms)
 Number     Number       Type             X           Y           Z
 ---------------------------------------------------------------------
      1         11           0        2.861369   -1.268633    0.063407
      2         11           0       -0.058740   -0.027105    1.856223
      3         11           0        2.077121    2.003471   -0.273208
      4         11           0       -1.353832    2.631715    0.309398
      5         11           0        0.287664   -0.284550   -1.787099
      6         11           0       -3.196488   -0.475528   -0.513272
      7         11           0       -0.617094   -2.579371    0.344551
 ---------------------------------------------------------------------

 SCF Done:  E(UB3LYP) =  -1136.13723178     A.U. after   18 cycles

 The electronic state is 2-A.
 Alpha  occ. eigenvalues --  -38.44156 -38.43878 -38.43502 -38.43471 -38.43411
 Alpha  occ. eigenvalues --  -38.43257 -38.43173  -2.19967  -2.19734  -2.19463
 Alpha  occ. eigenvalues --   -2.19381  -2.19346  -2.19095  -2.19090  -1.13637
 Alpha  occ. eigenvalues --   -1.13619  -1.13610  -1.13420  -1.13404  -1.13372
 Alpha  occ. eigenvalues --   -1.13161  -1.13140  -1.13108  -1.13072  -1.13038
 Alpha  occ. eigenvalues --   -1.13011  -1.13001  -1.12982  -1.12966  -1.12777
 Alpha  occ. eigenvalues --   -1.12762  -1.12753  -1.12745  -1.12721  -1.12686
 Alpha  occ. eigenvalues --   -0.18895  -0.13107  -0.12409  -0.10932
 Alpha virt. eigenvalues --   -0.05670  -0.05073  -0.04439  -0.03302  -0.02918
 Alpha virt. eigenvalues --   -0.02582  -0.01642  -0.00997  -0.00276  -0.00090
 Alpha virt. eigenvalues --    0.00012   0.00347   0.00811   0.00904   0.00910

  Beta  occ. eigenvalues --  -38.44145 -38.43874 -38.43465 -38.43432 -38.43323
  Beta  occ. eigenvalues --  -38.43252 -38.43159  -2.19948  -2.19732  -2.19338
  Beta  occ. eigenvalues --   -2.19334  -2.19221  -2.19084  -2.19075  -1.13612
  Beta  occ. eigenvalues --   -1.13607  -1.13597  -1.13414  -1.13396  -1.13357
  Beta  occ. eigenvalues --   -1.13089  -1.13065  -1.13010  -1.12996  -1.12987
  Beta  occ. eigenvalues --   -1.12972  -1.12946  -1.12915  -1.12878  -1.12755
  Beta  occ. eigenvalues --   -1.12741  -1.12734  -1.12720  -1.12704  -1.12669
  Beta  occ. eigenvalues --   -0.18163  -0.12841  -0.12143
  Beta virt. eigenvalues --   -0.07034  -0.05584  -0.05075  -0.04407  -0.02539
  Beta virt. eigenvalues --   -0.02139  -0.01562  -0.01509  -0.00936  -0.00284
  Beta virt. eigenvalues --   -0.00129   0.00118   0.00373   0.00870   0.00900

 Mulliken charges and spin densities:
               1          2
     1  Na   0.212322  -0.089351
     2  Na  -0.202730   0.602790
     3  Na   0.042870  -0.065766
     4  Na  -0.011833  -0.062590
     5  Na  -0.292044   0.604779
     6  Na  -0.078455   0.027953
     7  Na   0.329869  -0.017816
 Sum of Mulliken charges =  -0.00000   1.00000

 Dipole moment (field-independent basis, Debye):
    X=              0.0153    Y=             -0.0783    Z=             -0.1086  Tot=              0.1348
 Quadrupole moment (field-independent basis, Debye-Ang):
   XX=            -55.1429   YY=            -64.9991   ZZ=            -73.3477
   XY=             -0.6728   XZ=              1.2754   YZ=             -0.4927

 Normal termination of Gaussian 16 at Fri Dec  8 01:13:57 2023.
