 Gaussian 16, Revision B.01,
 Gaussian 16:  ES64L-G16RevB.01 20-Dec-2017

 -------------------------
 #P B3LYP/6-311+g(d) force
 -------------------------

 -----
 DPGEN
 -----
 Symbolic Z-matrix:
 Charge =  0 Multiplicity = 2

                         Standard orientation:
 ---------------------------------------------------------------------
 Center     Atomic      Atomic             Coordinates (Angstroms)
 Number     Number       Type             X           Y           Z
 ---------------------------------------------------------------------
      1         11           0        0.881681   -1.670150    1.835357
      2         11           0        0.879769    1.647109   -1.821250
      3         11           0       -4.858621    0.103047   -0.075600
      4         11           0       -2.144247   -0.074262    0.168163
      5         11           0        0.939920    1.993474    1.550164
      6         11           0        3.624412   -0.052649   -0.121418
      7         11           0        0.677085   -1.946568   -1.535417
 ---------------------------------------------------------------------

 SCF Done:  E(UB3LYP) =  -1136.10989026     A.U. after   30 cycles

 The electronic state is 2-A.
 Alpha  occ. eigenvalues --  -38.46573 -38.45318 -38.43683 -38.43532 -38.43482
 Alpha  occ. eigenvalues --  -38.43402 -38.43358  -2.22340  -2.21140  -2.19530
 Alpha  occ. eigenvalues --   -2.19374  -2.19371  -2.19251  -2.19211  -1.16031
 Alpha  occ. eigenvalues --   -1.15990  -1.15962  -1.14932  -1.14760  -1.14755
 Alpha  occ. eigenvalues --   -1.13209  -1.13176  -1.13160  -1.13080  -1.13044
 Alpha  occ. eigenvalues --   -1.13023  -1.13018  -1.12988  -1.12978  -1.12932
 Alpha  occ. eigenvalues --   -1.12902  -1.12891  -1.12874  -1.12855  -1.12811
 Alpha  occ. eigenvalues --   -0.18050  -0.13320  -0.11732  -0.10993
 Alpha virt. eigenvalues --   -0.07968  -0.03946  -0.03866  -0.03389  -0.03259
 Alpha virt. eigenvalues --   -0.03093  -0.02722  -0.00926  -0.00743  -0.00634
 Alpha virt. eigenvalues --   -0.00260  -0.00125   0.00191   0.00708   0.00996

  Beta  occ. eigenvalues --  -38.46570 -38.45326 -38.43637 -38.43486 -38.43476
  Beta  occ. eigenvalues --  -38.43358 -38.43307  -2.22337  -2.21154  -2.19446
  Beta  occ. eigenvalues --   -2.19363  -2.19288  -2.19173  -2.19119  -1.15998
  Beta  occ. eigenvalues --   -1.15992  -1.15966  -1.14942  -1.14768  -1.14765
  Beta  occ. eigenvalues --   -1.13156  -1.13112  -1.13093  -1.13078  -1.12998
  Beta  occ. eigenvalues --   -1.12987  -1.12972  -1.12955  -1.12923  -1.12883
  Beta  occ. eigenvalues --   -1.12844  -1.12827  -1.12807  -1.12790  -1.12741
  Beta  occ. eigenvalues --   -0.17188  -0.13294  -0.10896
  Beta virt. eigenvalues --   -0.07797  -0.07594  -0.03657  -0.03299  -0.03206
  Beta virt. eigenvalues --   -0.02968  -0.02864  -0.01761  -0.00785  -0.00670
  Beta virt. eigenvalues --   -0.00521  -0.00136   0.00023   0.00202   0.00772

 Mulliken charges and spin densities:
               1          2
     1  Na   0.998379   0.200318
     2  Na   0.483358   0.240190
     3  Na  -2.119792   0.233389
     4  Na  -0.266680  -0.086812
     5  Na   0.531004   0.184975
     6  Na  -0.266385   0.040663
     7  Na   0.640115   0.187276
 Sum of Mulliken charges =  -0.00000   1.00000

 Dipole moment (field-independent basis, Debye):
    X=              0.6850    Y=             -0.0486    Z=             -0.1598  Tot=              0.7051
 Quadrupole moment (field-independent basis, Debye-Ang):
   XX=            -43.6919   YY=            -80.2600   ZZ=            -67.2888
   XY=             -1.7431   XZ=              0.8932   YZ=              0.9727

 Normal termination of Gaussian 16 at Fri Dec  8 19:08:04 2023.
