 Gaussian 16, Revision B.01,
 Gaussian 16:  ES64L-G16RevB.01 20-Dec-2017

 -------------------------
 #P B3LYP/6-311+g(d) force
 -------------------------

 -----
 DPGEN
 -----
 Symbolic Z-matrix:
 Charge =  0 Multiplicity = 2

                         Standard orientation:
 ---------------------------------------------------------------------
 Center     Atomic      Atomic             Coordinates (Angstroms)
 Number     Number       Type             X           Y           Z
 ---------------------------------------------------------------------
      1         11           0        4.265860   -1.033733    0.676395
      2         11           0       -2.608819   -0.389539    1.893987
      3         11           0        0.232035   -0.534530    0.905360
      4         11           0       -1.974761   -2.214833   -1.325906
      5         11           0       -2.112650    0.931168   -1.117359
      6         11           0        2.300341    0.600110   -1.348127
      7         11           0       -0.102007    2.641357    0.315651
 ---------------------------------------------------------------------

 SCF Done:  E(UB3LYP) =  -1136.11918649     A.U. after   24 cycles

 The electronic state is 2-A.
 Alpha  occ. eigenvalues --  -38.44484 -38.44306 -38.44152 -38.43876 -38.43843
 Alpha  occ. eigenvalues --  -38.43506 -38.42412  -2.20262  -2.20207  -2.20011
 Alpha  occ. eigenvalues --   -2.19876  -2.19829  -2.19367  -2.18323  -1.13955
 Alpha  occ. eigenvalues --   -1.13939  -1.13923  -1.13899  -1.13858  -1.13780
 Alpha  occ. eigenvalues --   -1.13735  -1.13674  -1.13601  -1.13582  -1.13537
 Alpha  occ. eigenvalues --   -1.13516  -1.13500  -1.13467  -1.13458  -1.13038
 Alpha  occ. eigenvalues --   -1.13018  -1.12966  -1.12013  -1.11991  -1.11940
 Alpha  occ. eigenvalues --   -0.18634  -0.13804  -0.11482  -0.11165
 Alpha virt. eigenvalues --   -0.06616  -0.05016  -0.04253  -0.03057  -0.02621
 Alpha virt. eigenvalues --   -0.02563  -0.02194  -0.01266  -0.00650  -0.00182
 Alpha virt. eigenvalues --    0.00031   0.00177   0.00267   0.00680   0.00787

  Beta  occ. eigenvalues --  -38.44484 -38.44236 -38.44143 -38.43842 -38.43807
  Beta  occ. eigenvalues --  -38.43457 -38.42410  -2.20261  -2.20079  -2.19993
  Beta  occ. eigenvalues --   -2.19820  -2.19768  -2.19278  -2.18323  -1.13939
  Beta  occ. eigenvalues --   -1.13923  -1.13898  -1.13860  -1.13772  -1.13718
  Beta  occ. eigenvalues --   -1.13689  -1.13660  -1.13585  -1.13525  -1.13488
  Beta  occ. eigenvalues --   -1.13459  -1.13440  -1.13428  -1.13416  -1.12969
  Beta  occ. eigenvalues --   -1.12957  -1.12906  -1.12015  -1.11989  -1.11924
  Beta  occ. eigenvalues --   -0.17913  -0.13633  -0.11240
  Beta virt. eigenvalues --   -0.07223  -0.06398  -0.04683  -0.04063  -0.02869
  Beta virt. eigenvalues --   -0.02313  -0.02071  -0.01477  -0.00937  -0.00375
  Beta virt. eigenvalues --   -0.00115   0.00206   0.00222   0.00383   0.00740

 Mulliken charges and spin densities:
               1          2
     1  Na   0.468265  -0.028259
     2  Na   0.705586   0.021755
     3  Na  -1.703103   0.426913
     4  Na  -0.258592   0.143506
     5  Na   0.482451   0.423868
     6  Na   0.133882   0.047444
     7  Na   0.171510  -0.035226
 Sum of Mulliken charges =  -0.00000   1.00000

 Dipole moment (field-independent basis, Debye):
    X=              0.3832    Y=             -0.0878    Z=              0.1259  Tot=              0.4128
 Quadrupole moment (field-independent basis, Debye-Ang):
   XX=            -54.6467   YY=            -71.4895   ZZ=            -67.5280
   XY=             -1.8029   XZ=             -0.2895   YZ=              0.3831

 Normal termination of Gaussian 16 at Tue Dec  5 22:07:53 2023.
