 Gaussian 16, Revision B.01,
 Gaussian 16:  ES64L-G16RevB.01 20-Dec-2017

 -------------------------
 #P B3LYP/6-311+g(d) force
 -------------------------

 -----
 DPGEN
 -----
 Symbolic Z-matrix:
 Charge =  0 Multiplicity = 2

                         Standard orientation:
 ---------------------------------------------------------------------
 Center     Atomic      Atomic             Coordinates (Angstroms)
 Number     Number       Type             X           Y           Z
 ---------------------------------------------------------------------
      1         11           0        2.757387    1.807192   -0.055476
      2         11           0        0.102537   -1.119110   -1.180702
      3         11           0       -2.247573   -2.189253    0.651061
      4         11           0       -1.209150    2.762123   -0.400027
      5         11           0        3.399395   -1.636807   -0.742656
      6         11           0        0.790668    0.106214    2.278017
      7         11           0       -3.593265    0.269641   -0.550217
 ---------------------------------------------------------------------

 SCF Done:  E(UB3LYP) =  -1136.12089152     A.U. after   23 cycles

 The electronic state is 2-A.
 Alpha  occ. eigenvalues --  -38.44777 -38.44528 -38.44330 -38.44272 -38.44200
 Alpha  occ. eigenvalues --  -38.43906 -38.43170  -2.20562  -2.20370  -2.20153
 Alpha  occ. eigenvalues --   -2.20132  -2.20010  -2.19777  -2.18943  -1.14252
 Alpha  occ. eigenvalues --   -1.14226  -1.14192  -1.14071  -1.14023  -1.14007
 Alpha  occ. eigenvalues --   -1.13852  -1.13809  -1.13793  -1.13786  -1.13779
 Alpha  occ. eigenvalues --   -1.13764  -1.13665  -1.13658  -1.13634  -1.13435
 Alpha  occ. eigenvalues --   -1.13429  -1.13402  -1.12628  -1.12616  -1.12574
 Alpha  occ. eigenvalues --   -0.17672  -0.14024  -0.11591  -0.10751
 Alpha virt. eigenvalues --   -0.06591  -0.05992  -0.04390  -0.03433  -0.02708
 Alpha virt. eigenvalues --   -0.02433  -0.02344  -0.01502  -0.00805  -0.00295
 Alpha virt. eigenvalues --   -0.00267   0.00165   0.00414   0.00608   0.00684

  Beta  occ. eigenvalues --  -38.44774 -38.44511 -38.44260 -38.44225 -38.44165
  Beta  occ. eigenvalues --  -38.43894 -38.43167  -2.20560  -2.20340  -2.20112
  Beta  occ. eigenvalues --   -2.19959  -2.19947  -2.19755  -2.18938  -1.14237
  Beta  occ. eigenvalues --   -1.14227  -1.14185  -1.14047  -1.14002  -1.13986
  Beta  occ. eigenvalues --   -1.13813  -1.13791  -1.13765  -1.13671  -1.13657
  Beta  occ. eigenvalues --   -1.13623  -1.13617  -1.13611  -1.13597  -1.13423
  Beta  occ. eigenvalues --   -1.13417  -1.13371  -1.12624  -1.12615  -1.12562
  Beta  occ. eigenvalues --   -0.17103  -0.13716  -0.11310
  Beta virt. eigenvalues --   -0.07111  -0.06486  -0.05643  -0.04078  -0.03061
  Beta virt. eigenvalues --   -0.02302  -0.02064  -0.01587  -0.01412  -0.00695
  Beta virt. eigenvalues --   -0.00235  -0.00031   0.00247   0.00581   0.00721

 Mulliken charges and spin densities:
               1          2
     1  Na   0.133658   0.055513
     2  Na  -0.610667   0.181231
     3  Na   0.587315   0.075662
     4  Na  -0.173274  -0.013113
     5  Na   0.201731   0.177357
     6  Na  -0.187964   0.472313
     7  Na   0.049201   0.051037
 Sum of Mulliken charges =  -0.00000   1.00000

 Dipole moment (field-independent basis, Debye):
    X=              0.4380    Y=             -0.3633    Z=              0.3004  Tot=              0.6435
 Quadrupole moment (field-independent basis, Debye-Ang):
   XX=            -52.4467   YY=            -71.7622   ZZ=            -72.7452
   XY=              3.5274   XZ=             -0.2051   YZ=             -1.8685

 Normal termination of Gaussian 16 at Sun Dec  3 13:14:46 2023.
