 Gaussian 16, Revision B.01,
 Gaussian 16:  ES64L-G16RevB.01 20-Dec-2017

 -------------------------
 #P B3LYP/6-311+g(d) force
 -------------------------

 -----
 DPGEN
 -----
 Symbolic Z-matrix:
 Charge =  0 Multiplicity = 2

                         Standard orientation:
 ---------------------------------------------------------------------
 Center     Atomic      Atomic             Coordinates (Angstroms)
 Number     Number       Type             X           Y           Z
 ---------------------------------------------------------------------
      1         11           0       -2.631221   -2.537551    0.528819
      2         11           0        1.066505   -3.602206   -0.059769
      3         11           0        3.941807   -1.570481    0.113531
      4         11           0        3.374476    1.629785   -0.774604
      5         11           0       -2.141838    3.021219   -0.141466
      6         11           0        0.982549    3.296172    0.869987
      7         11           0       -4.592277   -0.236938   -0.536498
 ---------------------------------------------------------------------

 SCF Done:  E(UB3LYP) =  -1136.10874468     A.U. after   21 cycles

 The electronic state is 2-A.
 Alpha  occ. eigenvalues --  -38.45135 -38.45066 -38.44793 -38.44378 -38.44285
 Alpha  occ. eigenvalues --  -38.44150 -38.43891  -2.20908  -2.20833  -2.20563
 Alpha  occ. eigenvalues --   -2.20194  -2.20086  -2.19954  -2.19677  -1.14574
 Alpha  occ. eigenvalues --   -1.14567  -1.14531  -1.14514  -1.14504  -1.14481
 Alpha  occ. eigenvalues --   -1.14246  -1.14238  -1.14215  -1.13863  -1.13843
 Alpha  occ. eigenvalues --   -1.13831  -1.13754  -1.13747  -1.13725  -1.13606
 Alpha  occ. eigenvalues --   -1.13603  -1.13588  -1.13333  -1.13323  -1.13300
 Alpha  occ. eigenvalues --   -0.15550  -0.13939  -0.13460  -0.10768
 Alpha virt. eigenvalues --   -0.07690  -0.04721  -0.04588  -0.03587  -0.03302
 Alpha virt. eigenvalues --   -0.02550  -0.02313  -0.01914  -0.01331  -0.00789
 Alpha virt. eigenvalues --   -0.00318  -0.00129   0.00092   0.00334   0.00539

  Beta  occ. eigenvalues --  -38.45088 -38.45056 -38.44798 -38.44326 -38.44282
  Beta  occ. eigenvalues --  -38.44104 -38.43822  -2.20824  -2.20821  -2.20579
  Beta  occ. eigenvalues --   -2.20098  -2.20086  -2.19871  -2.19547  -1.14517
  Beta  occ. eigenvalues --   -1.14511  -1.14510  -1.14501  -1.14461  -1.14433
  Beta  occ. eigenvalues --   -1.14261  -1.14252  -1.14191  -1.13815  -1.13779
  Beta  occ. eigenvalues --   -1.13770  -1.13755  -1.13740  -1.13690  -1.13549
  Beta  occ. eigenvalues --   -1.13545  -1.13532  -1.13244  -1.13236  -1.13216
  Beta  occ. eigenvalues --   -0.15041  -0.13287  -0.12693
  Beta virt. eigenvalues --   -0.07830  -0.07589  -0.04368  -0.04060  -0.03367
  Beta virt. eigenvalues --   -0.02923  -0.02339  -0.02085  -0.01798  -0.01165
  Beta virt. eigenvalues --   -0.00425  -0.00153   0.00067   0.00226   0.00384

 Mulliken charges and spin densities:
               1          2
     1  Na  -0.233192   0.053318
     2  Na  -0.039216   0.344176
     3  Na   0.047641  -0.032554
     4  Na  -0.062294   0.259787
     5  Na  -0.006419   0.221212
     6  Na  -0.034594  -0.041050
     7  Na   0.328073   0.195111
 Sum of Mulliken charges =  -0.00000   1.00000

 Dipole moment (field-independent basis, Debye):
    X=             -0.2482    Y=              0.5899    Z=             -0.0388  Tot=              0.6412
 Quadrupole moment (field-independent basis, Debye-Ang):
   XX=            -61.2622   YY=            -68.7506   ZZ=            -70.9214
   XY=             -2.9669   XZ=              2.2250   YZ=             -1.8030

 Normal termination of Gaussian 16 at Mon Dec  4 01:33:19 2023.
