 Gaussian 16, Revision B.01,
 Gaussian 16:  ES64L-G16RevB.01 20-Dec-2017

 -------------------------
 #P B3LYP/6-311+g(d) force
 -------------------------

 -----
 DPGEN
 -----
 Symbolic Z-matrix:
 Charge =  0 Multiplicity = 2

                         Standard orientation:
 ---------------------------------------------------------------------
 Center     Atomic      Atomic             Coordinates (Angstroms)
 Number     Number       Type             X           Y           Z
 ---------------------------------------------------------------------
      1         11           0        3.552429   -2.284387   -0.070287
      2         11           0        0.597214    2.968896    0.315547
      3         11           0        3.387031    0.813030    0.109386
      4         11           0       -2.718105   -1.803669   -1.062641
      5         11           0       -3.098404   -0.488226    1.973958
      6         11           0        0.234660   -0.581945    0.202677
      7         11           0       -1.954825    1.376302   -1.468640
 ---------------------------------------------------------------------

 SCF Done:  E(UB3LYP) =  -1136.12425026     A.U. after   22 cycles

 The electronic state is 2-A.
 Alpha  occ. eigenvalues --  -38.44525 -38.44306 -38.44142 -38.44124 -38.43946
 Alpha  occ. eigenvalues --  -38.43895 -38.42659  -2.20382  -2.20201  -2.20017
 Alpha  occ. eigenvalues --   -2.19997  -2.19790  -2.19714  -2.18490  -1.14066
 Alpha  occ. eigenvalues --   -1.14057  -1.14021  -1.13931  -1.13871  -1.13835
 Alpha  occ. eigenvalues --   -1.13711  -1.13685  -1.13665  -1.13661  -1.13641
 Alpha  occ. eigenvalues --   -1.13590  -1.13437  -1.13423  -1.13391  -1.13379
 Alpha  occ. eigenvalues --   -1.13366  -1.13349  -1.12155  -1.12149  -1.12142
 Alpha  occ. eigenvalues --   -0.17756  -0.14442  -0.11798  -0.10418
 Alpha virt. eigenvalues --   -0.06317  -0.06170  -0.04300  -0.03498  -0.02745
 Alpha virt. eigenvalues --   -0.02197  -0.02030  -0.01312  -0.01179  -0.00561
 Alpha virt. eigenvalues --   -0.00202   0.00193   0.00271   0.00580   0.00653

  Beta  occ. eigenvalues --  -38.44524 -38.44300 -38.44105 -38.44093 -38.43892
  Beta  occ. eigenvalues --  -38.43847 -38.42656  -2.20380  -2.20193  -2.19967
  Beta  occ. eigenvalues --   -2.19928  -2.19708  -2.19604  -2.18485  -1.14065
  Beta  occ. eigenvalues --   -1.14054  -1.14018  -1.13892  -1.13867  -1.13833
  Beta  occ. eigenvalues --   -1.13668  -1.13649  -1.13626  -1.13597  -1.13589
  Beta  occ. eigenvalues --   -1.13530  -1.13376  -1.13362  -1.13345  -1.13307
  Beta  occ. eigenvalues --   -1.13295  -1.13273  -1.12150  -1.12145  -1.12136
  Beta  occ. eigenvalues --   -0.17243  -0.14121  -0.11668
  Beta virt. eigenvalues --   -0.06602  -0.06076  -0.05858  -0.04238  -0.03097
  Beta virt. eigenvalues --   -0.02504  -0.01830  -0.01331  -0.01154  -0.01084
  Beta virt. eigenvalues --   -0.00165  -0.00002   0.00255   0.00528   0.00643

 Mulliken charges and spin densities:
               1          2
     1  Na   0.254619   0.014012
     2  Na   0.374246  -0.065279
     3  Na  -0.038504   0.034111
     4  Na   0.958746   0.102835
     5  Na   0.093307   0.283738
     6  Na  -1.970660   0.463607
     7  Na   0.328245   0.166975
 Sum of Mulliken charges =  -0.00000   1.00000

 Dipole moment (field-independent basis, Debye):
    X=              0.3412    Y=             -0.1918    Z=             -0.5190  Tot=              0.6501
 Quadrupole moment (field-independent basis, Debye-Ang):
   XX=            -56.7573   YY=            -64.5604   ZZ=            -74.9269
   XY=             -0.0299   XZ=              2.7957   YZ=              2.2744

 Normal termination of Gaussian 16 at Tue Dec  5 15:50:21 2023.
