 Gaussian 16, Revision B.01,
 Gaussian 16:  ES64L-G16RevB.01 20-Dec-2017

 -------------------------
 #P B3LYP/6-311+g(d) force
 -------------------------

 -----
 DPGEN
 -----
 Symbolic Z-matrix:
 Charge =  0 Multiplicity = 2

                         Standard orientation:
 ---------------------------------------------------------------------
 Center     Atomic      Atomic             Coordinates (Angstroms)
 Number     Number       Type             X           Y           Z
 ---------------------------------------------------------------------
      1         11           0        1.145932    3.129972    0.456259
      2         11           0        0.307107    0.467015    0.060464
      3         11           0       -2.365943    1.901312   -0.793081
      4         11           0       -2.299677   -0.835641    1.413491
      5         11           0       -1.401476   -2.057895   -1.192468
      6         11           0        1.396641   -2.385273    0.558264
      7         11           0        3.217416   -0.219489   -0.502929
 ---------------------------------------------------------------------

 SCF Done:  E(UB3LYP) =  -1136.11491834     A.U. after   23 cycles

 The electronic state is 2-A.
 Alpha  occ. eigenvalues --  -38.44465 -38.44382 -38.44189 -38.43911 -38.43856
 Alpha  occ. eigenvalues --  -38.43417 -38.42429  -2.20298  -2.20258  -2.20025
 Alpha  occ. eigenvalues --   -2.19825  -2.19780  -2.19345  -2.18655  -1.14075
 Alpha  occ. eigenvalues --   -1.13997  -1.13933  -1.13919  -1.13892  -1.13874
 Alpha  occ. eigenvalues --   -1.13720  -1.13686  -1.13633  -1.13550  -1.13515
 Alpha  occ. eigenvalues --   -1.13478  -1.13461  -1.13402  -1.13382  -1.13020
 Alpha  occ. eigenvalues --   -1.12989  -1.12947  -1.12350  -1.12310  -1.12306
 Alpha  occ. eigenvalues --   -0.18745  -0.13484  -0.12978  -0.09506
 Alpha virt. eigenvalues --   -0.06222  -0.05435  -0.05001  -0.02988  -0.02642
 Alpha virt. eigenvalues --   -0.01677  -0.01455  -0.01135  -0.00921  -0.00439
 Alpha virt. eigenvalues --    0.00089   0.00380   0.00582   0.00726   0.00786

  Beta  occ. eigenvalues --  -38.44460 -38.44379 -38.44161 -38.43882 -38.43848
  Beta  occ. eigenvalues --  -38.43363 -38.42403  -2.20290  -2.20253  -2.19975
  Beta  occ. eigenvalues --   -2.19774  -2.19768  -2.19247  -2.18619  -1.14070
  Beta  occ. eigenvalues --   -1.13994  -1.13921  -1.13915  -1.13887  -1.13860
  Beta  occ. eigenvalues --   -1.13688  -1.13640  -1.13594  -1.13521  -1.13483
  Beta  occ. eigenvalues --   -1.13460  -1.13423  -1.13363  -1.13359  -1.12955
  Beta  occ. eigenvalues --   -1.12919  -1.12864  -1.12334  -1.12291  -1.12208
  Beta  occ. eigenvalues --   -0.18110  -0.13253  -0.12769
  Beta virt. eigenvalues --   -0.06142  -0.05732  -0.05345  -0.04826  -0.02395
  Beta virt. eigenvalues --   -0.02078  -0.01531  -0.01375  -0.00759  -0.00479
  Beta virt. eigenvalues --   -0.00444   0.00318   0.00493   0.00678   0.00798

 Mulliken charges and spin densities:
               1          2
     1  Na  -0.244226  -0.242575
     2  Na  -3.810738   0.324663
     3  Na   0.487922   0.203399
     4  Na   0.641161   0.221064
     5  Na   0.961049   0.271763
     6  Na   1.683822   0.326606
     7  Na   0.281010  -0.104920
 Sum of Mulliken charges =  -0.00000   1.00000

 Dipole moment (field-independent basis, Debye):
    X=              0.4211    Y=              0.3422    Z=             -0.1239  Tot=              0.5566
 Quadrupole moment (field-independent basis, Debye-Ang):
   XX=            -55.5726   YY=            -57.9503   ZZ=            -76.4952
   XY=             -0.3333   XZ=             -0.1121   YZ=              0.4396

 Normal termination of Gaussian 16 at Fri Dec  8 01:42:34 2023.
