 Gaussian 16, Revision B.01,
 Gaussian 16:  ES64L-G16RevB.01 20-Dec-2017

 -------------------------
 #P B3LYP/6-311+g(d) force
 -------------------------

 -----
 DPGEN
 -----
 Symbolic Z-matrix:
 Charge =  0 Multiplicity = 2

                         Standard orientation:
 ---------------------------------------------------------------------
 Center     Atomic      Atomic             Coordinates (Angstroms)
 Number     Number       Type             X           Y           Z
 ---------------------------------------------------------------------
      1         11           0       -4.202884    0.520109    0.357562
      2         11           0        3.611241    1.631335   -0.515699
      3         11           0       -1.534781   -0.523159    1.867652
      4         11           0       -1.064410    1.784837   -0.233706
      5         11           0        4.412103   -1.143371    0.550309
      6         11           0        1.180640   -0.841687   -0.366158
      7         11           0       -2.401908   -1.428065   -1.659959
 ---------------------------------------------------------------------

 SCF Done:  E(UB3LYP) =  -1136.10365418     A.U. after   29 cycles

 The electronic state is 2-A.
 Alpha  occ. eigenvalues --  -38.45636 -38.45089 -38.44289 -38.43981 -38.43648
 Alpha  occ. eigenvalues --  -38.42366 -38.41788  -2.21529  -2.20913  -2.20198
 Alpha  occ. eigenvalues --   -2.19845  -2.19494  -2.18296  -2.17685  -1.15234
 Alpha  occ. eigenvalues --   -1.15186  -1.15137  -1.14585  -1.14577  -1.14539
 Alpha  occ. eigenvalues --   -1.13892  -1.13857  -1.13791  -1.13527  -1.13482
 Alpha  occ. eigenvalues --   -1.13437  -1.13163  -1.13147  -1.13138  -1.12012
 Alpha  occ. eigenvalues --   -1.11952  -1.11915  -1.11363  -1.11356  -1.11325
 Alpha  occ. eigenvalues --   -0.17944  -0.14705  -0.10864  -0.10021
 Alpha virt. eigenvalues --   -0.07742  -0.05724  -0.04046  -0.03319  -0.02916
 Alpha virt. eigenvalues --   -0.02091  -0.01789  -0.01548  -0.01137  -0.00598
 Alpha virt. eigenvalues --   -0.00388   0.00075   0.00227   0.00535   0.00611

  Beta  occ. eigenvalues --  -38.45619 -38.45083 -38.44247 -38.43888 -38.43650
  Beta  occ. eigenvalues --  -38.42350 -38.41780  -2.21500  -2.20901  -2.20124
  Beta  occ. eigenvalues --   -2.19673  -2.19497  -2.18269  -2.17674  -1.15201
  Beta  occ. eigenvalues --   -1.15149  -1.15121  -1.14577  -1.14569  -1.14531
  Beta  occ. eigenvalues --   -1.13831  -1.13797  -1.13739  -1.13410  -1.13370
  Beta  occ. eigenvalues --   -1.13305  -1.13165  -1.13148  -1.13140  -1.11997
  Beta  occ. eigenvalues --   -1.11920  -1.11889  -1.11359  -1.11352  -1.11290
  Beta  occ. eigenvalues --   -0.17278  -0.14534  -0.09854
  Beta virt. eigenvalues --   -0.07570  -0.06923  -0.05410  -0.03883  -0.03117
  Beta virt. eigenvalues --   -0.02466  -0.01484  -0.01469  -0.01103  -0.00828
  Beta virt. eigenvalues --   -0.00499  -0.00257   0.00175   0.00371   0.00590

 Mulliken charges and spin densities:
               1          2
     1  Na   0.478978  -0.017327
     2  Na   0.296093   0.013329
     3  Na   0.320866   0.212217
     4  Na  -0.334260   0.303959
     5  Na   0.845464  -0.035179
     6  Na  -1.530643   0.127848
     7  Na  -0.076498   0.395152
 Sum of Mulliken charges =  -0.00000   1.00000

 Dipole moment (field-independent basis, Debye):
    X=              1.2353    Y=              0.5491    Z=              0.5239  Tot=              1.4498
 Quadrupole moment (field-independent basis, Debye-Ang):
   XX=            -87.8247   YY=            -60.9840   ZZ=            -63.3525
   XY=              0.9991   XZ=             -0.3391   YZ=             -9.6166

 Normal termination of Gaussian 16 at Thu Dec  7 04:16:32 2023.
