 Gaussian 16, Revision B.01,
 Gaussian 16:  ES64L-G16RevB.01 20-Dec-2017

 -------------------------
 #P B3LYP/6-311+g(d) force
 -------------------------

 -----
 DPGEN
 -----
 Symbolic Z-matrix:
 Charge =  0 Multiplicity = 2

                         Standard orientation:
 ---------------------------------------------------------------------
 Center     Atomic      Atomic             Coordinates (Angstroms)
 Number     Number       Type             X           Y           Z
 ---------------------------------------------------------------------
      1         11           0       -2.622452    1.631807   -0.005448
      2         11           0       -2.818810   -1.644563   -0.207892
      3         11           0       -0.035921    0.549164    1.607629
      4         11           0        3.383408   -0.429191   -0.170866
      5         11           0        1.183672    2.677809   -0.168266
      6         11           0        0.105963   -0.265522   -1.551511
      7         11           0        0.804139   -2.519503    0.496353
 ---------------------------------------------------------------------

 SCF Done:  E(UB3LYP) =  -1136.13235592     A.U. after   21 cycles

 The electronic state is 2-A.
 Alpha  occ. eigenvalues --  -38.44727 -38.44138 -38.43951 -38.43372 -38.43108
 Alpha  occ. eigenvalues --  -38.43095 -38.42793  -2.20536  -2.19993  -2.19781
 Alpha  occ. eigenvalues --   -2.19242  -2.19107  -2.18995  -2.18811  -1.14207
 Alpha  occ. eigenvalues --   -1.14193  -1.14175  -1.13691  -1.13658  -1.13630
 Alpha  occ. eigenvalues --   -1.13448  -1.13432  -1.13423  -1.12989  -1.12914
 Alpha  occ. eigenvalues --   -1.12869  -1.12849  -1.12774  -1.12701  -1.12673
 Alpha  occ. eigenvalues --   -1.12634  -1.12603  -1.12488  -1.12425  -1.12416
 Alpha  occ. eigenvalues --   -0.18890  -0.13417  -0.12336  -0.10180
 Alpha virt. eigenvalues --   -0.06229  -0.05332  -0.04340  -0.03082  -0.02629
 Alpha virt. eigenvalues --   -0.02088  -0.01866  -0.01244  -0.00434  -0.00259
 Alpha virt. eigenvalues --    0.00023   0.00310   0.00736   0.00816   0.00889

  Beta  occ. eigenvalues --  -38.44723 -38.44132 -38.43946 -38.43365 -38.43077
  Beta  occ. eigenvalues --  -38.43048 -38.42717  -2.20531  -2.19986  -2.19775
  Beta  occ. eigenvalues --   -2.19233  -2.18999  -2.18964  -2.18673  -1.14195
  Beta  occ. eigenvalues --   -1.14179  -1.14174  -1.13684  -1.13633  -1.13627
  Beta  occ. eigenvalues --   -1.13432  -1.13431  -1.13411  -1.12976  -1.12884
  Beta  occ. eigenvalues --   -1.12843  -1.12804  -1.12710  -1.12629  -1.12621
  Beta  occ. eigenvalues --   -1.12585  -1.12581  -1.12394  -1.12331  -1.12313
  Beta  occ. eigenvalues --   -0.18195  -0.13162  -0.12080
  Beta virt. eigenvalues --   -0.06364  -0.06139  -0.05314  -0.04304  -0.02352
  Beta virt. eigenvalues --   -0.01989  -0.01881  -0.01206  -0.00907  -0.00477
  Beta virt. eigenvalues --   -0.00245   0.00161   0.00351   0.00780   0.00813

 Mulliken charges and spin densities:
               1          2
     1  Na   0.218056  -0.076778
     2  Na   0.114299   0.005923
     3  Na  -0.119865   0.532695
     4  Na   0.121741  -0.030016
     5  Na   0.022071  -0.123558
     6  Na  -0.463320   0.658887
     7  Na   0.107018   0.032848
 Sum of Mulliken charges =  -0.00000   1.00000

 Dipole moment (field-independent basis, Debye):
    X=              0.1739    Y=              0.0722    Z=             -0.0443  Tot=              0.1935
 Quadrupole moment (field-independent basis, Debye-Ang):
   XX=            -49.6659   YY=            -63.8331   ZZ=            -77.0920
   XY=              0.1660   XZ=              0.0505   YZ=             -1.5422

 Normal termination of Gaussian 16 at Tue Nov 28 22:52:36 2023.
