 Gaussian 16, Revision B.01,
 Gaussian 16:  ES64L-G16RevB.01 20-Dec-2017

 -------------------------
 #P B3LYP/6-311+g(d) force
 -------------------------

 -----
 DPGEN
 -----
 Symbolic Z-matrix:
 Charge =  0 Multiplicity = 2

                         Standard orientation:
 ---------------------------------------------------------------------
 Center     Atomic      Atomic             Coordinates (Angstroms)
 Number     Number       Type             X           Y           Z
 ---------------------------------------------------------------------
      1         11           0        0.239539    0.224294   -1.424535
      2         11           0       -0.029715   -0.300632    2.073000
      3         11           0        2.045421    2.113572    0.046421
      4         11           0       -3.168587   -0.364605    0.072233
      5         11           0       -0.586938   -2.630344   -0.521285
      6         11           0       -1.307845    2.374731   -0.223793
      7         11           0        2.808125   -1.417015   -0.022041
 ---------------------------------------------------------------------

 SCF Done:  E(UB3LYP) =  -1136.13411506     A.U. after   19 cycles

 The electronic state is 2-A.
 Alpha  occ. eigenvalues --  -38.43968 -38.43943 -38.43551 -38.43551 -38.43319
 Alpha  occ. eigenvalues --  -38.43259 -38.42973  -2.19807  -2.19779  -2.19450
 Alpha  occ. eigenvalues --   -2.19444  -2.19206  -2.19190  -2.19086  -1.13477
 Alpha  occ. eigenvalues --   -1.13469  -1.13460  -1.13456  -1.13440  -1.13418
 Alpha  occ. eigenvalues --   -1.13215  -1.13127  -1.13099  -1.13074  -1.13070
 Alpha  occ. eigenvalues --   -1.13056  -1.13024  -1.12953  -1.12857  -1.12827
 Alpha  occ. eigenvalues --   -1.12811  -1.12792  -1.12723  -1.12680  -1.12649
 Alpha  occ. eigenvalues --   -0.19101  -0.13100  -0.12612  -0.10773
 Alpha virt. eigenvalues --   -0.05650  -0.05116  -0.04434  -0.03108  -0.02887
 Alpha virt. eigenvalues --   -0.02483  -0.01605  -0.01074  -0.00219  -0.00095
 Alpha virt. eigenvalues --    0.00015   0.00346   0.00808   0.00907   0.00928

  Beta  occ. eigenvalues --  -38.43967 -38.43941 -38.43546 -38.43454 -38.43303
  Beta  occ. eigenvalues --  -38.43251 -38.42915  -2.19807  -2.19777  -2.19440
  Beta  occ. eigenvalues --   -2.19269  -2.19181  -2.19178  -2.18982  -1.13480
  Beta  occ. eigenvalues --   -1.13459  -1.13454  -1.13446  -1.13425  -1.13417
  Beta  occ. eigenvalues --   -1.13201  -1.13082  -1.13058  -1.13010  -1.12996
  Beta  occ. eigenvalues --   -1.12952  -1.12928  -1.12921  -1.12818  -1.12799
  Beta  occ. eigenvalues --   -1.12796  -1.12788  -1.12650  -1.12611  -1.12586
  Beta  occ. eigenvalues --   -0.18369  -0.12882  -0.12337
  Beta virt. eigenvalues --   -0.06802  -0.05617  -0.05117  -0.04409  -0.02333
  Beta virt. eigenvalues --   -0.02086  -0.01521  -0.01386  -0.01022  -0.00247
  Beta virt. eigenvalues --   -0.00136   0.00150   0.00375   0.00850   0.00910

 Mulliken charges and spin densities:
               1          2
     1  Na  -0.688273   0.150849
     2  Na  -0.690226   0.777347
     3  Na   0.302607   0.031541
     4  Na   0.165847   0.016266
     5  Na   0.267684   0.005193
     6  Na   0.426501   0.036011
     7  Na   0.215860  -0.017207
 Sum of Mulliken charges =  -0.00000   1.00000

 Dipole moment (field-independent basis, Debye):
    X=              0.1094    Y=             -0.1980    Z=              0.3563  Tot=              0.4220
 Quadrupole moment (field-independent basis, Debye-Ang):
   XX=            -54.3110   YY=            -63.8839   ZZ=            -74.4685
   XY=              0.0248   XZ=              0.4759   YZ=              1.0333

 Normal termination of Gaussian 16 at Thu Dec  7 20:10:00 2023.
