 Gaussian 16, Revision B.01,
 Gaussian 16:  ES64L-G16RevB.01 20-Dec-2017

 -------------------------
 #P B3LYP/6-311+g(d) force
 -------------------------

 -----
 DPGEN
 -----
 Symbolic Z-matrix:
 Charge =  0 Multiplicity = 2

                         Standard orientation:
 ---------------------------------------------------------------------
 Center     Atomic      Atomic             Coordinates (Angstroms)
 Number     Number       Type             X           Y           Z
 ---------------------------------------------------------------------
      1         11           0       -1.276926    1.957024   -1.142795
      2         11           0        4.043571    0.005883   -0.813728
      3         11           0        2.128540   -1.858499    0.771127
      4         11           0        1.580538    2.169884    0.548638
      5         11           0       -0.585069   -2.051027   -0.478344
      6         11           0       -3.849704   -0.744063   -0.729002
      7         11           0       -2.040950    0.520798    1.844103
 ---------------------------------------------------------------------

 SCF Done:  E(UB3LYP) =  -1136.11845311     A.U. after   22 cycles

 The electronic state is 2-A.
 Alpha  occ. eigenvalues --  -38.45434 -38.44412 -38.44228 -38.43828 -38.43780
 Alpha  occ. eigenvalues --  -38.43461 -38.43444  -2.21260  -2.20235  -2.20068
 Alpha  occ. eigenvalues --   -2.19683  -2.19642  -2.19348  -2.19253  -1.14927
 Alpha  occ. eigenvalues --   -1.14920  -1.14887  -1.13931  -1.13904  -1.13859
 Alpha  occ. eigenvalues --   -1.13744  -1.13708  -1.13693  -1.13393  -1.13349
 Alpha  occ. eigenvalues --   -1.13315  -1.13314  -1.13306  -1.13261  -1.13005
 Alpha  occ. eigenvalues --   -1.12992  -1.12973  -1.12949  -1.12923  -1.12878
 Alpha  occ. eigenvalues --   -0.17727  -0.14349  -0.11817  -0.10265
 Alpha virt. eigenvalues --   -0.07146  -0.05484  -0.04515  -0.03494  -0.02680
 Alpha virt. eigenvalues --   -0.02502  -0.01968  -0.01450  -0.01059  -0.00327
 Alpha virt. eigenvalues --   -0.00107   0.00056   0.00276   0.00620   0.00736

  Beta  occ. eigenvalues --  -38.45403 -38.44418 -38.44172 -38.43769 -38.43753
  Beta  occ. eigenvalues --  -38.43446 -38.43442  -2.21205  -2.20247  -2.19962
  Beta  occ. eigenvalues --   -2.19597  -2.19573  -2.19326  -2.19253  -1.14888
  Beta  occ. eigenvalues --   -1.14868  -1.14845  -1.13942  -1.13905  -1.13858
  Beta  occ. eigenvalues --   -1.13677  -1.13634  -1.13621  -1.13336  -1.13279
  Beta  occ. eigenvalues --   -1.13271  -1.13257  -1.13234  -1.13222  -1.12990
  Beta  occ. eigenvalues --   -1.12964  -1.12956  -1.12937  -1.12920  -1.12858
  Beta  occ. eigenvalues --   -0.17189  -0.13818  -0.11578
  Beta virt. eigenvalues --   -0.06914  -0.06802  -0.05366  -0.03922  -0.03362
  Beta virt. eigenvalues --   -0.02416  -0.02132  -0.01524  -0.01119  -0.00516
  Beta virt. eigenvalues --   -0.00243  -0.00047   0.00161   0.00438   0.00727

 Mulliken charges and spin densities:
               1          2
     1  Na  -0.080677  -0.077851
     2  Na   0.178363   0.344820
     3  Na   0.225869   0.021408
     4  Na  -0.177960   0.062544
     5  Na  -0.654049  -0.026251
     6  Na   0.475003   0.404035
     7  Na   0.033451   0.271295
 Sum of Mulliken charges =  -0.00000   1.00000

 Dipole moment (field-independent basis, Debye):
    X=             -0.6938    Y=              0.3596    Z=              0.5018  Tot=              0.9287
 Quadrupole moment (field-independent basis, Debye-Ang):
   XX=            -61.2775   YY=            -76.7103   ZZ=            -63.5704
   XY=             -0.7949   XZ=             -3.4625   YZ=              0.1641

 Normal termination of Gaussian 16 at Sun Dec  3 23:26:01 2023.
