 Gaussian 16, Revision B.01,
 Gaussian 16:  ES64L-G16RevB.01 20-Dec-2017

 -------------------------
 #P B3LYP/6-311+g(d) force
 -------------------------

 -----
 DPGEN
 -----
 Symbolic Z-matrix:
 Charge =  0 Multiplicity = 2

                         Standard orientation:
 ---------------------------------------------------------------------
 Center     Atomic      Atomic             Coordinates (Angstroms)
 Number     Number       Type             X           Y           Z
 ---------------------------------------------------------------------
      1         11           0        0.327494   -1.546862   -0.751519
      2         11           0        2.719754   -3.617747    0.113289
      3         11           0        2.874563    0.125786    0.011160
      4         11           0        2.632421    3.569404   -0.163152
      5         11           0        0.132369    1.888582    0.389945
      6         11           0       -2.994796   -0.759199    0.949972
      7         11           0       -5.691805    0.340036   -0.549695
 ---------------------------------------------------------------------

 SCF Done:  E(UB3LYP) =  -1136.12158461     A.U. after   19 cycles

 The electronic state is 2-A.
 Alpha  occ. eigenvalues --  -38.44674 -38.44185 -38.44168 -38.44162 -38.43788
 Alpha  occ. eigenvalues --  -38.43722 -38.43277  -2.20560  -2.20061  -2.20037
 Alpha  occ. eigenvalues --   -2.19975  -2.19689  -2.19527  -2.19067  -1.14311
 Alpha  occ. eigenvalues --   -1.14261  -1.14129  -1.13800  -1.13749  -1.13736
 Alpha  occ. eigenvalues --   -1.13679  -1.13675  -1.13647  -1.13633  -1.13597
 Alpha  occ. eigenvalues --   -1.13576  -1.13402  -1.13356  -1.13268  -1.13165
 Alpha  occ. eigenvalues --   -1.13164  -1.13158  -1.12756  -1.12741  -1.12710
 Alpha  occ. eigenvalues --   -0.17399  -0.13445  -0.13105  -0.10367
 Alpha virt. eigenvalues --   -0.06230  -0.05254  -0.05076  -0.03561  -0.02450
 Alpha virt. eigenvalues --   -0.02424  -0.02117  -0.01745  -0.00962  -0.00689
 Alpha virt. eigenvalues --   -0.00312   0.00074   0.00312   0.00460   0.00526

  Beta  occ. eigenvalues --  -38.44664 -38.44165 -38.44140 -38.44136 -38.43758
  Beta  occ. eigenvalues --  -38.43633 -38.43285  -2.20543  -2.20015  -2.19998
  Beta  occ. eigenvalues --   -2.19923  -2.19638  -2.19361  -2.19089  -1.14282
  Beta  occ. eigenvalues --   -1.14250  -1.14117  -1.13770  -1.13718  -1.13704
  Beta  occ. eigenvalues --   -1.13652  -1.13643  -1.13611  -1.13597  -1.13562
  Beta  occ. eigenvalues --   -1.13536  -1.13373  -1.13324  -1.13204  -1.13056
  Beta  occ. eigenvalues --   -1.13051  -1.13049  -1.12779  -1.12760  -1.12674
  Beta  occ. eigenvalues --   -0.16868  -0.13117  -0.12489
  Beta virt. eigenvalues --   -0.07047  -0.05973  -0.04968  -0.04669  -0.03229
  Beta virt. eigenvalues --   -0.02336  -0.02126  -0.02001  -0.01432  -0.00626
  Beta virt. eigenvalues --   -0.00396  -0.00018   0.00256   0.00456   0.00565

 Mulliken charges and spin densities:
               1          2
     1  Na  -1.073949  -0.111151
     2  Na   0.948008   0.218789
     3  Na  -0.549771   0.278278
     4  Na   1.302721   0.139701
     5  Na  -0.949438   0.056863
     6  Na   0.266213  -0.016631
     7  Na   0.056215   0.434151
 Sum of Mulliken charges =  -0.00000   1.00000

 Dipole moment (field-independent basis, Debye):
    X=              1.9595    Y=              0.4077    Z=             -0.0820  Tot=              2.0031
 Quadrupole moment (field-independent basis, Debye-Ang):
   XX=            -73.4391   YY=            -56.8485   ZZ=            -69.7197
   XY=             -0.8333   XZ=              2.4012   YZ=             -2.3257

 Normal termination of Gaussian 16 at Tue Nov 28 19:22:45 2023.
