 Gaussian 16, Revision B.01,
 Gaussian 16:  ES64L-G16RevB.01 20-Dec-2017

 -------------------------
 #P B3LYP/6-311+g(d) force
 -------------------------

 -----
 DPGEN
 -----
 Symbolic Z-matrix:
 Charge =  0 Multiplicity = 2

                         Standard orientation:
 ---------------------------------------------------------------------
 Center     Atomic      Atomic             Coordinates (Angstroms)
 Number     Number       Type             X           Y           Z
 ---------------------------------------------------------------------
      1         11           0       -0.878071    0.412577    1.313137
      2         11           0        2.212515    1.198982    0.660159
      3         11           0        0.639608   -2.704974   -0.213752
      4         11           0       -3.422706    0.962353   -0.503177
      5         11           0       -3.205182   -2.350370   -0.115778
      6         11           0        5.019917   -0.722517   -0.497908
      7         11           0       -0.366081    3.203950   -0.642681
 ---------------------------------------------------------------------

 SCF Done:  E(UB3LYP) =  -1136.12155280     A.U. after   20 cycles

 The electronic state is 2-A.
 Alpha  occ. eigenvalues --  -38.44480 -38.44345 -38.44345 -38.44290 -38.43953
 Alpha  occ. eigenvalues --  -38.43707 -38.43686  -2.20266  -2.20228  -2.20146
 Alpha  occ. eigenvalues --   -2.20081  -2.19747  -2.19550  -2.19542  -1.13980
 Alpha  occ. eigenvalues --   -1.13963  -1.13914  -1.13892  -1.13866  -1.13840
 Alpha  occ. eigenvalues --   -1.13826  -1.13795  -1.13780  -1.13766  -1.13744
 Alpha  occ. eigenvalues --   -1.13715  -1.13387  -1.13385  -1.13356  -1.13249
 Alpha  occ. eigenvalues --   -1.13233  -1.13224  -1.13206  -1.13152  -1.13147
 Alpha  occ. eigenvalues --   -0.17248  -0.13597  -0.12502  -0.10539
 Alpha virt. eigenvalues --   -0.06412  -0.05942  -0.04451  -0.03634  -0.02557
 Alpha virt. eigenvalues --   -0.02327  -0.02013  -0.01360  -0.01188  -0.00821
 Alpha virt. eigenvalues --   -0.00297   0.00089   0.00456   0.00508   0.00574

  Beta  occ. eigenvalues --  -38.44452 -38.44349 -38.44320 -38.44286 -38.43845
  Beta  occ. eigenvalues --  -38.43702 -38.43642  -2.20223  -2.20179  -2.20155
  Beta  occ. eigenvalues --   -2.20077  -2.19545  -2.19539  -2.19468  -1.13946
  Beta  occ. eigenvalues --   -1.13922  -1.13881  -1.13857  -1.13839  -1.13833
  Beta  occ. eigenvalues --   -1.13808  -1.13797  -1.13777  -1.13765  -1.13739
  Beta  occ. eigenvalues --   -1.13694  -1.13251  -1.13248  -1.13240  -1.13226
  Beta  occ. eigenvalues --   -1.13216  -1.13181  -1.13150  -1.13126  -1.13088
  Beta  occ. eigenvalues --   -0.16844  -0.12897  -0.12066
  Beta virt. eigenvalues --   -0.07091  -0.06259  -0.05873  -0.04022  -0.03235
  Beta virt. eigenvalues --   -0.02333  -0.02025  -0.01678  -0.01147  -0.00803
  Beta virt. eigenvalues --   -0.00718  -0.00074   0.00348   0.00498   0.00632

 Mulliken charges and spin densities:
               1          2
     1  Na   0.519934   0.052860
     2  Na  -0.566905  -0.027298
     3  Na  -0.244155   0.047985
     4  Na  -0.048453   0.342416
     5  Na   0.119925   0.019705
     6  Na   0.226100   0.617333
     7  Na  -0.006446  -0.053002
 Sum of Mulliken charges =  -0.00000   1.00000

 Dipole moment (field-independent basis, Debye):
    X=             -1.1402    Y=              0.0751    Z=             -0.4409  Tot=              1.2248
 Quadrupole moment (field-independent basis, Debye-Ang):
   XX=            -72.7141   YY=            -60.6334   ZZ=            -68.5554
   XY=              2.0570   XZ=             -0.3016   YZ=             -0.4354

 Normal termination of Gaussian 16 at Tue Nov 28 19:07:34 2023.
