 Gaussian 16, Revision B.01,
 Gaussian 16:  ES64L-G16RevB.01 20-Dec-2017

 -------------------------
 #P B3LYP/6-311+g(d) force
 -------------------------

 -----
 DPGEN
 -----
 Symbolic Z-matrix:
 Charge =  0 Multiplicity = 2

                         Standard orientation:
 ---------------------------------------------------------------------
 Center     Atomic      Atomic             Coordinates (Angstroms)
 Number     Number       Type             X           Y           Z
 ---------------------------------------------------------------------
      1         11           0        0.055802    0.104793    1.729963
      2         11           0        2.701071    0.952060   -0.040763
      3         11           0        1.793766   -2.379125   -0.066667
      4         11           0       -1.795161   -2.242473    0.161653
      5         11           0       -2.769093    0.824126   -0.170898
      6         11           0       -0.017286    2.864695    0.000699
      7         11           0        0.030901   -0.124075   -1.613988
 ---------------------------------------------------------------------

 SCF Done:  E(UB3LYP) =  -1136.13930208     A.U. after   19 cycles

 The electronic state is 2-A.
 Alpha  occ. eigenvalues --  -38.43551 -38.43526 -38.43491 -38.43478 -38.43322
 Alpha  occ. eigenvalues --  -38.42943 -38.42835  -2.19461  -2.19400  -2.19390
 Alpha  occ. eigenvalues --   -2.19383  -2.19229  -2.18968  -2.18895  -1.13170
 Alpha  occ. eigenvalues --   -1.13133  -1.13131  -1.13115  -1.13087  -1.13067
 Alpha  occ. eigenvalues --   -1.13064  -1.13056  -1.13042  -1.13036  -1.13016
 Alpha  occ. eigenvalues --   -1.12971  -1.12918  -1.12892  -1.12852  -1.12669
 Alpha  occ. eigenvalues --   -1.12585  -1.12576  -1.12561  -1.12516  -1.12508
 Alpha  occ. eigenvalues --   -0.19468  -0.13156  -0.12891  -0.10630
 Alpha virt. eigenvalues --   -0.05184  -0.05074  -0.04903  -0.03033  -0.02872
 Alpha virt. eigenvalues --   -0.02183  -0.01274  -0.01201  -0.00161  -0.00123
 Alpha virt. eigenvalues --    0.00046   0.00369   0.00903   0.00924   0.00939

  Beta  occ. eigenvalues --  -38.43543 -38.43521 -38.43483 -38.43471 -38.43315
  Beta  occ. eigenvalues --  -38.42861 -38.42761  -2.19452  -2.19395  -2.19381
  Beta  occ. eigenvalues --   -2.19373  -2.19221  -2.18817  -2.18762  -1.13165
  Beta  occ. eigenvalues --   -1.13127  -1.13114  -1.13092  -1.13082  -1.13055
  Beta  occ. eigenvalues --   -1.13044  -1.13034  -1.13022  -1.13015  -1.13001
  Beta  occ. eigenvalues --   -1.12970  -1.12911  -1.12859  -1.12848  -1.12574
  Beta  occ. eigenvalues --   -1.12476  -1.12471  -1.12465  -1.12419  -1.12411
  Beta  occ. eigenvalues --   -0.18732  -0.12871  -0.12614
  Beta virt. eigenvalues --   -0.06680  -0.05186  -0.05066  -0.04899  -0.02192
  Beta virt. eigenvalues --   -0.02066  -0.01201  -0.01146  -0.01125  -0.00215
  Beta virt. eigenvalues --   -0.00181   0.00167   0.00395   0.00927   0.00938

 Mulliken charges and spin densities:
               1          2
     1  Na  -0.459189   0.725698
     2  Na   0.221040  -0.083634
     3  Na   0.139944  -0.103273
     4  Na   0.159737  -0.065025
     5  Na   0.193907  -0.045315
     6  Na   0.226029  -0.063537
     7  Na  -0.481466   0.635086
 Sum of Mulliken charges =  -0.00000   1.00000

 Dipole moment (field-independent basis, Debye):
    X=              0.0585    Y=             -0.0854    Z=              0.0533  Tot=              0.1165
 Quadrupole moment (field-independent basis, Debye-Ang):
   XX=            -58.1513   YY=            -59.1029   ZZ=            -75.2306
   XY=             -0.2692   XZ=             -0.0311   YZ=             -0.5769

 Normal termination of Gaussian 16 at Thu Dec  7 19:48:53 2023.
