 Gaussian 16, Revision B.01,
 Gaussian 16:  ES64L-G16RevB.01 20-Dec-2017

 -------------------------
 #P B3LYP/6-311+g(d) force
 -------------------------

 -----
 DPGEN
 -----
 Symbolic Z-matrix:
 Charge =  0 Multiplicity = 2

                         Standard orientation:
 ---------------------------------------------------------------------
 Center     Atomic      Atomic             Coordinates (Angstroms)
 Number     Number       Type             X           Y           Z
 ---------------------------------------------------------------------
      1         11           0       -1.722150   -1.658267   -0.967743
      2         11           0       -3.551504    0.306156    0.309800
      3         11           0       -0.115070    2.929731   -0.136411
      4         11           0        0.521673    0.169597   -1.646163
      5         11           0        1.741686   -2.381658    0.331341
      6         11           0        3.370372    0.769967    0.059854
      7         11           0       -0.245008   -0.135527    2.049321
 ---------------------------------------------------------------------

 SCF Done:  E(UB3LYP) =  -1136.12489761     A.U. after   22 cycles

 The electronic state is 2-A.
 Alpha  occ. eigenvalues --  -38.45176 -38.44968 -38.44098 -38.43343 -38.43341
 Alpha  occ. eigenvalues --  -38.43116 -38.43078  -2.20961  -2.20782  -2.19962
 Alpha  occ. eigenvalues --   -2.19346  -2.19285  -2.18930  -2.18921  -1.14651
 Alpha  occ. eigenvalues --   -1.14613  -1.14587  -1.14505  -1.14430  -1.14399
 Alpha  occ. eigenvalues --   -1.13637  -1.13593  -1.13578  -1.13171  -1.13005
 Alpha  occ. eigenvalues --   -1.12969  -1.12923  -1.12886  -1.12877  -1.12614
 Alpha  occ. eigenvalues --   -1.12608  -1.12591  -1.12587  -1.12567  -1.12536
 Alpha  occ. eigenvalues --   -0.18513  -0.13371  -0.11697  -0.11053
 Alpha virt. eigenvalues --   -0.06773  -0.04659  -0.04094  -0.03485  -0.02837
 Alpha virt. eigenvalues --   -0.02702  -0.02251  -0.00959  -0.00470  -0.00148
 Alpha virt. eigenvalues --    0.00072   0.00293   0.00507   0.00785   0.00838

  Beta  occ. eigenvalues --  -38.45175 -38.44967 -38.44012 -38.43307 -38.43273
  Beta  occ. eigenvalues --  -38.43116 -38.43070  -2.20960  -2.20783  -2.19802
  Beta  occ. eigenvalues --   -2.19235  -2.19214  -2.18924  -2.18920  -1.14641
  Beta  occ. eigenvalues --   -1.14609  -1.14588  -1.14507  -1.14418  -1.14401
  Beta  occ. eigenvalues --   -1.13532  -1.13481  -1.13460  -1.13092  -1.12919
  Beta  occ. eigenvalues --   -1.12894  -1.12876  -1.12836  -1.12803  -1.12607
  Beta  occ. eigenvalues --   -1.12598  -1.12579  -1.12573  -1.12553  -1.12538
  Beta  occ. eigenvalues --   -0.17763  -0.13205  -0.11449
  Beta virt. eigenvalues --   -0.07096  -0.06682  -0.04632  -0.03971  -0.02867
  Beta virt. eigenvalues --   -0.02214  -0.01955  -0.01703  -0.00872  -0.00478
  Beta virt. eigenvalues --   -0.00001   0.00075   0.00312   0.00664   0.00824

 Mulliken charges and spin densities:
               1          2
     1  Na   0.350447   0.103468
     2  Na  -0.099196  -0.000339
     3  Na  -0.208479  -0.095611
     4  Na   0.327347   0.240826
     5  Na   0.012391   0.073318
     6  Na   0.003442  -0.053722
     7  Na  -0.385952   0.732060
 Sum of Mulliken charges =  -0.00000   1.00000

 Dipole moment (field-independent basis, Debye):
    X=              0.2422    Y=              0.2824    Z=              0.5101  Tot=              0.6313
 Quadrupole moment (field-independent basis, Debye-Ang):
   XX=            -49.2256   YY=            -70.2253   ZZ=            -73.1923
   XY=             -0.8888   XZ=              0.2823   YZ=              1.0028

 Normal termination of Gaussian 16 at Thu Dec  7 13:37:29 2023.
