 Gaussian 16, Revision B.01,
 Gaussian 16:  ES64L-G16RevB.01 20-Dec-2017

 -------------------------
 #P B3LYP/6-311+g(d) force
 -------------------------

 -----
 DPGEN
 -----
 Symbolic Z-matrix:
 Charge =  0 Multiplicity = 2

                         Standard orientation:
 ---------------------------------------------------------------------
 Center     Atomic      Atomic             Coordinates (Angstroms)
 Number     Number       Type             X           Y           Z
 ---------------------------------------------------------------------
      1         11           0        1.681969   -1.381523   -0.745037
      2         11           0       -3.699158   -2.745394    1.056196
      3         11           0       -4.353944    4.176137   -0.444366
      4         11           0       -3.905651    1.231056    0.440877
      5         11           0       -0.978254   -3.558716   -0.831116
      6         11           0        4.272864    1.561662   -0.176979
      7         11           0        6.982175    0.716778    0.700426
 ---------------------------------------------------------------------

 SCF Done:  E(UB3LYP) =  -1136.10521883     A.U. after   19 cycles

 The electronic state is 2-A.
 Alpha  occ. eigenvalues --  -38.45134 -38.44950 -38.44862 -38.44551 -38.44418
 Alpha  occ. eigenvalues --  -38.43789 -38.43590  -2.20946  -2.20737  -2.20656
 Alpha  occ. eigenvalues --   -2.20359  -2.20193  -2.19585  -2.19370  -1.14649
 Alpha  occ. eigenvalues --   -1.14582  -1.14579  -1.14390  -1.14388  -1.14341
 Alpha  occ. eigenvalues --   -1.14304  -1.14289  -1.14283  -1.14021  -1.14014
 Alpha  occ. eigenvalues --   -1.14001  -1.13875  -1.13863  -1.13851  -1.13274
 Alpha  occ. eigenvalues --   -1.13232  -1.13232  -1.13044  -1.13043  -1.12989
 Alpha  occ. eigenvalues --   -0.15251  -0.14195  -0.12661  -0.11433
 Alpha virt. eigenvalues --   -0.07003  -0.05419  -0.04270  -0.03457  -0.02931
 Alpha virt. eigenvalues --   -0.02775  -0.02404  -0.01922  -0.01544  -0.01279
 Alpha virt. eigenvalues --   -0.00670  -0.00596  -0.00135   0.00254   0.00492

  Beta  occ. eigenvalues --  -38.45095 -38.44858 -38.44778 -38.44557 -38.44433
  Beta  occ. eigenvalues --  -38.43763 -38.43596  -2.20873  -2.20565  -2.20498
  Beta  occ. eigenvalues --   -2.20375  -2.20228  -2.19537  -2.19384  -1.14603
  Beta  occ. eigenvalues --   -1.14532  -1.14528  -1.14273  -1.14271  -1.14231
  Beta  occ. eigenvalues --   -1.14195  -1.14183  -1.14181  -1.14029  -1.14024
  Beta  occ. eigenvalues --   -1.13995  -1.13904  -1.13889  -1.13830  -1.13245
  Beta  occ. eigenvalues --   -1.13199  -1.13199  -1.13056  -1.13054  -1.12974
  Beta  occ. eigenvalues --   -0.14519  -0.13689  -0.12270
  Beta virt. eigenvalues --   -0.08230  -0.06510  -0.05064  -0.03900  -0.03249
  Beta virt. eigenvalues --   -0.02770  -0.02600  -0.02073  -0.01734  -0.01420
  Beta virt. eigenvalues --   -0.00979  -0.00484  -0.00154   0.00093   0.00360

 Mulliken charges and spin densities:
               1          2
     1  Na  -0.231142   0.463673
     2  Na   0.267126   0.305918
     3  Na   0.458738   0.127940
     4  Na  -0.762636   0.056409
     5  Na  -0.010856  -0.114893
     6  Na  -0.052140   0.013296
     7  Na   0.330911   0.147657
 Sum of Mulliken charges =  -0.00000   1.00000

 Dipole moment (field-independent basis, Debye):
    X=              2.1132    Y=             -0.4264    Z=              0.1575  Tot=              2.1615
 Quadrupole moment (field-independent basis, Debye-Ang):
   XX=            -57.6883   YY=            -62.0645   ZZ=            -72.5013
   XY=              1.8311   XZ=              2.3280   YZ=             -2.7619

 Normal termination of Gaussian 16 at Sun Dec  3 23:54:14 2023.
