 Gaussian 16, Revision B.01,
 Gaussian 16:  ES64L-G16RevB.01 20-Dec-2017

 -------------------------
 #P B3LYP/6-311+g(d) force
 -------------------------

 -----
 DPGEN
 -----
 Symbolic Z-matrix:
 Charge =  0 Multiplicity = 2

                         Standard orientation:
 ---------------------------------------------------------------------
 Center     Atomic      Atomic             Coordinates (Angstroms)
 Number     Number       Type             X           Y           Z
 ---------------------------------------------------------------------
      1         11           0        2.208941   -0.996448   -0.757341
      2         11           0        4.684794   -1.871769    1.283463
      3         11           0        4.153105    1.835203    0.317833
      4         11           0        1.089042    1.960068   -0.626589
      5         11           0       -1.359867   -0.714197   -1.165122
      6         11           0       -4.738724   -0.802985   -0.646854
      7         11           0       -6.037291    0.590128    1.594610
 ---------------------------------------------------------------------

 SCF Done:  E(UB3LYP) =  -1136.11510618     A.U. after   21 cycles

 The electronic state is 2-A.
 Alpha  occ. eigenvalues --  -38.44539 -38.44500 -38.44204 -38.44136 -38.43929
 Alpha  occ. eigenvalues --  -38.43928 -38.43303  -2.20380  -2.20311  -2.20089
 Alpha  occ. eigenvalues --   -2.20035  -2.19771  -2.19738  -2.19123  -1.14080
 Alpha  occ. eigenvalues --   -1.14048  -1.14034  -1.13980  -1.13950  -1.13948
 Alpha  occ. eigenvalues --   -1.13837  -1.13755  -1.13731  -1.13705  -1.13673
 Alpha  occ. eigenvalues --   -1.13618  -1.13425  -1.13420  -1.13417  -1.13397
 Alpha  occ. eigenvalues --   -1.13388  -1.13344  -1.12796  -1.12788  -1.12741
 Alpha  occ. eigenvalues --   -0.16911  -0.14284  -0.11924  -0.11407
 Alpha virt. eigenvalues --   -0.06774  -0.04941  -0.04034  -0.03725  -0.03107
 Alpha virt. eigenvalues --   -0.02570  -0.02371  -0.01403  -0.00997  -0.00635
 Alpha virt. eigenvalues --   -0.00469  -0.00050   0.00144   0.00381   0.00670

  Beta  occ. eigenvalues --  -38.44486 -38.44483 -38.44160 -38.44111 -38.43932
  Beta  occ. eigenvalues --  -38.43874 -38.43278  -2.20287  -2.20278  -2.20013
  Beta  occ. eigenvalues --   -2.19990  -2.19778  -2.19637  -2.19075  -1.14014
  Beta  occ. eigenvalues --   -1.14005  -1.13990  -1.13928  -1.13925  -1.13901
  Beta  occ. eigenvalues --   -1.13792  -1.13713  -1.13694  -1.13647  -1.13607
  Beta  occ. eigenvalues --   -1.13571  -1.13427  -1.13424  -1.13415  -1.13324
  Beta  occ. eigenvalues --   -1.13316  -1.13285  -1.12762  -1.12754  -1.12717
  Beta  occ. eigenvalues --   -0.16209  -0.14037  -0.11470
  Beta virt. eigenvalues --   -0.07807  -0.06399  -0.04671  -0.03710  -0.03523
  Beta virt. eigenvalues --   -0.02623  -0.02439  -0.01923  -0.01235  -0.00718
  Beta virt. eigenvalues --   -0.00415  -0.00151   0.00096   0.00277   0.00428

 Mulliken charges and spin densities:
               1          2
     1  Na  -1.049789   0.405906
     2  Na   0.709320   0.128181
     3  Na   0.544126   0.115438
     4  Na  -0.192374   0.261766
     5  Na   0.333108   0.020369
     6  Na  -0.459950   0.007442
     7  Na   0.115561   0.060897
 Sum of Mulliken charges =  -0.00000   1.00000

 Dipole moment (field-independent basis, Debye):
    X=              0.3893    Y=              0.7774    Z=              0.7566  Tot=              1.1525
 Quadrupole moment (field-independent basis, Debye-Ang):
   XX=            -62.9147   YY=            -66.0522   ZZ=            -66.9639
   XY=             -0.9370   XZ=             -0.9552   YZ=              2.7680

 Normal termination of Gaussian 16 at Wed Nov 29 01:58:50 2023.
