 Gaussian 16, Revision B.01,
 Gaussian 16:  ES64L-G16RevB.01 20-Dec-2017

 -------------------------
 #P B3LYP/6-311+g(d) force
 -------------------------

 -----
 DPGEN
 -----
 Symbolic Z-matrix:
 Charge =  0 Multiplicity = 2

                         Standard orientation:
 ---------------------------------------------------------------------
 Center     Atomic      Atomic             Coordinates (Angstroms)
 Number     Number       Type             X           Y           Z
 ---------------------------------------------------------------------
      1         11           0       -0.019338    0.039896   -1.643778
      2         11           0       -0.592128    0.087332    2.053024
      3         11           0       -0.568979    2.978334    0.033188
      4         11           0       -0.846221   -2.673800   -0.232264
      5         11           0        2.375447   -1.699857    0.316757
      6         11           0       -2.963451   -0.037063   -0.292482
      7         11           0        2.614670    1.305156   -0.234444
 ---------------------------------------------------------------------

 SCF Done:  E(UB3LYP) =  -1136.13758228     A.U. after   19 cycles

 The electronic state is 2-A.
 Alpha  occ. eigenvalues --  -38.43877 -38.43639 -38.43617 -38.43537 -38.43430
 Alpha  occ. eigenvalues --  -38.43343 -38.43136  -2.19759  -2.19542  -2.19499
 Alpha  occ. eigenvalues --   -2.19369  -2.19311  -2.19242  -2.19161  -1.13457
 Alpha  occ. eigenvalues --   -1.13438  -1.13380  -1.13240  -1.13203  -1.13180
 Alpha  occ. eigenvalues --   -1.13170  -1.13163  -1.13132  -1.13047  -1.13034
 Alpha  occ. eigenvalues --   -1.13001  -1.12999  -1.12960  -1.12955  -1.12947
 Alpha  occ. eigenvalues --   -1.12892  -1.12858  -1.12821  -1.12787  -1.12764
 Alpha  occ. eigenvalues --   -0.19002  -0.13119  -0.12603  -0.10949
 Alpha virt. eigenvalues --   -0.05481  -0.04897  -0.04769  -0.03266  -0.02994
 Alpha virt. eigenvalues --   -0.02655  -0.01287  -0.01110  -0.00207  -0.00125
 Alpha virt. eigenvalues --    0.00007   0.00373   0.00874   0.00908   0.00947

  Beta  occ. eigenvalues --  -38.43867 -38.43613 -38.43547 -38.43534 -38.43425
  Beta  occ. eigenvalues --  -38.43335 -38.43068  -2.19746  -2.19495  -2.19372
  Beta  occ. eigenvalues --   -2.19366  -2.19304  -2.19231  -2.19037  -1.13447
  Beta  occ. eigenvalues --   -1.13399  -1.13372  -1.13238  -1.13163  -1.13126
  Beta  occ. eigenvalues --   -1.13094  -1.13058  -1.13049  -1.13032  -1.13012
  Beta  occ. eigenvalues --   -1.12996  -1.12986  -1.12949  -1.12937  -1.12929
  Beta  occ. eigenvalues --   -1.12866  -1.12849  -1.12742  -1.12696  -1.12682
  Beta  occ. eigenvalues --   -0.18265  -0.12870  -0.12358
  Beta virt. eigenvalues --   -0.07002  -0.05475  -0.04833  -0.04752  -0.02472
  Beta virt. eigenvalues --   -0.02201  -0.01578  -0.01212  -0.01041  -0.00239
  Beta virt. eigenvalues --   -0.00171   0.00137   0.00396   0.00880   0.00918

 Mulliken charges and spin densities:
               1          2
     1  Na  -0.265164   0.362688
     2  Na  -0.607763   0.760680
     3  Na   0.083062  -0.097723
     4  Na   0.271584   0.040867
     5  Na   0.013335   0.028692
     6  Na   0.353875  -0.073073
     7  Na   0.151071  -0.022131
 Sum of Mulliken charges =  -0.00000   1.00000

 Dipole moment (field-independent basis, Debye):
    X=             -0.2696    Y=              0.1506    Z=              0.1835  Tot=              0.3592
 Quadrupole moment (field-independent basis, Debye-Ang):
   XX=            -59.3608   YY=            -61.6979   ZZ=            -73.2493
   XY=             -0.1307   XZ=              1.1525   YZ=             -0.2809

 Normal termination of Gaussian 16 at Fri Dec  8 00:11:27 2023.
