 Gaussian 16, Revision B.01,
 Gaussian 16:  ES64L-G16RevB.01 20-Dec-2017

 -------------------------
 #P B3LYP/6-311+g(d) force
 -------------------------

 -----
 DPGEN
 -----
 Symbolic Z-matrix:
 Charge =  0 Multiplicity = 2

                         Standard orientation:
 ---------------------------------------------------------------------
 Center     Atomic      Atomic             Coordinates (Angstroms)
 Number     Number       Type             X           Y           Z
 ---------------------------------------------------------------------
      1         11           0        0.350145    2.321162   -1.049820
      2         11           0        1.683599   -1.083413   -2.096186
      3         11           0       -3.804024   -0.426783   -0.430855
      4         11           0       -0.949901   -0.308005   -0.632511
      5         11           0       -0.386851    1.288515    2.105664
      6         11           0        0.600212   -2.142335    1.469687
      7         11           0        2.506821    0.350859    0.634021
 ---------------------------------------------------------------------

 SCF Done:  E(UB3LYP) =  -1136.11527713     A.U. after   31 cycles

 The electronic state is 2-A.
 Alpha  occ. eigenvalues --  -38.44220 -38.44195 -38.44142 -38.43894 -38.43775
 Alpha  occ. eigenvalues --  -38.43402 -38.42406  -2.20082  -2.20037  -2.20028
 Alpha  occ. eigenvalues --   -2.19798  -2.19732  -2.19325  -2.18564  -1.13790
 Alpha  occ. eigenvalues --   -1.13776  -1.13741  -1.13731  -1.13705  -1.13679
 Alpha  occ. eigenvalues --   -1.13658  -1.13649  -1.13622  -1.13510  -1.13447
 Alpha  occ. eigenvalues --   -1.13421  -1.13408  -1.13385  -1.13321  -1.13084
 Alpha  occ. eigenvalues --   -1.12937  -1.12925  -1.12265  -1.12224  -1.12167
 Alpha  occ. eigenvalues --   -0.19423  -0.12818  -0.12554  -0.11408
 Alpha virt. eigenvalues --   -0.05935  -0.04544  -0.04131  -0.03260  -0.03167
 Alpha virt. eigenvalues --   -0.02735  -0.01614  -0.00875  -0.00538   0.00219
 Alpha virt. eigenvalues --    0.00326   0.00421   0.00530   0.00836   0.00863

  Beta  occ. eigenvalues --  -38.44225 -38.44136 -38.44091 -38.43846 -38.43760
  Beta  occ. eigenvalues --  -38.43369 -38.42378  -2.20038  -2.19976  -2.19943
  Beta  occ. eigenvalues --   -2.19711  -2.19709  -2.19267  -2.18521  -1.13780
  Beta  occ. eigenvalues --   -1.13714  -1.13672  -1.13663  -1.13656  -1.13654
  Beta  occ. eigenvalues --   -1.13644  -1.13600  -1.13550  -1.13455  -1.13396
  Beta  occ. eigenvalues --   -1.13367  -1.13347  -1.13343  -1.13307  -1.13039
  Beta  occ. eigenvalues --   -1.12900  -1.12871  -1.12206  -1.12176  -1.12144
  Beta  occ. eigenvalues --   -0.18447  -0.12435  -0.11292
  Beta virt. eigenvalues --   -0.08495  -0.05755  -0.04006  -0.03719  -0.02818
  Beta virt. eigenvalues --   -0.02597  -0.02141  -0.01578  -0.00582  -0.00409
  Beta virt. eigenvalues --    0.00279   0.00412   0.00484   0.00560   0.00885

 Mulliken charges and spin densities:
               1          2
     1  Na  -0.198196   0.332540
     2  Na   0.859061   0.367423
     3  Na  -0.002224  -0.444136
     4  Na  -1.020546   0.004826
     5  Na   0.141517   0.299061
     6  Na  -0.359328   0.426008
     7  Na   0.579717   0.014278
 Sum of Mulliken charges =  -0.00000   1.00000

 Dipole moment (field-independent basis, Debye):
    X=              0.3530    Y=              0.0649    Z=              0.3353  Tot=              0.4911
 Quadrupole moment (field-independent basis, Debye-Ang):
   XX=            -60.2182   YY=            -72.9466   ZZ=            -59.8575
   XY=             -0.6969   XZ=             -1.6754   YZ=             -3.0055

 Normal termination of Gaussian 16 at Thu Dec  7 16:25:53 2023.
