 Gaussian 16, Revision B.01,
 Gaussian 16:  ES64L-G16RevB.01 20-Dec-2017

 -------------------------
 #P B3LYP/6-311+g(d) force
 -------------------------

 -----
 DPGEN
 -----
 Symbolic Z-matrix:
 Charge =  0 Multiplicity = 2

                         Standard orientation:
 ---------------------------------------------------------------------
 Center     Atomic      Atomic             Coordinates (Angstroms)
 Number     Number       Type             X           Y           Z
 ---------------------------------------------------------------------
      1         11           0       -1.315708   -2.182032    1.081626
      2         11           0        2.104400    2.506282   -0.162972
      3         11           0        1.538118   -0.131685    1.816789
      4         11           0        0.001034   -0.336084   -1.790355
      5         11           0       -3.758275   -0.017247   -0.426587
      6         11           0       -1.223581    2.174993    0.323305
      7         11           0        2.654012   -2.014227   -0.841806
 ---------------------------------------------------------------------

 SCF Done:  E(UB3LYP) =  -1136.13304179     A.U. after   19 cycles

 The electronic state is 2-A.
 Alpha  occ. eigenvalues --  -38.44317 -38.44025 -38.43948 -38.43888 -38.43582
 Alpha  occ. eigenvalues --  -38.43545 -38.43400  -2.20110  -2.19832  -2.19773
 Alpha  occ. eigenvalues --   -2.19766  -2.19466  -2.19372  -2.19248  -1.13783
 Alpha  occ. eigenvalues --   -1.13772  -1.13748  -1.13517  -1.13502  -1.13485
 Alpha  occ. eigenvalues --   -1.13450  -1.13441  -1.13424  -1.13411  -1.13394
 Alpha  occ. eigenvalues --   -1.13359  -1.13145  -1.13132  -1.13088  -1.13036
 Alpha  occ. eigenvalues --   -1.13022  -1.13011  -1.12942  -1.12926  -1.12850
 Alpha  occ. eigenvalues --   -0.18064  -0.13173  -0.12051  -0.10924
 Alpha virt. eigenvalues --   -0.06062  -0.05396  -0.04428  -0.03291  -0.02903
 Alpha virt. eigenvalues --   -0.02604  -0.01880  -0.01288  -0.00637  -0.00083
 Alpha virt. eigenvalues --   -0.00030   0.00269   0.00503   0.00742   0.00767

  Beta  occ. eigenvalues --  -38.44318 -38.43988 -38.43927 -38.43820 -38.43544
  Beta  occ. eigenvalues --  -38.43522 -38.43396  -2.20114  -2.19766  -2.19730
  Beta  occ. eigenvalues --   -2.19650  -2.19373  -2.19355  -2.19244  -1.13787
  Beta  occ. eigenvalues --   -1.13766  -1.13751  -1.13470  -1.13443  -1.13432
  Beta  occ. eigenvalues --   -1.13400  -1.13397  -1.13371  -1.13360  -1.13324
  Beta  occ. eigenvalues --   -1.13281  -1.13080  -1.13065  -1.13036  -1.13025
  Beta  occ. eigenvalues --   -1.13012  -1.12971  -1.12938  -1.12907  -1.12850
  Beta  occ. eigenvalues --   -0.17385  -0.13003  -0.11790
  Beta virt. eigenvalues --   -0.07056  -0.05916  -0.05335  -0.04176  -0.02838
  Beta virt. eigenvalues --   -0.02267  -0.01792  -0.01636  -0.01231  -0.00369
  Beta virt. eigenvalues --   -0.00069   0.00064   0.00313   0.00658   0.00778

 Mulliken charges and spin densities:
               1          2
     1  Na  -0.221003   0.127334
     2  Na   0.224332  -0.036837
     3  Na   0.045472   0.437393
     4  Na  -0.307673   0.537371
     5  Na   0.445025  -0.020432
     6  Na  -0.297158   0.008773
     7  Na   0.111005  -0.053602
 Sum of Mulliken charges =  -0.00000   1.00000

 Dipole moment (field-independent basis, Debye):
    X=             -0.2376    Y=             -0.1577    Z=             -0.1428  Tot=              0.3189
 Quadrupole moment (field-independent basis, Debye-Ang):
   XX=            -52.8797   YY=            -68.6037   ZZ=            -72.3725
   XY=              0.4718   XZ=             -0.2096   YZ=             -0.7228

 Normal termination of Gaussian 16 at Tue Dec  5 15:35:49 2023.
