 Gaussian 16, Revision B.01,
 Gaussian 16:  ES64L-G16RevB.01 20-Dec-2017

 -------------------------
 #P B3LYP/6-311+g(d) force
 -------------------------

 -----
 DPGEN
 -----
 Symbolic Z-matrix:
 Charge =  0 Multiplicity = 2

                         Standard orientation:
 ---------------------------------------------------------------------
 Center     Atomic      Atomic             Coordinates (Angstroms)
 Number     Number       Type             X           Y           Z
 ---------------------------------------------------------------------
      1         11           0       -1.893764    1.101062   -1.073194
      2         11           0        3.161320   -0.113014   -0.100318
      3         11           0        0.068438    0.302985    2.113199
      4         11           0       -4.881736   -0.443689   -0.671868
      5         11           0        5.826132   -1.400521   -0.703830
      6         11           0        0.534235    2.977823    0.056158
      7         11           0       -2.814626   -2.424647    0.379853
 ---------------------------------------------------------------------

 SCF Done:  E(UB3LYP) =  -1136.11737083     A.U. after   19 cycles

 The electronic state is 2-A.
 Alpha  occ. eigenvalues --  -38.45054 -38.44768 -38.44752 -38.44561 -38.44438
 Alpha  occ. eigenvalues --  -38.42941 -38.42879  -2.20874  -2.20598  -2.20588
 Alpha  occ. eigenvalues --   -2.20419  -2.20272  -2.18767  -2.18687  -1.14576
 Alpha  occ. eigenvalues --   -1.14531  -1.14513  -1.14260  -1.14252  -1.14243
 Alpha  occ. eigenvalues --   -1.14240  -1.14223  -1.14205  -1.14109  -1.14082
 Alpha  occ. eigenvalues --   -1.14053  -1.13933  -1.13914  -1.13892  -1.12510
 Alpha  occ. eigenvalues --   -1.12444  -1.12443  -1.12330  -1.12329  -1.12261
 Alpha  occ. eigenvalues --   -0.17215  -0.14186  -0.11904  -0.10944
 Alpha virt. eigenvalues --   -0.06168  -0.06166  -0.05273  -0.03165  -0.03048
 Alpha virt. eigenvalues --   -0.02339  -0.01853  -0.01545  -0.01350  -0.00983
 Alpha virt. eigenvalues --   -0.00458  -0.00049   0.00144   0.00328   0.00535

  Beta  occ. eigenvalues --  -38.45024 -38.44739 -38.44702 -38.44512 -38.44425
  Beta  occ. eigenvalues --  -38.42942 -38.42868  -2.20818  -2.20575  -2.20464
  Beta  occ. eigenvalues --   -2.20333  -2.20250  -2.18770  -2.18667  -1.14541
  Beta  occ. eigenvalues --   -1.14493  -1.14467  -1.14235  -1.14223  -1.14205
  Beta  occ. eigenvalues --   -1.14166  -1.14157  -1.14118  -1.14052  -1.14010
  Beta  occ. eigenvalues --   -1.13996  -1.13917  -1.13879  -1.13876  -1.12504
  Beta  occ. eigenvalues --   -1.12447  -1.12442  -1.12316  -1.12316  -1.12252
  Beta  occ. eigenvalues --   -0.16575  -0.14052  -0.11619
  Beta virt. eigenvalues --   -0.07423  -0.05941  -0.05415  -0.05002  -0.03000
  Beta virt. eigenvalues --   -0.02453  -0.02227  -0.01537  -0.01426  -0.01044
  Beta virt. eigenvalues --   -0.00659  -0.00209   0.00052   0.00338   0.00510

 Mulliken charges and spin densities:
               1          2
     1  Na   0.110131   0.345902
     2  Na  -0.119907  -0.119793
     3  Na   0.072532   0.465114
     4  Na   0.237617  -0.028659
     5  Na  -1.396015   0.114931
     6  Na   0.880227   0.025638
     7  Na   0.215415   0.196868
 Sum of Mulliken charges =  -0.00000   1.00000

 Dipole moment (field-independent basis, Debye):
    X=             -3.0064    Y=              0.4599    Z=              0.4259  Tot=              3.0710
 Quadrupole moment (field-independent basis, Debye-Ang):
   XX=            -65.4069   YY=            -63.7818   ZZ=            -71.2691
   XY=              3.9836   XZ=              0.5308   YZ=              1.4456

 Normal termination of Gaussian 16 at Sun Dec  3 12:54:19 2023.
