 Gaussian 16, Revision B.01,
 Gaussian 16:  ES64L-G16RevB.01 20-Dec-2017

 -------------------------
 #P B3LYP/6-311+g(d) force
 -------------------------

 -----
 DPGEN
 -----
 Symbolic Z-matrix:
 Charge =  0 Multiplicity = 2

                         Standard orientation:
 ---------------------------------------------------------------------
 Center     Atomic      Atomic             Coordinates (Angstroms)
 Number     Number       Type             X           Y           Z
 ---------------------------------------------------------------------
      1         11           0       -0.360716    1.595382   -0.113892
      2         11           0       -5.551969    0.313593   -0.484430
      3         11           0        2.862412    1.993456   -0.144888
      4         11           0        3.799002   -1.322753   -0.543093
      5         11           0       -2.580693   -1.097080    0.681489
      6         11           0        0.650898   -1.047601   -1.493305
      7         11           0        1.181066   -0.434996    2.098118
 ---------------------------------------------------------------------

 SCF Done:  E(UB3LYP) =  -1136.10617744     A.U. after   30 cycles

 The electronic state is 2-A.
 Alpha  occ. eigenvalues --  -38.46519 -38.45599 -38.44413 -38.43933 -38.43798
 Alpha  occ. eigenvalues --  -38.43229 -38.42445  -2.22343  -2.21467  -2.20194
 Alpha  occ. eigenvalues --   -2.19815  -2.19606  -2.19155  -2.18291  -1.16007
 Alpha  occ. eigenvalues --   -1.15996  -1.15968  -1.15165  -1.15125  -1.15074
 Alpha  occ. eigenvalues --   -1.13840  -1.13837  -1.13811  -1.13495  -1.13459
 Alpha  occ. eigenvalues --   -1.13420  -1.13299  -1.13289  -1.13237  -1.12892
 Alpha  occ. eigenvalues --   -1.12805  -1.12754  -1.11963  -1.11954  -1.11947
 Alpha  occ. eigenvalues --   -0.18455  -0.13852  -0.11236  -0.10902
 Alpha virt. eigenvalues --   -0.08267  -0.05198  -0.04107  -0.03238  -0.03113
 Alpha virt. eigenvalues --   -0.02319  -0.02236  -0.02007  -0.01444  -0.00878
 Alpha virt. eigenvalues --   -0.00233   0.00117   0.00153   0.00537   0.00656

  Beta  occ. eigenvalues --  -38.46486 -38.45572 -38.44331 -38.43869 -38.43798
  Beta  occ. eigenvalues --  -38.43237 -38.42450  -2.22284  -2.21420  -2.20041
  Beta  occ. eigenvalues --   -2.19695  -2.19612  -2.19173  -2.18302  -1.15965
  Beta  occ. eigenvalues --   -1.15937  -1.15930  -1.15139  -1.15084  -1.15032
  Beta  occ. eigenvalues --   -1.13735  -1.13733  -1.13711  -1.13414  -1.13386
  Beta  occ. eigenvalues --   -1.13334  -1.13311  -1.13300  -1.13192  -1.12908
  Beta  occ. eigenvalues --   -1.12810  -1.12752  -1.11970  -1.11963  -1.11940
  Beta  occ. eigenvalues --   -0.17937  -0.13282  -0.10503
  Beta virt. eigenvalues --   -0.08049  -0.07797  -0.04622  -0.03995  -0.03104
  Beta virt. eigenvalues --   -0.02868  -0.01963  -0.01836  -0.01476  -0.01113
  Beta virt. eigenvalues --   -0.00660  -0.00085   0.00209   0.00231   0.00578

 Mulliken charges and spin densities:
               1          2
     1  Na  -0.370992  -0.089922
     2  Na  -0.013729   0.384642
     3  Na   0.265262   0.335834
     4  Na   0.097280  -0.096442
     5  Na   0.023760   0.086142
     6  Na  -0.074985   0.215458
     7  Na   0.073404   0.164288
 Sum of Mulliken charges =  -0.00000   1.00000

 Dipole moment (field-independent basis, Debye):
    X=              0.3744    Y=              0.2940    Z=              1.1434  Tot=              1.2386
 Quadrupole moment (field-independent basis, Debye-Ang):
   XX=            -68.9979   YY=            -77.7220   ZZ=            -60.7035
   XY=              1.1972   XZ=              6.3796   YZ=             -6.0319

 Normal termination of Gaussian 16 at Fri Dec  8 04:49:41 2023.
