 Gaussian 16, Revision B.01,
 Gaussian 16:  ES64L-G16RevB.01 20-Dec-2017

 -------------------------
 #P B3LYP/6-311+g(d) force
 -------------------------

 -----
 DPGEN
 -----
 Symbolic Z-matrix:
 Charge =  0 Multiplicity = 2

                         Standard orientation:
 ---------------------------------------------------------------------
 Center     Atomic      Atomic             Coordinates (Angstroms)
 Number     Number       Type             X           Y           Z
 ---------------------------------------------------------------------
      1         11           0       -4.885182   -0.986927    0.246986
      2         11           0        0.998934    2.294924   -1.297932
      3         11           0        2.709341   -2.332625   -0.790758
      4         11           0        4.287563    0.596657    0.815111
      5         11           0       -2.443220    1.949805    0.177437
      6         11           0       -1.175278   -1.297905   -0.685036
      7         11           0        0.507842   -0.223930    1.534192
 ---------------------------------------------------------------------

 SCF Done:  E(UB3LYP) =  -1136.11283965     A.U. after   24 cycles

 The electronic state is 2-A.
 Alpha  occ. eigenvalues --  -38.45737 -38.44503 -38.44328 -38.44261 -38.43910
 Alpha  occ. eigenvalues --  -38.43836 -38.43717  -2.21586  -2.20262  -2.20123
 Alpha  occ. eigenvalues --   -2.20055  -2.19709  -2.19697  -2.19471  -1.15339
 Alpha  occ. eigenvalues --   -1.15216  -1.15178  -1.13955  -1.13910  -1.13903
 Alpha  occ. eigenvalues --   -1.13832  -1.13798  -1.13719  -1.13719  -1.13681
 Alpha  occ. eigenvalues --   -1.13669  -1.13459  -1.13359  -1.13352  -1.13343
 Alpha  occ. eigenvalues --   -1.13308  -1.13281  -1.13169  -1.13132  -1.13108
 Alpha  occ. eigenvalues --   -0.17380  -0.13887  -0.11147  -0.10774
 Alpha virt. eigenvalues --   -0.06997  -0.05829  -0.04712  -0.03101  -0.03077
 Alpha virt. eigenvalues --   -0.02387  -0.02099  -0.01420  -0.01239  -0.00787
 Alpha virt. eigenvalues --   -0.00704   0.00038   0.00318   0.00491   0.00522

  Beta  occ. eigenvalues --  -38.45712 -38.44498 -38.44321 -38.44176 -38.43833
  Beta  occ. eigenvalues --  -38.43807 -38.43736  -2.21545  -2.20257  -2.20112
  Beta  occ. eigenvalues --   -2.19896  -2.19660  -2.19554  -2.19509  -1.15283
  Beta  occ. eigenvalues --   -1.15199  -1.15148  -1.13955  -1.13907  -1.13875
  Beta  occ. eigenvalues --   -1.13826  -1.13792  -1.13697  -1.13610  -1.13573
  Beta  occ. eigenvalues --   -1.13566  -1.13418  -1.13324  -1.13255  -1.13246
  Beta  occ. eigenvalues --   -1.13238  -1.13209  -1.13193  -1.13159  -1.13127
  Beta  occ. eigenvalues --   -0.16867  -0.13150  -0.10934
  Beta virt. eigenvalues --   -0.07312  -0.06894  -0.05678  -0.03991  -0.02959
  Beta virt. eigenvalues --   -0.02911  -0.02045  -0.01766  -0.01191  -0.00905
  Beta virt. eigenvalues --   -0.00556  -0.00299   0.00112   0.00387   0.00580

 Mulliken charges and spin densities:
               1          2
     1  Na   0.325305   0.418930
     2  Na  -0.252249  -0.129227
     3  Na   0.066665  -0.002749
     4  Na   0.100603   0.555201
     5  Na   0.317449   0.110581
     6  Na  -0.422497   0.010827
     7  Na  -0.135277   0.036437
 Sum of Mulliken charges =  -0.00000   1.00000

 Dipole moment (field-independent basis, Debye):
    X=              0.4553    Y=             -0.0598    Z=              0.1431  Tot=              0.4810
 Quadrupole moment (field-independent basis, Debye-Ang):
   XX=            -68.3787   YY=            -74.5344   ZZ=            -62.2449
   XY=             -3.2542   XZ=             -2.6372   YZ=              2.6273

 Normal termination of Gaussian 16 at Sun Dec  3 16:44:43 2023.
