 Gaussian 16, Revision B.01,
 Gaussian 16:  ES64L-G16RevB.01 20-Dec-2017

 -------------------------
 #P B3LYP/6-311+g(d) force
 -------------------------

 -----
 DPGEN
 -----
 Symbolic Z-matrix:
 Charge =  0 Multiplicity = 2

                         Standard orientation:
 ---------------------------------------------------------------------
 Center     Atomic      Atomic             Coordinates (Angstroms)
 Number     Number       Type             X           Y           Z
 ---------------------------------------------------------------------
      1         11           0        2.583553   -2.416005   -0.379511
      2         11           0       -0.932192   -2.375034    1.778599
      3         11           0       -1.263704   -1.911280   -1.721074
      4         11           0       -4.356849    1.362517   -0.478435
      5         11           0       -1.514174    1.011329    0.902291
      6         11           0        1.501584    3.287974   -0.060853
      7         11           0        3.981782    1.040498   -0.041016
 ---------------------------------------------------------------------

 SCF Done:  E(UB3LYP) =  -1136.10906180     A.U. after   21 cycles

 The electronic state is 2-A.
 Alpha  occ. eigenvalues --  -38.46298 -38.44437 -38.44417 -38.44164 -38.44111
 Alpha  occ. eigenvalues --  -38.44052 -38.43675  -2.22026  -2.20255  -2.20171
 Alpha  occ. eigenvalues --   -2.19930  -2.19884  -2.19856  -2.19506  -1.15726
 Alpha  occ. eigenvalues --   -1.15687  -1.15642  -1.13916  -1.13901  -1.13862
 Alpha  occ. eigenvalues --   -1.13852  -1.13833  -1.13784  -1.13614  -1.13607
 Alpha  occ. eigenvalues --   -1.13584  -1.13550  -1.13535  -1.13527  -1.13499
 Alpha  occ. eigenvalues --   -1.13496  -1.13485  -1.13194  -1.13171  -1.13143
 Alpha  occ. eigenvalues --   -0.16465  -0.13255  -0.12469  -0.10283
 Alpha virt. eigenvalues --   -0.07380  -0.05903  -0.04975  -0.03046  -0.02689
 Alpha virt. eigenvalues --   -0.02449  -0.02240  -0.01819  -0.01302  -0.00838
 Alpha virt. eigenvalues --   -0.00451  -0.00137   0.00085   0.00448   0.00507

  Beta  occ. eigenvalues --  -38.46305 -38.44378 -38.44364 -38.44165 -38.44089
  Beta  occ. eigenvalues --  -38.43994 -38.43669  -2.22039  -2.20119  -2.20099
  Beta  occ. eigenvalues --   -2.19933  -2.19843  -2.19747  -2.19500  -1.15734
  Beta  occ. eigenvalues --   -1.15689  -1.15652  -1.13819  -1.13808  -1.13801
  Beta  occ. eigenvalues --   -1.13786  -1.13772  -1.13732  -1.13618  -1.13607
  Beta  occ. eigenvalues --   -1.13573  -1.13521  -1.13506  -1.13476  -1.13461
  Beta  occ. eigenvalues --   -1.13424  -1.13409  -1.13194  -1.13145  -1.13126
  Beta  occ. eigenvalues --   -0.16025  -0.12864  -0.12096
  Beta virt. eigenvalues --   -0.07137  -0.06888  -0.05620  -0.04546  -0.02802
  Beta virt. eigenvalues --   -0.02512  -0.02146  -0.01835  -0.01553  -0.01076
  Beta virt. eigenvalues --   -0.00696  -0.00187   0.00070   0.00219   0.00562

 Mulliken charges and spin densities:
               1          2
     1  Na  -0.165686   0.296896
     2  Na   0.517857   0.120245
     3  Na  -0.007337   0.052083
     4  Na   0.036373   0.352972
     5  Na  -0.606793   0.122892
     6  Na   0.263654   0.065689
     7  Na  -0.038068  -0.010776
 Sum of Mulliken charges =  -0.00000   1.00000

 Dipole moment (field-independent basis, Debye):
    X=             -0.4277    Y=             -1.0597    Z=             -0.4484  Tot=              1.2275
 Quadrupole moment (field-independent basis, Debye-Ang):
   XX=            -66.4185   YY=            -67.3199   ZZ=            -68.0536
   XY=              2.2223   XZ=              2.7921   YZ=             -0.6820

 Normal termination of Gaussian 16 at Mon Dec  4 03:27:54 2023.
