 Gaussian 16, Revision B.01,
 Gaussian 16:  ES64L-G16RevB.01 20-Dec-2017

 -------------------------
 #P B3LYP/6-311+g(d) force
 -------------------------

 -----
 DPGEN
 -----
 Symbolic Z-matrix:
 Charge =  0 Multiplicity = 2

                         Standard orientation:
 ---------------------------------------------------------------------
 Center     Atomic      Atomic             Coordinates (Angstroms)
 Number     Number       Type             X           Y           Z
 ---------------------------------------------------------------------
      1         11           0       -1.704718    2.838031   -0.321006
      2         11           0        1.571260    2.223661   -0.206901
      3         11           0       -0.364594   -0.144107   -1.608465
      4         11           0        0.044363   -2.954822   -0.838644
      5         11           0        3.393731   -0.566666    0.256599
      6         11           0       -2.940276   -1.137924    0.558687
      7         11           0        0.000234   -0.258172    2.159730
 ---------------------------------------------------------------------

 SCF Done:  E(UB3LYP) =  -1136.13210162     A.U. after   19 cycles

 The electronic state is 2-A.
 Alpha  occ. eigenvalues --  -38.44291 -38.44205 -38.43924 -38.43808 -38.43458
 Alpha  occ. eigenvalues --  -38.43434 -38.43295  -2.20133  -2.20018  -2.19776
 Alpha  occ. eigenvalues --   -2.19593  -2.19410  -2.19270  -2.19172  -1.13801
 Alpha  occ. eigenvalues --   -1.13773  -1.13755  -1.13683  -1.13675  -1.13646
 Alpha  occ. eigenvalues --   -1.13564  -1.13403  -1.13373  -1.13271  -1.13256
 Alpha  occ. eigenvalues --   -1.13233  -1.13080  -1.13046  -1.13034  -1.12947
 Alpha  occ. eigenvalues --   -1.12935  -1.12910  -1.12860  -1.12841  -1.12771
 Alpha  occ. eigenvalues --   -0.18207  -0.12855  -0.12271  -0.11125
 Alpha virt. eigenvalues --   -0.05654  -0.05094  -0.04696  -0.03304  -0.02938
 Alpha virt. eigenvalues --   -0.02819  -0.01570  -0.01324  -0.00511  -0.00151
 Alpha virt. eigenvalues --   -0.00037   0.00315   0.00755   0.00809   0.00837

  Beta  occ. eigenvalues --  -38.44199 -38.44189 -38.43892 -38.43810 -38.43457
  Beta  occ. eigenvalues --  -38.43375 -38.43291  -2.19990  -2.19965  -2.19720
  Beta  occ. eigenvalues --   -2.19598  -2.19303  -2.19270  -2.19167  -1.13700
  Beta  occ. eigenvalues --   -1.13667  -1.13658  -1.13651  -1.13628  -1.13602
  Beta  occ. eigenvalues --   -1.13508  -1.13357  -1.13338  -1.13276  -1.13248
  Beta  occ. eigenvalues --   -1.13237  -1.13008  -1.12979  -1.12965  -1.12947
  Beta  occ. eigenvalues --   -1.12913  -1.12905  -1.12848  -1.12830  -1.12765
  Beta  occ. eigenvalues --   -0.17511  -0.12593  -0.12034
  Beta virt. eigenvalues --   -0.07218  -0.05492  -0.05050  -0.04659  -0.02580
  Beta virt. eigenvalues --   -0.02293  -0.01831  -0.01422  -0.01218  -0.00485
  Beta virt. eigenvalues --   -0.00162   0.00085   0.00359   0.00785   0.00879

 Mulliken charges and spin densities:
               1          2
     1  Na   0.098713  -0.048172
     2  Na  -0.000500   0.003401
     3  Na   0.028517   0.303357
     4  Na   0.164631   0.029448
     5  Na  -0.016279  -0.017192
     6  Na   0.064680   0.087615
     7  Na  -0.339762   0.641543
 Sum of Mulliken charges =  -0.00000   1.00000

 Dipole moment (field-independent basis, Debye):
    X=             -0.2994    Y=             -0.3597    Z=              0.3588  Tot=              0.5897
 Quadrupole moment (field-independent basis, Debye-Ang):
   XX=            -58.3248   YY=            -62.9435   ZZ=            -73.0821
   XY=             -1.3077   XZ=             -0.7920   YZ=              0.2816

 Normal termination of Gaussian 16 at Thu Dec  7 16:31:30 2023.
