 Gaussian 16, Revision B.01,
 Gaussian 16:  ES64L-G16RevB.01 20-Dec-2017

 -------------------------
 #P B3LYP/6-311+g(d) force
 -------------------------

 -----
 DPGEN
 -----
 Symbolic Z-matrix:
 Charge =  0 Multiplicity = 2

                         Standard orientation:
 ---------------------------------------------------------------------
 Center     Atomic      Atomic             Coordinates (Angstroms)
 Number     Number       Type             X           Y           Z
 ---------------------------------------------------------------------
      1         11           0        1.328667   -2.629602   -0.067457
      2         11           0        3.629256    0.169966   -0.025756
      3         11           0       -0.578401   -0.605602   -1.678811
      4         11           0       -2.378845    2.168633    0.136836
      5         11           0       -3.210005   -1.428577    0.029697
      6         11           0        0.019627   -0.285080    1.946150
      7         11           0        1.189700    2.610262   -0.340660
 ---------------------------------------------------------------------

 SCF Done:  E(UB3LYP) =  -1136.12916250     A.U. after   21 cycles

 The electronic state is 2-A.
 Alpha  occ. eigenvalues --  -38.44994 -38.44945 -38.44049 -38.43597 -38.43482
 Alpha  occ. eigenvalues --  -38.43437 -38.43164  -2.20765  -2.20739  -2.19843
 Alpha  occ. eigenvalues --   -2.19445  -2.19355  -2.19350  -2.18971  -1.14438
 Alpha  occ. eigenvalues --   -1.14426  -1.14425  -1.14403  -1.14387  -1.14379
 Alpha  occ. eigenvalues --   -1.13518  -1.13506  -1.13482  -1.13176  -1.13130
 Alpha  occ. eigenvalues --   -1.13064  -1.13031  -1.13007  -1.12984  -1.12978
 Alpha  occ. eigenvalues --   -1.12966  -1.12963  -1.12650  -1.12643  -1.12607
 Alpha  occ. eigenvalues --   -0.18036  -0.13277  -0.12049  -0.10293
 Alpha virt. eigenvalues --   -0.06684  -0.05633  -0.04263  -0.03264  -0.02648
 Alpha virt. eigenvalues --   -0.02358  -0.02201  -0.01422  -0.00805  -0.00277
 Alpha virt. eigenvalues --   -0.00084   0.00231   0.00643   0.00672   0.00716

  Beta  occ. eigenvalues --  -38.44995 -38.44942 -38.44046 -38.43589 -38.43388
  Beta  occ. eigenvalues --  -38.43375 -38.43159  -2.20767  -2.20737  -2.19840
  Beta  occ. eigenvalues --   -2.19435  -2.19238  -2.19182  -2.18963  -1.14433
  Beta  occ. eigenvalues --   -1.14426  -1.14412  -1.14405  -1.14382  -1.14375
  Beta  occ. eigenvalues --   -1.13507  -1.13496  -1.13485  -1.13159  -1.13086
  Beta  occ. eigenvalues --   -1.13061  -1.12945  -1.12903  -1.12903  -1.12889
  Beta  occ. eigenvalues --   -1.12858  -1.12841  -1.12643  -1.12625  -1.12602
  Beta  occ. eigenvalues --   -0.17346  -0.13098  -0.11819
  Beta virt. eigenvalues --   -0.06622  -0.06448  -0.05604  -0.04206  -0.02546
  Beta virt. eigenvalues --   -0.02212  -0.01904  -0.01368  -0.01268  -0.00851
  Beta virt. eigenvalues --   -0.00289   0.00098   0.00281   0.00710   0.00734

 Mulliken charges and spin densities:
               1          2
     1  Na   0.275313  -0.088162
     2  Na  -0.042144  -0.019419
     3  Na  -0.009843   0.559902
     4  Na  -0.086195  -0.006935
     5  Na   0.284012  -0.095571
     6  Na  -0.268812   0.691426
     7  Na  -0.152332  -0.041241
 Sum of Mulliken charges =  -0.00000   1.00000

 Dipole moment (field-independent basis, Debye):
    X=             -0.2325    Y=             -0.3648    Z=              0.1493  Tot=              0.4577
 Quadrupole moment (field-independent basis, Debye-Ang):
   XX=            -48.4818   YY=            -66.9159   ZZ=            -76.9090
   XY=             -0.2583   XZ=             -1.1996   YZ=             -0.5183

 Normal termination of Gaussian 16 at Thu Dec  7 13:16:13 2023.
