 Gaussian 16, Revision B.01,
 Gaussian 16:  ES64L-G16RevB.01 20-Dec-2017

 -------------------------
 #P B3LYP/6-311+g(d) force
 -------------------------

 -----
 DPGEN
 -----
 Symbolic Z-matrix:
 Charge =  0 Multiplicity = 2

                         Standard orientation:
 ---------------------------------------------------------------------
 Center     Atomic      Atomic             Coordinates (Angstroms)
 Number     Number       Type             X           Y           Z
 ---------------------------------------------------------------------
      1         11           0        0.676279    3.102148   -1.731807
      2         11           0       -0.007652    2.148755    2.143368
      3         11           0       -4.091586   -1.973324   -0.330057
      4         11           0        2.916395   -2.906541   -0.665696
      5         11           0       -0.557079   -1.560793    0.800010
      6         11           0        3.431719    0.046391    0.295382
      7         11           0       -2.368076    1.143362   -0.511199
 ---------------------------------------------------------------------

 SCF Done:  E(UB3LYP) =  -1136.11849359     A.U. after   20 cycles

 The electronic state is 2-A.
 Alpha  occ. eigenvalues --  -38.45061 -38.44733 -38.44334 -38.44194 -38.44192
 Alpha  occ. eigenvalues --  -38.43811 -38.43725  -2.20833  -2.20511  -2.20143
 Alpha  occ. eigenvalues --   -2.19990  -2.19965  -2.19585  -2.19521  -1.14515
 Alpha  occ. eigenvalues --   -1.14493  -1.14477  -1.14228  -1.14184  -1.14107
 Alpha  occ. eigenvalues --   -1.13855  -1.13835  -1.13735  -1.13652  -1.13647
 Alpha  occ. eigenvalues --   -1.13633  -1.13631  -1.13630  -1.13583  -1.13246
 Alpha  occ. eigenvalues --   -1.13234  -1.13195  -1.13187  -1.13171  -1.13133
 Alpha  occ. eigenvalues --   -0.16578  -0.13371  -0.12322  -0.10334
 Alpha virt. eigenvalues --   -0.06518  -0.05859  -0.04983  -0.03174  -0.03105
 Alpha virt. eigenvalues --   -0.02168  -0.02114  -0.01562  -0.01414  -0.00769
 Alpha virt. eigenvalues --   -0.00341  -0.00031   0.00256   0.00521   0.00601

  Beta  occ. eigenvalues --  -38.45059 -38.44714 -38.44326 -38.44189 -38.44183
  Beta  occ. eigenvalues --  -38.43741 -38.43659  -2.20831  -2.20478  -2.20131
  Beta  occ. eigenvalues --   -2.19982  -2.19948  -2.19454  -2.19401  -1.14508
  Beta  occ. eigenvalues --   -1.14490  -1.14473  -1.14208  -1.14145  -1.14086
  Beta  occ. eigenvalues --   -1.13850  -1.13803  -1.13728  -1.13644  -1.13641
  Beta  occ. eigenvalues --   -1.13625  -1.13621  -1.13617  -1.13573  -1.13155
  Beta  occ. eigenvalues --   -1.13142  -1.13111  -1.13107  -1.13082  -1.13049
  Beta  occ. eigenvalues --   -0.16063  -0.13218  -0.11965
  Beta virt. eigenvalues --   -0.06806  -0.06347  -0.05482  -0.04750  -0.02881
  Beta virt. eigenvalues --   -0.02748  -0.02042  -0.01605  -0.01273  -0.01162
  Beta virt. eigenvalues --   -0.00688  -0.00042   0.00239   0.00318   0.00590

 Mulliken charges and spin densities:
               1          2
     1  Na  -0.022304   0.381207
     2  Na   0.268529   0.291521
     3  Na   0.475788  -0.012856
     4  Na   0.381017  -0.077659
     5  Na  -0.697135   0.132722
     6  Na  -0.196360   0.158887
     7  Na  -0.209536   0.126178
 Sum of Mulliken charges =  -0.00000   1.00000

 Dipole moment (field-independent basis, Debye):
    X=              0.1405    Y=             -0.9693    Z=              0.1858  Tot=              0.9969
 Quadrupole moment (field-independent basis, Debye-Ang):
   XX=            -58.2514   YY=            -64.3175   ZZ=            -74.0141
   XY=              3.1482   XZ=              0.6742   YZ=              3.5908

 Normal termination of Gaussian 16 at Sun Dec  3 21:14:24 2023.
