 Gaussian 16, Revision B.01,
 Gaussian 16:  ES64L-G16RevB.01 20-Dec-2017

 -------------------------
 #P B3LYP/6-311+g(d) force
 -------------------------

 -----
 DPGEN
 -----
 Symbolic Z-matrix:
 Charge =  0 Multiplicity = 2

                         Standard orientation:
 ---------------------------------------------------------------------
 Center     Atomic      Atomic             Coordinates (Angstroms)
 Number     Number       Type             X           Y           Z
 ---------------------------------------------------------------------
      1         11           0        2.894955    0.068709   -1.204474
      2         11           0        1.426475    2.903807    0.705448
      3         11           0        0.383113   -2.628981   -1.078361
      4         11           0       -3.972712    1.227404   -0.540611
      5         11           0        1.441733   -0.700310    1.798601
      6         11           0       -1.749901   -1.646015    1.290678
      7         11           0       -0.423662    0.775385   -0.971281
 ---------------------------------------------------------------------

 SCF Done:  E(UB3LYP) =  -1136.12963698     A.U. after   21 cycles

 The electronic state is 2-A.
 Alpha  occ. eigenvalues --  -38.44279 -38.44028 -38.43973 -38.43867 -38.43733
 Alpha  occ. eigenvalues --  -38.43545 -38.43021  -2.20136  -2.19785  -2.19775
 Alpha  occ. eigenvalues --   -2.19766  -2.19589  -2.19406  -2.18961  -1.13822
 Alpha  occ. eigenvalues --   -1.13806  -1.13736  -1.13471  -1.13464  -1.13448
 Alpha  occ. eigenvalues --   -1.13443  -1.13437  -1.13419  -1.13405  -1.13404
 Alpha  occ. eigenvalues --   -1.13365  -1.13273  -1.13268  -1.13187  -1.13089
 Alpha  occ. eigenvalues --   -1.13045  -1.13036  -1.12671  -1.12633  -1.12569
 Alpha  occ. eigenvalues --   -0.18344  -0.12884  -0.11928  -0.11111
 Alpha virt. eigenvalues --   -0.06239  -0.05008  -0.04636  -0.03223  -0.02806
 Alpha virt. eigenvalues --   -0.02469  -0.01835  -0.01207  -0.00696  -0.00135
 Alpha virt. eigenvalues --    0.00029   0.00237   0.00382   0.00656   0.00799

  Beta  occ. eigenvalues --  -38.44245 -38.44023 -38.43958 -38.43802 -38.43705
  Beta  occ. eigenvalues --  -38.43524 -38.42998  -2.20075  -2.19767  -2.19759
  Beta  occ. eigenvalues --   -2.19650  -2.19540  -2.19369  -2.18922  -1.13771
  Beta  occ. eigenvalues --   -1.13769  -1.13682  -1.13453  -1.13440  -1.13432
  Beta  occ. eigenvalues --   -1.13413  -1.13400  -1.13391  -1.13381  -1.13331
  Beta  occ. eigenvalues --   -1.13284  -1.13239  -1.13226  -1.13143  -1.13061
  Beta  occ. eigenvalues --   -1.13023  -1.12990  -1.12628  -1.12602  -1.12542
  Beta  occ. eigenvalues --   -0.17617  -0.12688  -0.11674
  Beta virt. eigenvalues --   -0.07264  -0.06068  -0.04863  -0.04307  -0.02750
  Beta virt. eigenvalues --   -0.02311  -0.01925  -0.01426  -0.01087  -0.00422
  Beta virt. eigenvalues --   -0.00027   0.00079   0.00292   0.00455   0.00702

 Mulliken charges and spin densities:
               1          2
     1  Na   0.765859   0.116827
     2  Na  -0.132892  -0.096468
     3  Na   0.135599   0.108028
     4  Na   0.260079  -0.015065
     5  Na  -0.007343   0.479447
     6  Na  -0.034760   0.028745
     7  Na  -0.986542   0.378485
 Sum of Mulliken charges =  -0.00000   1.00000

 Dipole moment (field-independent basis, Debye):
    X=              0.5909    Y=             -0.0680    Z=              0.2052  Tot=              0.6292
 Quadrupole moment (field-independent basis, Debye-Ang):
   XX=            -57.4641   YY=            -65.0840   ZZ=            -69.8189
   XY=              1.5327   XZ=             -1.6171   YZ=              2.0930

 Normal termination of Gaussian 16 at Tue Dec  5 12:08:01 2023.
