 Gaussian 16, Revision B.01,
 Gaussian 16:  ES64L-G16RevB.01 20-Dec-2017

 -------------------------
 #P B3LYP/6-311+g(d) force
 -------------------------

 -----
 DPGEN
 -----
 Symbolic Z-matrix:
 Charge =  0 Multiplicity = 2

                         Standard orientation:
 ---------------------------------------------------------------------
 Center     Atomic      Atomic             Coordinates (Angstroms)
 Number     Number       Type             X           Y           Z
 ---------------------------------------------------------------------
      1         11           0       -1.145070    0.044318   -1.695322
      2         11           0       -2.748657   -2.478428    0.182759
      3         11           0        1.496085   -1.841746   -0.448957
      4         11           0        0.727036    2.241898   -0.863676
      5         11           0        3.689948   -0.220529    0.292824
      6         11           0        0.205587    0.079689    1.816290
      7         11           0       -2.224930    2.174798    0.716082
 ---------------------------------------------------------------------

 SCF Done:  E(UB3LYP) =  -1136.12435845     A.U. after   20 cycles

 The electronic state is 2-A.
 Alpha  occ. eigenvalues --  -38.44570 -38.44087 -38.44010 -38.43861 -38.43671
 Alpha  occ. eigenvalues --  -38.43348 -38.43207  -2.20423  -2.19944  -2.19919
 Alpha  occ. eigenvalues --   -2.19788  -2.19427  -2.19267  -2.19174  -1.14219
 Alpha  occ. eigenvalues --   -1.14053  -1.14040  -1.13637  -1.13636  -1.13606
 Alpha  occ. eigenvalues --   -1.13575  -1.13549  -1.13520  -1.13448  -1.13435
 Alpha  occ. eigenvalues --   -1.13390  -1.13106  -1.13092  -1.13074  -1.13058
 Alpha  occ. eigenvalues --   -1.12916  -1.12863  -1.12841  -1.12803  -1.12739
 Alpha  occ. eigenvalues --   -0.18665  -0.13458  -0.11804  -0.10997
 Alpha virt. eigenvalues --   -0.06117  -0.05401  -0.03980  -0.03510  -0.02702
 Alpha virt. eigenvalues --   -0.02600  -0.01942  -0.01360  -0.00512   0.00019
 Alpha virt. eigenvalues --    0.00192   0.00261   0.00675   0.00732   0.00820

  Beta  occ. eigenvalues --  -38.44571 -38.44067 -38.43937 -38.43850 -38.43675
  Beta  occ. eigenvalues --  -38.43316 -38.43143  -2.20427  -2.19910  -2.19787
  Beta  occ. eigenvalues --   -2.19770  -2.19436  -2.19213  -2.19058  -1.14223
  Beta  occ. eigenvalues --   -1.14044  -1.14043  -1.13598  -1.13573  -1.13556
  Beta  occ. eigenvalues --   -1.13547  -1.13473  -1.13435  -1.13415  -1.13386
  Beta  occ. eigenvalues --   -1.13382  -1.13110  -1.13094  -1.13068  -1.13011
  Beta  occ. eigenvalues --   -1.12862  -1.12824  -1.12766  -1.12722  -1.12653
  Beta  occ. eigenvalues --   -0.17900  -0.13266  -0.11645
  Beta virt. eigenvalues --   -0.06973  -0.05989  -0.05347  -0.03899  -0.02863
  Beta virt. eigenvalues --   -0.02121  -0.01855  -0.01622  -0.01191  -0.00337
  Beta virt. eigenvalues --    0.00082   0.00221   0.00278   0.00759   0.00785

 Mulliken charges and spin densities:
               1          2
     1  Na   0.326217   0.211263
     2  Na  -0.165347  -0.091835
     3  Na  -0.385551   0.067564
     4  Na  -0.077058   0.190324
     5  Na   0.484791  -0.042501
     6  Na  -0.196309   0.603161
     7  Na   0.013257   0.062024
 Sum of Mulliken charges =  -0.00000   1.00000

 Dipole moment (field-independent basis, Debye):
    X=              0.3556    Y=              0.4323    Z=              0.3885  Tot=              0.6813
 Quadrupole moment (field-independent basis, Debye-Ang):
   XX=            -52.6184   YY=            -67.9091   ZZ=            -72.8897
   XY=             -0.4291   XZ=             -1.6979   YZ=             -0.1360

 Normal termination of Gaussian 16 at Tue Dec  5 10:50:16 2023.
