 Gaussian 16, Revision B.01,
 Gaussian 16:  ES64L-G16RevB.01 20-Dec-2017

 -------------------------
 #P B3LYP/6-311+g(d) force
 -------------------------

 -----
 DPGEN
 -----
 Symbolic Z-matrix:
 Charge =  0 Multiplicity = 2

                         Standard orientation:
 ---------------------------------------------------------------------
 Center     Atomic      Atomic             Coordinates (Angstroms)
 Number     Number       Type             X           Y           Z
 ---------------------------------------------------------------------
      1         11           0        2.218813    0.277145   -1.795580
      2         11           0       -0.699813    1.664922    0.165582
      3         11           0       -3.757074    1.697195    0.241152
      4         11           0       -3.948983   -1.485022   -0.442464
      5         11           0       -0.717646   -1.789589   -0.134144
      6         11           0        1.843914   -0.504679    2.108987
      7         11           0        5.060789    0.140029   -0.143532
 ---------------------------------------------------------------------

 SCF Done:  E(UB3LYP) =  -1136.10613305     A.U. after   37 cycles

 The electronic state is 2-A.
 Alpha  occ. eigenvalues --  -38.45705 -38.45345 -38.44442 -38.44177 -38.43645
 Alpha  occ. eigenvalues --  -38.43565 -38.42857  -2.21476  -2.21144  -2.20342
 Alpha  occ. eigenvalues --   -2.20030  -2.19504  -2.19440  -2.18658  -1.15171
 Alpha  occ. eigenvalues --   -1.15116  -1.15098  -1.14841  -1.14793  -1.14765
 Alpha  occ. eigenvalues --   -1.14039  -1.14004  -1.13933  -1.13698  -1.13679
 Alpha  occ. eigenvalues --   -1.13655  -1.13189  -1.13151  -1.13130  -1.13129
 Alpha  occ. eigenvalues --   -1.13108  -1.13045  -1.12327  -1.12319  -1.12302
 Alpha  occ. eigenvalues --   -0.17642  -0.14355  -0.11770  -0.10552
 Alpha virt. eigenvalues --   -0.07965  -0.04980  -0.04656  -0.03714  -0.03295
 Alpha virt. eigenvalues --   -0.02544  -0.01662  -0.01602  -0.01260  -0.01168
 Alpha virt. eigenvalues --    0.00101   0.00133   0.00222   0.00457   0.00584

  Beta  occ. eigenvalues --  -38.45701 -38.45343 -38.44360 -38.44113 -38.43624
  Beta  occ. eigenvalues --  -38.43526 -38.42852  -2.21468  -2.21142  -2.20193
  Beta  occ. eigenvalues --   -2.19913  -2.19470  -2.19371  -2.18647  -1.15158
  Beta  occ. eigenvalues --   -1.15112  -1.15095  -1.14833  -1.14792  -1.14763
  Beta  occ. eigenvalues --   -1.13936  -1.13908  -1.13816  -1.13611  -1.13600
  Beta  occ. eigenvalues --   -1.13577  -1.13150  -1.13130  -1.13095  -1.13085
  Beta  occ. eigenvalues --   -1.13067  -1.12971  -1.12319  -1.12311  -1.12295
  Beta  occ. eigenvalues --   -0.17043  -0.13972  -0.10507
  Beta virt. eigenvalues --   -0.07937  -0.07671  -0.04395  -0.04309  -0.03493
  Beta virt. eigenvalues --   -0.02770  -0.02267  -0.01359  -0.01260  -0.01082
  Beta virt. eigenvalues --   -0.01055   0.00160   0.00214   0.00350   0.00633

 Mulliken charges and spin densities:
               1          2
     1  Na   0.491902   0.020137
     2  Na  -0.669028   0.443898
     3  Na   0.236834   0.025961
     4  Na   0.002754   0.164248
     5  Na  -0.457610   0.308634
     6  Na   0.556041   0.029845
     7  Na  -0.160893   0.007276
 Sum of Mulliken charges =  -0.00000   1.00000

 Dipole moment (field-independent basis, Debye):
    X=             -0.1994    Y=             -0.4045    Z=              1.0811  Tot=              1.1714
 Quadrupole moment (field-independent basis, Debye-Ang):
   XX=            -77.1026   YY=            -72.2344   ZZ=            -62.5409
   XY=             -0.7347   XZ=              8.4267   YZ=              1.0284

 Normal termination of Gaussian 16 at Mon Dec  4 04:24:17 2023.
