 Gaussian 16, Revision B.01,
 Gaussian 16:  ES64L-G16RevB.01 20-Dec-2017

 -------------------------
 #P B3LYP/6-311+g(d) force
 -------------------------

 -----
 DPGEN
 -----
 Symbolic Z-matrix:
 Charge =  0 Multiplicity = 2

                         Standard orientation:
 ---------------------------------------------------------------------
 Center     Atomic      Atomic             Coordinates (Angstroms)
 Number     Number       Type             X           Y           Z
 ---------------------------------------------------------------------
      1         11           0       -0.231211   -0.970685   -0.763003
      2         11           0       -0.764627    2.305412   -0.144325
      3         11           0        2.164695    1.178110   -1.795335
      4         11           0        2.882822   -2.152790    0.063999
      5         11           0        1.922821    0.745341    1.827289
      6         11           0       -2.230343   -0.249497    1.941750
      7         11           0       -3.744157   -0.855890   -1.130376
 ---------------------------------------------------------------------

 SCF Done:  E(UB3LYP) =  -1136.12729001     A.U. after   24 cycles

 The electronic state is 2-A.
 Alpha  occ. eigenvalues --  -38.44714 -38.44504 -38.44466 -38.44300 -38.43397
 Alpha  occ. eigenvalues --  -38.42805 -38.42562  -2.20543  -2.20301  -2.20297
 Alpha  occ. eigenvalues --   -2.20150  -2.19334  -2.18624  -2.18420  -1.14232
 Alpha  occ. eigenvalues --   -1.14194  -1.14154  -1.13980  -1.13966  -1.13954
 Alpha  occ. eigenvalues --   -1.13952  -1.13918  -1.13911  -1.13843  -1.13788
 Alpha  occ. eigenvalues --   -1.13745  -1.13057  -1.13013  -1.12941  -1.12292
 Alpha  occ. eigenvalues --   -1.12289  -1.12265  -1.12123  -1.12081  -1.12043
 Alpha  occ. eigenvalues --   -0.18156  -0.13756  -0.11272  -0.10909
 Alpha virt. eigenvalues --   -0.06197  -0.05478  -0.04745  -0.03047  -0.02640
 Alpha virt. eigenvalues --   -0.02456  -0.02100  -0.01229  -0.00759  -0.00250
 Alpha virt. eigenvalues --    0.00187   0.00212   0.00347   0.00538   0.00646

  Beta  occ. eigenvalues --  -38.44678 -38.44487 -38.44418 -38.44247 -38.43376
  Beta  occ. eigenvalues --  -38.42803 -38.42557  -2.20477  -2.20266  -2.20212
  Beta  occ. eigenvalues --   -2.20053  -2.19298  -2.18622  -2.18415  -1.14187
  Beta  occ. eigenvalues --   -1.14152  -1.14095  -1.13939  -1.13931  -1.13914
  Beta  occ. eigenvalues --   -1.13899  -1.13890  -1.13846  -1.13766  -1.13726
  Beta  occ. eigenvalues --   -1.13677  -1.13004  -1.12982  -1.12922  -1.12293
  Beta  occ. eigenvalues --   -1.12277  -1.12264  -1.12122  -1.12055  -1.12036
  Beta  occ. eigenvalues --   -0.17449  -0.13536  -0.10723
  Beta virt. eigenvalues --   -0.07539  -0.05905  -0.04860  -0.04637  -0.02792
  Beta virt. eigenvalues --   -0.02167  -0.02018  -0.01730  -0.00811  -0.00564
  Beta virt. eigenvalues --   -0.00060   0.00256   0.00325   0.00414   0.00582

 Mulliken charges and spin densities:
               1          2
     1  Na  -0.635814   0.522752
     2  Na   0.112986   0.056100
     3  Na   0.087010  -0.009227
     4  Na   0.064272  -0.126148
     5  Na  -0.009589   0.446920
     6  Na   0.101174   0.120089
     7  Na   0.279961  -0.010487
 Sum of Mulliken charges =  -0.00000   1.00000

 Dipole moment (field-independent basis, Debye):
    X=             -0.6486    Y=              0.5254    Z=              0.1840  Tot=              0.8548
 Quadrupole moment (field-independent basis, Debye-Ang):
   XX=            -53.2239   YY=            -76.3704   ZZ=            -63.8179
   XY=              1.9335   XZ=              0.0587   YZ=             -1.2492

 Normal termination of Gaussian 16 at Thu Dec  7 12:16:47 2023.
