 Gaussian 16, Revision B.01,
 Gaussian 16:  ES64L-G16RevB.01 20-Dec-2017

 -------------------------
 #P B3LYP/6-311+g(d) force
 -------------------------

 -----
 DPGEN
 -----
 Symbolic Z-matrix:
 Charge =  0 Multiplicity = 2

                         Standard orientation:
 ---------------------------------------------------------------------
 Center     Atomic      Atomic             Coordinates (Angstroms)
 Number     Number       Type             X           Y           Z
 ---------------------------------------------------------------------
      1         11           0        0.987766    0.240999    2.138313
      2         11           0       -0.463689   -0.702280   -1.610800
      3         11           0       -3.494281   -0.125027   -0.679925
      4         11           0       -1.515877    2.039814    0.739488
      5         11           0        2.019710    2.153294   -0.932146
      6         11           0        3.416309   -1.301742   -0.435953
      7         11           0       -0.949938   -2.305058    0.781023
 ---------------------------------------------------------------------

 SCF Done:  E(UB3LYP) =  -1136.12464344     A.U. after   23 cycles

 The electronic state is 2-A.
 Alpha  occ. eigenvalues --  -38.44885 -38.44467 -38.43999 -38.43961 -38.43915
 Alpha  occ. eigenvalues --  -38.43472 -38.42842  -2.20633  -2.20323  -2.19929
 Alpha  occ. eigenvalues --   -2.19788  -2.19750  -2.19354  -2.18696  -1.14314
 Alpha  occ. eigenvalues --   -1.14284  -1.14269  -1.14008  -1.13986  -1.13946
 Alpha  occ. eigenvalues --   -1.13703  -1.13567  -1.13529  -1.13474  -1.13436
 Alpha  occ. eigenvalues --   -1.13418  -1.13407  -1.13390  -1.13373  -1.13049
 Alpha  occ. eigenvalues --   -1.13002  -1.12943  -1.12381  -1.12361  -1.12332
 Alpha  occ. eigenvalues --   -0.18233  -0.13452  -0.11368  -0.11334
 Alpha virt. eigenvalues --   -0.06490  -0.05041  -0.04324  -0.03242  -0.03015
 Alpha virt. eigenvalues --   -0.02790  -0.02161  -0.00926  -0.00587  -0.00135
 Alpha virt. eigenvalues --    0.00130   0.00248   0.00444   0.00688   0.00825

  Beta  occ. eigenvalues --  -38.44879 -38.44454 -38.43966 -38.43938 -38.43829
  Beta  occ. eigenvalues --  -38.43448 -38.42831  -2.20623  -2.20300  -2.19871
  Beta  occ. eigenvalues --   -2.19709  -2.19631  -2.19312  -2.18680  -1.14302
  Beta  occ. eigenvalues --   -1.14271  -1.14264  -1.13984  -1.13969  -1.13933
  Beta  occ. eigenvalues --   -1.13658  -1.13530  -1.13483  -1.13402  -1.13379
  Beta  occ. eigenvalues --   -1.13363  -1.13339  -1.13297  -1.13288  -1.13024
  Beta  occ. eigenvalues --   -1.12951  -1.12911  -1.12366  -1.12328  -1.12326
  Beta  occ. eigenvalues --   -0.17520  -0.13171  -0.11175
  Beta virt. eigenvalues --   -0.07460  -0.06374  -0.04907  -0.03847  -0.03027
  Beta virt. eigenvalues --   -0.02386  -0.02045  -0.01800  -0.00881  -0.00364
  Beta virt. eigenvalues --   -0.00005   0.00132   0.00291   0.00551   0.00803

 Mulliken charges and spin densities:
               1          2
     1  Na   0.251603   0.442548
     2  Na  -0.286224   0.290619
     3  Na   0.740316  -0.009822
     4  Na  -0.451440   0.067897
     5  Na  -0.110510   0.182666
     6  Na   0.031431  -0.029962
     7  Na  -0.175176   0.056053
 Sum of Mulliken charges =  -0.00000   1.00000

 Dipole moment (field-independent basis, Debye):
    X=              0.2663    Y=             -0.3026    Z=             -0.2271  Tot=              0.4627
 Quadrupole moment (field-independent basis, Debye-Ang):
   XX=            -51.3576   YY=            -73.1938   ZZ=            -69.3487
   XY=             -0.5064   XZ=             -0.1691   YZ=             -2.3431

 Normal termination of Gaussian 16 at Mon Dec  4 04:08:06 2023.
