 Gaussian 16, Revision B.01,
 Gaussian 16:  ES64L-G16RevB.01 20-Dec-2017

 -------------------------
 #P B3LYP/6-311+g(d) force
 -------------------------

 -----
 DPGEN
 -----
 Symbolic Z-matrix:
 Charge =  0 Multiplicity = 2

                         Standard orientation:
 ---------------------------------------------------------------------
 Center     Atomic      Atomic             Coordinates (Angstroms)
 Number     Number       Type             X           Y           Z
 ---------------------------------------------------------------------
      1         11           0        0.792541   -0.290897    1.836363
      2         11           0        3.876700   -1.753174   -0.663778
      3         11           0        2.797491    1.527612   -0.270831
      4         11           0       -0.489451    2.366285    0.550503
      5         11           0       -4.218135    0.187272   -1.137749
      6         11           0       -2.719859   -1.724140    0.994776
      7         11           0       -0.039288   -0.312958   -1.309284
 ---------------------------------------------------------------------

 SCF Done:  E(UB3LYP) =  -1136.11862048     A.U. after   24 cycles

 The electronic state is 2-A.
 Alpha  occ. eigenvalues --  -38.45714 -38.44423 -38.44392 -38.44226 -38.43998
 Alpha  occ. eigenvalues --  -38.42943 -38.42684  -2.21565  -2.20268  -2.20222
 Alpha  occ. eigenvalues --   -2.20042  -2.19925  -2.18722  -2.18579  -1.15297
 Alpha  occ. eigenvalues --   -1.15235  -1.15159  -1.13975  -1.13945  -1.13899
 Alpha  occ. eigenvalues --   -1.13872  -1.13852  -1.13849  -1.13718  -1.13691
 Alpha  occ. eigenvalues --   -1.13668  -1.13624  -1.13542  -1.13540  -1.12396
 Alpha  occ. eigenvalues --   -1.12390  -1.12358  -1.12260  -1.12246  -1.12200
 Alpha  occ. eigenvalues --   -0.18205  -0.13938  -0.11101  -0.10879
 Alpha virt. eigenvalues --   -0.06914  -0.05477  -0.04708  -0.02984  -0.02785
 Alpha virt. eigenvalues --   -0.02690  -0.01998  -0.01350  -0.01087  -0.00453
 Alpha virt. eigenvalues --   -0.00067   0.00127   0.00334   0.00456   0.00608

  Beta  occ. eigenvalues --  -38.45701 -38.44381 -38.44373 -38.44204 -38.43926
  Beta  occ. eigenvalues --  -38.42945 -38.42675  -2.21544  -2.20234  -2.20143
  Beta  occ. eigenvalues --   -2.20004  -2.19795  -2.18726  -2.18564  -1.15262
  Beta  occ. eigenvalues --   -1.15208  -1.15150  -1.13945  -1.13924  -1.13850
  Beta  occ. eigenvalues --   -1.13824  -1.13819  -1.13797  -1.13696  -1.13666
  Beta  occ. eigenvalues --   -1.13612  -1.13538  -1.13453  -1.13433  -1.12400
  Beta  occ. eigenvalues --   -1.12389  -1.12362  -1.12253  -1.12214  -1.12191
  Beta  occ. eigenvalues --   -0.17563  -0.13627  -0.10950
  Beta virt. eigenvalues --   -0.07163  -0.06695  -0.05088  -0.04346  -0.02860
  Beta virt. eigenvalues --   -0.02653  -0.01870  -0.01645  -0.01101  -0.00692
  Beta virt. eigenvalues --   -0.00359   0.00004   0.00248   0.00449   0.00567

 Mulliken charges and spin densities:
               1          2
     1  Na   0.034782   0.421023
     2  Na  -0.035685  -0.057081
     3  Na   0.592081   0.142518
     4  Na  -0.104478  -0.007779
     5  Na   0.193274   0.271671
     6  Na   0.004540  -0.023214
     7  Na  -0.684515   0.252863
 Sum of Mulliken charges =  -0.00000   1.00000

 Dipole moment (field-independent basis, Debye):
    X=             -0.6625    Y=              0.7340    Z=              0.2553  Tot=              1.0212
 Quadrupole moment (field-independent basis, Debye-Ang):
   XX=            -62.4354   YY=            -69.3562   ZZ=            -68.8342
   XY=              1.5719   XZ=              1.6750   YZ=             -1.5167

 Normal termination of Gaussian 16 at Fri Dec  8 06:07:49 2023.
