 Gaussian 16, Revision B.01,
 Gaussian 16:  ES64L-G16RevB.01 20-Dec-2017

 -------------------------
 #P B3LYP/6-311+g(d) force
 -------------------------

 -----
 DPGEN
 -----
 Symbolic Z-matrix:
 Charge =  0 Multiplicity = 2

                         Standard orientation:
 ---------------------------------------------------------------------
 Center     Atomic      Atomic             Coordinates (Angstroms)
 Number     Number       Type             X           Y           Z
 ---------------------------------------------------------------------
      1         11           0        2.202625   -1.738180   -0.883551
      2         11           0        1.145053   -0.524721    2.419611
      3         11           0       -0.357400    2.807134    0.320894
      4         11           0       -0.431139   -0.090955   -1.471465
      5         11           0       -1.690405   -2.327186    0.242160
      6         11           0       -3.467950    0.562229   -0.114810
      7         11           0        2.599216    1.311680   -0.512839
 ---------------------------------------------------------------------

 SCF Done:  E(UB3LYP) =  -1136.13090880     A.U. after   19 cycles

 The electronic state is 2-A.
 Alpha  occ. eigenvalues --  -38.44431 -38.44329 -38.43779 -38.43672 -38.43577
 Alpha  occ. eigenvalues --  -38.43357 -38.43027  -2.20239  -2.20150  -2.19671
 Alpha  occ. eigenvalues --   -2.19518  -2.19476  -2.19367  -2.18848  -1.13919
 Alpha  occ. eigenvalues --   -1.13899  -1.13872  -1.13794  -1.13775  -1.13767
 Alpha  occ. eigenvalues --   -1.13397  -1.13328  -1.13318  -1.13275  -1.13194
 Alpha  occ. eigenvalues --   -1.13178  -1.13128  -1.13106  -1.13092  -1.13039
 Alpha  occ. eigenvalues --   -1.12988  -1.12976  -1.12531  -1.12514  -1.12477
 Alpha  occ. eigenvalues --   -0.18415  -0.13444  -0.11908  -0.11212
 Alpha virt. eigenvalues --   -0.05937  -0.05159  -0.04308  -0.03481  -0.03065
 Alpha virt. eigenvalues --   -0.02708  -0.01719  -0.00906  -0.00345  -0.00176
 Alpha virt. eigenvalues --   -0.00117   0.00333   0.00638   0.00847   0.00885

  Beta  occ. eigenvalues --  -38.44433 -38.44218 -38.43768 -38.43669 -38.43554
  Beta  occ. eigenvalues --  -38.43315 -38.43025  -2.20243  -2.19943  -2.19654
  Beta  occ. eigenvalues --   -2.19514  -2.19439  -2.19293  -2.18845  -1.13916
  Beta  occ. eigenvalues --   -1.13902  -1.13877  -1.13652  -1.13639  -1.13620
  Beta  occ. eigenvalues --   -1.13381  -1.13318  -1.13282  -1.13264  -1.13163
  Beta  occ. eigenvalues --   -1.13157  -1.13125  -1.13083  -1.13048  -1.12990
  Beta  occ. eigenvalues --   -1.12944  -1.12915  -1.12529  -1.12501  -1.12476
  Beta  occ. eigenvalues --   -0.17738  -0.13241  -0.11734
  Beta virt. eigenvalues --   -0.07128  -0.05858  -0.05127  -0.04148  -0.02877
  Beta virt. eigenvalues --   -0.02165  -0.01810  -0.01639  -0.00865  -0.00313
  Beta virt. eigenvalues --   -0.00176   0.00098   0.00389   0.00831   0.00857

 Mulliken charges and spin densities:
               1          2
     1  Na   0.434327   0.100374
     2  Na  -0.635189   0.693446
     3  Na  -0.327634   0.052505
     4  Na   0.449361  -0.019808
     5  Na  -0.255588   0.058611
     6  Na   0.178961   0.015162
     7  Na   0.155762   0.099710
 Sum of Mulliken charges =  -0.00000   1.00000

 Dipole moment (field-independent basis, Debye):
    X=             -0.4248    Y=             -0.1502    Z=              0.3028  Tot=              0.5428
 Quadrupole moment (field-independent basis, Debye-Ang):
   XX=            -54.9522   YY=            -68.3920   ZZ=            -71.6090
   XY=             -0.5147   XZ=             -1.9959   YZ=              0.3230

 Normal termination of Gaussian 16 at Thu Dec  7 05:12:58 2023.
