 Gaussian 16, Revision B.01,
 Gaussian 16:  ES64L-G16RevB.01 20-Dec-2017

 -------------------------
 #P B3LYP/6-311+g(d) force
 -------------------------

 -----
 DPGEN
 -----
 Symbolic Z-matrix:
 Charge =  0 Multiplicity = 2

                         Standard orientation:
 ---------------------------------------------------------------------
 Center     Atomic      Atomic             Coordinates (Angstroms)
 Number     Number       Type             X           Y           Z
 ---------------------------------------------------------------------
      1         11           0        0.099975    0.056890   -0.239293
      2         11           0       -3.258546    1.720875   -0.803271
      3         11           0       -3.165829   -1.534753    0.909241
      4         11           0       -0.314180   -3.633011   -0.162818
      5         11           0        3.132799   -2.135559   -0.298239
      6         11           0        3.397718    1.731139    0.335558
      7         11           0        0.108062    3.794419    0.258822
 ---------------------------------------------------------------------

 SCF Done:  E(UB3LYP) =  -1136.12273800     A.U. after   25 cycles

 The electronic state is 2-A.
 Alpha  occ. eigenvalues --  -38.44800 -38.44749 -38.44526 -38.44400 -38.44271
 Alpha  occ. eigenvalues --  -38.43435 -38.43392  -2.20557  -2.20504  -2.20308
 Alpha  occ. eigenvalues --   -2.20212  -2.20055  -2.19237  -2.19199  -1.14247
 Alpha  occ. eigenvalues --   -1.14219  -1.14190  -1.14182  -1.14160  -1.14124
 Alpha  occ. eigenvalues --   -1.13996  -1.13965  -1.13959  -1.13937  -1.13849
 Alpha  occ. eigenvalues --   -1.13839  -1.13741  -1.13715  -1.13678  -1.12902
 Alpha  occ. eigenvalues --   -1.12873  -1.12870  -1.12861  -1.12836  -1.12824
 Alpha  occ. eigenvalues --   -0.16545  -0.13349  -0.13147  -0.09584
 Alpha virt. eigenvalues --   -0.06971  -0.05753  -0.04491  -0.03416  -0.02789
 Alpha virt. eigenvalues --   -0.02263  -0.02109  -0.01707  -0.01655  -0.00414
 Alpha virt. eigenvalues --   -0.00131   0.00134   0.00308   0.00472   0.00665

  Beta  occ. eigenvalues --  -38.44787 -38.44728 -38.44503 -38.44411 -38.44250
  Beta  occ. eigenvalues --  -38.43382 -38.43327  -2.20537  -2.20468  -2.20270
  Beta  occ. eigenvalues --   -2.20231  -2.20021  -2.19137  -2.19076  -1.14237
  Beta  occ. eigenvalues --   -1.14209  -1.14169  -1.14144  -1.14136  -1.14077
  Beta  occ. eigenvalues --   -1.13975  -1.13968  -1.13943  -1.13879  -1.13870
  Beta  occ. eigenvalues --   -1.13858  -1.13722  -1.13696  -1.13626  -1.12833
  Beta  occ. eigenvalues --   -1.12806  -1.12806  -1.12776  -1.12755  -1.12744
  Beta  occ. eigenvalues --   -0.16287  -0.12681  -0.12512
  Beta virt. eigenvalues --   -0.07089  -0.06456  -0.05493  -0.04159  -0.03036
  Beta virt. eigenvalues --   -0.02215  -0.02060  -0.02004  -0.01470  -0.01410
  Beta virt. eigenvalues --   -0.00245   0.00144   0.00287   0.00438   0.00545

 Mulliken charges and spin densities:
               1          2
     1  Na  -3.671035  -0.262933
     2  Na   0.949981   0.381838
     3  Na   0.527525   0.131405
     4  Na   0.508920   0.174647
     5  Na   0.528804   0.308835
     6  Na   0.169977   0.109434
     7  Na   0.985829   0.156774
 Sum of Mulliken charges =  -0.00000   1.00000

 Dipole moment (field-independent basis, Debye):
    X=              0.1865    Y=              0.2195    Z=              0.3496  Tot=              0.4530
 Quadrupole moment (field-independent basis, Debye-Ang):
   XX=            -61.3476   YY=            -61.9901   ZZ=            -72.6229
   XY=              0.3755   XZ=             -1.1171   YZ=              1.0991

 Normal termination of Gaussian 16 at Fri Dec  8 17:56:54 2023.
