 Gaussian 16, Revision B.01,
 Gaussian 16:  ES64L-G16RevB.01 20-Dec-2017

 -------------------------
 #P B3LYP/6-311+g(d) force
 -------------------------

 -----
 DPGEN
 -----
 Symbolic Z-matrix:
 Charge =  0 Multiplicity = 2

                         Standard orientation:
 ---------------------------------------------------------------------
 Center     Atomic      Atomic             Coordinates (Angstroms)
 Number     Number       Type             X           Y           Z
 ---------------------------------------------------------------------
      1         11           0        0.808155    2.071831   -1.595166
      2         11           0        0.523785   -2.071630    1.651740
      3         11           0       -3.789975   -0.134466   -0.141380
      4         11           0       -0.999769   -0.075279   -0.228657
      5         11           0        1.011055   -2.163073   -1.507412
      6         11           0        2.104795    0.114303    0.318220
      7         11           0        0.341955    2.258313    1.502656
 ---------------------------------------------------------------------

 SCF Done:  E(UB3LYP) =  -1136.11044408     A.U. after   20 cycles

 The electronic state is 2-A.
 Alpha  occ. eigenvalues --  -38.44123 -38.44105 -38.44041 -38.44041 -38.43439
 Alpha  occ. eigenvalues --  -38.43174 -38.42033  -2.20071  -2.20050  -2.19997
 Alpha  occ. eigenvalues --   -2.19973  -2.19317  -2.19261  -2.18233  -1.13814
 Alpha  occ. eigenvalues --   -1.13810  -1.13729  -1.13717  -1.13701  -1.13687
 Alpha  occ. eigenvalues --   -1.13677  -1.13653  -1.13638  -1.13617  -1.13555
 Alpha  occ. eigenvalues --   -1.13552  -1.13056  -1.13010  -1.12991  -1.12896
 Alpha  occ. eigenvalues --   -1.12887  -1.12878  -1.11915  -1.11904  -1.11844
 Alpha  occ. eigenvalues --   -0.19771  -0.13039  -0.11947  -0.11868
 Alpha virt. eigenvalues --   -0.05271  -0.04781  -0.04630  -0.03139  -0.02872
 Alpha virt. eigenvalues --   -0.02494  -0.01029  -0.00962  -0.00781   0.00319
 Alpha virt. eigenvalues --    0.00487   0.00539   0.00778   0.00864   0.00932

  Beta  occ. eigenvalues --  -38.44080 -38.44067 -38.44003 -38.44001 -38.43449
  Beta  occ. eigenvalues --  -38.43144 -38.42007  -2.19992  -2.19982  -2.19924
  Beta  occ. eigenvalues --   -2.19905  -2.19279  -2.19272  -2.18195  -1.13772
  Beta  occ. eigenvalues --   -1.13766  -1.13666  -1.13654  -1.13646  -1.13636
  Beta  occ. eigenvalues --   -1.13618  -1.13595  -1.13586  -1.13569  -1.13497
  Beta  occ. eigenvalues --   -1.13495  -1.13065  -1.12989  -1.12897  -1.12892
  Beta  occ. eigenvalues --   -1.12882  -1.12870  -1.11897  -1.11829  -1.11811
  Beta  occ. eigenvalues --   -0.18823  -0.12929  -0.11832
  Beta virt. eigenvalues --   -0.07662  -0.05125  -0.04582  -0.03961  -0.03043
  Beta virt. eigenvalues --   -0.02021  -0.01873  -0.01026  -0.00907  -0.00320
  Beta virt. eigenvalues --    0.00356   0.00520   0.00654   0.00786   0.00924

 Mulliken charges and spin densities:
               1          2
     1  Na   0.241207   0.110074
     2  Na   0.404169   0.208330
     3  Na   0.383785  -0.104949
     4  Na  -1.963382   0.140021
     5  Na   0.280269   0.095941
     6  Na   0.223084   0.358567
     7  Na   0.430868   0.192016
 Sum of Mulliken charges =  -0.00000   1.00000

 Dipole moment (field-independent basis, Debye):
    X=              0.7799    Y=              0.0152    Z=              0.0652  Tot=              0.7828
 Quadrupole moment (field-independent basis, Debye-Ang):
   XX=            -68.8802   YY=            -61.9242   ZZ=            -61.9236
   XY=             -0.6337   XZ=             -1.5908   YZ=              0.3673

 Normal termination of Gaussian 16 at Wed Dec  6 01:24:50 2023.
