 Gaussian 16, Revision B.01,
 Gaussian 16:  ES64L-G16RevB.01 20-Dec-2017

 -------------------------
 #P B3LYP/6-311+g(d) force
 -------------------------

 -----
 DPGEN
 -----
 Symbolic Z-matrix:
 Charge =  0 Multiplicity = 2

                         Standard orientation:
 ---------------------------------------------------------------------
 Center     Atomic      Atomic             Coordinates (Angstroms)
 Number     Number       Type             X           Y           Z
 ---------------------------------------------------------------------
      1         11           0       -0.162553   -0.202001   -1.914066
      2         11           0        0.005739    0.224897    1.925567
      3         11           0       -0.237615   -2.612296    0.154068
      4         11           0       -2.697179   -0.593977    0.141084
      5         11           0        2.559439   -1.146301   -0.111542
      6         11           0       -1.358671    2.311038   -0.230606
      7         11           0        1.890839    2.018639    0.035496
 ---------------------------------------------------------------------

 SCF Done:  E(UB3LYP) =  -1136.13643476     A.U. after   17 cycles

 The electronic state is 2-A.
 Alpha  occ. eigenvalues --  -38.43594 -38.43594 -38.43333 -38.43326 -38.43258
 Alpha  occ. eigenvalues --  -38.43189 -38.43101  -2.19604  -2.19595  -2.19272
 Alpha  occ. eigenvalues --   -2.19249  -2.19178  -2.19133  -2.19063  -1.13307
 Alpha  occ. eigenvalues --   -1.13270  -1.13255  -1.13247  -1.13231  -1.13224
 Alpha  occ. eigenvalues --   -1.12962  -1.12954  -1.12943  -1.12938  -1.12922
 Alpha  occ. eigenvalues --   -1.12901  -1.12871  -1.12837  -1.12800  -1.12792
 Alpha  occ. eigenvalues --   -1.12781  -1.12728  -1.12726  -1.12714  -1.12668
 Alpha  occ. eigenvalues --   -0.19775  -0.13073  -0.12886  -0.11500
 Alpha virt. eigenvalues --   -0.04901  -0.04808  -0.04577  -0.03323  -0.03265
 Alpha virt. eigenvalues --   -0.02936  -0.01033  -0.00863  -0.00073   0.00232
 Alpha virt. eigenvalues --    0.00273   0.00382   0.00956   0.01018   0.01026

  Beta  occ. eigenvalues --  -38.43508 -38.43507 -38.43328 -38.43318 -38.43253
  Beta  occ. eigenvalues --  -38.43180 -38.43092  -2.19447  -2.19437  -2.19262
  Beta  occ. eigenvalues --   -2.19244  -2.19172  -2.19121  -2.19051  -1.13214
  Beta  occ. eigenvalues --   -1.13169  -1.13143  -1.13135  -1.13121  -1.13112
  Beta  occ. eigenvalues --   -1.12958  -1.12950  -1.12940  -1.12934  -1.12878
  Beta  occ. eigenvalues --   -1.12868  -1.12865  -1.12808  -1.12793  -1.12780
  Beta  occ. eigenvalues --   -1.12744  -1.12725  -1.12721  -1.12672  -1.12661
  Beta  occ. eigenvalues --   -0.18979  -0.12791  -0.12600
  Beta virt. eigenvalues --   -0.07482  -0.04886  -0.04817  -0.04568  -0.02458
  Beta virt. eigenvalues --   -0.02398  -0.01833  -0.00966  -0.00802   0.00068
  Beta virt. eigenvalues --    0.00177   0.00211   0.00389   0.00999   0.01001

 Mulliken charges and spin densities:
               1          2
     1  Na  -0.763500   0.590166
     2  Na  -0.759478   0.590738
     3  Na   0.357083  -0.012688
     4  Na   0.377446  -0.030685
     5  Na   0.170060  -0.060209
     6  Na   0.359428  -0.027697
     7  Na   0.258960  -0.049625
 Sum of Mulliken charges =  -0.00000   1.00000

 Dipole moment (field-independent basis, Debye):
    X=              0.0239    Y=              0.0538    Z=              0.0046  Tot=              0.0591
 Quadrupole moment (field-independent basis, Debye-Ang):
   XX=            -61.3535   YY=            -64.1404   ZZ=            -70.2653
   XY=              0.0261   XZ=             -0.4008   YZ=             -0.8349

 Normal termination of Gaussian 16 at Fri Dec  8 18:07:34 2023.
