 Gaussian 16, Revision B.01,
 Gaussian 16:  ES64L-G16RevB.01 20-Dec-2017

 -------------------------
 #P B3LYP/6-311+g(d) force
 -------------------------

 -----
 DPGEN
 -----
 Symbolic Z-matrix:
 Charge =  0 Multiplicity = 2

                         Standard orientation:
 ---------------------------------------------------------------------
 Center     Atomic      Atomic             Coordinates (Angstroms)
 Number     Number       Type             X           Y           Z
 ---------------------------------------------------------------------
      1         11           0        2.621176   -2.014512    0.982999
      2         11           0       -2.395782    1.881160    1.229273
      3         11           0       -3.058048   -1.680119   -1.172622
      4         11           0       -0.878545   -0.801926    1.850039
      5         11           0        0.554629    2.621945   -0.952563
      6         11           0        2.799150    1.020981   -0.152125
      7         11           0        0.357420   -1.027529   -1.785001
 ---------------------------------------------------------------------

 SCF Done:  E(UB3LYP) =  -1136.12292702     A.U. after   21 cycles

 The electronic state is 2-A.
 Alpha  occ. eigenvalues --  -38.44753 -38.44528 -38.44202 -38.44193 -38.43912
 Alpha  occ. eigenvalues --  -38.43649 -38.42937  -2.20531  -2.20369  -2.20045
 Alpha  occ. eigenvalues --   -2.20006  -2.19819  -2.19480  -2.18802  -1.14198
 Alpha  occ. eigenvalues --   -1.14185  -1.14151  -1.14053  -1.14018  -1.13987
 Alpha  occ. eigenvalues --   -1.13795  -1.13705  -1.13681  -1.13648  -1.13630
 Alpha  occ. eigenvalues --   -1.13602  -1.13573  -1.13470  -1.13455  -1.13145
 Alpha  occ. eigenvalues --   -1.13126  -1.13110  -1.12501  -1.12449  -1.12413
 Alpha  occ. eigenvalues --   -0.17772  -0.13398  -0.11985  -0.11582
 Alpha virt. eigenvalues --   -0.05911  -0.05387  -0.04543  -0.03535  -0.03218
 Alpha virt. eigenvalues --   -0.02694  -0.01836  -0.01167  -0.00450  -0.00167
 Alpha virt. eigenvalues --    0.00081   0.00268   0.00425   0.00565   0.00690

  Beta  occ. eigenvalues --  -38.44708 -38.44475 -38.44157 -38.44156 -38.43910
  Beta  occ. eigenvalues --  -38.43624 -38.42932  -2.20449  -2.20274  -2.19961
  Beta  occ. eigenvalues --   -2.19941  -2.19819  -2.19434  -2.18796  -1.14137
  Beta  occ. eigenvalues --   -1.14123  -1.14097  -1.13993  -1.13948  -1.13906
  Beta  occ. eigenvalues --   -1.13733  -1.13648  -1.13622  -1.13596  -1.13589
  Beta  occ. eigenvalues --   -1.13566  -1.13550  -1.13461  -1.13457  -1.13112
  Beta  occ. eigenvalues --   -1.13090  -1.13083  -1.12498  -1.12440  -1.12402
  Beta  occ. eigenvalues --   -0.17175  -0.12999  -0.11628
  Beta virt. eigenvalues --   -0.07929  -0.05642  -0.05197  -0.04180  -0.03239
  Beta virt. eigenvalues --   -0.02649  -0.01987  -0.01603  -0.00960  -0.00280
  Beta virt. eigenvalues --   -0.00110   0.00143   0.00348   0.00541   0.00670

 Mulliken charges and spin densities:
               1          2
     1  Na   0.270823   0.134701
     2  Na   0.272356   0.102496
     3  Na  -0.022924   0.090277
     4  Na  -0.409961   0.339060
     5  Na  -0.330220  -0.086841
     6  Na   0.204135   0.019157
     7  Na   0.015791   0.401150
 Sum of Mulliken charges =  -0.00000   1.00000

 Dipole moment (field-independent basis, Debye):
    X=             -0.6437    Y=             -0.5482    Z=             -0.0210  Tot=              0.8458
 Quadrupole moment (field-independent basis, Debye-Ang):
   XX=            -57.1566   YY=            -70.6059   ZZ=            -69.3271
   XY=             -1.4067   XZ=              2.2389   YZ=              0.7297

 Normal termination of Gaussian 16 at Sun Dec  3 23:14:40 2023.
