 Gaussian 16, Revision B.01,
 Gaussian 16:  ES64L-G16RevB.01 20-Dec-2017

 -------------------------
 #P B3LYP/6-311+g(d) force
 -------------------------

 -----
 DPGEN
 -----
 Symbolic Z-matrix:
 Charge =  0 Multiplicity = 2

                         Standard orientation:
 ---------------------------------------------------------------------
 Center     Atomic      Atomic             Coordinates (Angstroms)
 Number     Number       Type             X           Y           Z
 ---------------------------------------------------------------------
      1         11           0       -1.992731    0.322099    1.530308
      2         11           0        0.008816    2.853166    0.556589
      3         11           0        0.085804   -0.015566   -0.990679
      4         11           0        2.487132   -2.081823    0.185175
      5         11           0       -3.174770    0.087958   -1.322088
      6         11           0       -0.660435   -2.523810    0.425022
      7         11           0        3.246184    1.357976   -0.384326
 ---------------------------------------------------------------------

 SCF Done:  E(UB3LYP) =  -1136.12567126     A.U. after   20 cycles

 The electronic state is 2-A.
 Alpha  occ. eigenvalues --  -38.44241 -38.44078 -38.43892 -38.43602 -38.43596
 Alpha  occ. eigenvalues --  -38.43397 -38.43305  -2.20042  -2.19964  -2.19739
 Alpha  occ. eigenvalues --   -2.19560  -2.19437  -2.19377  -2.19322  -1.13718
 Alpha  occ. eigenvalues --   -1.13700  -1.13676  -1.13645  -1.13623  -1.13574
 Alpha  occ. eigenvalues --   -1.13435  -1.13402  -1.13380  -1.13274  -1.13220
 Alpha  occ. eigenvalues --   -1.13202  -1.13179  -1.13134  -1.13093  -1.13048
 Alpha  occ. eigenvalues --   -1.13033  -1.12985  -1.12966  -1.12925  -1.12909
 Alpha  occ. eigenvalues --   -0.18642  -0.13718  -0.12517  -0.10331
 Alpha virt. eigenvalues --   -0.06238  -0.05484  -0.04704  -0.03192  -0.02465
 Alpha virt. eigenvalues --   -0.02218  -0.01733  -0.01034  -0.00616  -0.00335
 Alpha virt. eigenvalues --   -0.00247   0.00272   0.00617   0.00791   0.00811

  Beta  occ. eigenvalues --  -38.44235 -38.44008 -38.43895 -38.43575 -38.43556
  Beta  occ. eigenvalues --  -38.43379 -38.43281  -2.20030  -2.19835  -2.19745
  Beta  occ. eigenvalues --   -2.19478  -2.19399  -2.19337  -2.19291  -1.13706
  Beta  occ. eigenvalues --   -1.13692  -1.13669  -1.13561  -1.13526  -1.13486
  Beta  occ. eigenvalues --   -1.13438  -1.13403  -1.13377  -1.13228  -1.13187
  Beta  occ. eigenvalues --   -1.13134  -1.13120  -1.13101  -1.13057  -1.13014
  Beta  occ. eigenvalues --   -1.12990  -1.12948  -1.12924  -1.12907  -1.12885
  Beta  occ. eigenvalues --   -0.18055  -0.13429  -0.12285
  Beta virt. eigenvalues --   -0.06596  -0.05996  -0.05313  -0.04476  -0.02753
  Beta virt. eigenvalues --   -0.01997  -0.01948  -0.00976  -0.00921  -0.00507
  Beta virt. eigenvalues --   -0.00292   0.00058   0.00384   0.00782   0.00830

 Mulliken charges and spin densities:
               1          2
     1  Na  -0.028724   0.293376
     2  Na  -0.477796  -0.022946
     3  Na   0.001471   0.659352
     4  Na  -0.046766  -0.089550
     5  Na   0.069675   0.155279
     6  Na  -0.091275   0.025032
     7  Na   0.573415  -0.020543
 Sum of Mulliken charges =  -0.00000   1.00000

 Dipole moment (field-independent basis, Debye):
    X=              0.4712    Y=              0.0869    Z=              0.4122  Tot=              0.6320
 Quadrupole moment (field-independent basis, Debye-Ang):
   XX=            -53.3478   YY=            -65.4403   ZZ=            -74.4727
   XY=              0.0851   XZ=             -0.2945   YZ=             -0.7338

 Normal termination of Gaussian 16 at Wed Nov 29 02:54:57 2023.
