 Gaussian 16, Revision B.01,
 Gaussian 16:  ES64L-G16RevB.01 20-Dec-2017

 -------------------------
 #P B3LYP/6-311+g(d) force
 -------------------------

 -----
 DPGEN
 -----
 Symbolic Z-matrix:
 Charge =  0 Multiplicity = 2

                         Standard orientation:
 ---------------------------------------------------------------------
 Center     Atomic      Atomic             Coordinates (Angstroms)
 Number     Number       Type             X           Y           Z
 ---------------------------------------------------------------------
      1         11           0       -0.147406    2.911595    0.246460
      2         11           0       -2.908405    0.879528    0.292354
      3         11           0        2.529612    1.306777   -0.718137
      4         11           0        2.756545   -2.072556    0.279393
      5         11           0        0.210872   -0.326625    2.013109
      6         11           0       -0.381869   -0.056074   -1.694936
      7         11           0       -2.059349   -2.642644   -0.418243
 ---------------------------------------------------------------------

 SCF Done:  E(UB3LYP) =  -1136.13490362     A.U. after   20 cycles

 The electronic state is 2-A.
 Alpha  occ. eigenvalues --  -38.44104 -38.44023 -38.43936 -38.43902 -38.43592
 Alpha  occ. eigenvalues --  -38.43487 -38.43019  -2.19948  -2.19804  -2.19758
 Alpha  occ. eigenvalues --   -2.19733  -2.19462  -2.19425  -2.18891  -1.13640
 Alpha  occ. eigenvalues --   -1.13617  -1.13570  -1.13480  -1.13461  -1.13456
 Alpha  occ. eigenvalues --   -1.13427  -1.13420  -1.13396  -1.13379  -1.13368
 Alpha  occ. eigenvalues --   -1.13365  -1.13172  -1.13130  -1.13100  -1.13081
 Alpha  occ. eigenvalues --   -1.13060  -1.13032  -1.12560  -1.12550  -1.12541
 Alpha  occ. eigenvalues --   -0.18330  -0.13037  -0.12209  -0.10884
 Alpha virt. eigenvalues --   -0.05853  -0.05243  -0.04578  -0.03254  -0.02970
 Alpha virt. eigenvalues --   -0.02606  -0.01583  -0.01324  -0.00533  -0.00211
 Alpha virt. eigenvalues --   -0.00036   0.00337   0.00739   0.00811   0.00819

  Beta  occ. eigenvalues --  -38.44095 -38.44021 -38.43927 -38.43818 -38.43571
  Beta  occ. eigenvalues --  -38.43424 -38.43014  -2.19936  -2.19802  -2.19719
  Beta  occ. eigenvalues --   -2.19603  -2.19426  -2.19311  -2.18887  -1.13631
  Beta  occ. eigenvalues --   -1.13595  -1.13556  -1.13464  -1.13460  -1.13453
  Beta  occ. eigenvalues --   -1.13399  -1.13369  -1.13360  -1.13326  -1.13289
  Beta  occ. eigenvalues --   -1.13251  -1.13133  -1.13101  -1.13052  -1.13023
  Beta  occ. eigenvalues --   -1.12987  -1.12947  -1.12561  -1.12550  -1.12509
  Beta  occ. eigenvalues --   -0.17617  -0.12795  -0.11942
  Beta virt. eigenvalues --   -0.07063  -0.05787  -0.05107  -0.04507  -0.02581
  Beta virt. eigenvalues --   -0.02247  -0.01692  -0.01444  -0.01185  -0.00547
  Beta virt. eigenvalues --   -0.00221   0.00095   0.00376   0.00770   0.00874

 Mulliken charges and spin densities:
               1          2
     1  Na  -0.013593   0.059792
     2  Na   0.089188   0.034845
     3  Na   0.252059   0.111096
     4  Na  -0.042160  -0.055849
     5  Na  -0.324065   0.598446
     6  Na   0.022618   0.317728
     7  Na   0.015953  -0.066059
 Sum of Mulliken charges =  -0.00000   1.00000

 Dipole moment (field-independent basis, Debye):
    X=             -0.2176    Y=             -0.3919    Z=              0.1422  Tot=              0.4702
 Quadrupole moment (field-independent basis, Debye-Ang):
   XX=            -58.2868   YY=            -62.1166   ZZ=            -73.5712
   XY=             -0.5505   XZ=             -1.7648   YZ=              0.5255

 Normal termination of Gaussian 16 at Thu Dec  7 19:16:37 2023.
