 Gaussian 16, Revision B.01,
 Gaussian 16:  ES64L-G16RevB.01 20-Dec-2017

 -------------------------
 #P B3LYP/6-311+g(d) force
 -------------------------

 -----
 DPGEN
 -----
 Symbolic Z-matrix:
 Charge =  0 Multiplicity = 2

                         Standard orientation:
 ---------------------------------------------------------------------
 Center     Atomic      Atomic             Coordinates (Angstroms)
 Number     Number       Type             X           Y           Z
 ---------------------------------------------------------------------
      1         11           0       -0.024353   -0.048796   -1.631324
      2         11           0        0.025628   -2.749293    0.322786
      3         11           0       -0.128520    0.023496    2.086201
      4         11           0       -1.673962    2.667266   -0.147153
      5         11           0       -3.324835   -1.100960   -0.332405
      6         11           0        3.212937   -1.103911   -0.431667
      7         11           0        1.913105    2.312198    0.133562
 ---------------------------------------------------------------------

 SCF Done:  E(UB3LYP) =  -1136.13617647     A.U. after   20 cycles

 The electronic state is 2-A.
 Alpha  occ. eigenvalues --  -38.44375 -38.43936 -38.43789 -38.43692 -38.43628
 Alpha  occ. eigenvalues --  -38.43430 -38.43396  -2.20139  -2.19731  -2.19589
 Alpha  occ. eigenvalues --   -2.19515  -2.19508  -2.19356  -2.19257  -1.13817
 Alpha  occ. eigenvalues --   -1.13789  -1.13779  -1.13404  -1.13385  -1.13376
 Alpha  occ. eigenvalues --   -1.13275  -1.13258  -1.13225  -1.13200  -1.13195
 Alpha  occ. eigenvalues --   -1.13185  -1.13136  -1.13129  -1.13124  -1.13063
 Alpha  occ. eigenvalues --   -1.13013  -1.12964  -1.12938  -1.12918  -1.12857
 Alpha  occ. eigenvalues --   -0.18192  -0.12617  -0.12440  -0.10666
 Alpha virt. eigenvalues --   -0.05860  -0.05365  -0.04664  -0.03006  -0.02927
 Alpha virt. eigenvalues --   -0.02538  -0.01824  -0.01306  -0.00518  -0.00406
 Alpha virt. eigenvalues --   -0.00046   0.00302   0.00720   0.00798   0.00859

  Beta  occ. eigenvalues --  -38.44370 -38.43929 -38.43787 -38.43688 -38.43526
  Beta  occ. eigenvalues --  -38.43383 -38.43377  -2.20132  -2.19719  -2.19588
  Beta  occ. eigenvalues --   -2.19510  -2.19322  -2.19258  -2.19239  -1.13801
  Beta  occ. eigenvalues --   -1.13784  -1.13776  -1.13383  -1.13378  -1.13369
  Beta  occ. eigenvalues --   -1.13267  -1.13250  -1.13222  -1.13189  -1.13172
  Beta  occ. eigenvalues --   -1.13131  -1.13074  -1.13002  -1.13000  -1.12995
  Beta  occ. eigenvalues --   -1.12952  -1.12902  -1.12889  -1.12874  -1.12850
  Beta  occ. eigenvalues --   -0.17478  -0.12380  -0.12217
  Beta virt. eigenvalues --   -0.06800  -0.05785  -0.05344  -0.04588  -0.02310
  Beta virt. eigenvalues --   -0.02191  -0.01700  -0.01510  -0.01260  -0.00551
  Beta virt. eigenvalues --   -0.00410   0.00094   0.00343   0.00792   0.00796

 Mulliken charges and spin densities:
               1          2
     1  Na  -0.182067   0.586490
     2  Na   0.213948   0.017000
     3  Na  -0.180084   0.611684
     4  Na  -0.012046  -0.109808
     5  Na  -0.001377  -0.074533
     6  Na   0.060800  -0.006398
     7  Na   0.100826  -0.024434
 Sum of Mulliken charges =  -0.00000   1.00000

 Dipole moment (field-independent basis, Debye):
    X=             -0.2110    Y=              0.0816    Z=              0.0342  Tot=              0.2288
 Quadrupole moment (field-independent basis, Debye-Ang):
   XX=            -54.5943   YY=            -63.1177   ZZ=            -74.8853
   XY=             -0.1499   XZ=              0.1481   YZ=              0.1971

 Normal termination of Gaussian 16 at Fri Dec  8 00:40:24 2023.
