 Gaussian 16, Revision B.01,
 Gaussian 16:  ES64L-G16RevB.01 20-Dec-2017

 -------------------------
 #P B3LYP/6-311+g(d) force
 -------------------------

 -----
 DPGEN
 -----
 Symbolic Z-matrix:
 Charge =  0 Multiplicity = 2

                         Standard orientation:
 ---------------------------------------------------------------------
 Center     Atomic      Atomic             Coordinates (Angstroms)
 Number     Number       Type             X           Y           Z
 ---------------------------------------------------------------------
      1         11           0       -1.325596   -2.076888    0.360932
      2         11           0       -2.468581    0.899159    1.457172
      3         11           0        1.251857    0.250247    2.023264
      4         11           0        0.983078    3.396157   -0.511771
      5         11           0        2.654719    0.690311   -1.392076
      6         11           0       -4.110802   -0.492183   -1.625525
      7         11           0        3.015325   -2.666804   -0.311996
 ---------------------------------------------------------------------

 SCF Done:  E(UB3LYP) =  -1136.11988186     A.U. after   21 cycles

 The electronic state is 2-A.
 Alpha  occ. eigenvalues --  -38.45002 -38.44879 -38.44741 -38.44738 -38.43868
 Alpha  occ. eigenvalues --  -38.43369 -38.43091  -2.20794  -2.20653  -2.20535
 Alpha  occ. eigenvalues --   -2.20522  -2.19698  -2.19136  -2.18877  -1.14478
 Alpha  occ. eigenvalues --   -1.14441  -1.14411  -1.14359  -1.14350  -1.14264
 Alpha  occ. eigenvalues --   -1.14208  -1.14203  -1.14177  -1.14173  -1.14152
 Alpha  occ. eigenvalues --   -1.14117  -1.13382  -1.13364  -1.13311  -1.12812
 Alpha  occ. eigenvalues --   -1.12799  -1.12771  -1.12553  -1.12535  -1.12514
 Alpha  occ. eigenvalues --   -0.16785  -0.13753  -0.11407  -0.11132
 Alpha virt. eigenvalues --   -0.06089  -0.05759  -0.04787  -0.03796  -0.02771
 Alpha virt. eigenvalues --   -0.02677  -0.01791  -0.01212  -0.00956  -0.00574
 Alpha virt. eigenvalues --   -0.00408  -0.00137   0.00223   0.00333   0.00472

  Beta  occ. eigenvalues --  -38.44951 -38.44879 -38.44724 -38.44660 -38.43832
  Beta  occ. eigenvalues --  -38.43364 -38.43084  -2.20703  -2.20656  -2.20508
  Beta  occ. eigenvalues --   -2.20376  -2.19633  -2.19128  -2.18865  -1.14418
  Beta  occ. eigenvalues --   -1.14364  -1.14357  -1.14347  -1.14337  -1.14258
  Beta  occ. eigenvalues --   -1.14191  -1.14183  -1.14115  -1.14075  -1.14071
  Beta  occ. eigenvalues --   -1.14026  -1.13338  -1.13324  -1.13258  -1.12804
  Beta  occ. eigenvalues --   -1.12791  -1.12767  -1.12541  -1.12525  -1.12506
  Beta  occ. eigenvalues --   -0.16138  -0.13261  -0.11272
  Beta virt. eigenvalues --   -0.07588  -0.05901  -0.05170  -0.04608  -0.03650
  Beta virt. eigenvalues --   -0.02294  -0.02103  -0.01622  -0.01021  -0.00711
  Beta virt. eigenvalues --   -0.00431  -0.00145   0.00057   0.00343   0.00414

 Mulliken charges and spin densities:
               1          2
     1  Na  -0.613657  -0.004088
     2  Na   0.264221   0.104534
     3  Na   0.262123   0.291189
     4  Na  -0.152614   0.008758
     5  Na  -0.198234   0.249248
     6  Na   0.228305   0.370032
     7  Na   0.209856  -0.019672
 Sum of Mulliken charges =  -0.00000   1.00000

 Dipole moment (field-independent basis, Debye):
    X=             -1.1967    Y=             -0.1569    Z=              0.2901  Tot=              1.2414
 Quadrupole moment (field-independent basis, Debye-Ang):
   XX=            -63.9151   YY=            -69.5318   ZZ=            -65.9907
   XY=             -3.7647   XZ=              2.1448   YZ=              1.4873

 Normal termination of Gaussian 16 at Mon Dec  4 02:16:15 2023.
