 Gaussian 16, Revision B.01,
 Gaussian 16:  ES64L-G16RevB.01 20-Dec-2017

 -------------------------
 #P B3LYP/6-311+g(d) force
 -------------------------

 -----
 DPGEN
 -----
 Symbolic Z-matrix:
 Charge =  0 Multiplicity = 2

                         Standard orientation:
 ---------------------------------------------------------------------
 Center     Atomic      Atomic             Coordinates (Angstroms)
 Number     Number       Type             X           Y           Z
 ---------------------------------------------------------------------
      1         11           0        1.655013   -0.146488    1.603012
      2         11           0       -1.425782    1.261594    1.570464
      3         11           0        1.207561    3.207632   -0.466662
      4         11           0        2.389669   -1.864935   -0.759747
      5         11           0       -0.609743   -2.274419    0.713205
      6         11           0       -3.360913   -0.360615   -0.794175
      7         11           0        0.144194    0.177230   -1.866097
 ---------------------------------------------------------------------

 SCF Done:  E(UB3LYP) =  -1136.13265837     A.U. after   20 cycles

 The electronic state is 2-A.
 Alpha  occ. eigenvalues --  -38.43862 -38.43848 -38.43779 -38.43658 -38.43620
 Alpha  occ. eigenvalues --  -38.43606 -38.43333  -2.19775  -2.19734  -2.19704
 Alpha  occ. eigenvalues --   -2.19570  -2.19500  -2.19428  -2.19112  -1.13496
 Alpha  occ. eigenvalues --   -1.13477  -1.13449  -1.13428  -1.13392  -1.13388
 Alpha  occ. eigenvalues --   -1.13358  -1.13331  -1.13302  -1.13226  -1.13201
 Alpha  occ. eigenvalues --   -1.13195  -1.13184  -1.13158  -1.13094  -1.13092
 Alpha  occ. eigenvalues --   -1.13083  -1.13052  -1.12790  -1.12772  -1.12747
 Alpha  occ. eigenvalues --   -0.18670  -0.12826  -0.11998  -0.11719
 Alpha virt. eigenvalues --   -0.05332  -0.05040  -0.04519  -0.03342  -0.03161
 Alpha virt. eigenvalues --   -0.03087  -0.01297  -0.01058  -0.00597   0.00251
 Alpha virt. eigenvalues --    0.00329   0.00367   0.00684   0.00765   0.00844

  Beta  occ. eigenvalues --  -38.43809 -38.43786 -38.43726 -38.43645 -38.43611
  Beta  occ. eigenvalues --  -38.43589 -38.43333  -2.19642  -2.19637  -2.19631
  Beta  occ. eigenvalues --   -2.19549  -2.19473  -2.19413  -2.19114  -1.13441
  Beta  occ. eigenvalues --   -1.13401  -1.13366  -1.13334  -1.13324  -1.13299
  Beta  occ. eigenvalues --   -1.13290  -1.13271  -1.13256  -1.13198  -1.13174
  Beta  occ. eigenvalues --   -1.13166  -1.13149  -1.13118  -1.13082  -1.13073
  Beta  occ. eigenvalues --   -1.13072  -1.13043  -1.12782  -1.12773  -1.12749
  Beta  occ. eigenvalues --   -0.17842  -0.12655  -0.11816
  Beta virt. eigenvalues --   -0.07689  -0.05228  -0.04842  -0.04205  -0.02954
  Beta virt. eigenvalues --   -0.02515  -0.02131  -0.01224  -0.00985  -0.00240
  Beta virt. eigenvalues --    0.00228   0.00393   0.00408   0.00749   0.00875

 Mulliken charges and spin densities:
               1          2
     1  Na   0.288966   0.297993
     2  Na  -0.148528   0.141844
     3  Na  -0.234178  -0.126705
     4  Na   0.422855  -0.056899
     5  Na  -0.329950   0.140923
     6  Na   0.242480  -0.089722
     7  Na  -0.241644   0.692566
 Sum of Mulliken charges =  -0.00000   1.00000

 Dipole moment (field-independent basis, Debye):
    X=             -0.0401    Y=             -0.2033    Z=             -0.0676  Tot=              0.2180
 Quadrupole moment (field-independent basis, Debye-Ang):
   XX=            -61.3541   YY=            -66.1653   ZZ=            -67.3739
   XY=             -1.1195   XZ=              0.0179   YZ=              0.6891

 Normal termination of Gaussian 16 at Wed Nov 29 15:57:56 2023.
