 Gaussian 16, Revision B.01,
 Gaussian 16:  ES64L-G16RevB.01 20-Dec-2017

 -------------------------
 #P B3LYP/6-311+g(d) force
 -------------------------

 -----
 DPGEN
 -----
 Symbolic Z-matrix:
 Charge =  0 Multiplicity = 2

                         Standard orientation:
 ---------------------------------------------------------------------
 Center     Atomic      Atomic             Coordinates (Angstroms)
 Number     Number       Type             X           Y           Z
 ---------------------------------------------------------------------
      1         11           0       -2.185774   -1.096751    1.791334
      2         11           0       -0.333263    3.311800    0.193929
      3         11           0        2.708641    1.428114   -0.045232
      4         11           0        2.968749   -1.983549    0.097914
      5         11           0        0.471260    0.120970   -0.008697
      6         11           0       -2.687194    0.577840   -1.091036
      7         11           0       -0.942419   -2.358423   -0.938212
 ---------------------------------------------------------------------

 SCF Done:  E(UB3LYP) =  -1136.11667323     A.U. after   26 cycles

 The electronic state is 2-A.
 Alpha  occ. eigenvalues --  -38.44682 -38.44251 -38.44041 -38.43912 -38.43722
 Alpha  occ. eigenvalues --  -38.43185 -38.43091  -2.20603  -2.20066  -2.19916
 Alpha  occ. eigenvalues --   -2.19822  -2.19533  -2.19288  -2.19090  -1.14573
 Alpha  occ. eigenvalues --   -1.14224  -1.14138  -1.13736  -1.13723  -1.13707
 Alpha  occ. eigenvalues --   -1.13613  -1.13580  -1.13566  -1.13538  -1.13475
 Alpha  occ. eigenvalues --   -1.13412  -1.13214  -1.13195  -1.13172  -1.12977
 Alpha  occ. eigenvalues --   -1.12935  -1.12842  -1.12734  -1.12721  -1.12705
 Alpha  occ. eigenvalues --   -0.18479  -0.13852  -0.12534  -0.09831
 Alpha virt. eigenvalues --   -0.06011  -0.05594  -0.04971  -0.03174  -0.02248
 Alpha virt. eigenvalues --   -0.01940  -0.01628  -0.01255  -0.00738  -0.00670
 Alpha virt. eigenvalues --   -0.00045   0.00322   0.00636   0.00738   0.00774

  Beta  occ. eigenvalues --  -38.44682 -38.44253 -38.44004 -38.43886 -38.43724
  Beta  occ. eigenvalues --  -38.43096 -38.43072  -2.20602  -2.20072  -2.19851
  Beta  occ. eigenvalues --   -2.19778  -2.19537  -2.19261  -2.18923  -1.14571
  Beta  occ. eigenvalues --   -1.14215  -1.14142  -1.13740  -1.13723  -1.13710
  Beta  occ. eigenvalues --   -1.13577  -1.13535  -1.13509  -1.13496  -1.13409
  Beta  occ. eigenvalues --   -1.13381  -1.13216  -1.13191  -1.13172  -1.12968
  Beta  occ. eigenvalues --   -1.12857  -1.12829  -1.12619  -1.12605  -1.12594
  Beta  occ. eigenvalues --   -0.17909  -0.13591  -0.12394
  Beta virt. eigenvalues --   -0.05992  -0.05816  -0.05490  -0.04796  -0.02601
  Beta virt. eigenvalues --   -0.01851  -0.01703  -0.01446  -0.00698  -0.00648
  Beta virt. eigenvalues --   -0.00498   0.00237   0.00436   0.00722   0.00779

 Mulliken charges and spin densities:
               1          2
     1  Na   0.188068   0.203542
     2  Na   1.395790   0.084465
     3  Na  -0.957089  -0.427983
     4  Na   0.790896  -0.151434
     5  Na  -4.461241   0.668933
     6  Na   1.374433   0.317944
     7  Na   1.669142   0.304533
 Sum of Mulliken charges =  -0.00000   1.00000

 Dipole moment (field-independent basis, Debye):
    X=              0.6606    Y=              0.0863    Z=             -0.2839  Tot=              0.7241
 Quadrupole moment (field-independent basis, Debye-Ang):
   XX=            -55.4783   YY=            -58.2435   ZZ=            -77.3707
   XY=             -3.4597   XZ=              1.9820   YZ=              1.3879

 Normal termination of Gaussian 16 at Thu Dec  7 18:56:12 2023.
