 Gaussian 16, Revision B.01,
 Gaussian 16:  ES64L-G16RevB.01 20-Dec-2017

 -------------------------
 #P B3LYP/6-311+g(d) force
 -------------------------

 -----
 DPGEN
 -----
 Symbolic Z-matrix:
 Charge =  0 Multiplicity = 2

                         Standard orientation:
 ---------------------------------------------------------------------
 Center     Atomic      Atomic             Coordinates (Angstroms)
 Number     Number       Type             X           Y           Z
 ---------------------------------------------------------------------
      1         11           0       -1.417986    2.168317   -0.139084
      2         11           0       -3.750458   -0.973117   -0.521875
      3         11           0        3.187793   -1.586454   -0.443260
      4         11           0        1.545343    0.557957    1.805346
      5         11           0       -1.070564   -0.763832    1.670658
      6         11           0        1.618983    1.656882   -1.161064
      7         11           0       -0.113110   -1.059753   -1.210720
 ---------------------------------------------------------------------

 SCF Done:  E(UB3LYP) =  -1136.12411573     A.U. after   21 cycles

 The electronic state is 2-A.
 Alpha  occ. eigenvalues --  -38.44472 -38.44119 -38.44077 -38.43860 -38.43620
 Alpha  occ. eigenvalues --  -38.43309 -38.42860  -2.20265  -2.20105  -2.20045
 Alpha  occ. eigenvalues --   -2.19813  -2.19443  -2.19256  -2.18735  -1.13966
 Alpha  occ. eigenvalues --   -1.13937  -1.13922  -1.13895  -1.13817  -1.13705
 Alpha  occ. eigenvalues --   -1.13684  -1.13620  -1.13603  -1.13517  -1.13490
 Alpha  occ. eigenvalues --   -1.13392  -1.13114  -1.13099  -1.13082  -1.12953
 Alpha  occ. eigenvalues --   -1.12920  -1.12842  -1.12422  -1.12407  -1.12347
 Alpha  occ. eigenvalues --   -0.19135  -0.13658  -0.11864  -0.11217
 Alpha virt. eigenvalues --   -0.06392  -0.04927  -0.04138  -0.03324  -0.02721
 Alpha virt. eigenvalues --   -0.02501  -0.02228  -0.01111  -0.00577   0.00090
 Alpha virt. eigenvalues --    0.00185   0.00389   0.00518   0.00733   0.00847

  Beta  occ. eigenvalues --  -38.44466 -38.44047 -38.44003 -38.43828 -38.43619
  Beta  occ. eigenvalues --  -38.43276 -38.42853  -2.20253  -2.19978  -2.19915
  Beta  occ. eigenvalues --   -2.19757  -2.19441  -2.19196  -2.18725  -1.13928
  Beta  occ. eigenvalues --   -1.13914  -1.13887  -1.13853  -1.13723  -1.13620
  Beta  occ. eigenvalues --   -1.13599  -1.13523  -1.13503  -1.13469  -1.13432
  Beta  occ. eigenvalues --   -1.13351  -1.13109  -1.13089  -1.13082  -1.12905
  Beta  occ. eigenvalues --   -1.12878  -1.12798  -1.12412  -1.12383  -1.12342
  Beta  occ. eigenvalues --   -0.18342  -0.13501  -0.11029
  Beta virt. eigenvalues --   -0.07631  -0.06223  -0.04908  -0.03587  -0.02936
  Beta virt. eigenvalues --   -0.02160  -0.01952  -0.01803  -0.00979  -0.00234
  Beta virt. eigenvalues --    0.00111   0.00216   0.00431   0.00663   0.00777

 Mulliken charges and spin densities:
               1          2
     1  Na  -0.541910   0.088334
     2  Na   0.613809   0.063796
     3  Na  -0.087563  -0.084034
     4  Na   0.424108   0.185833
     5  Na  -0.176928   0.110849
     6  Na   0.230897   0.191420
     7  Na  -0.462412   0.443804
 Sum of Mulliken charges =  -0.00000   1.00000

 Dipole moment (field-independent basis, Debye):
    X=             -0.4604    Y=              0.0993    Z=             -0.1396  Tot=              0.4913
 Quadrupole moment (field-independent basis, Debye-Ang):
   XX=            -50.0764   YY=            -75.0273   ZZ=            -68.3284
   XY=             -0.0360   XZ=              1.5130   YZ=             -0.0034

 Normal termination of Gaussian 16 at Sat Dec  9 06:20:23 2023.
