 Gaussian 16, Revision B.01,
 Gaussian 16:  ES64L-G16RevB.01 20-Dec-2017

 -------------------------
 #P B3LYP/6-311+g(d) force
 -------------------------

 -----
 DPGEN
 -----
 Symbolic Z-matrix:
 Charge =  0 Multiplicity = 2

                         Standard orientation:
 ---------------------------------------------------------------------
 Center     Atomic      Atomic             Coordinates (Angstroms)
 Number     Number       Type             X           Y           Z
 ---------------------------------------------------------------------
      1         11           0        2.973489    0.502021    1.045716
      2         11           0        1.803399    3.665015   -0.262670
      3         11           0       -4.053445    1.001762   -0.690082
      4         11           0        4.231780   -2.319581   -0.206821
      5         11           0       -5.835582   -1.398271    0.681406
      6         11           0       -0.052995    1.045445    0.052302
      7         11           0        0.933354   -2.496390   -0.619851
 ---------------------------------------------------------------------

 SCF Done:  E(UB3LYP) =  -1136.11557169     A.U. after   19 cycles

 The electronic state is 2-A.
 Alpha  occ. eigenvalues --  -38.44408 -38.44267 -38.44246 -38.44242 -38.44083
 Alpha  occ. eigenvalues --  -38.43933 -38.43638  -2.20273  -2.20056  -2.20053
 Alpha  occ. eigenvalues --   -2.20044  -2.19841  -2.19761  -2.19520  -1.13988
 Alpha  occ. eigenvalues --   -1.13956  -1.13865  -1.13727  -1.13726  -1.13714
 Alpha  occ. eigenvalues --   -1.13709  -1.13697  -1.13696  -1.13687  -1.13683
 Alpha  occ. eigenvalues --   -1.13682  -1.13519  -1.13504  -1.13477  -1.13422
 Alpha  occ. eigenvalues --   -1.13416  -1.13385  -1.13215  -1.13183  -1.13118
 Alpha  occ. eigenvalues --   -0.16781  -0.13314  -0.12587  -0.10535
 Alpha virt. eigenvalues --   -0.06345  -0.06114  -0.03972  -0.03861  -0.02946
 Alpha virt. eigenvalues --   -0.02365  -0.02094  -0.01396  -0.01063  -0.00887
 Alpha virt. eigenvalues --   -0.00255  -0.00065  -0.00037   0.00399   0.00570

  Beta  occ. eigenvalues --  -38.44371 -38.44237 -38.44224 -38.44194 -38.44097
  Beta  occ. eigenvalues --  -38.43908 -38.43597  -2.20207  -2.20036  -2.19966
  Beta  occ. eigenvalues --   -2.19963  -2.19871  -2.19716  -2.19446  -1.13923
  Beta  occ. eigenvalues --   -1.13914  -1.13818  -1.13713  -1.13702  -1.13669
  Beta  occ. eigenvalues --   -1.13667  -1.13644  -1.13643  -1.13641  -1.13639
  Beta  occ. eigenvalues --   -1.13617  -1.13542  -1.13523  -1.13475  -1.13388
  Beta  occ. eigenvalues --   -1.13378  -1.13356  -1.13169  -1.13137  -1.13045
  Beta  occ. eigenvalues --   -0.16130  -0.13038  -0.12327
  Beta virt. eigenvalues --   -0.07123  -0.06010  -0.05667  -0.03680  -0.03518
  Beta virt. eigenvalues --   -0.02506  -0.02227  -0.01999  -0.01113  -0.00979
  Beta virt. eigenvalues --   -0.00488  -0.00005   0.00067   0.00195   0.00520

 Mulliken charges and spin densities:
               1          2
     1  Na   0.472768   0.418863
     2  Na   0.963900   0.208229
     3  Na  -0.482869  -0.085514
     4  Na   0.634159   0.267749
     5  Na   0.070558   0.157244
     6  Na  -1.550573  -0.018293
     7  Na  -0.107944   0.051722
 Sum of Mulliken charges =  -0.00000   1.00000

 Dipole moment (field-independent basis, Debye):
    X=              0.7656    Y=             -0.0364    Z=             -0.2872  Tot=              0.8185
 Quadrupole moment (field-independent basis, Debye-Ang):
   XX=            -69.1123   YY=            -56.8285   ZZ=            -70.3409
   XY=              3.1909   XZ=             -2.9408   YZ=             -3.3609

 Normal termination of Gaussian 16 at Wed Nov 29 01:42:27 2023.
