 Gaussian 16, Revision B.01,
 Gaussian 16:  ES64L-G16RevB.01 20-Dec-2017

 -------------------------
 #P B3LYP/6-311+g(d) force
 -------------------------

 -----
 DPGEN
 -----
 Symbolic Z-matrix:
 Charge =  0 Multiplicity = 2

                         Standard orientation:
 ---------------------------------------------------------------------
 Center     Atomic      Atomic             Coordinates (Angstroms)
 Number     Number       Type             X           Y           Z
 ---------------------------------------------------------------------
      1         11           0       -4.007962    0.835983    1.554475
      2         11           0       -0.915584    0.909961    0.078686
      3         11           0       -3.263453   -2.016839   -0.669847
      4         11           0        0.786911   -2.123731   -1.342122
      5         11           0        2.926059    1.216857    0.566147
      6         11           0        0.749012    2.914896   -1.415889
      7         11           0        3.725018   -1.737126    1.228550
 ---------------------------------------------------------------------

 SCF Done:  E(UB3LYP) =  -1136.11983494     A.U. after   21 cycles

 The electronic state is 2-A.
 Alpha  occ. eigenvalues --  -38.45171 -38.44597 -38.44434 -38.44172 -38.43644
 Alpha  occ. eigenvalues --  -38.43376 -38.43142  -2.20916  -2.20363  -2.20246
 Alpha  occ. eigenvalues --   -2.20026  -2.19540  -2.19197  -2.19002  -1.14608
 Alpha  occ. eigenvalues --   -1.14575  -1.14549  -1.14041  -1.14034  -1.13957
 Alpha  occ. eigenvalues --   -1.13905  -1.13890  -1.13847  -1.13722  -1.13689
 Alpha  occ. eigenvalues --   -1.13657  -1.13274  -1.13226  -1.13164  -1.12874
 Alpha  occ. eigenvalues --   -1.12848  -1.12813  -1.12674  -1.12637  -1.12627
 Alpha  occ. eigenvalues --   -0.16842  -0.13973  -0.12002  -0.11029
 Alpha virt. eigenvalues --   -0.06400  -0.05058  -0.04644  -0.03617  -0.03125
 Alpha virt. eigenvalues --   -0.02270  -0.01934  -0.01360  -0.00891  -0.00651
 Alpha virt. eigenvalues --   -0.00269  -0.00041   0.00155   0.00567   0.00660

  Beta  occ. eigenvalues --  -38.45170 -38.44544 -38.44359 -38.44146 -38.43632
  Beta  occ. eigenvalues --  -38.43344 -38.43136  -2.20920  -2.20265  -2.20104
  Beta  occ. eigenvalues --   -2.19981  -2.19523  -2.19139  -2.18991  -1.14614
  Beta  occ. eigenvalues --   -1.14577  -1.14526  -1.13976  -1.13968  -1.13881
  Beta  occ. eigenvalues --   -1.13806  -1.13793  -1.13757  -1.13692  -1.13667
  Beta  occ. eigenvalues --   -1.13602  -1.13258  -1.13185  -1.13160  -1.12823
  Beta  occ. eigenvalues --   -1.12809  -1.12778  -1.12664  -1.12628  -1.12622
  Beta  occ. eigenvalues --   -0.16314  -0.13396  -0.11671
  Beta virt. eigenvalues --   -0.07555  -0.06197  -0.04804  -0.04227  -0.03365
  Beta virt. eigenvalues --   -0.02563  -0.02174  -0.01536  -0.01178  -0.00699
  Beta virt. eigenvalues --   -0.00277  -0.00071   0.00099   0.00254   0.00671

 Mulliken charges and spin densities:
               1          2
     1  Na   0.239600   0.252143
     2  Na  -2.263115   0.158599
     3  Na   0.159571  -0.025217
     4  Na   0.212016   0.234225
     5  Na   0.151975   0.254580
     6  Na   1.386902   0.048834
     7  Na   0.113051   0.076837
 Sum of Mulliken charges =  -0.00000   1.00000

 Dipole moment (field-independent basis, Debye):
    X=             -1.0778    Y=             -0.2857    Z=             -0.3334  Tot=              1.1638
 Quadrupole moment (field-independent basis, Debye-Ang):
   XX=            -61.3734   YY=            -66.4910   ZZ=            -67.4525
   XY=              3.8952   XZ=             -0.5088   YZ=              0.8666

 Normal termination of Gaussian 16 at Sun Dec  3 15:12:54 2023.
