 Gaussian 16, Revision B.01,
 Gaussian 16:  ES64L-G16RevB.01 20-Dec-2017

 -------------------------
 #P B3LYP/6-311+g(d) force
 -------------------------

 -----
 DPGEN
 -----
 Symbolic Z-matrix:
 Charge =  0 Multiplicity = 2

                         Standard orientation:
 ---------------------------------------------------------------------
 Center     Atomic      Atomic             Coordinates (Angstroms)
 Number     Number       Type             X           Y           Z
 ---------------------------------------------------------------------
      1         11           0        2.994256    0.927901   -0.095778
      2         11           0        2.030130   -2.071120   -0.295616
      3         11           0        0.031594    2.846113    0.260920
      4         11           0       -0.471514    0.088449   -1.832820
      5         11           0       -1.732102   -2.223754    0.158450
      6         11           0       -2.952050    0.824718   -0.035721
      7         11           0        0.099686   -0.392307    1.840565
 ---------------------------------------------------------------------

 SCF Done:  E(UB3LYP) =  -1136.13692613     A.U. after   19 cycles

 The electronic state is 2-A.
 Alpha  occ. eigenvalues --  -38.44064 -38.44017 -38.43495 -38.43465 -38.43372
 Alpha  occ. eigenvalues --  -38.43359 -38.43099  -2.19944  -2.19858  -2.19423
 Alpha  occ. eigenvalues --   -2.19372  -2.19335  -2.19277  -2.18940  -1.13654
 Alpha  occ. eigenvalues --   -1.13600  -1.13576  -1.13549  -1.13520  -1.13501
 Alpha  occ. eigenvalues --   -1.13127  -1.13085  -1.13063  -1.13057  -1.13053
 Alpha  occ. eigenvalues --   -1.13024  -1.13005  -1.12978  -1.12936  -1.12922
 Alpha  occ. eigenvalues --   -1.12898  -1.12878  -1.12615  -1.12611  -1.12572
 Alpha  occ. eigenvalues --   -0.18988  -0.13403  -0.12340  -0.10863
 Alpha virt. eigenvalues --   -0.05733  -0.05131  -0.04445  -0.03396  -0.02882
 Alpha virt. eigenvalues --   -0.02508  -0.01531  -0.00980  -0.00241  -0.00202
 Alpha virt. eigenvalues --   -0.00008   0.00371   0.00815   0.00912   0.00926

  Beta  occ. eigenvalues --  -38.44059 -38.44015 -38.43487 -38.43389 -38.43348
  Beta  occ. eigenvalues --  -38.43291 -38.43093  -2.19938  -2.19858  -2.19361
  Beta  occ. eigenvalues --   -2.19283  -2.19263  -2.19184  -2.18932  -1.13641
  Beta  occ. eigenvalues --   -1.13582  -1.13568  -1.13551  -1.13505  -1.13500
  Beta  occ. eigenvalues --   -1.13072  -1.13040  -1.13007  -1.13003  -1.12994
  Beta  occ. eigenvalues --   -1.12962  -1.12941  -1.12892  -1.12883  -1.12878
  Beta  occ. eigenvalues --   -1.12834  -1.12807  -1.12611  -1.12585  -1.12569
  Beta  occ. eigenvalues --   -0.18248  -0.13155  -0.12087
  Beta virt. eigenvalues --   -0.06948  -0.05666  -0.05138  -0.04403  -0.02585
  Beta virt. eigenvalues --   -0.02095  -0.01473  -0.01442  -0.00924  -0.00277
  Beta virt. eigenvalues --   -0.00250   0.00127   0.00396   0.00875   0.00915

 Mulliken charges and spin densities:
               1          2
     1  Na  -0.088934  -0.077273
     2  Na   0.168828  -0.051402
     3  Na  -0.047877  -0.101880
     4  Na  -0.376250   0.659774
     5  Na   0.407961  -0.066634
     6  Na   0.286375  -0.043920
     7  Na  -0.350102   0.681336
 Sum of Mulliken charges =  -0.00000   1.00000

 Dipole moment (field-independent basis, Debye):
    X=             -0.0471    Y=              0.0351    Z=             -0.0302  Tot=              0.0661
 Quadrupole moment (field-independent basis, Debye-Ang):
   XX=            -55.7900   YY=            -64.8643   ZZ=            -73.5832
   XY=             -0.0019   XZ=             -1.0987   YZ=              1.0827

 Normal termination of Gaussian 16 at Thu Dec  7 09:20:20 2023.
