 Gaussian 16, Revision B.01,
 Gaussian 16:  ES64L-G16RevB.01 20-Dec-2017

 -------------------------
 #P B3LYP/6-311+g(d) force
 -------------------------

 -----
 DPGEN
 -----
 Symbolic Z-matrix:
 Charge =  0 Multiplicity = 2

                         Standard orientation:
 ---------------------------------------------------------------------
 Center     Atomic      Atomic             Coordinates (Angstroms)
 Number     Number       Type             X           Y           Z
 ---------------------------------------------------------------------
      1         11           0       -3.057822    1.072028    0.182871
      2         11           0        1.351680   -2.258487    0.051407
      3         11           0        0.390869    2.758327   -0.309902
      4         11           0        3.342372    0.252578    0.106123
      5         11           0        0.094546    0.186159    1.832019
      6         11           0        0.146802   -0.070421   -1.714981
      7         11           0       -2.268446   -1.940184   -0.147537
 ---------------------------------------------------------------------

 SCF Done:  E(UB3LYP) =  -1136.13313360     A.U. after   19 cycles

 The electronic state is 2-A.
 Alpha  occ. eigenvalues --  -38.44813 -38.44410 -38.43454 -38.43450 -38.43167
 Alpha  occ. eigenvalues --  -38.43017 -38.42946  -2.20640  -2.20239  -2.19397
 Alpha  occ. eigenvalues --   -2.19322  -2.19172  -2.18958  -2.18809  -1.14316
 Alpha  occ. eigenvalues --   -1.14305  -1.14272  -1.13930  -1.13904  -1.13866
 Alpha  occ. eigenvalues --   -1.13099  -1.13043  -1.13010  -1.13000  -1.12977
 Alpha  occ. eigenvalues --   -1.12966  -1.12899  -1.12846  -1.12772  -1.12628
 Alpha  occ. eigenvalues --   -1.12609  -1.12568  -1.12494  -1.12474  -1.12416
 Alpha  occ. eigenvalues --   -0.18990  -0.13505  -0.12107  -0.10693
 Alpha virt. eigenvalues --   -0.06360  -0.04925  -0.04159  -0.03330  -0.02667
 Alpha virt. eigenvalues --   -0.02381  -0.02097  -0.00992  -0.00292  -0.00106
 Alpha virt. eigenvalues --   -0.00016   0.00334   0.00790   0.00866   0.00887

  Beta  occ. eigenvalues --  -38.44810 -38.44407 -38.43446 -38.43376 -38.43086
  Beta  occ. eigenvalues --  -38.43006 -38.42936  -2.20637  -2.20236  -2.19318
  Beta  occ. eigenvalues --   -2.19254  -2.19025  -2.18943  -2.18794  -1.14318
  Beta  occ. eigenvalues --   -1.14280  -1.14271  -1.13932  -1.13883  -1.13867
  Beta  occ. eigenvalues --   -1.13013  -1.12995  -1.12968  -1.12953  -1.12939
  Beta  occ. eigenvalues --   -1.12896  -1.12815  -1.12746  -1.12670  -1.12606
  Beta  occ. eigenvalues --   -1.12571  -1.12545  -1.12478  -1.12438  -1.12411
  Beta  occ. eigenvalues --   -0.18252  -0.13276  -0.11822
  Beta virt. eigenvalues --   -0.06783  -0.06297  -0.04936  -0.04156  -0.02553
  Beta virt. eigenvalues --   -0.01993  -0.01871  -0.01322  -0.00949  -0.00324
  Beta virt. eigenvalues --   -0.00147   0.00118   0.00354   0.00831   0.00878

 Mulliken charges and spin densities:
               1          2
     1  Na   0.109690  -0.044340
     2  Na   0.292230  -0.022614
     3  Na   0.007216  -0.150399
     4  Na   0.214125  -0.062818
     5  Na  -0.459634   0.693927
     6  Na  -0.320294   0.644660
     7  Na   0.156666  -0.058415
 Sum of Mulliken charges =  -0.00000   1.00000

 Dipole moment (field-independent basis, Debye):
    X=              0.2027    Y=              0.2392    Z=              0.1390  Tot=              0.3430
 Quadrupole moment (field-independent basis, Debye-Ang):
   XX=            -50.3570   YY=            -67.1329   ZZ=            -74.8440
   XY=              0.1673   XZ=              0.0699   YZ=             -0.2321

 Normal termination of Gaussian 16 at Mon Dec  4 05:11:44 2023.
