 Gaussian 16, Revision B.01,
 Gaussian 16:  ES64L-G16RevB.01 20-Dec-2017

 -------------------------
 #P B3LYP/6-311+g(d) force
 -------------------------

 -----
 DPGEN
 -----
 Symbolic Z-matrix:
 Charge =  0 Multiplicity = 2

                         Standard orientation:
 ---------------------------------------------------------------------
 Center     Atomic      Atomic             Coordinates (Angstroms)
 Number     Number       Type             X           Y           Z
 ---------------------------------------------------------------------
      1         11           0       -2.936074   -1.537240   -1.085514
      2         11           0        3.994234   -1.158042   -0.725199
      3         11           0       -0.787742   -2.252319    1.591490
      4         11           0        0.191191    3.123264   -0.325645
      5         11           0        0.214061   -0.373411   -1.246439
      6         11           0        1.662349    0.739673    1.369958
      7         11           0       -2.338020    1.458076    0.421349
 ---------------------------------------------------------------------

 SCF Done:  E(UB3LYP) =  -1136.12744102     A.U. after   21 cycles

 The electronic state is 2-A.
 Alpha  occ. eigenvalues --  -38.44286 -38.44180 -38.43855 -38.43817 -38.43668
 Alpha  occ. eigenvalues --  -38.43637 -38.43276  -2.20048  -2.20046  -2.19782
 Alpha  occ. eigenvalues --   -2.19648  -2.19525  -2.19522  -2.19152  -1.13739
 Alpha  occ. eigenvalues --   -1.13714  -1.13712  -1.13708  -1.13692  -1.13663
 Alpha  occ. eigenvalues --   -1.13531  -1.13448  -1.13396  -1.13303  -1.13299
 Alpha  occ. eigenvalues --   -1.13267  -1.13228  -1.13189  -1.13182  -1.13178
 Alpha  occ. eigenvalues --   -1.13143  -1.13124  -1.12810  -1.12801  -1.12800
 Alpha  occ. eigenvalues --   -0.18203  -0.13196  -0.12267  -0.10476
 Alpha virt. eigenvalues --   -0.06347  -0.05109  -0.04869  -0.03195  -0.02813
 Alpha virt. eigenvalues --   -0.02164  -0.01995  -0.01232  -0.00777  -0.00257
 Alpha virt. eigenvalues --    0.00069   0.00173   0.00446   0.00662   0.00730

  Beta  occ. eigenvalues --  -38.44255 -38.44179 -38.43830 -38.43748 -38.43647
  Beta  occ. eigenvalues --  -38.43610 -38.43277  -2.20047  -2.19989  -2.19738
  Beta  occ. eigenvalues --   -2.19520  -2.19487  -2.19476  -2.19154  -1.13740
  Beta  occ. eigenvalues --   -1.13703  -1.13684  -1.13672  -1.13665  -1.13626
  Beta  occ. eigenvalues --   -1.13482  -1.13419  -1.13363  -1.13219  -1.13207
  Beta  occ. eigenvalues --   -1.13199  -1.13183  -1.13162  -1.13146  -1.13137
  Beta  occ. eigenvalues --   -1.13107  -1.13082  -1.12814  -1.12804  -1.12791
  Beta  occ. eigenvalues --   -0.17614  -0.12943  -0.11992
  Beta virt. eigenvalues --   -0.06863  -0.06071  -0.04986  -0.04492  -0.02828
  Beta virt. eigenvalues --   -0.02337  -0.01963  -0.01342  -0.01152  -0.00495
  Beta virt. eigenvalues --   -0.00068   0.00200   0.00267   0.00579   0.00731

 Mulliken charges and spin densities:
               1          2
     1  Na   0.745536   0.019231
     2  Na  -0.030258   0.180327
     3  Na  -0.334894   0.327714
     4  Na   0.257252  -0.064628
     5  Na  -0.824076   0.206556
     6  Na   0.294881   0.182020
     7  Na  -0.108441   0.148780
 Sum of Mulliken charges =  -0.00000   1.00000

 Dipole moment (field-independent basis, Debye):
    X=             -0.2170    Y=             -0.0139    Z=              0.1247  Tot=              0.2506
 Quadrupole moment (field-independent basis, Debye-Ang):
   XX=            -57.1689   YY=            -65.6621   ZZ=            -71.0566
   XY=              1.1243   XZ=             -0.3416   YZ=              0.4217

 Normal termination of Gaussian 16 at Tue Dec  5 13:38:04 2023.
