 Gaussian 16, Revision B.01,
 Gaussian 16:  ES64L-G16RevB.01 20-Dec-2017

 -------------------------
 #P B3LYP/6-311+g(d) force
 -------------------------

 -----
 DPGEN
 -----
 Symbolic Z-matrix:
 Charge =  0 Multiplicity = 2

                         Standard orientation:
 ---------------------------------------------------------------------
 Center     Atomic      Atomic             Coordinates (Angstroms)
 Number     Number       Type             X           Y           Z
 ---------------------------------------------------------------------
      1         11           0        2.182957   -0.632931    1.843582
      2         11           0       -3.823319   -1.656343   -0.617990
      3         11           0       -0.206744   -1.058692   -0.838586
      4         11           0        3.660474   -0.992869   -1.088057
      5         11           0        1.590713    1.970284   -0.785226
      6         11           0       -2.134431    1.919517   -0.645623
      7         11           0       -1.269651    0.451034    2.131899
 ---------------------------------------------------------------------

 SCF Done:  E(UB3LYP) =  -1136.12307331     A.U. after   29 cycles

 The electronic state is 2-A.
 Alpha  occ. eigenvalues --  -38.44564 -38.44454 -38.44361 -38.44259 -38.44024
 Alpha  occ. eigenvalues --  -38.43689 -38.43172  -2.20430  -2.20308  -2.20184
 Alpha  occ. eigenvalues --   -2.20120  -2.19866  -2.19528  -2.18938  -1.14112
 Alpha  occ. eigenvalues --   -1.14077  -1.14062  -1.13995  -1.13968  -1.13912
 Alpha  occ. eigenvalues --   -1.13850  -1.13848  -1.13838  -1.13811  -1.13800
 Alpha  occ. eigenvalues --   -1.13708  -1.13561  -1.13534  -1.13458  -1.13227
 Alpha  occ. eigenvalues --   -1.13186  -1.13125  -1.12614  -1.12609  -1.12569
 Alpha  occ. eigenvalues --   -0.18274  -0.13956  -0.11716  -0.10628
 Alpha virt. eigenvalues --   -0.06420  -0.05513  -0.05170  -0.03306  -0.02511
 Alpha virt. eigenvalues --   -0.02383  -0.02206  -0.01339  -0.01012  -0.00213
 Alpha virt. eigenvalues --    0.00076   0.00111   0.00262   0.00409   0.00569

  Beta  occ. eigenvalues --  -38.44502 -38.44399 -38.44346 -38.44246 -38.44012
  Beta  occ. eigenvalues --  -38.43649 -38.43177  -2.20318  -2.20208  -2.20157
  Beta  occ. eigenvalues --   -2.20100  -2.19845  -2.19457  -2.18948  -1.14033
  Beta  occ. eigenvalues --   -1.14006  -1.13970  -1.13928  -1.13887  -1.13842
  Beta  occ. eigenvalues --   -1.13825  -1.13811  -1.13804  -1.13792  -1.13787
  Beta  occ. eigenvalues --   -1.13698  -1.13538  -1.13521  -1.13440  -1.13172
  Beta  occ. eigenvalues --   -1.13134  -1.13073  -1.12619  -1.12617  -1.12576
  Beta  occ. eigenvalues --   -0.17529  -0.13814  -0.10479
  Beta virt. eigenvalues --   -0.07654  -0.06261  -0.05416  -0.04486  -0.02790
  Beta virt. eigenvalues --   -0.02398  -0.01866  -0.01830  -0.01152  -0.00503
  Beta virt. eigenvalues --   -0.00119   0.00118   0.00244   0.00320   0.00539

 Mulliken charges and spin densities:
               1          2
     1  Na   0.013293   0.155161
     2  Na   0.363831  -0.089728
     3  Na  -1.864085   0.270662
     4  Na   1.369511   0.184103
     5  Na  -0.263304   0.251032
     6  Na   0.399511   0.048963
     7  Na  -0.018758   0.179807
 Sum of Mulliken charges =  -0.00000   1.00000

 Dipole moment (field-independent basis, Debye):
    X=              0.9790    Y=              0.6805    Z=              0.3424  Tot=              1.2405
 Quadrupole moment (field-independent basis, Debye-Ang):
   XX=            -53.9648   YY=            -75.9536   ZZ=            -66.9576
   XY=             -4.3640   XZ=             -2.7979   YZ=             -1.9322

 Normal termination of Gaussian 16 at Tue Dec  5 11:45:53 2023.
