 Gaussian 16, Revision B.01,
 Gaussian 16:  ES64L-G16RevB.01 20-Dec-2017

 -------------------------
 #P B3LYP/6-311+g(d) force
 -------------------------

 -----
 DPGEN
 -----
 Symbolic Z-matrix:
 Charge =  0 Multiplicity = 2

                         Standard orientation:
 ---------------------------------------------------------------------
 Center     Atomic      Atomic             Coordinates (Angstroms)
 Number     Number       Type             X           Y           Z
 ---------------------------------------------------------------------
      1         11           0       -0.213073    0.160023   -1.843897
      2         11           0        0.213816   -0.182488    1.982907
      3         11           0        2.579625    0.108805   -0.198163
      4         11           0        0.834306   -2.024792   -0.120898
      5         11           0       -1.919132   -1.495869   -0.054949
      6         11           0        0.486788    2.194679    0.063012
      7         11           0       -1.982329    1.239642    0.171988
 ---------------------------------------------------------------------

 SCF Done:  E(UB3LYP) =  -1136.08529039     A.U. after   19 cycles

 The electronic state is 2-A.
 Alpha  occ. eigenvalues --  -38.44354 -38.44278 -38.43858 -38.43685 -38.43553
 Alpha  occ. eigenvalues --  -38.43469 -38.43409  -2.20498  -2.20484  -2.20030
 Alpha  occ. eigenvalues --   -2.19748  -2.19679  -2.19618  -2.19551  -1.14331
 Alpha  occ. eigenvalues --   -1.14231  -1.14188  -1.14158  -1.14144  -1.14087
 Alpha  occ. eigenvalues --   -1.13956  -1.13781  -1.13679  -1.13595  -1.13518
 Alpha  occ. eigenvalues --   -1.13451  -1.13358  -1.13277  -1.13241  -1.13224
 Alpha  occ. eigenvalues --   -1.13177  -1.13166  -1.13143  -1.13078  -1.13020
 Alpha  occ. eigenvalues --   -0.21642  -0.13618  -0.13047  -0.12615
 Alpha virt. eigenvalues --   -0.04961  -0.04190  -0.04120  -0.03751  -0.03459
 Alpha virt. eigenvalues --   -0.03237  -0.00839  -0.00448  -0.00181   0.00358
 Alpha virt. eigenvalues --    0.00849   0.00936   0.01081   0.01205   0.01256

  Beta  occ. eigenvalues --  -38.44255 -38.44184 -38.43843 -38.43676 -38.43541
  Beta  occ. eigenvalues --  -38.43452 -38.43394  -2.20329  -2.20304  -2.20010
  Beta  occ. eigenvalues --   -2.19736  -2.19664  -2.19598  -2.19533  -1.14246
  Beta  occ. eigenvalues --   -1.14122  -1.14075  -1.14030  -1.14026  -1.13958
  Beta  occ. eigenvalues --   -1.13936  -1.13756  -1.13670  -1.13520  -1.13506
  Beta  occ. eigenvalues --   -1.13446  -1.13305  -1.13239  -1.13208  -1.13169
  Beta  occ. eigenvalues --   -1.13151  -1.13148  -1.13082  -1.13073  -1.13015
  Beta  occ. eigenvalues --   -0.20757  -0.13257  -0.12669
  Beta virt. eigenvalues --   -0.08402  -0.04977  -0.04175  -0.04102  -0.02809
  Beta virt. eigenvalues --   -0.02513  -0.02133  -0.00775  -0.00402  -0.00010
  Beta virt. eigenvalues --    0.00378   0.00831   0.00901   0.01123   0.01186

 Mulliken charges and spin densities:
               1          2
     1  Na  -0.102452   0.412321
     2  Na  -0.289732   0.462367
     3  Na  -0.034378  -0.049151
     4  Na   0.152802   0.073835
     5  Na   0.057537  -0.009481
     6  Na   0.081892   0.040804
     7  Na   0.134331   0.069306
 Sum of Mulliken charges =  -0.00000   1.00000

 Dipole moment (field-independent basis, Debye):
    X=              0.1964    Y=             -0.0320    Z=              0.1985  Tot=              0.2811
 Quadrupole moment (field-independent basis, Debye-Ang):
   XX=            -63.3446   YY=            -69.6207   ZZ=            -66.0857
   XY=              0.6461   XZ=             -0.7604   YZ=              0.5178

 Normal termination of Gaussian 16 at Fri Dec  8 17:35:34 2023.
