 Gaussian 16, Revision B.01,
 Gaussian 16:  ES64L-G16RevB.01 20-Dec-2017

 -------------------------
 #P B3LYP/6-311+g(d) force
 -------------------------

 -----
 DPGEN
 -----
 Symbolic Z-matrix:
 Charge =  0 Multiplicity = 2

                         Standard orientation:
 ---------------------------------------------------------------------
 Center     Atomic      Atomic             Coordinates (Angstroms)
 Number     Number       Type             X           Y           Z
 ---------------------------------------------------------------------
      1         11           0        1.503408    1.485863   -0.821016
      2         11           0       -1.797452    1.856508   -0.737547
      3         11           0       -0.507687    0.005803    2.208618
      4         11           0       -1.527557   -1.318050   -1.235460
      5         11           0       -3.872307   -0.455607    0.648942
      6         11           0        1.790995   -1.631158   -0.738966
      7         11           0        4.410601    0.056641    0.675430
 ---------------------------------------------------------------------

 SCF Done:  E(UB3LYP) =  -1136.11018355     A.U. after   39 cycles

 The electronic state is 2-A.
 Alpha  occ. eigenvalues --  -38.46453 -38.44847 -38.44330 -38.44134 -38.44071
 Alpha  occ. eigenvalues --  -38.42949 -38.42654  -2.22214  -2.20636  -2.20228
 Alpha  occ. eigenvalues --   -2.20016  -2.19985  -2.18864  -2.18563  -1.15908
 Alpha  occ. eigenvalues --   -1.15871  -1.15819  -1.14306  -1.14299  -1.14268
 Alpha  occ. eigenvalues --   -1.13918  -1.13899  -1.13841  -1.13764  -1.13687
 Alpha  occ. eigenvalues --   -1.13657  -1.13635  -1.13611  -1.13564  -1.12547
 Alpha  occ. eigenvalues --   -1.12532  -1.12486  -1.12267  -1.12247  -1.12155
 Alpha  occ. eigenvalues --   -0.18580  -0.14486  -0.11553  -0.10411
 Alpha virt. eigenvalues --   -0.08041  -0.04936  -0.04657  -0.03376  -0.03211
 Alpha virt. eigenvalues --   -0.02372  -0.02153  -0.01517  -0.01162  -0.00256
 Alpha virt. eigenvalues --   -0.00219   0.00138   0.00257   0.00643   0.00714

  Beta  occ. eigenvalues --  -38.46418 -38.44838 -38.44275 -38.44136 -38.44000
  Beta  occ. eigenvalues --  -38.42935 -38.42644  -2.22150  -2.20618  -2.20130
  Beta  occ. eigenvalues --   -2.19991  -2.19887  -2.18838  -2.18547  -1.15856
  Beta  occ. eigenvalues --   -1.15820  -1.15775  -1.14290  -1.14287  -1.14256
  Beta  occ. eigenvalues --   -1.13856  -1.13834  -1.13747  -1.13722  -1.13649
  Beta  occ. eigenvalues --   -1.13616  -1.13594  -1.13558  -1.13495  -1.12524
  Beta  occ. eigenvalues --   -1.12509  -1.12467  -1.12255  -1.12222  -1.12144
  Beta  occ. eigenvalues --   -0.17859  -0.14365  -0.10249
  Beta virt. eigenvalues --   -0.07751  -0.07515  -0.04653  -0.04354  -0.03119
  Beta virt. eigenvalues --   -0.02837  -0.01870  -0.01511  -0.01267  -0.00814
  Beta virt. eigenvalues --   -0.00213  -0.00146   0.00276   0.00285   0.00711

 Mulliken charges and spin densities:
               1          2
     1  Na  -0.613264   0.096218
     2  Na  -0.170851   0.274095
     3  Na  -0.480841   0.184691
     4  Na  -0.578091   0.123650
     5  Na   1.112518   0.120936
     6  Na  -0.022778   0.138710
     7  Na   0.753306   0.061699
 Sum of Mulliken charges =  -0.00000   1.00000

 Dipole moment (field-independent basis, Debye):
    X=              0.3472    Y=              0.3066    Z=              0.4954  Tot=              0.6782
 Quadrupole moment (field-independent basis, Debye-Ang):
   XX=            -52.4923   YY=            -74.9354   ZZ=            -71.9208
   XY=             -0.6221   XZ=              3.2858   YZ=              4.7488

 Normal termination of Gaussian 16 at Thu Dec  7 22:04:34 2023.
