 Gaussian 16, Revision B.01,
 Gaussian 16:  ES64L-G16RevB.01 20-Dec-2017

 -------------------------
 #P B3LYP/6-311+g(d) force
 -------------------------

 -----
 DPGEN
 -----
 Symbolic Z-matrix:
 Charge =  0 Multiplicity = 2

                         Standard orientation:
 ---------------------------------------------------------------------
 Center     Atomic      Atomic             Coordinates (Angstroms)
 Number     Number       Type             X           Y           Z
 ---------------------------------------------------------------------
      1         11           0        2.735117    1.008990    0.763596
      2         11           0        0.388486    3.083798   -0.219107
      3         11           0        3.593053   -2.014965   -0.503872
      4         11           0       -1.044324    0.335844    1.574021
      5         11           0       -0.019528   -0.791734   -1.266675
      6         11           0       -3.096918    0.976005   -0.992053
      7         11           0       -2.555886   -2.597938    0.644091
 ---------------------------------------------------------------------

 SCF Done:  E(UB3LYP) =  -1136.12580630     A.U. after   20 cycles

 The electronic state is 2-A.
 Alpha  occ. eigenvalues --  -38.44458 -38.44391 -38.44184 -38.43925 -38.43769
 Alpha  occ. eigenvalues --  -38.43664 -38.43362  -2.20295  -2.20245  -2.19994
 Alpha  occ. eigenvalues --   -2.19847  -2.19616  -2.19445  -2.19184  -1.13996
 Alpha  occ. eigenvalues --   -1.13969  -1.13951  -1.13902  -1.13900  -1.13834
 Alpha  occ. eigenvalues --   -1.13659  -1.13653  -1.13619  -1.13559  -1.13512
 Alpha  occ. eigenvalues --   -1.13415  -1.13310  -1.13289  -1.13250  -1.13109
 Alpha  occ. eigenvalues --   -1.13103  -1.13072  -1.12863  -1.12839  -1.12826
 Alpha  occ. eigenvalues --   -0.18001  -0.13612  -0.11909  -0.10317
 Alpha virt. eigenvalues --   -0.06377  -0.05856  -0.04703  -0.03073  -0.02608
 Alpha virt. eigenvalues --   -0.02335  -0.01875  -0.01642  -0.00899  -0.00405
 Alpha virt. eigenvalues --   -0.00210   0.00180   0.00380   0.00623   0.00673

  Beta  occ. eigenvalues --  -38.44398 -38.44367 -38.44151 -38.43882 -38.43759
  Beta  occ. eigenvalues --  -38.43654 -38.43366  -2.20203  -2.20183  -2.19935
  Beta  occ. eigenvalues --   -2.19770  -2.19599  -2.19425  -2.19193  -1.13957
  Beta  occ. eigenvalues --   -1.13889  -1.13876  -1.13869  -1.13823  -1.13797
  Beta  occ. eigenvalues --   -1.13614  -1.13603  -1.13581  -1.13510  -1.13447
  Beta  occ. eigenvalues --   -1.13353  -1.13301  -1.13278  -1.13226  -1.13094
  Beta  occ. eigenvalues --   -1.13090  -1.13059  -1.12873  -1.12839  -1.12817
  Beta  occ. eigenvalues --   -0.17433  -0.13316  -0.11594
  Beta virt. eigenvalues --   -0.06792  -0.06124  -0.05621  -0.04448  -0.02707
  Beta virt. eigenvalues --   -0.02221  -0.01994  -0.01540  -0.01099  -0.00774
  Beta virt. eigenvalues --   -0.00252  -0.00029   0.00268   0.00470   0.00682

 Mulliken charges and spin densities:
               1          2
     1  Na  -0.043131   0.001887
     2  Na  -0.013319   0.017704
     3  Na   0.153755   0.049388
     4  Na   0.015815   0.322312
     5  Na  -0.364285   0.276207
     6  Na   0.230459   0.273614
     7  Na   0.020707   0.058888
 Sum of Mulliken charges =  -0.00000   1.00000

 Dipole moment (field-independent basis, Debye):
    X=             -0.8074    Y=             -0.1269    Z=              0.0476  Tot=              0.8187
 Quadrupole moment (field-independent basis, Debye-Ang):
   XX=            -57.1677   YY=            -64.0555   ZZ=            -73.5978
   XY=              1.6526   XZ=              1.1311   YZ=             -0.3616

 Normal termination of Gaussian 16 at Fri Dec  8 00:04:49 2023.
