 Gaussian 16, Revision B.01,
 Gaussian 16:  ES64L-G16RevB.01 20-Dec-2017

 -------------------------
 #P B3LYP/6-311+g(d) force
 -------------------------

 -----
 DPGEN
 -----
 Symbolic Z-matrix:
 Charge =  0 Multiplicity = 2

                         Standard orientation:
 ---------------------------------------------------------------------
 Center     Atomic      Atomic             Coordinates (Angstroms)
 Number     Number       Type             X           Y           Z
 ---------------------------------------------------------------------
      1         11           0       -2.874617   -1.419341   -0.986834
      2         11           0       -0.560590   -2.790587    0.907931
      3         11           0       -1.114987    2.800916   -1.072599
      4         11           0       -2.039457    1.071249    1.780754
      5         11           0        0.669065   -0.191102   -1.189096
      6         11           0        3.560787   -1.213032   -0.347625
      7         11           0        2.359799    1.741897    0.907469
 ---------------------------------------------------------------------

 SCF Done:  E(UB3LYP) =  -1136.12618902     A.U. after   19 cycles

 The electronic state is 2-A.
 Alpha  occ. eigenvalues --  -38.44719 -38.44446 -38.44354 -38.44008 -38.43759
 Alpha  occ. eigenvalues --  -38.43318 -38.43006  -2.20520  -2.20248  -2.20171
 Alpha  occ. eigenvalues --   -2.19808  -2.19565  -2.19129  -2.18958  -1.14208
 Alpha  occ. eigenvalues --   -1.14189  -1.14133  -1.13915  -1.13908  -1.13893
 Alpha  occ. eigenvalues --   -1.13862  -1.13817  -1.13805  -1.13482  -1.13464
 Alpha  occ. eigenvalues --   -1.13440  -1.13232  -1.13212  -1.13188  -1.12805
 Alpha  occ. eigenvalues --   -1.12783  -1.12767  -1.12655  -1.12602  -1.12592
 Alpha  occ. eigenvalues --   -0.17536  -0.13388  -0.12098  -0.10011
 Alpha virt. eigenvalues --   -0.05958  -0.05908  -0.04724  -0.03377  -0.03046
 Alpha virt. eigenvalues --   -0.02011  -0.01795  -0.01347  -0.00805  -0.00433
 Alpha virt. eigenvalues --   -0.00076   0.00347   0.00375   0.00481   0.00708

  Beta  occ. eigenvalues --  -38.44704 -38.44435 -38.44355 -38.43999 -38.43698
  Beta  occ. eigenvalues --  -38.43297 -38.42963  -2.20493  -2.20231  -2.20175
  Beta  occ. eigenvalues --   -2.19792  -2.19451  -2.19092  -2.18882  -1.14191
  Beta  occ. eigenvalues --   -1.14160  -1.14116  -1.13903  -1.13888  -1.13874
  Beta  occ. eigenvalues --   -1.13859  -1.13818  -1.13807  -1.13473  -1.13443
  Beta  occ. eigenvalues --   -1.13427  -1.13150  -1.13135  -1.13108  -1.12771
  Beta  occ. eigenvalues --   -1.12759  -1.12732  -1.12594  -1.12547  -1.12533
  Beta  occ. eigenvalues --   -0.16954  -0.13173  -0.11918
  Beta virt. eigenvalues --   -0.06425  -0.05817  -0.05723  -0.04513  -0.02887
  Beta virt. eigenvalues --   -0.02478  -0.01742  -0.01324  -0.01118  -0.00628
  Beta virt. eigenvalues --   -0.00382   0.00137   0.00396   0.00543   0.00597

 Mulliken charges and spin densities:
               1          2
     1  Na   0.340645  -0.029122
     2  Na  -0.350701   0.117233
     3  Na   0.153955  -0.013163
     4  Na  -0.336014   0.529343
     5  Na   0.290407   0.318742
     6  Na   0.262820   0.037591
     7  Na  -0.361112   0.039376
 Sum of Mulliken charges =  -0.00000   1.00000

 Dipole moment (field-independent basis, Debye):
    X=              0.6494    Y=             -0.4019    Z=              0.0525  Tot=              0.7655
 Quadrupole moment (field-independent basis, Debye-Ang):
   XX=            -54.5030   YY=            -64.7416   ZZ=            -73.6959
   XY=             -0.7166   XZ=              3.7811   YZ=             -0.5501

 Normal termination of Gaussian 16 at Wed Dec  6 01:26:35 2023.
