 Gaussian 16, Revision B.01,
 Gaussian 16:  ES64L-G16RevB.01 20-Dec-2017

 -------------------------
 #P B3LYP/6-311+g(d) force
 -------------------------

 -----
 DPGEN
 -----
 Symbolic Z-matrix:
 Charge =  0 Multiplicity = 2

                         Standard orientation:
 ---------------------------------------------------------------------
 Center     Atomic      Atomic             Coordinates (Angstroms)
 Number     Number       Type             X           Y           Z
 ---------------------------------------------------------------------
      1         11           0        2.409161   -1.186350   -0.975735
      2         11           0       -0.778926    1.544283    1.522512
      3         11           0       -0.793266   -2.572008    0.216876
      4         11           0        1.731330    2.648998   -0.476792
      5         11           0       -3.608478    0.376039   -0.241649
      6         11           0       -0.427372    0.009780   -1.967634
      7         11           0        1.467551   -0.820742    1.922422
 ---------------------------------------------------------------------

 SCF Done:  E(UB3LYP) =  -1136.13086871     A.U. after   20 cycles

 The electronic state is 2-A.
 Alpha  occ. eigenvalues --  -38.44130 -38.44074 -38.43953 -38.43924 -38.43602
 Alpha  occ. eigenvalues --  -38.43447 -38.43362  -2.20035  -2.19999  -2.19844
 Alpha  occ. eigenvalues --   -2.19703  -2.19441  -2.19322  -2.19163  -1.13738
 Alpha  occ. eigenvalues --   -1.13727  -1.13678  -1.13675  -1.13660  -1.13596
 Alpha  occ. eigenvalues --   -1.13515  -1.13476  -1.13428  -1.13381  -1.13363
 Alpha  occ. eigenvalues --   -1.13338  -1.13132  -1.13123  -1.13040  -1.13017
 Alpha  occ. eigenvalues --   -1.12980  -1.12936  -1.12833  -1.12816  -1.12803
 Alpha  occ. eigenvalues --   -0.18539  -0.12632  -0.12008  -0.11944
 Alpha virt. eigenvalues --   -0.05719  -0.04883  -0.04181  -0.03448  -0.03343
 Alpha virt. eigenvalues --   -0.03212  -0.01506  -0.00956  -0.00440   0.00173
 Alpha virt. eigenvalues --    0.00305   0.00368   0.00443   0.00781   0.00875

  Beta  occ. eigenvalues --  -38.44058 -38.44004 -38.43931 -38.43926 -38.43594
  Beta  occ. eigenvalues --  -38.43407 -38.43359  -2.19904  -2.19872  -2.19808
  Beta  occ. eigenvalues --   -2.19708  -2.19429  -2.19250  -2.19161  -1.13661
  Beta  occ. eigenvalues --   -1.13648  -1.13588  -1.13580  -1.13563  -1.13506
  Beta  occ. eigenvalues --   -1.13461  -1.13437  -1.13397  -1.13377  -1.13367
  Beta  occ. eigenvalues --   -1.13341  -1.13121  -1.13094  -1.13036  -1.12964
  Beta  occ. eigenvalues --   -1.12925  -1.12889  -1.12825  -1.12805  -1.12800
  Beta  occ. eigenvalues --   -0.17701  -0.12493  -0.11761
  Beta virt. eigenvalues --   -0.07910  -0.05660  -0.04679  -0.03731  -0.03129
  Beta virt. eigenvalues --   -0.02631  -0.02300  -0.01412  -0.00895  -0.00147
  Beta virt. eigenvalues --    0.00187   0.00286   0.00401   0.00591   0.00843

 Mulliken charges and spin densities:
               1          2
     1  Na   0.271098   0.004108
     2  Na  -0.315599   0.265013
     3  Na  -0.312067  -0.020327
     4  Na  -0.224218  -0.066003
     5  Na   0.226045  -0.102733
     6  Na  -0.088925   0.551151
     7  Na   0.443665   0.368791
 Sum of Mulliken charges =  -0.00000   1.00000

 Dipole moment (field-independent basis, Debye):
    X=             -0.0565    Y=             -0.2338    Z=             -0.1772  Tot=              0.2988
 Quadrupole moment (field-independent basis, Debye-Ang):
   XX=            -59.1707   YY=            -69.5327   ZZ=            -66.7335
   XY=              0.3419   XZ=             -1.2197   YZ=             -1.2055

 Normal termination of Gaussian 16 at Mon Dec  4 03:56:26 2023.
