 Gaussian 16, Revision B.01,
 Gaussian 16:  ES64L-G16RevB.01 20-Dec-2017

 -------------------------
 #P B3LYP/6-311+g(d) force
 -------------------------

 -----
 DPGEN
 -----
 Symbolic Z-matrix:
 Charge =  0 Multiplicity = 2

                         Standard orientation:
 ---------------------------------------------------------------------
 Center     Atomic      Atomic             Coordinates (Angstroms)
 Number     Number       Type             X           Y           Z
 ---------------------------------------------------------------------
      1         11           0        0.602031   -0.293395    0.409257
      2         11           0        1.928654   -2.795289   -0.186994
      3         11           0       -3.748969   -0.062284    1.427306
      4         11           0       -1.452719   -2.283312   -0.830299
      5         11           0        3.688136    0.542613    0.518300
      6         11           0        1.126521    3.211473   -0.158967
      7         11           0       -2.143654    1.680194   -1.178603
 ---------------------------------------------------------------------

 SCF Done:  E(UB3LYP) =  -1136.12490815     A.U. after   19 cycles

 The electronic state is 2-A.
 Alpha  occ. eigenvalues --  -38.44271 -38.44099 -38.44078 -38.43818 -38.43718
 Alpha  occ. eigenvalues --  -38.43662 -38.43470  -2.20069  -2.19966  -2.19931
 Alpha  occ. eigenvalues --   -2.19605  -2.19553  -2.19496  -2.19480  -1.13764
 Alpha  occ. eigenvalues --   -1.13758  -1.13740  -1.13693  -1.13660  -1.13624
 Alpha  occ. eigenvalues --   -1.13600  -1.13574  -1.13507  -1.13286  -1.13275
 Alpha  occ. eigenvalues --   -1.13260  -1.13235  -1.13214  -1.13182  -1.13159
 Alpha  occ. eigenvalues --   -1.13128  -1.13126  -1.13115  -1.13096  -1.13082
 Alpha  occ. eigenvalues --   -0.17531  -0.13747  -0.12779  -0.09993
 Alpha virt. eigenvalues --   -0.05947  -0.05414  -0.05258  -0.03439  -0.02354
 Alpha virt. eigenvalues --   -0.02130  -0.01562  -0.01487  -0.01006  -0.00771
 Alpha virt. eigenvalues --   -0.00203   0.00201   0.00466   0.00536   0.00678

  Beta  occ. eigenvalues --  -38.44257 -38.44101 -38.44057 -38.43805 -38.43672
  Beta  occ. eigenvalues --  -38.43565 -38.43466  -2.20048  -2.19972  -2.19896
  Beta  occ. eigenvalues --   -2.19584  -2.19492  -2.19467  -2.19298  -1.13770
  Beta  occ. eigenvalues --   -1.13739  -1.13730  -1.13654  -1.13637  -1.13630
  Beta  occ. eigenvalues --   -1.13572  -1.13549  -1.13475  -1.13274  -1.13258
  Beta  occ. eigenvalues --   -1.13224  -1.13206  -1.13170  -1.13148  -1.13118
  Beta  occ. eigenvalues --   -1.13099  -1.13074  -1.13003  -1.13001  -1.12963
  Beta  occ. eigenvalues --   -0.17163  -0.13104  -0.12394
  Beta virt. eigenvalues --   -0.06624  -0.05898  -0.05166  -0.04890  -0.02964
  Beta virt. eigenvalues --   -0.01970  -0.01887  -0.01375  -0.01116  -0.00878
  Beta virt. eigenvalues --   -0.00556   0.00105   0.00359   0.00655   0.00717

 Mulliken charges and spin densities:
               1          2
     1  Na  -2.500757  -0.020435
     2  Na   0.342326  -0.004395
     3  Na   0.321197   0.561385
     4  Na   1.039126   0.125548
     5  Na   0.053751   0.193599
     6  Na   0.356968   0.054727
     7  Na   0.387388   0.089572
 Sum of Mulliken charges =  -0.00000   1.00000

 Dipole moment (field-independent basis, Debye):
    X=              0.6617    Y=             -0.3323    Z=             -0.8210  Tot=              1.1056
 Quadrupole moment (field-independent basis, Debye-Ang):
   XX=            -65.9273   YY=            -60.9402   ZZ=            -70.4608
   XY=             -0.7932   XZ=              3.0627   YZ=              0.7984

 Normal termination of Gaussian 16 at Thu Dec  7 18:38:47 2023.
