 Gaussian 16, Revision B.01,
 Gaussian 16:  ES64L-G16RevB.01 20-Dec-2017

 -------------------------
 #P B3LYP/6-311+g(d) force
 -------------------------

 -----
 DPGEN
 -----
 Symbolic Z-matrix:
 Charge =  0 Multiplicity = 2

                         Standard orientation:
 ---------------------------------------------------------------------
 Center     Atomic      Atomic             Coordinates (Angstroms)
 Number     Number       Type             X           Y           Z
 ---------------------------------------------------------------------
      1         11           0       -1.504160    0.124328    1.893955
      2         11           0        3.976126    0.112128   -0.481597
      3         11           0       -3.616193   -1.560892   -0.185623
      4         11           0        0.156329   -0.568867   -1.653158
      5         11           0       -2.022130    1.952958   -1.102466
      6         11           0        1.055133    1.943428    0.963871
      7         11           0        1.954895   -2.003084    0.565017
 ---------------------------------------------------------------------

 SCF Done:  E(UB3LYP) =  -1136.11948411     A.U. after   27 cycles

 The electronic state is 2-A.
 Alpha  occ. eigenvalues --  -38.45727 -38.44388 -38.44325 -38.44102 -38.43928
 Alpha  occ. eigenvalues --  -38.43511 -38.42377  -2.21529  -2.20257  -2.20178
 Alpha  occ. eigenvalues --   -2.19884  -2.19771  -2.19405  -2.18236  -1.15215
 Alpha  occ. eigenvalues --   -1.15175  -1.15167  -1.14005  -1.13918  -1.13873
 Alpha  occ. eigenvalues --   -1.13832  -1.13815  -1.13814  -1.13558  -1.13541
 Alpha  occ. eigenvalues --   -1.13513  -1.13454  -1.13419  -1.13382  -1.13088
 Alpha  occ. eigenvalues --   -1.13045  -1.13020  -1.11939  -1.11901  -1.11856
 Alpha  occ. eigenvalues --   -0.18109  -0.14096  -0.10963  -0.10935
 Alpha virt. eigenvalues --   -0.07185  -0.05324  -0.04369  -0.03193  -0.02854
 Alpha virt. eigenvalues --   -0.02487  -0.02277  -0.01256  -0.00910  -0.00262
 Alpha virt. eigenvalues --    0.00008   0.00142   0.00325   0.00578   0.00748

  Beta  occ. eigenvalues --  -38.45728 -38.44341 -38.44327 -38.44078 -38.43887
  Beta  occ. eigenvalues --  -38.43441 -38.42364  -2.21532  -2.20183  -2.20172
  Beta  occ. eigenvalues --   -2.19840  -2.19697  -2.19277  -2.18217  -1.15215
  Beta  occ. eigenvalues --   -1.15176  -1.15170  -1.13959  -1.13868  -1.13831
  Beta  occ. eigenvalues --   -1.13823  -1.13806  -1.13782  -1.13523  -1.13507
  Beta  occ. eigenvalues --   -1.13484  -1.13389  -1.13367  -1.13328  -1.12998
  Beta  occ. eigenvalues --   -1.12960  -1.12917  -1.11920  -1.11870  -1.11843
  Beta  occ. eigenvalues --   -0.17481  -0.13797  -0.10749
  Beta virt. eigenvalues --   -0.07105  -0.07020  -0.05255  -0.03885  -0.03010
  Beta virt. eigenvalues --   -0.02576  -0.01882  -0.01605  -0.01094  -0.00511
  Beta virt. eigenvalues --   -0.00214   0.00055   0.00148   0.00448   0.00663

 Mulliken charges and spin densities:
               1          2
     1  Na   0.146890   0.428138
     2  Na   0.351647  -0.076641
     3  Na  -0.065348   0.094643
     4  Na  -0.121894   0.224182
     5  Na   0.045507   0.150878
     6  Na  -0.368996   0.054866
     7  Na   0.012192   0.123933
 Sum of Mulliken charges =  -0.00000   1.00000

 Dipole moment (field-independent basis, Debye):
    X=              1.2536    Y=              0.1106    Z=             -0.4886  Tot=              1.3499
 Quadrupole moment (field-independent basis, Debye-Ang):
   XX=            -47.5736   YY=            -73.8733   ZZ=            -72.2430
   XY=              0.1638   XZ=              0.3741   YZ=             -3.3320

 Normal termination of Gaussian 16 at Tue Dec  5 19:30:23 2023.
