 Gaussian 16, Revision B.01,
 Gaussian 16:  ES64L-G16RevB.01 20-Dec-2017

 -------------------------
 #P B3LYP/6-311+g(d) force
 -------------------------

 -----
 DPGEN
 -----
 Symbolic Z-matrix:
 Charge =  0 Multiplicity = 2

                         Standard orientation:
 ---------------------------------------------------------------------
 Center     Atomic      Atomic             Coordinates (Angstroms)
 Number     Number       Type             X           Y           Z
 ---------------------------------------------------------------------
      1         11           0        2.512876    1.526313   -0.759363
      2         11           0        5.512229    0.246379    1.175393
      3         11           0        3.720538   -1.825139   -0.047531
      4         11           0        0.705269   -0.999652   -0.949639
      5         11           0       -1.387542    1.749434    0.076317
      6         11           0       -3.828520   -0.092683    0.009969
      7         11           0       -7.234850   -0.604651    0.494855
 ---------------------------------------------------------------------

 SCF Done:  E(UB3LYP) =  -1136.10914684     A.U. after   26 cycles

 The electronic state is 2-A.
 Alpha  occ. eigenvalues --  -38.45842 -38.44485 -38.44306 -38.44211 -38.44030
 Alpha  occ. eigenvalues --  -38.43964 -38.43761  -2.21658  -2.20244  -2.20149
 Alpha  occ. eigenvalues --   -2.20118  -2.19877  -2.19874  -2.19572  -1.15382
 Alpha  occ. eigenvalues --   -1.15350  -1.15245  -1.13900  -1.13900  -1.13868
 Alpha  occ. eigenvalues --   -1.13854  -1.13851  -1.13806  -1.13791  -1.13775
 Alpha  occ. eigenvalues --   -1.13754  -1.13565  -1.13537  -1.13517  -1.13511
 Alpha  occ. eigenvalues --   -1.13488  -1.13459  -1.13263  -1.13244  -1.13195
 Alpha  occ. eigenvalues --   -0.17335  -0.14408  -0.11971  -0.10891
 Alpha virt. eigenvalues --   -0.07726  -0.04884  -0.04524  -0.03976  -0.02723
 Alpha virt. eigenvalues --   -0.02575  -0.02414  -0.01717  -0.01104  -0.00943
 Alpha virt. eigenvalues --   -0.00283  -0.00178  -0.00023   0.00331   0.00458

  Beta  occ. eigenvalues --  -38.45841 -38.44443 -38.44271 -38.44182 -38.43998
  Beta  occ. eigenvalues --  -38.43900 -38.43772  -2.21658  -2.20167  -2.20082
  Beta  occ. eigenvalues --   -2.20072  -2.19812  -2.19765  -2.19594  -1.15361
  Beta  occ. eigenvalues --   -1.15348  -1.15248  -1.13847  -1.13847  -1.13821
  Beta  occ. eigenvalues --   -1.13811  -1.13789  -1.13759  -1.13755  -1.13746
  Beta  occ. eigenvalues --   -1.13718  -1.13502  -1.13473  -1.13470  -1.13460
  Beta  occ. eigenvalues --   -1.13441  -1.13345  -1.13272  -1.13263  -1.13195
  Beta  occ. eigenvalues --   -0.16775  -0.14161  -0.11628
  Beta virt. eigenvalues --   -0.07639  -0.07029  -0.04501  -0.04228  -0.03834
  Beta virt. eigenvalues --   -0.02481  -0.02295  -0.01891  -0.01574  -0.00829
  Beta virt. eigenvalues --   -0.00720  -0.00096   0.00109   0.00151   0.00422

 Mulliken charges and spin densities:
               1          2
     1  Na  -0.186102   0.182405
     2  Na   0.264647   0.244105
     3  Na  -0.163688  -0.020270
     4  Na   0.003385   0.361177
     5  Na   0.125488   0.009657
     6  Na   0.071932   0.190850
     7  Na  -0.115662   0.032077
 Sum of Mulliken charges =  -0.00000   1.00000

 Dipole moment (field-independent basis, Debye):
    X=              1.0751    Y=              0.3892    Z=             -0.0176  Tot=              1.1435
 Quadrupole moment (field-independent basis, Debye-Ang):
   XX=            -61.3923   YY=            -67.3355   ZZ=            -71.5004
   XY=              1.6485   XZ=             -0.3464   YZ=             -1.3278

 Normal termination of Gaussian 16 at Wed Nov 29 01:52:26 2023.
