 Gaussian 16, Revision B.01,
 Gaussian 16:  ES64L-G16RevB.01 20-Dec-2017

 -------------------------
 #P B3LYP/6-311+g(d) force
 -------------------------

 -----
 DPGEN
 -----
 Symbolic Z-matrix:
 Charge =  0 Multiplicity = 2

                         Standard orientation:
 ---------------------------------------------------------------------
 Center     Atomic      Atomic             Coordinates (Angstroms)
 Number     Number       Type             X           Y           Z
 ---------------------------------------------------------------------
      1         11           0        0.011761   -0.251935   -1.838393
      2         11           0        1.255643    2.632523    0.167023
      3         11           0        1.068424   -2.643709    0.618940
      4         11           0        2.991828   -0.017656   -0.575431
      5         11           0        0.093673    0.180321    1.888626
      6         11           0       -2.760444    1.754845   -0.014277
      7         11           0       -2.660885   -1.654388   -0.246488
 ---------------------------------------------------------------------

 SCF Done:  E(UB3LYP) =  -1136.13639122     A.U. after   19 cycles

 The electronic state is 2-A.
 Alpha  occ. eigenvalues --  -38.44088 -38.43971 -38.43896 -38.43697 -38.43531
 Alpha  occ. eigenvalues --  -38.43208 -38.43118  -2.19880  -2.19792  -2.19786
 Alpha  occ. eigenvalues --   -2.19619  -2.19467  -2.19071  -2.18981  -1.13561
 Alpha  occ. eigenvalues --   -1.13549  -1.13523  -1.13497  -1.13479  -1.13447
 Alpha  occ. eigenvalues --   -1.13437  -1.13423  -1.13414  -1.13291  -1.13244
 Alpha  occ. eigenvalues --   -1.13238  -1.13143  -1.13125  -1.13083  -1.12754
 Alpha  occ. eigenvalues --   -1.12726  -1.12702  -1.12667  -1.12626  -1.12610
 Alpha  occ. eigenvalues --   -0.18626  -0.13224  -0.12124  -0.11042
 Alpha virt. eigenvalues --   -0.05588  -0.05373  -0.04337  -0.03384  -0.02944
 Alpha virt. eigenvalues --   -0.02699  -0.01558  -0.01111  -0.00351  -0.00230
 Alpha virt. eigenvalues --    0.00014   0.00363   0.00777   0.00853   0.00914

  Beta  occ. eigenvalues --  -38.44090 -38.43967 -38.43878 -38.43627 -38.43446
  Beta  occ. eigenvalues --  -38.43203 -38.43100  -2.19884  -2.19787  -2.19757
  Beta  occ. eigenvalues --   -2.19491  -2.19310  -2.19066  -2.18951  -1.13561
  Beta  occ. eigenvalues --   -1.13546  -1.13523  -1.13468  -1.13459  -1.13439
  Beta  occ. eigenvalues --   -1.13417  -1.13412  -1.13392  -1.13208  -1.13155
  Beta  occ. eigenvalues --   -1.13144  -1.13042  -1.13009  -1.12973  -1.12744
  Beta  occ. eigenvalues --   -1.12708  -1.12694  -1.12637  -1.12596  -1.12588
  Beta  occ. eigenvalues --   -0.17891  -0.12982  -0.11862
  Beta virt. eigenvalues --   -0.07123  -0.05529  -0.05346  -0.04284  -0.02639
  Beta virt. eigenvalues --   -0.02191  -0.01680  -0.01423  -0.01043  -0.00361
  Beta virt. eigenvalues --   -0.00243   0.00117   0.00396   0.00844   0.00862

 Mulliken charges and spin densities:
               1          2
     1  Na  -0.092094   0.527479
     2  Na  -0.052860  -0.100858
     3  Na  -0.003786  -0.000098
     4  Na   0.317035   0.110804
     5  Na  -0.087302   0.643473
     6  Na  -0.129532  -0.112317
     7  Na   0.048538  -0.068484
 Sum of Mulliken charges =  -0.00000   1.00000

 Dipole moment (field-independent basis, Debye):
    X=             -0.3297    Y=              0.0098    Z=             -0.1236  Tot=              0.3522
 Quadrupole moment (field-independent basis, Debye-Ang):
   XX=            -56.6532   YY=            -64.4456   ZZ=            -73.0812
   XY=             -0.3439   XZ=             -0.5650   YZ=             -0.8091

 Normal termination of Gaussian 16 at Tue Dec  5 19:49:01 2023.
