 Gaussian 16, Revision B.01,
 Gaussian 16:  ES64L-G16RevB.01 20-Dec-2017

 -------------------------
 #P B3LYP/6-311+g(d) force
 -------------------------

 -----
 DPGEN
 -----
 Symbolic Z-matrix:
 Charge =  0 Multiplicity = 2

                         Standard orientation:
 ---------------------------------------------------------------------
 Center     Atomic      Atomic             Coordinates (Angstroms)
 Number     Number       Type             X           Y           Z
 ---------------------------------------------------------------------
      1         11           0       -2.467802    1.488482   -0.110073
      2         11           0        0.490230    2.799791    0.127281
      3         11           0        3.148246    0.037963   -0.258648
      4         11           0        0.181918   -0.079312   -1.618444
      5         11           0        1.061761   -2.387883    0.321402
      6         11           0        0.021569    0.082415    1.701347
      7         11           0       -2.435922   -1.941455   -0.162864
 ---------------------------------------------------------------------

 SCF Done:  E(UB3LYP) =  -1136.13574981     A.U. after   21 cycles

 The electronic state is 2-A.
 Alpha  occ. eigenvalues --  -38.43954 -38.43630 -38.43532 -38.43313 -38.43242
 Alpha  occ. eigenvalues --  -38.43036 -38.43001  -2.19821  -2.19528  -2.19377
 Alpha  occ. eigenvalues --   -2.19275  -2.19144  -2.19077  -2.19043  -1.13508
 Alpha  occ. eigenvalues --   -1.13481  -1.13457  -1.13221  -1.13198  -1.13176
 Alpha  occ. eigenvalues --   -1.13070  -1.13045  -1.13028  -1.13022  -1.12964
 Alpha  occ. eigenvalues --   -1.12882  -1.12862  -1.12815  -1.12765  -1.12756
 Alpha  occ. eigenvalues --   -1.12700  -1.12676  -1.12661  -1.12657  -1.12642
 Alpha  occ. eigenvalues --   -0.19382  -0.13267  -0.12688  -0.10646
 Alpha virt. eigenvalues --   -0.05510  -0.05016  -0.04655  -0.03120  -0.02788
 Alpha virt. eigenvalues --   -0.02191  -0.01586  -0.01088  -0.00164  -0.00080
 Alpha virt. eigenvalues --    0.00057   0.00348   0.00834   0.00918   0.00936

  Beta  occ. eigenvalues --  -38.43946 -38.43624 -38.43529 -38.43298 -38.43235
  Beta  occ. eigenvalues --  -38.42952 -38.42931  -2.19810  -2.19521  -2.19375
  Beta  occ. eigenvalues --   -2.19251  -2.19135  -2.18925  -2.18916  -1.13498
  Beta  occ. eigenvalues --   -1.13462  -1.13443  -1.13218  -1.13183  -1.13157
  Beta  occ. eigenvalues --   -1.13051  -1.13031  -1.13022  -1.13009  -1.12907
  Beta  occ. eigenvalues --   -1.12857  -1.12852  -1.12781  -1.12758  -1.12679
  Beta  occ. eigenvalues --   -1.12605  -1.12575  -1.12570  -1.12558  -1.12545
  Beta  occ. eigenvalues --   -0.18657  -0.12982  -0.12413
  Beta virt. eigenvalues --   -0.06706  -0.05472  -0.05013  -0.04653  -0.02302
  Beta virt. eigenvalues --   -0.02011  -0.01488  -0.01155  -0.01031  -0.00204
  Beta virt. eigenvalues --   -0.00106   0.00163   0.00375   0.00873   0.00910

 Mulliken charges and spin densities:
               1          2
     1  Na   0.075219  -0.059313
     2  Na   0.159714  -0.092332
     3  Na   0.182433  -0.052516
     4  Na  -0.514817   0.700471
     5  Na   0.342565  -0.000283
     6  Na  -0.272837   0.577973
     7  Na   0.027721  -0.074000
 Sum of Mulliken charges =  -0.00000   1.00000

 Dipole moment (field-independent basis, Debye):
    X=              0.0789    Y=              0.0747    Z=             -0.0426  Tot=              0.1167
 Quadrupole moment (field-independent basis, Debye-Ang):
   XX=            -54.9225   YY=            -62.1290   ZZ=            -75.2189
   XY=              0.9361   XZ=              0.2268   YZ=             -0.2968

 Normal termination of Gaussian 16 at Wed Nov 29 02:53:29 2023.
