 Gaussian 16, Revision B.01,
 Gaussian 16:  ES64L-G16RevB.01 20-Dec-2017

 -------------------------
 #P B3LYP/6-311+g(d) force
 -------------------------

 -----
 DPGEN
 -----
 Symbolic Z-matrix:
 Charge =  0 Multiplicity = 2

                         Standard orientation:
 ---------------------------------------------------------------------
 Center     Atomic      Atomic             Coordinates (Angstroms)
 Number     Number       Type             X           Y           Z
 ---------------------------------------------------------------------
      1         11           0        1.935589    2.268773   -0.183898
      2         11           0       -1.634117    2.446172    0.371122
      3         11           0        2.991199   -1.015737    0.392329
      4         11           0       -0.314761   -2.842214   -0.707365
      5         11           0       -2.948717   -0.568643    0.073235
      6         11           0       -0.074811   -0.713791    1.829444
      7         11           0        0.045618    0.425440   -1.774867
 ---------------------------------------------------------------------

 SCF Done:  E(UB3LYP) =  -1136.13867758     A.U. after   18 cycles

 The electronic state is 2-A.
 Alpha  occ. eigenvalues --  -38.43914 -38.43734 -38.43562 -38.43509 -38.43455
 Alpha  occ. eigenvalues --  -38.43446 -38.43313  -2.19733  -2.19604  -2.19421
 Alpha  occ. eigenvalues --   -2.19377  -2.19367  -2.19304  -2.19273  -1.13418
 Alpha  occ. eigenvalues --   -1.13385  -1.13373  -1.13294  -1.13271  -1.13248
 Alpha  occ. eigenvalues --   -1.13179  -1.13086  -1.13077  -1.13048  -1.13041
 Alpha  occ. eigenvalues --   -1.13034  -1.13000  -1.12991  -1.12988  -1.12978
 Alpha  occ. eigenvalues --   -1.12964  -1.12935  -1.12925  -1.12886  -1.12874
 Alpha  occ. eigenvalues --   -0.18691  -0.12984  -0.12607  -0.10834
 Alpha virt. eigenvalues --   -0.05457  -0.05104  -0.04779  -0.03183  -0.03156
 Alpha virt. eigenvalues --   -0.02467  -0.01410  -0.01091  -0.00365  -0.00209
 Alpha virt. eigenvalues --    0.00004   0.00369   0.00838   0.00887   0.00904

  Beta  occ. eigenvalues --  -38.43905 -38.43728 -38.43557 -38.43487 -38.43439
  Beta  occ. eigenvalues --  -38.43389 -38.43240  -2.19718  -2.19597  -2.19416
  Beta  occ. eigenvalues --   -2.19329  -2.19294  -2.19255  -2.19140  -1.13396
  Beta  occ. eigenvalues --   -1.13369  -1.13366  -1.13286  -1.13261  -1.13226
  Beta  occ. eigenvalues --   -1.13155  -1.13064  -1.13044  -1.13038  -1.12994
  Beta  occ. eigenvalues --   -1.12979  -1.12965  -1.12960  -1.12949  -1.12918
  Beta  occ. eigenvalues --   -1.12913  -1.12898  -1.12844  -1.12799  -1.12782
  Beta  occ. eigenvalues --   -0.17983  -0.12720  -0.12363
  Beta virt. eigenvalues --   -0.06971  -0.05402  -0.05085  -0.04660  -0.02451
  Beta virt. eigenvalues --   -0.02424  -0.01471  -0.01301  -0.01000  -0.00367
  Beta virt. eigenvalues --   -0.00246   0.00129   0.00407   0.00869   0.00895

 Mulliken charges and spin densities:
               1          2
     1  Na   0.114242  -0.062074
     2  Na  -0.088539  -0.029523
     3  Na   0.019935  -0.037363
     4  Na   0.082783   0.043978
     5  Na   0.255119   0.007910
     6  Na  -0.281065   0.577517
     7  Na  -0.102474   0.499555
 Sum of Mulliken charges =  -0.00000   1.00000

 Dipole moment (field-independent basis, Debye):
    X=              0.0674    Y=             -0.1156    Z=              0.0898  Tot=              0.1612
 Quadrupole moment (field-independent basis, Debye-Ang):
   XX=            -58.2406   YY=            -62.3258   ZZ=            -73.4082
   XY=             -0.0884   XZ=              0.2365   YZ=              2.3042

 Normal termination of Gaussian 16 at Thu Dec  7 16:17:06 2023.
