 Gaussian 16, Revision B.01,
 Gaussian 16:  ES64L-G16RevB.01 20-Dec-2017

 -------------------------
 #P B3LYP/6-311+g(d) force
 -------------------------

 -----
 DPGEN
 -----
 Symbolic Z-matrix:
 Charge =  0 Multiplicity = 2

                         Standard orientation:
 ---------------------------------------------------------------------
 Center     Atomic      Atomic             Coordinates (Angstroms)
 Number     Number       Type             X           Y           Z
 ---------------------------------------------------------------------
      1         11           0        1.106074    2.124415    0.237817
      2         11           0       -2.893092    2.499538   -0.003250
      3         11           0        1.288792   -1.210281    2.173968
      4         11           0        4.113488    0.652034   -0.418026
      5         11           0        1.771865   -1.014404   -1.470433
      6         11           0       -1.411125   -2.563592   -0.318574
      7         11           0       -3.976003   -0.487711   -0.201502
 ---------------------------------------------------------------------

 SCF Done:  E(UB3LYP) =  -1136.11501434     A.U. after   23 cycles

 The electronic state is 2-A.
 Alpha  occ. eigenvalues --  -38.44922 -38.44727 -38.44609 -38.44481 -38.44309
 Alpha  occ. eigenvalues --  -38.43797 -38.43305  -2.20781  -2.20594  -2.20416
 Alpha  occ. eigenvalues --   -2.20280  -2.20127  -2.19573  -2.19100  -1.14512
 Alpha  occ. eigenvalues --   -1.14425  -1.14406  -1.14284  -1.14242  -1.14186
 Alpha  occ. eigenvalues --   -1.14074  -1.14047  -1.14024  -1.13978  -1.13948
 Alpha  occ. eigenvalues --   -1.13888  -1.13791  -1.13788  -1.13784  -1.13244
 Alpha  occ. eigenvalues --   -1.13238  -1.13218  -1.12782  -1.12776  -1.12738
 Alpha  occ. eigenvalues --   -0.17443  -0.14040  -0.11746  -0.10835
 Alpha virt. eigenvalues --   -0.06984  -0.06331  -0.04294  -0.03233  -0.02806
 Alpha virt. eigenvalues --   -0.02529  -0.02387  -0.01723  -0.00973  -0.00537
 Alpha virt. eigenvalues --   -0.00294  -0.00050   0.00331   0.00530   0.00585

  Beta  occ. eigenvalues --  -38.44885 -38.44699 -38.44514 -38.44458 -38.44294
  Beta  occ. eigenvalues --  -38.43802 -38.43308  -2.20716  -2.20546  -2.20241
  Beta  occ. eigenvalues --   -2.20236  -2.20099  -2.19583  -2.19107  -1.14461
  Beta  occ. eigenvalues --   -1.14381  -1.14352  -1.14250  -1.14206  -1.14137
  Beta  occ. eigenvalues --   -1.13952  -1.13950  -1.13930  -1.13906  -1.13898
  Beta  occ. eigenvalues --   -1.13859  -1.13775  -1.13769  -1.13764  -1.13251
  Beta  occ. eigenvalues --   -1.13246  -1.13217  -1.12787  -1.12781  -1.12731
  Beta  occ. eigenvalues --   -0.16840  -0.13762  -0.11595
  Beta virt. eigenvalues --   -0.07180  -0.06545  -0.06090  -0.04081  -0.02829
  Beta virt. eigenvalues --   -0.02497  -0.02140  -0.01827  -0.01538  -0.00758
  Beta virt. eigenvalues --   -0.00388  -0.00065   0.00051   0.00507   0.00651

 Mulliken charges and spin densities:
               1          2
     1  Na  -0.708540   0.210093
     2  Na   0.124863  -0.146653
     3  Na  -0.084261   0.401404
     4  Na   0.923293   0.190985
     5  Na  -0.104903   0.133746
     6  Na   0.013444   0.124581
     7  Na  -0.163896   0.085845
 Sum of Mulliken charges =  -0.00000   1.00000

 Dipole moment (field-independent basis, Debye):
    X=              1.3794    Y=             -0.0262    Z=              0.3885  Tot=              1.4333
 Quadrupole moment (field-independent basis, Debye-Ang):
   XX=            -55.9725   YY=            -72.4729   ZZ=            -71.5354
   XY=              1.9733   XZ=              2.7020   YZ=             -0.4331

 Normal termination of Gaussian 16 at Sun Dec  3 19:12:35 2023.
