 Gaussian 16, Revision B.01,
 Gaussian 16:  ES64L-G16RevB.01 20-Dec-2017

 -------------------------
 #P B3LYP/6-311+g(d) force
 -------------------------

 -----
 DPGEN
 -----
 Symbolic Z-matrix:
 Charge =  0 Multiplicity = 2

                         Standard orientation:
 ---------------------------------------------------------------------
 Center     Atomic      Atomic             Coordinates (Angstroms)
 Number     Number       Type             X           Y           Z
 ---------------------------------------------------------------------
      1         11           0        0.013743    1.348837   -0.764449
      2         11           0       -1.720516    3.288338    0.527580
      3         11           0       -3.476255    0.694358   -0.341290
      4         11           0       -0.553647   -1.471515    0.963126
      5         11           0        2.801643   -1.357257   -0.232004
      6         11           0       -2.876803   -2.944805   -0.207631
      7         11           0        5.811837    0.442044    0.054667
 ---------------------------------------------------------------------

 SCF Done:  E(UB3LYP) =  -1136.11882937     A.U. after   19 cycles

 The electronic state is 2-A.
 Alpha  occ. eigenvalues --  -38.44504 -38.44424 -38.44289 -38.44181 -38.43724
 Alpha  occ. eigenvalues --  -38.43663 -38.43396  -2.20356  -2.20334  -2.20170
 Alpha  occ. eigenvalues --   -2.19975  -2.19579  -2.19555  -2.19183  -1.14129
 Alpha  occ. eigenvalues --   -1.14054  -1.14044  -1.14004  -1.13976  -1.13953
 Alpha  occ. eigenvalues --   -1.13801  -1.13792  -1.13741  -1.13611  -1.13610
 Alpha  occ. eigenvalues --   -1.13584  -1.13383  -1.13256  -1.13228  -1.13198
 Alpha  occ. eigenvalues --   -1.13181  -1.13104  -1.12879  -1.12856  -1.12829
 Alpha  occ. eigenvalues --   -0.17518  -0.13582  -0.12758  -0.10802
 Alpha virt. eigenvalues --   -0.05844  -0.05613  -0.05035  -0.03596  -0.02484
 Alpha virt. eigenvalues --   -0.02279  -0.02159  -0.01414  -0.01023  -0.00542
 Alpha virt. eigenvalues --   -0.00350  -0.00169   0.00427   0.00553   0.00583

  Beta  occ. eigenvalues --  -38.44466 -38.44397 -38.44286 -38.44070 -38.43718
  Beta  occ. eigenvalues --  -38.43636 -38.43404  -2.20288  -2.20284  -2.20165
  Beta  occ. eigenvalues --   -2.19767  -2.19551  -2.19525  -2.19204  -1.14106
  Beta  occ. eigenvalues --   -1.14007  -1.14003  -1.13963  -1.13937  -1.13907
  Beta  occ. eigenvalues --   -1.13798  -1.13773  -1.13727  -1.13470  -1.13467
  Beta  occ. eigenvalues --   -1.13448  -1.13367  -1.13227  -1.13207  -1.13177
  Beta  occ. eigenvalues --   -1.13162  -1.13074  -1.12900  -1.12877  -1.12789
  Beta  occ. eigenvalues --   -0.17066  -0.12994  -0.12332
  Beta virt. eigenvalues --   -0.07325  -0.05677  -0.05300  -0.04690  -0.03155
  Beta virt. eigenvalues --   -0.02305  -0.02012  -0.01882  -0.01267  -0.00698
  Beta virt. eigenvalues --   -0.00153  -0.00051   0.00002   0.00516   0.00634

 Mulliken charges and spin densities:
               1          2
     1  Na  -0.423785   0.040249
     2  Na   0.279781  -0.012367
     3  Na   0.105020   0.333582
     4  Na  -0.195360  -0.005082
     5  Na  -0.157041   0.096239
     6  Na   0.253394   0.045810
     7  Na   0.137991   0.501569
 Sum of Mulliken charges =  -0.00000   1.00000

 Dipole moment (field-independent basis, Debye):
    X=             -1.5436    Y=              0.9444    Z=              0.0559  Tot=              1.8105
 Quadrupole moment (field-independent basis, Debye-Ang):
   XX=            -71.5733   YY=            -61.3645   ZZ=            -68.6909
   XY=              0.9720   XZ=              0.8792   YZ=              2.9852

 Normal termination of Gaussian 16 at Wed Nov 29 02:59:36 2023.
