 Gaussian 16, Revision B.01,
 Gaussian 16:  ES64L-G16RevB.01 20-Dec-2017

 -------------------------
 #P B3LYP/6-311+g(d) force
 -------------------------

 -----
 DPGEN
 -----
 Symbolic Z-matrix:
 Charge =  0 Multiplicity = 2

                         Standard orientation:
 ---------------------------------------------------------------------
 Center     Atomic      Atomic             Coordinates (Angstroms)
 Number     Number       Type             X           Y           Z
 ---------------------------------------------------------------------
      1         11           0       -3.431796    0.378311    0.316918
      2         11           0       -0.149453   -0.646027    2.249663
      3         11           0       -1.287155   -2.044354   -0.684295
      4         11           0       -0.542372    2.273649   -0.575136
      5         11           0        2.389245    1.412664    1.080961
      6         11           0        0.812335    0.383524   -2.093416
      7         11           0        2.209194   -1.757768   -0.294695
 ---------------------------------------------------------------------

 SCF Done:  E(UB3LYP) =  -1136.12798503     A.U. after   21 cycles

 The electronic state is 2-A.
 Alpha  occ. eigenvalues --  -38.44587 -38.44275 -38.44128 -38.44073 -38.43351
 Alpha  occ. eigenvalues --  -38.43318 -38.42743  -2.20442  -2.20264  -2.19936
 Alpha  occ. eigenvalues --   -2.19926  -2.19241  -2.19192  -2.18658  -1.14112
 Alpha  occ. eigenvalues --   -1.14085  -1.14057  -1.14027  -1.13901  -1.13849
 Alpha  occ. eigenvalues --   -1.13617  -1.13603  -1.13584  -1.13575  -1.13572
 Alpha  occ. eigenvalues --   -1.13555  -1.12945  -1.12891  -1.12884  -1.12870
 Alpha  occ. eigenvalues --   -1.12857  -1.12800  -1.12406  -1.12295  -1.12233
 Alpha  occ. eigenvalues --   -0.18847  -0.13019  -0.12254  -0.11775
 Alpha virt. eigenvalues --   -0.05737  -0.04757  -0.03955  -0.03666  -0.03493
 Alpha virt. eigenvalues --   -0.03260  -0.01485  -0.00765  -0.00283   0.00180
 Alpha virt. eigenvalues --    0.00289   0.00379   0.00562   0.00805   0.00886

  Beta  occ. eigenvalues --  -38.44515 -38.44198 -38.44130 -38.44036 -38.43341
  Beta  occ. eigenvalues --  -38.43302 -38.42735  -2.20309  -2.20124  -2.19930
  Beta  occ. eigenvalues --   -2.19871  -2.19226  -2.19166  -2.18647  -1.14025
  Beta  occ. eigenvalues --   -1.13987  -1.13958  -1.13927  -1.13807  -1.13748
  Beta  occ. eigenvalues --   -1.13603  -1.13578  -1.13574  -1.13561  -1.13545
  Beta  occ. eigenvalues --   -1.13501  -1.12923  -1.12879  -1.12856  -1.12850
  Beta  occ. eigenvalues --   -1.12830  -1.12780  -1.12383  -1.12276  -1.12231
  Beta  occ. eigenvalues --   -0.18016  -0.12841  -0.11562
  Beta virt. eigenvalues --   -0.08170  -0.05585  -0.04573  -0.03574  -0.03294
  Beta virt. eigenvalues --   -0.02754  -0.02349  -0.01403  -0.00605  -0.00125
  Beta virt. eigenvalues --    0.00205   0.00332   0.00417   0.00705   0.00895

 Mulliken charges and spin densities:
               1          2
     1  Na   0.082528  -0.108030
     2  Na  -0.536612   0.530297
     3  Na   0.046294   0.043247
     4  Na   0.008451   0.251457
     5  Na   0.061801   0.203034
     6  Na  -0.062277   0.157829
     7  Na   0.399817  -0.077833
 Sum of Mulliken charges =  -0.00000   1.00000

 Dipole moment (field-independent basis, Debye):
    X=             -0.0300    Y=             -0.1758    Z=              0.5935  Tot=              0.6197
 Quadrupole moment (field-independent basis, Debye-Ang):
   XX=            -57.7304   YY=            -73.3327   ZZ=            -65.3228
   XY=             -0.1310   XZ=              0.4166   YZ=              3.5848

 Normal termination of Gaussian 16 at Tue Dec  5 16:48:20 2023.
