 Gaussian 16, Revision B.01,
 Gaussian 16:  ES64L-G16RevB.01 20-Dec-2017

 -------------------------
 #P B3LYP/6-311+g(d) force
 -------------------------

 -----
 DPGEN
 -----
 Symbolic Z-matrix:
 Charge =  0 Multiplicity = 2

                         Standard orientation:
 ---------------------------------------------------------------------
 Center     Atomic      Atomic             Coordinates (Angstroms)
 Number     Number       Type             X           Y           Z
 ---------------------------------------------------------------------
      1         11           0       -0.397233   -2.425801   -1.395838
      2         11           0       -1.415811   -1.985035    2.260988
      3         11           0        5.362238   -0.225315    0.268337
      4         11           0        2.259394   -0.126380   -0.525386
      5         11           0       -3.581329   -1.300801   -0.694680
      6         11           0       -1.046625    1.639216    0.068402
      7         11           0       -1.180633    4.424116    0.018176
 ---------------------------------------------------------------------

 SCF Done:  E(UB3LYP) =  -1136.10433643     A.U. after   25 cycles

 The electronic state is 2-A.
 Alpha  occ. eigenvalues --  -38.46469 -38.44780 -38.44757 -38.44519 -38.43652
 Alpha  occ. eigenvalues --  -38.43614 -38.43184  -2.22225  -2.20586  -2.20531
 Alpha  occ. eigenvalues --   -2.20350  -2.19485  -2.19420  -2.19063  -1.15901
 Alpha  occ. eigenvalues --   -1.15895  -1.15857  -1.14234  -1.14232  -1.14186
 Alpha  occ. eigenvalues --   -1.14182  -1.14182  -1.14176  -1.14013  -1.14004
 Alpha  occ. eigenvalues --   -1.13962  -1.13318  -1.13114  -1.13110  -1.13097
 Alpha  occ. eigenvalues --   -1.13086  -1.13071  -1.12718  -1.12705  -1.12656
 Alpha  occ. eigenvalues --   -0.17089  -0.13102  -0.12379  -0.10578
 Alpha virt. eigenvalues --   -0.07918  -0.05949  -0.03909  -0.03234  -0.02864
 Alpha virt. eigenvalues --   -0.02564  -0.02308  -0.01673  -0.01126  -0.00923
 Alpha virt. eigenvalues --   -0.00715  -0.00308  -0.00082   0.00278   0.00582

  Beta  occ. eigenvalues --  -38.46480 -38.44734 -38.44676 -38.44454 -38.43657
  Beta  occ. eigenvalues --  -38.43611 -38.43180  -2.22249  -2.20488  -2.20392
  Beta  occ. eigenvalues --   -2.20230  -2.19495  -2.19418  -2.19057  -1.15922
  Beta  occ. eigenvalues --   -1.15889  -1.15869  -1.14158  -1.14152  -1.14148
  Beta  occ. eigenvalues --   -1.14098  -1.14096  -1.14054  -1.13927  -1.13916
  Beta  occ. eigenvalues --   -1.13883  -1.13323  -1.13120  -1.13117  -1.13099
  Beta  occ. eigenvalues --   -1.13082  -1.13050  -1.12716  -1.12688  -1.12658
  Beta  occ. eigenvalues --   -0.16490  -0.12860  -0.12278
  Beta virt. eigenvalues --   -0.07659  -0.06659  -0.05731  -0.03783  -0.03110
  Beta virt. eigenvalues --   -0.02499  -0.01994  -0.01947  -0.01320  -0.01000
  Beta virt. eigenvalues --   -0.00629  -0.00454  -0.00090   0.00082   0.00368

 Mulliken charges and spin densities:
               1          2
     1  Na   0.628194   0.172904
     2  Na   0.488446   0.455640
     3  Na  -0.093318   0.093995
     4  Na   0.002206   0.070928
     5  Na   0.970317   0.125205
     6  Na  -0.339361  -0.028491
     7  Na  -1.656484   0.109819
 Sum of Mulliken charges =  -0.00000   1.00000

 Dipole moment (field-independent basis, Debye):
    X=             -0.8647    Y=             -1.0204    Z=             -0.3358  Tot=              1.3790
 Quadrupole moment (field-independent basis, Debye-Ang):
   XX=            -49.7048   YY=            -66.0683   ZZ=            -75.9013
   XY=              1.8690   XZ=              7.2416   YZ=              0.4065

 Normal termination of Gaussian 16 at Thu Dec  7 08:26:35 2023.
