 Gaussian 16, Revision B.01,
 Gaussian 16:  ES64L-G16RevB.01 20-Dec-2017

 -------------------------
 #P B3LYP/6-311+g(d) force
 -------------------------

 -----
 DPGEN
 -----
 Symbolic Z-matrix:
 Charge =  0 Multiplicity = 2

                         Standard orientation:
 ---------------------------------------------------------------------
 Center     Atomic      Atomic             Coordinates (Angstroms)
 Number     Number       Type             X           Y           Z
 ---------------------------------------------------------------------
      1         11           0        1.341420    3.396352   -0.371546
      2         11           0        3.263306    0.908838    0.251700
      3         11           0       -3.778763   -0.865133   -1.221750
      4         11           0       -0.432455   -2.730374   -0.085191
      5         11           0        3.357548   -2.388557   -0.568728
      6         11           0       -1.588346   -0.558941    2.174114
      7         11           0       -2.162710    2.237815   -0.178598
 ---------------------------------------------------------------------

 SCF Done:  E(UB3LYP) =  -1136.11380349     A.U. after   22 cycles

 The electronic state is 2-A.
 Alpha  occ. eigenvalues --  -38.45004 -38.44805 -38.44492 -38.44422 -38.44408
 Alpha  occ. eigenvalues --  -38.44194 -38.44009  -2.20766  -2.20571  -2.20282
 Alpha  occ. eigenvalues --   -2.20244  -2.20207  -2.19970  -2.19799  -1.14462
 Alpha  occ. eigenvalues --   -1.14441  -1.14389  -1.14265  -1.14250  -1.14193
 Alpha  occ. eigenvalues --   -1.13968  -1.13955  -1.13936  -1.13899  -1.13881
 Alpha  occ. eigenvalues --   -1.13868  -1.13860  -1.13847  -1.13816  -1.13635
 Alpha  occ. eigenvalues --   -1.13623  -1.13607  -1.13467  -1.13462  -1.13435
 Alpha  occ. eigenvalues --   -0.16516  -0.13715  -0.12643  -0.10432
 Alpha virt. eigenvalues --   -0.07123  -0.06604  -0.04098  -0.03211  -0.02856
 Alpha virt. eigenvalues --   -0.02584  -0.02206  -0.01836  -0.01590  -0.01030
 Alpha virt. eigenvalues --   -0.00262  -0.00001   0.00359   0.00461   0.00533

  Beta  occ. eigenvalues --  -38.44997 -38.44798 -38.44492 -38.44344 -38.44326
  Beta  occ. eigenvalues --  -38.44175 -38.44007  -2.20757  -2.20563  -2.20284
  Beta  occ. eigenvalues --   -2.20099  -2.20054  -2.19935  -2.19795  -1.14453
  Beta  occ. eigenvalues --   -1.14436  -1.14364  -1.14250  -1.14232  -1.14192
  Beta  occ. eigenvalues --   -1.13970  -1.13951  -1.13932  -1.13799  -1.13779
  Beta  occ. eigenvalues --   -1.13765  -1.13763  -1.13736  -1.13714  -1.13611
  Beta  occ. eigenvalues --   -1.13598  -1.13584  -1.13466  -1.13458  -1.13432
  Beta  occ. eigenvalues --   -0.15995  -0.13301  -0.12477
  Beta virt. eigenvalues --   -0.07046  -0.06623  -0.06434  -0.03859  -0.02968
  Beta virt. eigenvalues --   -0.02356  -0.02168  -0.01950  -0.01638  -0.01148
  Beta virt. eigenvalues --   -0.01017   0.00095   0.00186   0.00489   0.00539

 Mulliken charges and spin densities:
               1          2
     1  Na   0.418196  -0.030459
     2  Na  -0.749198   0.027888
     3  Na   0.299561   0.388633
     4  Na  -0.542339   0.030768
     5  Na   0.600682   0.058957
     6  Na   0.337702   0.391024
     7  Na  -0.364604   0.133188
 Sum of Mulliken charges =  -0.00000   1.00000

 Dipole moment (field-independent basis, Debye):
    X=             -0.0946    Y=             -0.1812    Z=              0.2049  Tot=              0.2894
 Quadrupole moment (field-independent basis, Debye-Ang):
   XX=            -66.5377   YY=            -63.0170   ZZ=            -72.7443
   XY=              0.1013   XZ=             -1.6665   YZ=              2.7961

 Normal termination of Gaussian 16 at Sun Dec  3 13:42:02 2023.
