 Gaussian 16, Revision B.01,
 Gaussian 16:  ES64L-G16RevB.01 20-Dec-2017

 -------------------------
 #P B3LYP/6-311+g(d) force
 -------------------------

 -----
 DPGEN
 -----
 Symbolic Z-matrix:
 Charge =  0 Multiplicity = 2

                         Standard orientation:
 ---------------------------------------------------------------------
 Center     Atomic      Atomic             Coordinates (Angstroms)
 Number     Number       Type             X           Y           Z
 ---------------------------------------------------------------------
      1         11           0        0.573424   -2.372233    0.246168
      2         11           0       -0.444756    0.094510   -1.523058
      3         11           0       -2.710833   -1.642605   -0.059773
      4         11           0        3.148555   -0.612249   -0.573208
      5         11           0        0.921890    0.438540    2.092383
      6         11           0        1.141017    2.450023   -0.420291
      7         11           0       -2.629297    1.644014    0.237779
 ---------------------------------------------------------------------

 SCF Done:  E(UB3LYP) =  -1136.13160155     A.U. after   20 cycles

 The electronic state is 2-A.
 Alpha  occ. eigenvalues --  -38.44467 -38.44201 -38.43735 -38.43639 -38.43223
 Alpha  occ. eigenvalues --  -38.43211 -38.42818  -2.20310  -2.20039  -2.19605
 Alpha  occ. eigenvalues --   -2.19541  -2.19267  -2.19109  -2.18744  -1.13983
 Alpha  occ. eigenvalues --   -1.13967  -1.13946  -1.13737  -1.13705  -1.13666
 Alpha  occ. eigenvalues --   -1.13302  -1.13259  -1.13244  -1.13206  -1.13193
 Alpha  occ. eigenvalues --   -1.13147  -1.13005  -1.12948  -1.12885  -1.12770
 Alpha  occ. eigenvalues --   -1.12754  -1.12703  -1.12439  -1.12406  -1.12366
 Alpha  occ. eigenvalues --   -0.18929  -0.13537  -0.12182  -0.10832
 Alpha virt. eigenvalues --   -0.06030  -0.05226  -0.04051  -0.03455  -0.02797
 Alpha virt. eigenvalues --   -0.02499  -0.01831  -0.00996  -0.00223  -0.00116
 Alpha virt. eigenvalues --    0.00050   0.00333   0.00767   0.00857   0.00935

  Beta  occ. eigenvalues --  -38.44454 -38.44200 -38.43735 -38.43546 -38.43197
  Beta  occ. eigenvalues --  -38.43169 -38.42807  -2.20289  -2.20038  -2.19608
  Beta  occ. eigenvalues --   -2.19368  -2.19170  -2.19088  -2.18729  -1.13972
  Beta  occ. eigenvalues --   -1.13936  -1.13926  -1.13735  -1.13694  -1.13666
  Beta  occ. eigenvalues --   -1.13298  -1.13252  -1.13248  -1.13096  -1.13070
  Beta  occ. eigenvalues --   -1.13026  -1.12952  -1.12879  -1.12809  -1.12742
  Beta  occ. eigenvalues --   -1.12708  -1.12689  -1.12431  -1.12367  -1.12352
  Beta  occ. eigenvalues --   -0.18217  -0.13328  -0.11941
  Beta virt. eigenvalues --   -0.06884  -0.05936  -0.05188  -0.04024  -0.02760
  Beta virt. eigenvalues --   -0.02021  -0.01731  -0.01426  -0.00954  -0.00265
  Beta virt. eigenvalues --   -0.00013   0.00131   0.00376   0.00824   0.00880

 Mulliken charges and spin densities:
               1          2
     1  Na   0.165831   0.073890
     2  Na  -0.230960   0.268834
     3  Na   0.127189   0.006518
     4  Na   0.243562   0.045178
     5  Na  -0.629524   0.621924
     6  Na   0.208879   0.004762
     7  Na   0.115023  -0.021105
 Sum of Mulliken charges =  -0.00000   1.00000

 Dipole moment (field-independent basis, Debye):
    X=             -0.0378    Y=              0.1811    Z=              0.1692  Tot=              0.2507
 Quadrupole moment (field-independent basis, Debye-Ang):
   XX=            -52.4973   YY=            -67.7514   ZZ=            -73.1521
   XY=             -0.3726   XZ=             -2.8409   YZ=              0.1351

 Normal termination of Gaussian 16 at Fri Dec  8 04:44:58 2023.
