 Gaussian 16, Revision B.01,
 Gaussian 16:  ES64L-G16RevB.01 20-Dec-2017

 -------------------------
 #P B3LYP/6-311+g(d) force
 -------------------------

 -----
 DPGEN
 -----
 Symbolic Z-matrix:
 Charge =  0 Multiplicity = 2

                         Standard orientation:
 ---------------------------------------------------------------------
 Center     Atomic      Atomic             Coordinates (Angstroms)
 Number     Number       Type             X           Y           Z
 ---------------------------------------------------------------------
      1         11           0        0.227091    0.183397    1.800129
      2         11           0        0.768500   -2.773164    0.532880
      3         11           0       -2.245054   -1.890181   -0.455864
      4         11           0        3.323182   -0.031718   -0.435417
      5         11           0        0.571719    2.986962    0.187509
      6         11           0        0.233612    0.203482   -1.668230
      7         11           0       -2.879049    1.321223    0.038994
 ---------------------------------------------------------------------

 SCF Done:  E(UB3LYP) =  -1136.13680219     A.U. after   19 cycles

 The electronic state is 2-A.
 Alpha  occ. eigenvalues --  -38.44311 -38.43966 -38.43753 -38.43347 -38.43338
 Alpha  occ. eigenvalues --  -38.43280 -38.43261  -2.20112  -2.19785  -2.19594
 Alpha  occ. eigenvalues --   -2.19236  -2.19213  -2.19212  -2.19206  -1.13797
 Alpha  occ. eigenvalues --   -1.13756  -1.13747  -1.13464  -1.13454  -1.13421
 Alpha  occ. eigenvalues --   -1.13293  -1.13273  -1.13204  -1.12970  -1.12928
 Alpha  occ. eigenvalues --   -1.12919  -1.12894  -1.12868  -1.12864  -1.12861
 Alpha  occ. eigenvalues --   -1.12844  -1.12836  -1.12825  -1.12805  -1.12802
 Alpha  occ. eigenvalues --   -0.18611  -0.12879  -0.12596  -0.10653
 Alpha virt. eigenvalues --   -0.05873  -0.04992  -0.04729  -0.03066  -0.02972
 Alpha virt. eigenvalues --   -0.02353  -0.01729  -0.01198  -0.00386  -0.00306
 Alpha virt. eigenvalues --    0.00024   0.00333   0.00798   0.00833   0.00914

  Beta  occ. eigenvalues --  -38.44296 -38.43966 -38.43745 -38.43332 -38.43330
  Beta  occ. eigenvalues --  -38.43216 -38.43180  -2.20087  -2.19786  -2.19583
  Beta  occ. eigenvalues --   -2.19198  -2.19188  -2.19118  -2.19061  -1.13766
  Beta  occ. eigenvalues --   -1.13738  -1.13731  -1.13468  -1.13442  -1.13418
  Beta  occ. eigenvalues --   -1.13282  -1.13247  -1.13197  -1.12933  -1.12886
  Beta  occ. eigenvalues --   -1.12871  -1.12851  -1.12847  -1.12822  -1.12792
  Beta  occ. eigenvalues --   -1.12785  -1.12769  -1.12756  -1.12725  -1.12706
  Beta  occ. eigenvalues --   -0.17923  -0.12590  -0.12333
  Beta virt. eigenvalues --   -0.06823  -0.05819  -0.04926  -0.04691  -0.02357
  Beta virt. eigenvalues --   -0.02224  -0.01608  -0.01351  -0.01111  -0.00431
  Beta virt. eigenvalues --   -0.00293   0.00133   0.00373   0.00805   0.00871

 Mulliken charges and spin densities:
               1          2
     1  Na  -0.081030   0.552844
     2  Na   0.121475   0.052525
     3  Na   0.039805   0.011704
     4  Na   0.025175  -0.043802
     5  Na   0.046903  -0.115115
     6  Na  -0.152531   0.584725
     7  Na   0.000204  -0.042881
 Sum of Mulliken charges =  -0.00000   1.00000

 Dipole moment (field-independent basis, Debye):
    X=              0.2915    Y=              0.3484    Z=              0.0101  Tot=              0.4544
 Quadrupole moment (field-independent basis, Debye-Ang):
   XX=            -56.3393   YY=            -61.3810   ZZ=            -74.9372
   XY=             -0.6268   XZ=             -0.0398   YZ=              0.1398

 Normal termination of Gaussian 16 at Fri Dec  8 07:28:10 2023.
