 Gaussian 16, Revision B.01,
 Gaussian 16:  ES64L-G16RevB.01 20-Dec-2017

 -------------------------
 #P B3LYP/6-311+g(d) force
 -------------------------

 -----
 DPGEN
 -----
 Symbolic Z-matrix:
 Charge =  0 Multiplicity = 2

                         Standard orientation:
 ---------------------------------------------------------------------
 Center     Atomic      Atomic             Coordinates (Angstroms)
 Number     Number       Type             X           Y           Z
 ---------------------------------------------------------------------
      1         11           0        1.383168   -3.101966   -0.679171
      2         11           0       -4.615988   -0.251315    0.238880
      3         11           0       -1.842896    2.179092   -1.366348
      4         11           0        2.937835    1.186522    1.548922
      5         11           0        0.496061    3.655941    0.192692
      6         11           0       -2.081509   -2.671070    0.924081
      7         11           0        3.723329   -0.997204   -0.859055
 ---------------------------------------------------------------------

 SCF Done:  E(UB3LYP) =  -1136.10687853     A.U. after   24 cycles

 The electronic state is 2-A.
 Alpha  occ. eigenvalues --  -38.45220 -38.44827 -38.44611 -38.44514 -38.44287
 Alpha  occ. eigenvalues --  -38.44038 -38.43798  -2.20951  -2.20635  -2.20378
 Alpha  occ. eigenvalues --   -2.20306  -2.20093  -2.19830  -2.19612  -1.14642
 Alpha  occ. eigenvalues --   -1.14626  -1.14582  -1.14319  -1.14303  -1.14296
 Alpha  occ. eigenvalues --   -1.14041  -1.14026  -1.14005  -1.13979  -1.13966
 Alpha  occ. eigenvalues --   -1.13933  -1.13745  -1.13731  -1.13716  -1.13498
 Alpha  occ. eigenvalues --   -1.13497  -1.13471  -1.13267  -1.13255  -1.13247
 Alpha  occ. eigenvalues --   -0.15703  -0.13725  -0.13172  -0.10493
 Alpha virt. eigenvalues --   -0.07628  -0.04930  -0.04587  -0.03651  -0.03444
 Alpha virt. eigenvalues --   -0.02379  -0.01811  -0.01586  -0.01161  -0.01020
 Alpha virt. eigenvalues --   -0.00868  -0.00240   0.00170   0.00362   0.00563

  Beta  occ. eigenvalues --  -38.45221 -38.44831 -38.44568 -38.44468 -38.44212
  Beta  occ. eigenvalues --  -38.44032 -38.43745  -2.20958  -2.20649  -2.20298
  Beta  occ. eigenvalues --   -2.20224  -2.19954  -2.19825  -2.19511  -1.14650
  Beta  occ. eigenvalues --   -1.14633  -1.14561  -1.14326  -1.14315  -1.14273
  Beta  occ. eigenvalues --   -1.13987  -1.13971  -1.13950  -1.13922  -1.13911
  Beta  occ. eigenvalues --   -1.13868  -1.13647  -1.13639  -1.13626  -1.13500
  Beta  occ. eigenvalues --   -1.13492  -1.13441  -1.13201  -1.13190  -1.13180
  Beta  occ. eigenvalues --   -0.15193  -0.13084  -0.12523
  Beta virt. eigenvalues --   -0.07656  -0.07371  -0.04527  -0.04153  -0.03417
  Beta virt. eigenvalues --   -0.03137  -0.02203  -0.01466  -0.01354  -0.01007
  Beta virt. eigenvalues --   -0.00906  -0.00538  -0.00070   0.00286   0.00455

 Mulliken charges and spin densities:
               1          2
     1  Na  -0.123159   0.234659
     2  Na   0.314405   0.203211
     3  Na  -0.358015   0.223262
     4  Na  -0.225120   0.406831
     5  Na   0.231395  -0.056338
     6  Na  -0.039868  -0.013266
     7  Na   0.200361   0.001641
 Sum of Mulliken charges =  -0.00000   1.00000

 Dipole moment (field-independent basis, Debye):
    X=             -0.2315    Y=             -0.0020    Z=              0.0295  Tot=              0.2333
 Quadrupole moment (field-independent basis, Debye-Ang):
   XX=            -62.9883   YY=            -71.0524   ZZ=            -68.1162
   XY=             -1.1971   XZ=             -1.1137   YZ=             -0.3547

 Normal termination of Gaussian 16 at Mon Dec  4 04:56:56 2023.
