 Gaussian 16, Revision B.01,
 Gaussian 16:  ES64L-G16RevB.01 20-Dec-2017

 -------------------------
 #P B3LYP/6-311+g(d) force
 -------------------------

 -----
 DPGEN
 -----
 Symbolic Z-matrix:
 Charge =  0 Multiplicity = 2

                         Standard orientation:
 ---------------------------------------------------------------------
 Center     Atomic      Atomic             Coordinates (Angstroms)
 Number     Number       Type             X           Y           Z
 ---------------------------------------------------------------------
      1         11           0       -0.498403   -2.635819    0.127493
      2         11           0       -1.082646    3.079256   -0.020909
      3         11           0        2.966619   -1.486755    0.014367
      4         11           0       -0.571002    0.029710    2.071250
      5         11           0       -3.032372   -0.865614   -0.510266
      6         11           0        0.176510    0.007112   -1.644683
      7         11           0        2.041295    1.872110   -0.037252
 ---------------------------------------------------------------------

 SCF Done:  E(UB3LYP) =  -1136.13596577     A.U. after   19 cycles

 The electronic state is 2-A.
 Alpha  occ. eigenvalues --  -38.43915 -38.43729 -38.43664 -38.43625 -38.43536
 Alpha  occ. eigenvalues --  -38.43467 -38.43331  -2.19763  -2.19548  -2.19538
 Alpha  occ. eigenvalues --   -2.19513  -2.19388  -2.19348  -2.19309  -1.13453
 Alpha  occ. eigenvalues --   -1.13420  -1.13404  -1.13279  -1.13231  -1.13217
 Alpha  occ. eigenvalues --   -1.13206  -1.13194  -1.13179  -1.13164  -1.13162
 Alpha  occ. eigenvalues --   -1.13106  -1.13101  -1.13047  -1.13021  -1.13011
 Alpha  occ. eigenvalues --   -1.12999  -1.12979  -1.12974  -1.12934  -1.12901
 Alpha  occ. eigenvalues --   -0.18630  -0.13101  -0.12410  -0.10772
 Alpha virt. eigenvalues --   -0.05378  -0.05241  -0.04858  -0.03272  -0.02870
 Alpha virt. eigenvalues --   -0.02532  -0.01465  -0.01305  -0.00315  -0.00194
 Alpha virt. eigenvalues --   -0.00027   0.00347   0.00788   0.00859   0.00893

  Beta  occ. eigenvalues --  -38.43902 -38.43729 -38.43619 -38.43570 -38.43537
  Beta  occ. eigenvalues --  -38.43457 -38.43269  -2.19742  -2.19541  -2.19507
  Beta  occ. eigenvalues --   -2.19374  -2.19372  -2.19352  -2.19195  -1.13442
  Beta  occ. eigenvalues --   -1.13396  -1.13377  -1.13265  -1.13215  -1.13193
  Beta  occ. eigenvalues --   -1.13188  -1.13154  -1.13134  -1.13106  -1.13071
  Beta  occ. eigenvalues --   -1.13053  -1.13045  -1.13020  -1.13004  -1.12999
  Beta  occ. eigenvalues --   -1.12988  -1.12976  -1.12902  -1.12858  -1.12821
  Beta  occ. eigenvalues --   -0.17897  -0.12850  -0.12228
  Beta virt. eigenvalues --   -0.06840  -0.05354  -0.05171  -0.04811  -0.02462
  Beta virt. eigenvalues --   -0.02161  -0.01525  -0.01377  -0.01219  -0.00358
  Beta virt. eigenvalues --   -0.00207   0.00126   0.00372   0.00831   0.00853

 Mulliken charges and spin densities:
               1          2
     1  Na   0.338964   0.123989
     2  Na   0.051375  -0.097059
     3  Na  -0.001443  -0.032615
     4  Na  -0.481843   0.631969
     5  Na   0.139642  -0.031045
     6  Na  -0.213036   0.410463
     7  Na   0.166340  -0.005701
 Sum of Mulliken charges =  -0.00000   1.00000

 Dipole moment (field-independent basis, Debye):
    X=             -0.2689    Y=              0.1448    Z=              0.1019  Tot=              0.3219
 Quadrupole moment (field-independent basis, Debye-Ang):
   XX=            -58.0509   YY=            -61.4830   ZZ=            -74.1443
   XY=             -1.5230   XZ=              1.7852   YZ=             -0.1250

 Normal termination of Gaussian 16 at Fri Dec  8 01:18:48 2023.
