 Gaussian 16, Revision B.01,
 Gaussian 16:  ES64L-G16RevB.01 20-Dec-2017

 -------------------------
 #P B3LYP/6-311+g(d) force
 -------------------------

 -----
 DPGEN
 -----
 Symbolic Z-matrix:
 Charge =  0 Multiplicity = 2

                         Standard orientation:
 ---------------------------------------------------------------------
 Center     Atomic      Atomic             Coordinates (Angstroms)
 Number     Number       Type             X           Y           Z
 ---------------------------------------------------------------------
      1         11           0        3.817133    1.177673   -0.496379
      2         11           0       -1.517328    1.901635    0.764879
      3         11           0        1.207652    3.781135    0.100787
      4         11           0       -5.436158    0.159192   -0.475475
      5         11           0       -2.238988   -1.557308   -0.323579
      6         11           0        0.280962   -3.448075    0.567434
      7         11           0        3.886727   -2.014252   -0.137667
 ---------------------------------------------------------------------

 SCF Done:  E(UB3LYP) =  -1136.11363967     A.U. after   20 cycles

 The electronic state is 2-A.
 Alpha  occ. eigenvalues --  -38.45100 -38.45068 -38.44597 -38.44279 -38.44228
 Alpha  occ. eigenvalues --  -38.44172 -38.43870  -2.20859  -2.20851  -2.20382
 Alpha  occ. eigenvalues --   -2.20061  -2.20022  -2.19983  -2.19652  -1.14548
 Alpha  occ. eigenvalues --   -1.14545  -1.14497  -1.14496  -1.14466  -1.14449
 Alpha  occ. eigenvalues --   -1.14063  -1.14056  -1.14013  -1.13729  -1.13725
 Alpha  occ. eigenvalues --   -1.13723  -1.13690  -1.13682  -1.13670  -1.13661
 Alpha  occ. eigenvalues --   -1.13643  -1.13580  -1.13320  -1.13312  -1.13297
 Alpha  occ. eigenvalues --   -0.15778  -0.13899  -0.12955  -0.11387
 Alpha virt. eigenvalues --   -0.06669  -0.06036  -0.03967  -0.03450  -0.03063
 Alpha virt. eigenvalues --   -0.02487  -0.02223  -0.01672  -0.01574  -0.00927
 Alpha virt. eigenvalues --   -0.00737  -0.00146   0.00019   0.00469   0.00528

  Beta  occ. eigenvalues --  -38.45085 -38.44968 -38.44566 -38.44263 -38.44176
  Beta  occ. eigenvalues --  -38.44159 -38.43861  -2.20833  -2.20664  -2.20328
  Beta  occ. eigenvalues --   -2.20035  -2.19967  -2.19929  -2.19638  -1.14533
  Beta  occ. eigenvalues --   -1.14528  -1.14438  -1.14368  -1.14368  -1.14327
  Beta  occ. eigenvalues --   -1.14024  -1.14020  -1.13967  -1.13714  -1.13705
  Beta  occ. eigenvalues --   -1.13669  -1.13664  -1.13659  -1.13644  -1.13615
  Beta  occ. eigenvalues --   -1.13587  -1.13519  -1.13312  -1.13298  -1.13286
  Beta  occ. eigenvalues --   -0.15287  -0.13150  -0.12405
  Beta virt. eigenvalues --   -0.08030  -0.06691  -0.05512  -0.03749  -0.03153
  Beta virt. eigenvalues --   -0.02749  -0.02221  -0.01912  -0.01480  -0.01332
  Beta virt. eigenvalues --   -0.00605  -0.00324   0.00069   0.00197   0.00513

 Mulliken charges and spin densities:
               1          2
     1  Na  -0.197758   0.138518
     2  Na  -0.449087   0.094133
     3  Na   0.486527   0.010621
     4  Na   0.599077   0.429298
     5  Na  -0.826475   0.276649
     6  Na   0.236190   0.056326
     7  Na   0.151526  -0.005545
 Sum of Mulliken charges =  -0.00000   1.00000

 Dipole moment (field-independent basis, Debye):
    X=             -0.6431    Y=              0.2448    Z=              0.0388  Tot=              0.6892
 Quadrupole moment (field-independent basis, Debye-Ang):
   XX=            -59.7552   YY=            -63.9859   ZZ=            -72.7918
   XY=             -1.1809   XZ=             -0.0781   YZ=             -1.0151

 Normal termination of Gaussian 16 at Sun Dec  3 16:43:20 2023.
