 Gaussian 16, Revision B.01,
 Gaussian 16:  ES64L-G16RevB.01 20-Dec-2017

 -------------------------
 #P B3LYP/6-311+g(d) force
 -------------------------

 -----
 DPGEN
 -----
 Symbolic Z-matrix:
 Charge =  0 Multiplicity = 2

                         Standard orientation:
 ---------------------------------------------------------------------
 Center     Atomic      Atomic             Coordinates (Angstroms)
 Number     Number       Type             X           Y           Z
 ---------------------------------------------------------------------
      1         11           0        0.213320   -0.015241    2.168978
      2         11           0       -0.516862    2.703755    0.130107
      3         11           0       -3.056942    0.504066   -0.173233
      4         11           0        2.362340   -1.920462    0.101011
      5         11           0       -1.559453   -2.419009   -0.103156
      6         11           0        2.572452    1.438992   -0.524111
      7         11           0       -0.014854   -0.292102   -1.599597
 ---------------------------------------------------------------------

 SCF Done:  E(UB3LYP) =  -1136.13782012     A.U. after   19 cycles

 The electronic state is 2-A.
 Alpha  occ. eigenvalues --  -38.43892 -38.43832 -38.43712 -38.43685 -38.43459
 Alpha  occ. eigenvalues --  -38.43217 -38.42920  -2.19750  -2.19715  -2.19560
 Alpha  occ. eigenvalues --   -2.19556  -2.19344  -2.19240  -2.18800  -1.13428
 Alpha  occ. eigenvalues --   -1.13415  -1.13400  -1.13375  -1.13342  -1.13339
 Alpha  occ. eigenvalues --   -1.13268  -1.13239  -1.13227  -1.13209  -1.13201
 Alpha  occ. eigenvalues --   -1.13162  -1.13126  -1.12995  -1.12954  -1.12902
 Alpha  occ. eigenvalues --   -1.12851  -1.12843  -1.12477  -1.12464  -1.12439
 Alpha  occ. eigenvalues --   -0.18911  -0.13202  -0.12374  -0.11056
 Alpha virt. eigenvalues --   -0.05485  -0.05188  -0.04400  -0.03299  -0.02940
 Alpha virt. eigenvalues --   -0.02809  -0.01461  -0.01036  -0.00198  -0.00145
 Alpha virt. eigenvalues --    0.00007   0.00358   0.00807   0.00901   0.00942

  Beta  occ. eigenvalues --  -38.43890 -38.43728 -38.43707 -38.43671 -38.43454
  Beta  occ. eigenvalues --  -38.43159 -38.42915  -2.19749  -2.19555  -2.19535
  Beta  occ. eigenvalues --   -2.19523  -2.19338  -2.19134  -2.18794  -1.13424
  Beta  occ. eigenvalues --   -1.13415  -1.13386  -1.13271  -1.13241  -1.13224
  Beta  occ. eigenvalues --   -1.13216  -1.13209  -1.13205  -1.13177  -1.13173
  Beta  occ. eigenvalues --   -1.13154  -1.13103  -1.12979  -1.12946  -1.12833
  Beta  occ. eigenvalues --   -1.12783  -1.12769  -1.12475  -1.12442  -1.12428
  Beta  occ. eigenvalues --   -0.18176  -0.12951  -0.12135
  Beta virt. eigenvalues --   -0.07083  -0.05456  -0.05170  -0.04373  -0.02514
  Beta virt. eigenvalues --   -0.02136  -0.01706  -0.01377  -0.00965  -0.00254
  Beta virt. eigenvalues --   -0.00148   0.00124   0.00386   0.00884   0.00896

 Mulliken charges and spin densities:
               1          2
     1  Na  -0.650104   0.731523
     2  Na   0.198975   0.026576
     3  Na   0.076674  -0.027382
     4  Na   0.231815  -0.003119
     5  Na   0.339604  -0.009020
     6  Na   0.201455   0.018485
     7  Na  -0.398420   0.262938
 Sum of Mulliken charges =  -0.00000   1.00000

 Dipole moment (field-independent basis, Debye):
    X=              0.0591    Y=             -0.1750    Z=              0.2083  Tot=              0.2784
 Quadrupole moment (field-independent basis, Debye-Ang):
   XX=            -56.7878   YY=            -64.5966   ZZ=            -72.8605
   XY=             -0.4430   XZ=             -0.5195   YZ=             -0.8875

 Normal termination of Gaussian 16 at Thu Dec  7 21:48:18 2023.
