 Gaussian 16, Revision B.01,
 Gaussian 16:  ES64L-G16RevB.01 20-Dec-2017

 -------------------------
 #P B3LYP/6-311+g(d) force
 -------------------------

 -----
 DPGEN
 -----
 Symbolic Z-matrix:
 Charge =  0 Multiplicity = 2

                         Standard orientation:
 ---------------------------------------------------------------------
 Center     Atomic      Atomic             Coordinates (Angstroms)
 Number     Number       Type             X           Y           Z
 ---------------------------------------------------------------------
      1         11           0        1.030847   -0.218506   -2.214748
      2         11           0       -1.318572   -2.258212   -0.933218
      3         11           0       -0.068953   -0.273814    2.300263
      4         11           0        2.989989   -1.481196    0.509592
      5         11           0       -3.197625   -0.300387    0.651231
      6         11           0       -1.056773    2.483315   -0.850483
      7         11           0        1.621087    2.048800    0.537363
 ---------------------------------------------------------------------

 SCF Done:  E(UB3LYP) =  -1136.12869595     A.U. after   21 cycles

 The electronic state is 2-A.
 Alpha  occ. eigenvalues --  -38.44992 -38.44468 -38.43927 -38.43789 -38.43720
 Alpha  occ. eigenvalues --  -38.43315 -38.43113  -2.20836  -2.20331  -2.19710
 Alpha  occ. eigenvalues --   -2.19624  -2.19558  -2.19208  -2.18963  -1.14499
 Alpha  occ. eigenvalues --   -1.14473  -1.14452  -1.14009  -1.13965  -1.13943
 Alpha  occ. eigenvalues --   -1.13384  -1.13366  -1.13358  -1.13350  -1.13290
 Alpha  occ. eigenvalues --   -1.13263  -1.13237  -1.13198  -1.13156  -1.12934
 Alpha  occ. eigenvalues --   -1.12890  -1.12835  -1.12625  -1.12605  -1.12587
 Alpha  occ. eigenvalues --   -0.18206  -0.12892  -0.12197  -0.11806
 Alpha virt. eigenvalues --   -0.05635  -0.04862  -0.04518  -0.03646  -0.03516
 Alpha virt. eigenvalues --   -0.03370  -0.01394  -0.00669  -0.00488  -0.00027
 Alpha virt. eigenvalues --    0.00326   0.00374   0.00437   0.00746   0.00887

  Beta  occ. eigenvalues --  -38.44905 -38.44390 -38.43926 -38.43786 -38.43702
  Beta  occ. eigenvalues --  -38.43307 -38.43100  -2.20676  -2.20189  -2.19711
  Beta  occ. eigenvalues --   -2.19619  -2.19528  -2.19197  -2.18942  -1.14393
  Beta  occ. eigenvalues --   -1.14365  -1.14330  -1.13910  -1.13868  -1.13839
  Beta  occ. eigenvalues --   -1.13380  -1.13363  -1.13354  -1.13346  -1.13274
  Beta  occ. eigenvalues --   -1.13260  -1.13206  -1.13176  -1.13138  -1.12929
  Beta  occ. eigenvalues --   -1.12852  -1.12835  -1.12603  -1.12590  -1.12570
  Beta  occ. eigenvalues --   -0.17374  -0.12743  -0.11597
  Beta virt. eigenvalues --   -0.08228  -0.05404  -0.04667  -0.04129  -0.03232
  Beta virt. eigenvalues --   -0.02752  -0.02626  -0.01296  -0.00627  -0.00265
  Beta virt. eigenvalues --    0.00063   0.00316   0.00469   0.00609   0.00882

 Mulliken charges and spin densities:
               1          2
     1  Na   0.087184   0.551705
     2  Na  -0.201970  -0.058320
     3  Na  -0.205673   0.505262
     4  Na   0.112708  -0.100911
     5  Na   0.252753   0.073614
     6  Na  -0.215774  -0.007810
     7  Na   0.170773   0.036460
 Sum of Mulliken charges =  -0.00000   1.00000

 Dipole moment (field-independent basis, Debye):
    X=              0.1193    Y=             -0.2994    Z=              0.2588  Tot=              0.4133
 Quadrupole moment (field-independent basis, Debye-Ang):
   XX=            -60.8615   YY=            -72.4662   ZZ=            -64.7796
   XY=             -1.5681   XZ=              0.6587   YZ=             -0.3719

 Normal termination of Gaussian 16 at Sun Dec  3 14:30:19 2023.
