 Gaussian 16, Revision B.01,
 Gaussian 16:  ES64L-G16RevB.01 20-Dec-2017

 -------------------------
 #P B3LYP/6-311+g(d) force
 -------------------------

 -----
 DPGEN
 -----
 Symbolic Z-matrix:
 Charge =  0 Multiplicity = 2

                         Standard orientation:
 ---------------------------------------------------------------------
 Center     Atomic      Atomic             Coordinates (Angstroms)
 Number     Number       Type             X           Y           Z
 ---------------------------------------------------------------------
      1         11           0        3.564484   -0.818667    0.638704
      2         11           0       -1.256838    1.792009   -1.079479
      3         11           0       -1.938259   -1.646929   -1.101200
      4         11           0        1.545660   -1.138429   -1.321674
      5         11           0       -0.141160   -0.500642    1.921619
      6         11           0       -3.639299    0.117516    0.946634
      7         11           0        1.865412    2.195141   -0.004605
 ---------------------------------------------------------------------

 SCF Done:  E(UB3LYP) =  -1136.12105792     A.U. after   25 cycles

 The electronic state is 2-A.
 Alpha  occ. eigenvalues --  -38.45173 -38.45142 -38.44815 -38.43835 -38.43813
 Alpha  occ. eigenvalues --  -38.42733 -38.42679  -2.20991  -2.20977  -2.20681
 Alpha  occ. eigenvalues --   -2.19768  -2.19699  -2.18585  -2.18546  -1.14681
 Alpha  occ. eigenvalues --   -1.14648  -1.14638  -1.14629  -1.14621  -1.14588
 Alpha  occ. eigenvalues --   -1.14467  -1.14308  -1.14300  -1.13450  -1.13423
 Alpha  occ. eigenvalues --   -1.13371  -1.13365  -1.13346  -1.13336  -1.12282
 Alpha  occ. eigenvalues --   -1.12260  -1.12234  -1.12222  -1.12206  -1.12152
 Alpha  occ. eigenvalues --   -0.18572  -0.14445  -0.11314  -0.10896
 Alpha virt. eigenvalues --   -0.07104  -0.05107  -0.04868  -0.03226  -0.02773
 Alpha virt. eigenvalues --   -0.02453  -0.02320  -0.01075  -0.00770  -0.00197
 Alpha virt. eigenvalues --    0.00132   0.00200   0.00297   0.00688   0.00757

  Beta  occ. eigenvalues --  -38.45122 -38.45111 -38.44823 -38.43795 -38.43771
  Beta  occ. eigenvalues --  -38.42734 -38.42659  -2.20941  -2.20875  -2.20696
  Beta  occ. eigenvalues --   -2.19696  -2.19627  -2.18588  -2.18511  -1.14626
  Beta  occ. eigenvalues --   -1.14600  -1.14593  -1.14585  -1.14558  -1.14508
  Beta  occ. eigenvalues --   -1.14477  -1.14315  -1.14305  -1.13391  -1.13369
  Beta  occ. eigenvalues --   -1.13321  -1.13316  -1.13293  -1.13264  -1.12283
  Beta  occ. eigenvalues --   -1.12254  -1.12234  -1.12196  -1.12166  -1.12141
  Beta  occ. eigenvalues --   -0.17829  -0.14332  -0.10760
  Beta virt. eigenvalues --   -0.07372  -0.06854  -0.05030  -0.04212  -0.02997
  Beta virt. eigenvalues --   -0.02559  -0.01792  -0.01638  -0.00741  -0.00660
  Beta virt. eigenvalues --   -0.00134   0.00150   0.00315   0.00371   0.00741

 Mulliken charges and spin densities:
               1          2
     1  Na   1.255567   0.090218
     2  Na  -0.569192   0.164662
     3  Na  -0.029836   0.139869
     4  Na  -0.698258   0.073892
     5  Na  -0.760600   0.417798
     6  Na   0.930385   0.105524
     7  Na  -0.128065   0.008036
 Sum of Mulliken charges =  -0.00000   1.00000

 Dipole moment (field-independent basis, Debye):
    X=             -0.4223    Y=             -0.2337    Z=              0.8070  Tot=              0.9403
 Quadrupole moment (field-independent basis, Debye-Ang):
   XX=            -46.5970   YY=            -79.6066   ZZ=            -69.0556
   XY=             -0.3856   XZ=              1.0936   YZ=              1.8847

 Normal termination of Gaussian 16 at Thu Dec  7 10:24:31 2023.
