 Gaussian 16, Revision B.01,
 Gaussian 16:  ES64L-G16RevB.01 20-Dec-2017

 -------------------------
 #P B3LYP/6-311+g(d) force
 -------------------------

 -----
 DPGEN
 -----
 Symbolic Z-matrix:
 Charge =  0 Multiplicity = 2

                         Standard orientation:
 ---------------------------------------------------------------------
 Center     Atomic      Atomic             Coordinates (Angstroms)
 Number     Number       Type             X           Y           Z
 ---------------------------------------------------------------------
      1         11           0        2.678695    2.161079    0.322843
      2         11           0        2.786911   -1.756178    0.158897
      3         11           0       -3.464213    0.191660    0.342302
      4         11           0       -0.909723   -2.555851   -0.957710
      5         11           0       -1.163655    2.490258   -0.475263
      6         11           0       -0.386449   -0.692986    2.160384
      7         11           0        0.458434    0.162018   -1.551453
 ---------------------------------------------------------------------

 SCF Done:  E(UB3LYP) =  -1136.12906049     A.U. after   20 cycles

 The electronic state is 2-A.
 Alpha  occ. eigenvalues --  -38.44438 -38.44355 -38.44221 -38.44065 -38.43558
 Alpha  occ. eigenvalues --  -38.43383 -38.43179  -2.20219  -2.20150  -2.20041
 Alpha  occ. eigenvalues --   -2.19835  -2.19407  -2.19240  -2.19169  -1.13903
 Alpha  occ. eigenvalues --   -1.13882  -1.13849  -1.13821  -1.13814  -1.13790
 Alpha  occ. eigenvalues --   -1.13703  -1.13681  -1.13652  -1.13514  -1.13489
 Alpha  occ. eigenvalues --   -1.13474  -1.13155  -1.13047  -1.13042  -1.13012
 Alpha  occ. eigenvalues --   -1.12894  -1.12846  -1.12821  -1.12781  -1.12764
 Alpha  occ. eigenvalues --   -0.18044  -0.12907  -0.12103  -0.10859
 Alpha virt. eigenvalues --   -0.06013  -0.05586  -0.04230  -0.03312  -0.02956
 Alpha virt. eigenvalues --   -0.02614  -0.01842  -0.01298  -0.00597  -0.00179
 Alpha virt. eigenvalues --   -0.00051   0.00328   0.00668   0.00716   0.00796

  Beta  occ. eigenvalues --  -38.44435 -38.44352 -38.44140 -38.44063 -38.43524
  Beta  occ. eigenvalues --  -38.43374 -38.43118  -2.20217  -2.20146  -2.19890
  Beta  occ. eigenvalues --   -2.19833  -2.19349  -2.19225  -2.19060  -1.13892
  Beta  occ. eigenvalues --   -1.13876  -1.13846  -1.13819  -1.13795  -1.13790
  Beta  occ. eigenvalues --   -1.13602  -1.13579  -1.13541  -1.13509  -1.13489
  Beta  occ. eigenvalues --   -1.13470  -1.13099  -1.13010  -1.12993  -1.12976
  Beta  occ. eigenvalues --   -1.12871  -1.12839  -1.12755  -1.12707  -1.12684
  Beta  occ. eigenvalues --   -0.17346  -0.12715  -0.11864
  Beta virt. eigenvalues --   -0.07019  -0.05867  -0.05491  -0.04144  -0.02675
  Beta virt. eigenvalues --   -0.02308  -0.01695  -0.01625  -0.01229  -0.00561
  Beta virt. eigenvalues --   -0.00185   0.00095   0.00363   0.00731   0.00812

 Mulliken charges and spin densities:
               1          2
     1  Na  -0.197965   0.023332
     2  Na  -0.016876   0.025512
     3  Na   0.071048   0.068839
     4  Na   0.133306  -0.014012
     5  Na  -0.005573  -0.099543
     6  Na  -0.470988   0.733559
     7  Na   0.487049   0.262313
 Sum of Mulliken charges =  -0.00000   1.00000

 Dipole moment (field-independent basis, Debye):
    X=              0.1621    Y=             -0.2848    Z=              0.4695  Tot=              0.5725
 Quadrupole moment (field-independent basis, Debye-Ang):
   XX=            -53.6178   YY=            -65.9126   ZZ=            -73.6669
   XY=             -0.0044   XZ=              1.7921   YZ=              1.6925

 Normal termination of Gaussian 16 at Thu Dec  7 09:58:53 2023.
