 Gaussian 16, Revision B.01,
 Gaussian 16:  ES64L-G16RevB.01 20-Dec-2017

 -------------------------
 #P B3LYP/6-311+g(d) force
 -------------------------

 -----
 DPGEN
 -----
 Symbolic Z-matrix:
 Charge =  0 Multiplicity = 2

                         Standard orientation:
 ---------------------------------------------------------------------
 Center     Atomic      Atomic             Coordinates (Angstroms)
 Number     Number       Type             X           Y           Z
 ---------------------------------------------------------------------
      1         11           0       -0.716658    0.164659   -1.568203
      2         11           0        2.385503    1.956108   -0.456210
      3         11           0        2.892129   -1.647325   -0.475427
      4         11           0        1.058341    0.175309    1.747493
      5         11           0       -3.873820   -0.494704   -0.054984
      6         11           0       -1.312940    2.217883    0.424596
      7         11           0       -0.432556   -2.371931    0.382736
 ---------------------------------------------------------------------

 SCF Done:  E(UB3LYP) =  -1136.12691916     A.U. after   21 cycles

 The electronic state is 2-A.
 Alpha  occ. eigenvalues --  -38.45274 -38.44049 -38.43879 -38.43744 -38.43472
 Alpha  occ. eigenvalues --  -38.43084 -38.42902  -2.21036  -2.19876  -2.19836
 Alpha  occ. eigenvalues --   -2.19598  -2.19364  -2.18964  -2.18892  -1.14713
 Alpha  occ. eigenvalues --   -1.14694  -1.14666  -1.13609  -1.13550  -1.13531
 Alpha  occ. eigenvalues --   -1.13522  -1.13515  -1.13410  -1.13306  -1.13252
 Alpha  occ. eigenvalues --   -1.13214  -1.13063  -1.13028  -1.12938  -1.12699
 Alpha  occ. eigenvalues --   -1.12651  -1.12560  -1.12547  -1.12538  -1.12477
 Alpha  occ. eigenvalues --   -0.18645  -0.13541  -0.11949  -0.10331
 Alpha virt. eigenvalues --   -0.06733  -0.05302  -0.03928  -0.03326  -0.02598
 Alpha virt. eigenvalues --   -0.02465  -0.01991  -0.01261  -0.00414  -0.00137
 Alpha virt. eigenvalues --   -0.00010   0.00215   0.00616   0.00751   0.00783

  Beta  occ. eigenvalues --  -38.45277 -38.44035 -38.43836 -38.43729 -38.43457
  Beta  occ. eigenvalues --  -38.43068 -38.42825  -2.21043  -2.19852  -2.19757
  Beta  occ. eigenvalues --   -2.19572  -2.19342  -2.18938  -2.18753  -1.14710
  Beta  occ. eigenvalues --   -1.14700  -1.14671  -1.13555  -1.13533  -1.13511
  Beta  occ. eigenvalues --   -1.13489  -1.13465  -1.13350  -1.13286  -1.13225
  Beta  occ. eigenvalues --   -1.13189  -1.13046  -1.12981  -1.12927  -1.12676
  Beta  occ. eigenvalues --   -1.12599  -1.12541  -1.12465  -1.12435  -1.12379
  Beta  occ. eigenvalues --   -0.17950  -0.13334  -0.11713
  Beta virt. eigenvalues --   -0.06616  -0.06456  -0.05268  -0.03858  -0.02725
  Beta virt. eigenvalues --   -0.02357  -0.01871  -0.01225  -0.01069  -0.00318
  Beta virt. eigenvalues --   -0.00037   0.00055   0.00271   0.00735   0.00788

 Mulliken charges and spin densities:
               1          2
     1  Na  -0.337316   0.688653
     2  Na   0.118530   0.143781
     3  Na  -0.047345   0.142780
     4  Na   0.053294   0.452653
     5  Na   0.284635  -0.047642
     6  Na   0.029688  -0.207464
     7  Na  -0.101485  -0.172762
 Sum of Mulliken charges =  -0.00000   1.00000

 Dipole moment (field-independent basis, Debye):
    X=             -0.7890    Y=             -0.0670    Z=             -0.0006  Tot=              0.7918
 Quadrupole moment (field-independent basis, Debye-Ang):
   XX=            -46.8521   YY=            -69.1005   ZZ=            -74.8130
   XY=              0.6404   XZ=             -2.7150   YZ=              0.3934

 Normal termination of Gaussian 16 at Fri Dec  8 00:07:37 2023.
