 Gaussian 16, Revision B.01,
 Gaussian 16:  ES64L-G16RevB.01 20-Dec-2017

 -------------------------
 #P B3LYP/6-311+g(d) force
 -------------------------

 -----
 DPGEN
 -----
 Symbolic Z-matrix:
 Charge =  0 Multiplicity = 2

                         Standard orientation:
 ---------------------------------------------------------------------
 Center     Atomic      Atomic             Coordinates (Angstroms)
 Number     Number       Type             X           Y           Z
 ---------------------------------------------------------------------
      1         11           0       -0.899742    0.287628    2.297786
      2         11           0        2.273173   -0.657792    1.914620
      3         11           0        3.023749    0.349961   -1.331105
      4         11           0        0.496435    2.601914   -0.674091
      5         11           0       -2.589474    1.891872   -0.541969
      6         11           0        0.960962   -2.438099   -1.127733
      7         11           0       -3.265103   -2.035484   -0.537507
 ---------------------------------------------------------------------

 SCF Done:  E(UB3LYP) =  -1136.12024182     A.U. after   23 cycles

 The electronic state is 2-A.
 Alpha  occ. eigenvalues --  -38.45049 -38.44801 -38.44510 -38.44208 -38.44166
 Alpha  occ. eigenvalues --  -38.44002 -38.43097  -2.20862  -2.20639  -2.20274
 Alpha  occ. eigenvalues --   -2.20044  -2.19894  -2.19813  -2.18924  -1.14555
 Alpha  occ. eigenvalues --   -1.14493  -1.14482  -1.14311  -1.14286  -1.14253
 Alpha  occ. eigenvalues --   -1.13965  -1.13938  -1.13892  -1.13719  -1.13697
 Alpha  occ. eigenvalues --   -1.13665  -1.13574  -1.13546  -1.13536  -1.13506
 Alpha  occ. eigenvalues --   -1.13478  -1.13435  -1.12607  -1.12577  -1.12568
 Alpha  occ. eigenvalues --   -0.17353  -0.13234  -0.12019  -0.11545
 Alpha virt. eigenvalues --   -0.06157  -0.05470  -0.05054  -0.03607  -0.03185
 Alpha virt. eigenvalues --   -0.02825  -0.01561  -0.01001  -0.00737  -0.00422
 Alpha virt. eigenvalues --   -0.00214   0.00140   0.00345   0.00362   0.00417

  Beta  occ. eigenvalues --  -38.44970 -38.44740 -38.44488 -38.44181 -38.44156
  Beta  occ. eigenvalues --  -38.43998 -38.43089  -2.20719  -2.20530  -2.20234
  Beta  occ. eigenvalues --   -2.19994  -2.19876  -2.19805  -2.18912  -1.14452
  Beta  occ. eigenvalues --   -1.14401  -1.14364  -1.14229  -1.14217  -1.14158
  Beta  occ. eigenvalues --   -1.13932  -1.13911  -1.13864  -1.13677  -1.13666
  Beta  occ. eigenvalues --   -1.13632  -1.13560  -1.13533  -1.13525  -1.13500
  Beta  occ. eigenvalues --   -1.13472  -1.13431  -1.12597  -1.12568  -1.12556
  Beta  occ. eigenvalues --   -0.16628  -0.13115  -0.11363
  Beta virt. eigenvalues --   -0.07964  -0.05975  -0.05246  -0.04558  -0.03357
  Beta virt. eigenvalues --   -0.02534  -0.02182  -0.01451  -0.00937  -0.00500
  Beta virt. eigenvalues --   -0.00204  -0.00176   0.00407   0.00431   0.00443

 Mulliken charges and spin densities:
               1          2
     1  Na  -0.225688   0.319454
     2  Na   0.264091   0.165808
     3  Na   0.276066   0.222479
     4  Na  -0.306909   0.079472
     5  Na   0.417366   0.005422
     6  Na  -0.372506   0.142661
     7  Na  -0.052419   0.064705
 Sum of Mulliken charges =  -0.00000   1.00000

 Dipole moment (field-independent basis, Debye):
    X=              0.4764    Y=             -0.1913    Z=              0.2064  Tot=              0.5533
 Quadrupole moment (field-independent basis, Debye-Ang):
   XX=            -58.4719   YY=            -73.7314   ZZ=            -67.1022
   XY=             -1.5572   XZ=              0.3141   YZ=              0.4927

 Normal termination of Gaussian 16 at Wed Nov 29 00:18:31 2023.
