 Gaussian 16, Revision B.01,
 Gaussian 16:  ES64L-G16RevB.01 20-Dec-2017

 -------------------------
 #P B3LYP/6-311+g(d) force
 -------------------------

 -----
 DPGEN
 -----
 Symbolic Z-matrix:
 Charge =  0 Multiplicity = 2

                         Standard orientation:
 ---------------------------------------------------------------------
 Center     Atomic      Atomic             Coordinates (Angstroms)
 Number     Number       Type             X           Y           Z
 ---------------------------------------------------------------------
      1         11           0        2.884147   -1.581297   -0.338003
      2         11           0        0.066258    0.430819    2.102979
      3         11           0       -1.150326    2.649828   -0.303411
      4         11           0        2.310998    1.650557    0.076528
      5         11           0        0.145973   -0.115555   -1.661884
      6         11           0       -3.321366   -0.395508   -0.280026
      7         11           0       -0.935683   -2.638845    0.403815
 ---------------------------------------------------------------------

 SCF Done:  E(UB3LYP) =  -1136.13682494     A.U. after   20 cycles

 The electronic state is 2-A.
 Alpha  occ. eigenvalues --  -38.44337 -38.43829 -38.43717 -38.43640 -38.43392
 Alpha  occ. eigenvalues --  -38.43325 -38.43139  -2.20140  -2.19656  -2.19612
 Alpha  occ. eigenvalues --   -2.19544  -2.19358  -2.19165  -2.18993  -1.13812
 Alpha  occ. eigenvalues --   -1.13799  -1.13783  -1.13351  -1.13328  -1.13312
 Alpha  occ. eigenvalues --   -1.13293  -1.13256  -1.13232  -1.13228  -1.13185
 Alpha  occ. eigenvalues --   -1.13143  -1.13043  -1.13007  -1.12973  -1.12841
 Alpha  occ. eigenvalues --   -1.12832  -1.12791  -1.12674  -1.12658  -1.12617
 Alpha  occ. eigenvalues --   -0.18613  -0.13166  -0.12204  -0.10928
 Alpha virt. eigenvalues --   -0.05840  -0.05142  -0.04403  -0.03279  -0.02924
 Alpha virt. eigenvalues --   -0.02659  -0.01714  -0.01082  -0.00286  -0.00226
 Alpha virt. eigenvalues --   -0.00039   0.00337   0.00764   0.00871   0.00903

  Beta  occ. eigenvalues --  -38.44336 -38.43825 -38.43631 -38.43619 -38.43332
  Beta  occ. eigenvalues --  -38.43316 -38.43132  -2.20139  -2.19650  -2.19532
  Beta  occ. eigenvalues --   -2.19431  -2.19249  -2.19150  -2.18983  -1.13804
  Beta  occ. eigenvalues --   -1.13795  -1.13782  -1.13344  -1.13312  -1.13287
  Beta  occ. eigenvalues --   -1.13253  -1.13196  -1.13149  -1.13137  -1.13106
  Beta  occ. eigenvalues --   -1.13084  -1.12972  -1.12934  -1.12891  -1.12828
  Beta  occ. eigenvalues --   -1.12799  -1.12785  -1.12662  -1.12638  -1.12605
  Beta  occ. eigenvalues --   -0.17881  -0.12936  -0.11965
  Beta virt. eigenvalues --   -0.07005  -0.05774  -0.05123  -0.04333  -0.02529
  Beta virt. eigenvalues --   -0.02169  -0.01632  -0.01602  -0.01039  -0.00287
  Beta virt. eigenvalues --   -0.00255   0.00102   0.00368   0.00836   0.00869

 Mulliken charges and spin densities:
               1          2
     1  Na   0.091271  -0.030539
     2  Na  -0.420706   0.652407
     3  Na   0.084847  -0.073852
     4  Na   0.461253   0.030070
     5  Na  -0.269049   0.476896
     6  Na   0.009758  -0.074327
     7  Na   0.042626   0.019345
 Sum of Mulliken charges =  -0.00000   1.00000

 Dipole moment (field-independent basis, Debye):
    X=             -0.1482    Y=             -0.0406    Z=              0.0831  Tot=              0.1747
 Quadrupole moment (field-independent basis, Debye-Ang):
   XX=            -54.9619   YY=            -65.4596   ZZ=            -73.3626
   XY=             -1.0644   XZ=              0.4785   YZ=             -0.9316

 Normal termination of Gaussian 16 at Tue Dec  5 16:50:50 2023.
