 Gaussian 16, Revision B.01,
 Gaussian 16:  ES64L-G16RevB.01 20-Dec-2017

 -------------------------
 #P B3LYP/6-311+g(d) force
 -------------------------

 -----
 DPGEN
 -----
 Symbolic Z-matrix:
 Charge =  0 Multiplicity = 2

                         Standard orientation:
 ---------------------------------------------------------------------
 Center     Atomic      Atomic             Coordinates (Angstroms)
 Number     Number       Type             X           Y           Z
 ---------------------------------------------------------------------
      1         11           0       -0.016341   -0.129964   -1.945977
      2         11           0       -1.564719   -2.345935    0.087950
      3         11           0       -0.119422    2.926012    0.471867
      4         11           0       -2.795144    0.919463   -0.404514
      5         11           0        2.964304    0.849726   -0.411355
      6         11           0       -0.040294   -0.133785    1.991343
      7         11           0        1.571615   -2.085517    0.210685
 ---------------------------------------------------------------------

 SCF Done:  E(UB3LYP) =  -1136.13744026     A.U. after   19 cycles

 The electronic state is 2-A.
 Alpha  occ. eigenvalues --  -38.43859 -38.43772 -38.43564 -38.43535 -38.43507
 Alpha  occ. eigenvalues --  -38.43194 -38.43177  -2.19813  -2.19720  -2.19397
 Alpha  occ. eigenvalues --   -2.19389  -2.19334  -2.19144  -2.19115  -1.13511
 Alpha  occ. eigenvalues --   -1.13447  -1.13434  -1.13400  -1.13364  -1.13345
 Alpha  occ. eigenvalues --   -1.13074  -1.13070  -1.13066  -1.13050  -1.13036
 Alpha  occ. eigenvalues --   -1.13035  -1.13016  -1.12981  -1.12954  -1.12880
 Alpha  occ. eigenvalues --   -1.12819  -1.12786  -1.12776  -1.12759  -1.12692
 Alpha  occ. eigenvalues --   -0.19071  -0.12836  -0.12616  -0.11450
 Alpha virt. eigenvalues --   -0.05149  -0.04788  -0.04702  -0.03337  -0.03224
 Alpha virt. eigenvalues --   -0.03032  -0.01186  -0.00967  -0.00190   0.00024
 Alpha virt. eigenvalues --    0.00134   0.00378   0.00895   0.00945   0.00970

  Beta  occ. eigenvalues --  -38.43770 -38.43690 -38.43558 -38.43527 -38.43498
  Beta  occ. eigenvalues --  -38.43188 -38.43166  -2.19651  -2.19570  -2.19390
  Beta  occ. eigenvalues --   -2.19379  -2.19321  -2.19129  -2.19107  -1.13404
  Beta  occ. eigenvalues --   -1.13334  -1.13316  -1.13304  -1.13258  -1.13236
  Beta  occ. eigenvalues --   -1.13069  -1.13057  -1.13048  -1.13036  -1.13027
  Beta  occ. eigenvalues --   -1.13024  -1.12992  -1.12969  -1.12949  -1.12876
  Beta  occ. eigenvalues --   -1.12798  -1.12768  -1.12747  -1.12732  -1.12683
  Beta  occ. eigenvalues --   -0.18291  -0.12563  -0.12346
  Beta virt. eigenvalues --   -0.07496  -0.05108  -0.04757  -0.04658  -0.02526
  Beta virt. eigenvalues --   -0.02436  -0.01982  -0.01096  -0.00895  -0.00146
  Beta virt. eigenvalues --    0.00073   0.00097   0.00394   0.00933   0.00945

 Mulliken charges and spin densities:
               1          2
     1  Na  -0.451856   0.611225
     2  Na   0.289952  -0.059563
     3  Na   0.010068  -0.027750
     4  Na   0.103950  -0.045166
     5  Na   0.022851  -0.047916
     6  Na  -0.428515   0.542580
     7  Na   0.453550   0.026589
 Sum of Mulliken charges =  -0.00000   1.00000

 Dipole moment (field-independent basis, Debye):
    X=             -0.0574    Y=              0.2013    Z=             -0.0456  Tot=              0.2142
 Quadrupole moment (field-independent basis, Debye-Ang):
   XX=            -61.0468   YY=            -63.8041   ZZ=            -70.5339
   XY=              0.9900   XZ=              0.0332   YZ=              0.0431

 Normal termination of Gaussian 16 at Tue Dec  5 19:06:12 2023.
