 Gaussian 16, Revision B.01,
 Gaussian 16:  ES64L-G16RevB.01 20-Dec-2017

 -------------------------
 #P B3LYP/6-311+g(d) force
 -------------------------

 -----
 DPGEN
 -----
 Symbolic Z-matrix:
 Charge =  0 Multiplicity = 2

                         Standard orientation:
 ---------------------------------------------------------------------
 Center     Atomic      Atomic             Coordinates (Angstroms)
 Number     Number       Type             X           Y           Z
 ---------------------------------------------------------------------
      1         11           0        2.169276   -1.445406   -0.699555
      2         11           0        4.721858   -2.013290    0.991143
      3         11           0        3.968706    1.755431    0.672528
      4         11           0        0.858454    2.366023   -0.349677
      5         11           0       -1.151306    0.279123   -1.608178
      6         11           0       -4.448988   -1.076704   -0.780820
      7         11           0       -6.118000    0.134823    1.774559
 ---------------------------------------------------------------------

 SCF Done:  E(UB3LYP) =  -1136.11512704     A.U. after   21 cycles

 The electronic state is 2-A.
 Alpha  occ. eigenvalues --  -38.44984 -38.44698 -38.44531 -38.44067 -38.43892
 Alpha  occ. eigenvalues --  -38.43787 -38.43506  -2.20802  -2.20532  -2.20303
 Alpha  occ. eigenvalues --   -2.19842  -2.19740  -2.19605  -2.19342  -1.14469
 Alpha  occ. eigenvalues --   -1.14468  -1.14393  -1.14220  -1.14185  -1.14158
 Alpha  occ. eigenvalues --   -1.13958  -1.13957  -1.13941  -1.13517  -1.13511
 Alpha  occ. eigenvalues --   -1.13485  -1.13420  -1.13406  -1.13392  -1.13282
 Alpha  occ. eigenvalues --   -1.13259  -1.13228  -1.13006  -1.12999  -1.12964
 Alpha  occ. eigenvalues --   -0.16553  -0.13859  -0.12182  -0.11448
 Alpha virt. eigenvalues --   -0.06724  -0.05327  -0.04182  -0.03855  -0.03109
 Alpha virt. eigenvalues --   -0.02448  -0.02331  -0.01279  -0.01025  -0.01013
 Alpha virt. eigenvalues --   -0.00548  -0.00269   0.00102   0.00351   0.00677

  Beta  occ. eigenvalues --  -38.44900 -38.44655 -38.44498 -38.44078 -38.43871
  Beta  occ. eigenvalues --  -38.43774 -38.43479  -2.20650  -2.20453  -2.20241
  Beta  occ. eigenvalues --   -2.19866  -2.19705  -2.19582  -2.19290  -1.14367
  Beta  occ. eigenvalues --   -1.14363  -1.14277  -1.14168  -1.14130  -1.14095
  Beta  occ. eigenvalues --   -1.13915  -1.13914  -1.13902  -1.13536  -1.13529
  Beta  occ. eigenvalues --   -1.13484  -1.13388  -1.13379  -1.13356  -1.13255
  Beta  occ. eigenvalues --   -1.13244  -1.13217  -1.12971  -1.12961  -1.12937
  Beta  occ. eigenvalues --   -0.15859  -0.13591  -0.11798
  Beta virt. eigenvalues --   -0.07897  -0.06261  -0.05132  -0.03789  -0.03523
  Beta virt. eigenvalues --   -0.02518  -0.02302  -0.02187  -0.01103  -0.00894
  Beta virt. eigenvalues --   -0.00665  -0.00232  -0.00026   0.00233   0.00427

 Mulliken charges and spin densities:
               1          2
     1  Na  -0.370495   0.346353
     2  Na   0.727660  -0.032541
     3  Na  -0.064685   0.335381
     4  Na   0.602603   0.184685
     5  Na  -1.071034   0.092422
     6  Na   0.077291  -0.069693
     7  Na   0.098661   0.143394
 Sum of Mulliken charges =  -0.00000   1.00000

 Dipole moment (field-independent basis, Debye):
    X=              0.7361    Y=              0.2274    Z=              0.7347  Tot=              1.0646
 Quadrupole moment (field-independent basis, Debye-Ang):
   XX=            -61.3354   YY=            -68.2806   ZZ=            -66.3264
   XY=             -2.0154   XZ=             -0.2706   YZ=              3.2582

 Normal termination of Gaussian 16 at Tue Nov 28 19:44:27 2023.
