 Gaussian 16, Revision B.01,
 Gaussian 16:  ES64L-G16RevB.01 20-Dec-2017

 -------------------------
 #P B3LYP/6-311+g(d) force
 -------------------------

 -----
 DPGEN
 -----
 Symbolic Z-matrix:
 Charge =  0 Multiplicity = 2

                         Standard orientation:
 ---------------------------------------------------------------------
 Center     Atomic      Atomic             Coordinates (Angstroms)
 Number     Number       Type             X           Y           Z
 ---------------------------------------------------------------------
      1         11           0        1.802585    0.087785    1.350106
      2         11           0       -0.152431   -2.728847   -0.512066
      3         11           0       -1.418493   -0.039905    1.146583
      4         11           0        1.266563    2.558928   -0.938852
      5         11           0       -1.851540    3.194048   -0.145931
      6         11           0       -3.731585   -1.866684   -0.474556
      7         11           0        4.084901   -1.205325   -0.425284
 ---------------------------------------------------------------------

 SCF Done:  E(UB3LYP) =  -1136.11883942     A.U. after   21 cycles

 The electronic state is 2-A.
 Alpha  occ. eigenvalues --  -38.45329 -38.44674 -38.44215 -38.44171 -38.44143
 Alpha  occ. eigenvalues --  -38.43229 -38.43042  -2.21091  -2.20473  -2.20012
 Alpha  occ. eigenvalues --   -2.19971  -2.19945  -2.19158  -2.18984  -1.14792
 Alpha  occ. eigenvalues --   -1.14778  -1.14689  -1.14156  -1.14142  -1.14098
 Alpha  occ. eigenvalues --   -1.13677  -1.13671  -1.13649  -1.13649  -1.13612
 Alpha  occ. eigenvalues --   -1.13609  -1.13607  -1.13598  -1.13561  -1.12865
 Alpha  occ. eigenvalues --   -1.12818  -1.12790  -1.12670  -1.12638  -1.12590
 Alpha  occ. eigenvalues --   -0.17388  -0.13335  -0.12821  -0.09913
 Alpha virt. eigenvalues --   -0.06620  -0.06290  -0.04257  -0.03456  -0.02892
 Alpha virt. eigenvalues --   -0.02238  -0.02049  -0.01383  -0.01116  -0.00784
 Alpha virt. eigenvalues --   -0.00090   0.00276   0.00313   0.00516   0.00615

  Beta  occ. eigenvalues --  -38.45334 -38.44658 -38.44211 -38.44133 -38.44104
  Beta  occ. eigenvalues --  -38.43182 -38.42988  -2.21103  -2.20444  -2.20005
  Beta  occ. eigenvalues --   -2.19898  -2.19871  -2.19080  -2.18892  -1.14804
  Beta  occ. eigenvalues --   -1.14768  -1.14698  -1.14134  -1.14117  -1.14077
  Beta  occ. eigenvalues --   -1.13669  -1.13664  -1.13645  -1.13601  -1.13561
  Beta  occ. eigenvalues --   -1.13559  -1.13556  -1.13547  -1.13514  -1.12797
  Beta  occ. eigenvalues --   -1.12754  -1.12718  -1.12609  -1.12554  -1.12517
  Beta  occ. eigenvalues --   -0.16754  -0.13009  -0.12595
  Beta virt. eigenvalues --   -0.06403  -0.06368  -0.06109  -0.04037  -0.03068
  Beta virt. eigenvalues --   -0.02493  -0.02073  -0.01793  -0.01022  -0.00731
  Beta virt. eigenvalues --   -0.00658   0.00098   0.00357   0.00398   0.00647

 Mulliken charges and spin densities:
               1          2
     1  Na   0.178135   0.150095
     2  Na  -0.135211  -0.073948
     3  Na  -0.500087   0.219381
     4  Na  -0.155785   0.126574
     5  Na   0.232979  -0.001173
     6  Na   0.321401   0.280999
     7  Na   0.058568   0.298071
 Sum of Mulliken charges =  -0.00000   1.00000

 Dipole moment (field-independent basis, Debye):
    X=             -0.3850    Y=             -0.2932    Z=             -0.3596  Tot=              0.6029
 Quadrupole moment (field-independent basis, Debye-Ang):
   XX=            -60.2321   YY=            -65.2478   ZZ=            -72.8255
   XY=             -3.5474   XZ=             -1.4707   YZ=              2.3938

 Normal termination of Gaussian 16 at Tue Nov 28 20:43:07 2023.
