 Gaussian 16, Revision B.01,
 Gaussian 16:  ES64L-G16RevB.01 20-Dec-2017

 -------------------------
 #P B3LYP/6-311+g(d) force
 -------------------------

 -----
 DPGEN
 -----
 Symbolic Z-matrix:
 Charge =  0 Multiplicity = 2

                         Standard orientation:
 ---------------------------------------------------------------------
 Center     Atomic      Atomic             Coordinates (Angstroms)
 Number     Number       Type             X           Y           Z
 ---------------------------------------------------------------------
      1         11           0        1.131571    2.535184   -0.199166
      2         11           0       -0.239721   -0.120373   -1.696499
      3         11           0       -0.019687   -0.275329    1.965027
      4         11           0       -2.039655    2.045338   -0.098246
      5         11           0        2.927811   -0.061869    0.318862
      6         11           0        1.015057   -2.636330   -0.549116
      7         11           0       -2.775376   -1.486621    0.259137
 ---------------------------------------------------------------------

 SCF Done:  E(UB3LYP) =  -1136.13728450     A.U. after   19 cycles

 The electronic state is 2-A.
 Alpha  occ. eigenvalues --  -38.43892 -38.43632 -38.43581 -38.43522 -38.43513
 Alpha  occ. eigenvalues --  -38.43241 -38.43084  -2.19718  -2.19556  -2.19474
 Alpha  occ. eigenvalues --   -2.19407  -2.19402  -2.19259  -2.18993  -1.13399
 Alpha  occ. eigenvalues --   -1.13383  -1.13354  -1.13244  -1.13199  -1.13189
 Alpha  occ. eigenvalues --   -1.13178  -1.13151  -1.13131  -1.13119  -1.13115
 Alpha  occ. eigenvalues --   -1.13073  -1.13036  -1.13033  -1.13003  -1.12917
 Alpha  occ. eigenvalues --   -1.12870  -1.12864  -1.12661  -1.12642  -1.12631
 Alpha  occ. eigenvalues --   -0.19092  -0.13062  -0.12627  -0.11074
 Alpha virt. eigenvalues --   -0.05439  -0.05015  -0.04524  -0.03274  -0.03036
 Alpha virt. eigenvalues --   -0.02685  -0.01393  -0.01060  -0.00184  -0.00022
 Alpha virt. eigenvalues --    0.00042   0.00363   0.00850   0.00923   0.00935

  Beta  occ. eigenvalues --  -38.43886 -38.43573 -38.43546 -38.43517 -38.43495
  Beta  occ. eigenvalues --  -38.43168 -38.43079  -2.19710  -2.19464  -2.19403
  Beta  occ. eigenvalues --   -2.19396  -2.19373  -2.19126  -2.18987  -1.13382
  Beta  occ. eigenvalues --   -1.13368  -1.13350  -1.13181  -1.13154  -1.13134
  Beta  occ. eigenvalues --   -1.13118  -1.13105  -1.13090  -1.13077  -1.13059
  Beta  occ. eigenvalues --   -1.13042  -1.13020  -1.12999  -1.12988  -1.12833
  Beta  occ. eigenvalues --   -1.12783  -1.12774  -1.12653  -1.12640  -1.12605
  Beta  occ. eigenvalues --   -0.18358  -0.12805  -0.12342
  Beta virt. eigenvalues --   -0.07133  -0.05411  -0.04986  -0.04495  -0.02479
  Beta virt. eigenvalues --   -0.02253  -0.01619  -0.01287  -0.00984  -0.00188
  Beta virt. eigenvalues --   -0.00058   0.00130   0.00390   0.00880   0.00935

 Mulliken charges and spin densities:
               1          2
     1  Na   0.057479  -0.019284
     2  Na  -0.267615   0.429669
     3  Na  -0.476976   0.662054
     4  Na   0.142214  -0.040772
     5  Na   0.243519   0.071794
     6  Na   0.217990  -0.039630
     7  Na   0.083388  -0.063832
 Sum of Mulliken charges =  -0.00000   1.00000

 Dipole moment (field-independent basis, Debye):
    X=             -0.2822    Y=             -0.2480    Z=              0.2169  Tot=              0.4338
 Quadrupole moment (field-independent basis, Debye-Ang):
   XX=            -58.0531   YY=            -63.2667   ZZ=            -72.9107
   XY=              0.2616   XZ=             -0.2852   YZ=              0.2608

 Normal termination of Gaussian 16 at Thu Dec  7 15:18:07 2023.
