 Gaussian 16, Revision B.01,
 Gaussian 16:  ES64L-G16RevB.01 20-Dec-2017

 -------------------------
 #P B3LYP/6-311+g(d) force
 -------------------------

 -----
 DPGEN
 -----
 Symbolic Z-matrix:
 Charge =  0 Multiplicity = 2

                         Standard orientation:
 ---------------------------------------------------------------------
 Center     Atomic      Atomic             Coordinates (Angstroms)
 Number     Number       Type             X           Y           Z
 ---------------------------------------------------------------------
      1         11           0       -3.110441   -1.557369    0.173157
      2         11           0        2.122834    0.827635   -1.213588
      3         11           0        0.054135   -0.015536    2.111326
      4         11           0       -2.025889    1.634889   -0.749576
      5         11           0       -0.247302   -1.243037   -1.220786
      6         11           0        0.805110    2.783846    0.613885
      7         11           0        2.401552   -2.430429    0.285582
 ---------------------------------------------------------------------

 SCF Done:  E(UB3LYP) =  -1136.13148437     A.U. after   20 cycles

 The electronic state is 2-A.
 Alpha  occ. eigenvalues --  -38.44007 -38.43980 -38.43914 -38.43814 -38.43768
 Alpha  occ. eigenvalues --  -38.43108 -38.42995  -2.19865  -2.19860  -2.19738
 Alpha  occ. eigenvalues --   -2.19736  -2.19583  -2.19025  -2.18988  -1.13559
 Alpha  occ. eigenvalues --   -1.13540  -1.13525  -1.13499  -1.13484  -1.13474
 Alpha  occ. eigenvalues --   -1.13448  -1.13433  -1.13423  -1.13386  -1.13367
 Alpha  occ. eigenvalues --   -1.13338  -1.13260  -1.13237  -1.13222  -1.12697
 Alpha  occ. eigenvalues --   -1.12686  -1.12679  -1.12657  -1.12652  -1.12586
 Alpha  occ. eigenvalues --   -0.18710  -0.12931  -0.12489  -0.11150
 Alpha virt. eigenvalues --   -0.05600  -0.05273  -0.04141  -0.03252  -0.03220
 Alpha virt. eigenvalues --   -0.02839  -0.01484  -0.01299  -0.00257  -0.00016
 Alpha virt. eigenvalues --    0.00264   0.00341   0.00783   0.00801   0.00879

  Beta  occ. eigenvalues --  -38.43992 -38.43916 -38.43880 -38.43777 -38.43767
  Beta  occ. eigenvalues --  -38.43098 -38.42962  -2.19837  -2.19742  -2.19678
  Beta  occ. eigenvalues --   -2.19671  -2.19584  -2.19012  -2.18931  -1.13538
  Beta  occ. eigenvalues --   -1.13501  -1.13472  -1.13429  -1.13415  -1.13391
  Beta  occ. eigenvalues --   -1.13388  -1.13382  -1.13369  -1.13360  -1.13345
  Beta  occ. eigenvalues --   -1.13291  -1.13262  -1.13227  -1.13217  -1.12690
  Beta  occ. eigenvalues --   -1.12660  -1.12651  -1.12623  -1.12591  -1.12548
  Beta  occ. eigenvalues --   -0.17943  -0.12746  -0.12290
  Beta virt. eigenvalues --   -0.07156  -0.05555  -0.05134  -0.04100  -0.02614
  Beta virt. eigenvalues --   -0.02463  -0.01819  -0.01414  -0.01148  -0.00071
  Beta virt. eigenvalues --   -0.00035   0.00314   0.00387   0.00791   0.00865

 Mulliken charges and spin densities:
               1          2
     1  Na   0.373420  -0.103475
     2  Na  -0.255589   0.061726
     3  Na  -0.574946   0.631306
     4  Na  -0.229793   0.025653
     5  Na  -0.115138   0.385279
     6  Na   0.702624   0.104970
     7  Na   0.099422  -0.105459
 Sum of Mulliken charges =  -0.00000   1.00000

 Dipole moment (field-independent basis, Debye):
    X=             -0.2758    Y=             -0.2935    Z=              0.2525  Tot=              0.4754
 Quadrupole moment (field-independent basis, Debye-Ang):
   XX=            -59.0397   YY=            -63.5455   ZZ=            -71.3319
   XY=             -0.4440   XZ=             -0.3270   YZ=             -2.4531

 Normal termination of Gaussian 16 at Tue Dec  5 16:37:45 2023.
