 Gaussian 16, Revision B.01,
 Gaussian 16:  ES64L-G16RevB.01 20-Dec-2017

 -------------------------
 #P B3LYP/6-311+g(d) force
 -------------------------

 -----
 DPGEN
 -----
 Symbolic Z-matrix:
 Charge =  0 Multiplicity = 2

                         Standard orientation:
 ---------------------------------------------------------------------
 Center     Atomic      Atomic             Coordinates (Angstroms)
 Number     Number       Type             X           Y           Z
 ---------------------------------------------------------------------
      1         11           0        3.140245   -0.624997   -0.057011
      2         11           0       -2.550067   -1.101505    0.274180
      3         11           0        0.363675   -0.194117    2.191540
      4         11           0       -1.979535    2.122356   -0.084315
      5         11           0        1.185436    2.661858   -0.200098
      6         11           0       -0.095036   -2.797565   -0.462417
      7         11           0       -0.064717   -0.066029   -1.661878
 ---------------------------------------------------------------------

 SCF Done:  E(UB3LYP) =  -1136.13521790     A.U. after   19 cycles

 The electronic state is 2-A.
 Alpha  occ. eigenvalues --  -38.43969 -38.43831 -38.43646 -38.43589 -38.43320
 Alpha  occ. eigenvalues --  -38.43304 -38.43277  -2.19836  -2.19630  -2.19508
 Alpha  occ. eigenvalues --   -2.19503  -2.19332  -2.19248  -2.19168  -1.13496
 Alpha  occ. eigenvalues --   -1.13466  -1.13458  -1.13315  -1.13305  -1.13285
 Alpha  occ. eigenvalues --   -1.13274  -1.13208  -1.13186  -1.13174  -1.13130
 Alpha  occ. eigenvalues --   -1.13119  -1.13020  -1.12956  -1.12949  -1.12909
 Alpha  occ. eigenvalues --   -1.12891  -1.12881  -1.12823  -1.12813  -1.12791
 Alpha  occ. eigenvalues --   -0.18961  -0.12905  -0.12648  -0.11173
 Alpha virt. eigenvalues --   -0.05409  -0.04921  -0.04643  -0.03276  -0.03125
 Alpha virt. eigenvalues --   -0.02871  -0.01270  -0.01079  -0.00150  -0.00101
 Alpha virt. eigenvalues --    0.00014   0.00366   0.00866   0.00903   0.00953

  Beta  occ. eigenvalues --  -38.43871 -38.43831 -38.43641 -38.43575 -38.43311
  Beta  occ. eigenvalues --  -38.43274 -38.43237  -2.19654  -2.19632  -2.19497
  Beta  occ. eigenvalues --   -2.19486  -2.19236  -2.19212  -2.19165  -1.13377
  Beta  occ. eigenvalues --   -1.13341  -1.13331  -1.13291  -1.13284  -1.13278
  Beta  occ. eigenvalues --   -1.13276  -1.13200  -1.13162  -1.13157  -1.13125
  Beta  occ. eigenvalues --   -1.13095  -1.12972  -1.12898  -1.12888  -1.12878
  Beta  occ. eigenvalues --   -1.12862  -1.12831  -1.12808  -1.12798  -1.12781
  Beta  occ. eigenvalues --   -0.18211  -0.12651  -0.12423
  Beta virt. eigenvalues --   -0.07187  -0.05413  -0.04837  -0.04638  -0.02443
  Beta virt. eigenvalues --   -0.02344  -0.01805  -0.01189  -0.01002  -0.00177
  Beta virt. eigenvalues --   -0.00117   0.00118   0.00389   0.00879   0.00930

 Mulliken charges and spin densities:
               1          2
     1  Na   0.071986  -0.094625
     2  Na   0.274728   0.160544
     3  Na  -0.688614   0.684870
     4  Na   0.123340   0.020341
     5  Na   0.135003  -0.048164
     6  Na   0.441967   0.010666
     7  Na  -0.358411   0.266368
 Sum of Mulliken charges =  -0.00000   1.00000

 Dipole moment (field-independent basis, Debye):
    X=              0.3833    Y=              0.0039    Z=              0.2676  Tot=              0.4675
 Quadrupole moment (field-independent basis, Debye-Ang):
   XX=            -60.3143   YY=            -62.3790   ZZ=            -72.1946
   XY=             -0.1473   XZ=             -1.0440   YZ=              0.3070

 Normal termination of Gaussian 16 at Tue Dec  5 19:29:13 2023.
