 Gaussian 16, Revision B.01,
 Gaussian 16:  ES64L-G16RevB.01 20-Dec-2017

 -------------------------
 #P B3LYP/6-311+g(d) force
 -------------------------

 -----
 DPGEN
 -----
 Symbolic Z-matrix:
 Charge =  0 Multiplicity = 2

                         Standard orientation:
 ---------------------------------------------------------------------
 Center     Atomic      Atomic             Coordinates (Angstroms)
 Number     Number       Type             X           Y           Z
 ---------------------------------------------------------------------
      1         11           0       -0.909592   -0.383594    2.033099
      2         11           0       -1.907396   -1.432785   -1.406762
      3         11           0       -1.618658    2.146118   -0.602859
      4         11           0       -3.851948   -0.123800    0.515694
      5         11           0        1.941703    1.880118   -0.422975
      6         11           0        1.599643   -1.959405   -0.492415
      7         11           0        4.746248   -0.126652    0.376218
 ---------------------------------------------------------------------

 SCF Done:  E(UB3LYP) =  -1136.11086475     A.U. after   30 cycles

 The electronic state is 2-A.
 Alpha  occ. eigenvalues --  -38.46635 -38.45226 -38.44920 -38.44097 -38.43435
 Alpha  occ. eigenvalues --  -38.43429 -38.42601  -2.22435  -2.21006  -2.20825
 Alpha  occ. eigenvalues --   -2.19973  -2.19230  -2.19223  -2.18454  -1.16101
 Alpha  occ. eigenvalues --   -1.16090  -1.16064  -1.14666  -1.14656  -1.14621
 Alpha  occ. eigenvalues --   -1.14531  -1.14470  -1.14441  -1.13648  -1.13621
 Alpha  occ. eigenvalues --   -1.13597  -1.12926  -1.12923  -1.12917  -1.12905
 Alpha  occ. eigenvalues --   -1.12847  -1.12831  -1.12128  -1.12124  -1.12093
 Alpha  occ. eigenvalues --   -0.18007  -0.14359  -0.11024  -0.10612
 Alpha virt. eigenvalues --   -0.08163  -0.05291  -0.04531  -0.03398  -0.03164
 Alpha virt. eigenvalues --   -0.02297  -0.02158  -0.01521  -0.01278  -0.00587
 Alpha virt. eigenvalues --   -0.00363   0.00125   0.00164   0.00598   0.00689

  Beta  occ. eigenvalues --  -38.46598 -38.45177 -38.44887 -38.44067 -38.43429
  Beta  occ. eigenvalues --  -38.43413 -38.42585  -2.22369  -2.20913  -2.20767
  Beta  occ. eigenvalues --   -2.19918  -2.19221  -2.19200  -2.18427  -1.16053
  Beta  occ. eigenvalues --   -1.16034  -1.16014  -1.14601  -1.14592  -1.14562
  Beta  occ. eigenvalues --   -1.14494  -1.14417  -1.14403  -1.13601  -1.13578
  Beta  occ. eigenvalues --   -1.13559  -1.12924  -1.12913  -1.12905  -1.12884
  Beta  occ. eigenvalues --   -1.12825  -1.12798  -1.12112  -1.12102  -1.12060
  Beta  occ. eigenvalues --   -0.17455  -0.13970  -0.10655
  Beta virt. eigenvalues --   -0.07906  -0.07062  -0.05330  -0.03922  -0.03132
  Beta virt. eigenvalues --   -0.02967  -0.01822  -0.01726  -0.01355  -0.00722
  Beta virt. eigenvalues --   -0.00360  -0.00319   0.00136   0.00348   0.00674

 Mulliken charges and spin densities:
               1          2
     1  Na  -0.295729   0.087585
     2  Na  -0.263183   0.136340
     3  Na  -0.578478   0.057293
     4  Na   1.219920   0.337583
     5  Na  -0.311336   0.054981
     6  Na  -0.170223   0.058597
     7  Na   0.399029   0.267621
 Sum of Mulliken charges =  -0.00000   1.00000

 Dipole moment (field-independent basis, Debye):
    X=              0.0450    Y=             -0.5135    Z=              0.6720  Tot=              0.8470
 Quadrupole moment (field-independent basis, Debye-Ang):
   XX=            -47.6420   YY=            -82.0829   ZZ=            -67.5458
   XY=             -0.3383   XZ=              4.4824   YZ=              0.3784

 Normal termination of Gaussian 16 at Fri Dec  8 17:27:58 2023.
