 Gaussian 16, Revision B.01,
 Gaussian 16:  ES64L-G16RevB.01 20-Dec-2017

 -------------------------
 #P B3LYP/6-311+g(d) force
 -------------------------

 -----
 DPGEN
 -----
 Symbolic Z-matrix:
 Charge =  0 Multiplicity = 2

                         Standard orientation:
 ---------------------------------------------------------------------
 Center     Atomic      Atomic             Coordinates (Angstroms)
 Number     Number       Type             X           Y           Z
 ---------------------------------------------------------------------
      1         11           0       -3.749236   -1.975354    0.310754
      2         11           0       -0.201749    0.168938    2.162973
      3         11           0        0.215073    2.717347   -1.178257
      4         11           0       -2.852248    1.143416   -0.400737
      5         11           0        3.523451   -2.244103   -0.613475
      6         11           0        2.905842    1.158268    1.062300
      7         11           0        0.158867   -0.968511   -1.343559
 ---------------------------------------------------------------------

 SCF Done:  E(UB3LYP) =  -1136.11983945     A.U. after   23 cycles

 The electronic state is 2-A.
 Alpha  occ. eigenvalues --  -38.45128 -38.44873 -38.44717 -38.44269 -38.44226
 Alpha  occ. eigenvalues --  -38.43703 -38.42960  -2.20941  -2.20664  -2.20522
 Alpha  occ. eigenvalues --   -2.20067  -2.20040  -2.19465  -2.18778  -1.14618
 Alpha  occ. eigenvalues --   -1.14573  -1.14555  -1.14347  -1.14315  -1.14282
 Alpha  occ. eigenvalues --   -1.14232  -1.14177  -1.14121  -1.13758  -1.13754
 Alpha  occ. eigenvalues --   -1.13733  -1.13703  -1.13690  -1.13639  -1.13135
 Alpha  occ. eigenvalues --   -1.13128  -1.13098  -1.12451  -1.12436  -1.12411
 Alpha  occ. eigenvalues --   -0.17545  -0.13428  -0.11391  -0.11153
 Alpha virt. eigenvalues --   -0.06720  -0.05894  -0.04427  -0.03356  -0.02753
 Alpha virt. eigenvalues --   -0.02484  -0.02396  -0.01744  -0.00945  -0.00483
 Alpha virt. eigenvalues --   -0.00024   0.00077   0.00254   0.00539   0.00579

  Beta  occ. eigenvalues --  -38.45044 -38.44846 -38.44673 -38.44270 -38.44218
  Beta  occ. eigenvalues --  -38.43692 -38.42937  -2.20786  -2.20618  -2.20442
  Beta  occ. eigenvalues --   -2.20054  -2.20044  -2.19446  -2.18736  -1.14515
  Beta  occ. eigenvalues --   -1.14470  -1.14435  -1.14296  -1.14288  -1.14250
  Beta  occ. eigenvalues --   -1.14172  -1.14120  -1.14061  -1.13755  -1.13741
  Beta  occ. eigenvalues --   -1.13724  -1.13701  -1.13688  -1.13631  -1.13122
  Beta  occ. eigenvalues --   -1.13109  -1.13087  -1.12421  -1.12402  -1.12380
  Beta  occ. eigenvalues --   -0.16866  -0.13233  -0.11066
  Beta virt. eigenvalues --   -0.07426  -0.06501  -0.05757  -0.04086  -0.02860
  Beta virt. eigenvalues --   -0.02290  -0.02205  -0.01870  -0.01418  -0.00868
  Beta virt. eigenvalues --   -0.00355   0.00048   0.00144   0.00408   0.00628

 Mulliken charges and spin densities:
               1          2
     1  Na   0.115499  -0.063560
     2  Na  -0.182198   0.350494
     3  Na  -0.125006  -0.007327
     4  Na   0.440773   0.100828
     5  Na   0.024851  -0.059743
     6  Na   0.266244   0.220667
     7  Na  -0.540164   0.458642
 Sum of Mulliken charges =  -0.00000   1.00000

 Dipole moment (field-independent basis, Debye):
    X=             -0.2028    Y=              0.1969    Z=              0.4444  Tot=              0.5267
 Quadrupole moment (field-independent basis, Debye-Ang):
   XX=            -55.7685   YY=            -68.8599   ZZ=            -72.5336
   XY=              3.7148   XZ=              0.9272   YZ=             -0.5931

 Normal termination of Gaussian 16 at Thu Dec  7 07:18:58 2023.
