 Gaussian 16, Revision B.01,
 Gaussian 16:  ES64L-G16RevB.01 20-Dec-2017

 -------------------------
 #P B3LYP/6-311+g(d) force
 -------------------------

 -----
 DPGEN
 -----
 Symbolic Z-matrix:
 Charge =  0 Multiplicity = 2

                         Standard orientation:
 ---------------------------------------------------------------------
 Center     Atomic      Atomic             Coordinates (Angstroms)
 Number     Number       Type             X           Y           Z
 ---------------------------------------------------------------------
      1         11           0        0.365958   -2.385996    0.088129
      2         11           0       -1.794075    1.882313   -0.101671
      3         11           0       -2.441911   -1.111472    0.122129
      4         11           0       -0.325823   -0.131890   -1.533171
      5         11           0        0.198779    0.021805    1.658629
      6         11           0        1.261298    2.191356    0.071429
      7         11           0        2.735775   -0.466117   -0.305471
 ---------------------------------------------------------------------

 SCF Done:  E(UB3LYP) =  -1136.10897044     A.U. after   23 cycles

 The electronic state is 2-A.
 Alpha  occ. eigenvalues --  -38.43664 -38.43605 -38.43389 -38.43333 -38.43302
 Alpha  occ. eigenvalues --  -38.43296 -38.43261  -2.19650  -2.19646  -2.19584
 Alpha  occ. eigenvalues --   -2.19502  -2.19424  -2.19344  -2.19327  -1.13601
 Alpha  occ. eigenvalues --   -1.13478  -1.13432  -1.13358  -1.13334  -1.13315
 Alpha  occ. eigenvalues --   -1.13303  -1.13281  -1.13248  -1.13192  -1.13111
 Alpha  occ. eigenvalues --   -1.13100  -1.13066  -1.13023  -1.13022  -1.12951
 Alpha  occ. eigenvalues --   -1.12942  -1.12918  -1.12907  -1.12888  -1.12885
 Alpha  occ. eigenvalues --   -0.20874  -0.13696  -0.13134  -0.11312
 Alpha virt. eigenvalues --   -0.05193  -0.04706  -0.04437  -0.03290  -0.02979
 Alpha virt. eigenvalues --   -0.02240  -0.01222  -0.00784   0.00024   0.00337
 Alpha virt. eigenvalues --    0.00431   0.00472   0.00962   0.01055   0.01079

  Beta  occ. eigenvalues --  -38.43655 -38.43594 -38.43379 -38.43285 -38.43256
  Beta  occ. eigenvalues --  -38.43247 -38.43215  -2.19634  -2.19631  -2.19456
  Beta  occ. eigenvalues --   -2.19406  -2.19355  -2.19322  -2.19303  -1.13561
  Beta  occ. eigenvalues --   -1.13431  -1.13393  -1.13345  -1.13293  -1.13272
  Beta  occ. eigenvalues --   -1.13250  -1.13229  -1.13207  -1.13115  -1.13067
  Beta  occ. eigenvalues --   -1.13038  -1.13022  -1.12973  -1.12947  -1.12915
  Beta  occ. eigenvalues --   -1.12903  -1.12884  -1.12879  -1.12859  -1.12811
  Beta  occ. eigenvalues --   -0.20103  -0.13371  -0.12788
  Beta virt. eigenvalues --   -0.07209  -0.05195  -0.04688  -0.04444  -0.02404
  Beta virt. eigenvalues --   -0.02085  -0.01175  -0.01146  -0.00733   0.00147
  Beta virt. eigenvalues --    0.00353   0.00392   0.00430   0.00995   0.01053

 Mulliken charges and spin densities:
               1          2
     1  Na   0.526477   0.029289
     2  Na   0.375441  -0.014900
     3  Na   0.439617  -0.001478
     4  Na  -1.039082   0.463712
     5  Na  -0.814333   0.528483
     6  Na   0.421311   0.011343
     7  Na   0.090569  -0.016449
 Sum of Mulliken charges =  -0.00000   1.00000

 Dipole moment (field-independent basis, Debye):
    X=              0.1065    Y=              0.0452    Z=              0.0679  Tot=              0.1342
 Quadrupole moment (field-independent basis, Debye-Ang):
   XX=            -57.7055   YY=            -64.3919   ZZ=            -72.7717
   XY=             -0.0288   XZ=             -1.2955   YZ=             -0.2958

 Normal termination of Gaussian 16 at Fri Dec  8 18:28:16 2023.
