 Gaussian 16, Revision B.01,
 Gaussian 16:  ES64L-G16RevB.01 20-Dec-2017

 -------------------------
 #P B3LYP/6-311+g(d) force
 -------------------------

 -----
 DPGEN
 -----
 Symbolic Z-matrix:
 Charge =  0 Multiplicity = 2

                         Standard orientation:
 ---------------------------------------------------------------------
 Center     Atomic      Atomic             Coordinates (Angstroms)
 Number     Number       Type             X           Y           Z
 ---------------------------------------------------------------------
      1         11           0        0.624354   -1.781989   -0.038018
      2         11           0        2.864302    0.859417    0.308163
      3         11           0       -1.186371    0.872308   -1.004145
      4         11           0       -3.026143   -2.319425   -0.355408
      5         11           0       -3.483471    0.472732    1.052205
      6         11           0        0.447427    3.869824   -0.120667
      7         11           0        3.759902   -1.972867    0.157870
 ---------------------------------------------------------------------

 SCF Done:  E(UB3LYP) =  -1136.12067158     A.U. after   23 cycles

 The electronic state is 2-A.
 Alpha  occ. eigenvalues --  -38.44769 -38.44405 -38.43955 -38.43843 -38.43688
 Alpha  occ. eigenvalues --  -38.43645 -38.43359  -2.20595  -2.20268  -2.19850
 Alpha  occ. eigenvalues --   -2.19734  -2.19587  -2.19412  -2.19273  -1.14282
 Alpha  occ. eigenvalues --   -1.14264  -1.14227  -1.13958  -1.13951  -1.13913
 Alpha  occ. eigenvalues --   -1.13615  -1.13557  -1.13440  -1.13361  -1.13354
 Alpha  occ. eigenvalues --   -1.13336  -1.13251  -1.13240  -1.13212  -1.13085
 Alpha  occ. eigenvalues --   -1.13075  -1.13047  -1.12966  -1.12944  -1.12854
 Alpha  occ. eigenvalues --   -0.17510  -0.14568  -0.12275  -0.10014
 Alpha virt. eigenvalues --   -0.06358  -0.05371  -0.05117  -0.03424  -0.02503
 Alpha virt. eigenvalues --   -0.02235  -0.01805  -0.01444  -0.01250  -0.00712
 Alpha virt. eigenvalues --    0.00141   0.00199   0.00444   0.00596   0.00616

  Beta  occ. eigenvalues --  -38.44760 -38.44388 -38.43933 -38.43762 -38.43660
  Beta  occ. eigenvalues --  -38.43651 -38.43311  -2.20585  -2.20238  -2.19815
  Beta  occ. eigenvalues --   -2.19583  -2.19536  -2.19423  -2.19188  -1.14276
  Beta  occ. eigenvalues --   -1.14254  -1.14184  -1.13945  -1.13935  -1.13863
  Beta  occ. eigenvalues --   -1.13568  -1.13512  -1.13412  -1.13264  -1.13248
  Beta  occ. eigenvalues --   -1.13245  -1.13219  -1.13198  -1.13177  -1.13092
  Beta  occ. eigenvalues --   -1.13083  -1.13053  -1.12907  -1.12886  -1.12784
  Beta  occ. eigenvalues --   -0.16886  -0.14024  -0.12150
  Beta virt. eigenvalues --   -0.06324  -0.06188  -0.05285  -0.04821  -0.02873
  Beta virt. eigenvalues --   -0.02304  -0.01950  -0.01629  -0.01201  -0.01044
  Beta virt. eigenvalues --   -0.00275   0.00339   0.00427   0.00515   0.00702

 Mulliken charges and spin densities:
               1          2
     1  Na  -2.171753  -0.142624
     2  Na  -0.404711   0.137604
     3  Na  -0.735728   0.243624
     4  Na   0.721815   0.002302
     5  Na   0.284443   0.384383
     6  Na   0.331411  -0.083940
     7  Na   1.974522   0.458652
 Sum of Mulliken charges =  -0.00000   1.00000

 Dipole moment (field-independent basis, Debye):
    X=              0.1441    Y=             -0.8070    Z=             -0.0957  Tot=              0.8253
 Quadrupole moment (field-independent basis, Debye-Ang):
   XX=            -68.0127   YY=            -58.9825   ZZ=            -70.7987
   XY=              4.2890   XZ=              1.9954   YZ=              1.7659

 Normal termination of Gaussian 16 at Tue Nov 28 21:10:20 2023.
