 Gaussian 16, Revision B.01,
 Gaussian 16:  ES64L-G16RevB.01 20-Dec-2017

 -------------------------
 #P B3LYP/6-311+g(d) force
 -------------------------

 -----
 DPGEN
 -----
 Symbolic Z-matrix:
 Charge =  0 Multiplicity = 2

                         Standard orientation:
 ---------------------------------------------------------------------
 Center     Atomic      Atomic             Coordinates (Angstroms)
 Number     Number       Type             X           Y           Z
 ---------------------------------------------------------------------
      1         11           0        3.339065    1.288220   -0.251693
      2         11           0       -0.864616    3.100555   -0.451554
      3         11           0       -1.744590   -1.193801   -1.528644
      4         11           0       -4.393806   -0.525292    0.425090
      5         11           0        2.574634   -1.305661    1.685186
      6         11           0       -0.827919    0.012619    1.792613
      7         11           0        1.917233   -1.376640   -1.670999
 ---------------------------------------------------------------------

 SCF Done:  E(UB3LYP) =  -1136.10769896     A.U. after   29 cycles

 The electronic state is 2-A.
 Alpha  occ. eigenvalues --  -38.46090 -38.45636 -38.44471 -38.44247 -38.43925
 Alpha  occ. eigenvalues --  -38.43437 -38.43347  -2.21845  -2.21425  -2.20328
 Alpha  occ. eigenvalues --   -2.20044  -2.19725  -2.19275  -2.19096  -1.15521
 Alpha  occ. eigenvalues --   -1.15498  -1.15475  -1.15115  -1.15087  -1.15048
 Alpha  occ. eigenvalues --   -1.13993  -1.13973  -1.13945  -1.13750  -1.13684
 Alpha  occ. eigenvalues --   -1.13668  -1.13417  -1.13396  -1.13349  -1.12950
 Alpha  occ. eigenvalues --   -1.12945  -1.12905  -1.12770  -1.12736  -1.12733
 Alpha  occ. eigenvalues --   -0.17290  -0.14090  -0.11065  -0.10691
 Alpha virt. eigenvalues --   -0.07724  -0.05344  -0.04980  -0.03383  -0.03051
 Alpha virt. eigenvalues --   -0.02686  -0.02190  -0.01287  -0.00998  -0.00697
 Alpha virt. eigenvalues --   -0.00162  -0.00011   0.00118   0.00506   0.00644

  Beta  occ. eigenvalues --  -38.46089 -38.45628 -38.44406 -38.44211 -38.43915
  Beta  occ. eigenvalues --  -38.43413 -38.43310  -2.21844  -2.21411  -2.20208
  Beta  occ. eigenvalues --   -2.19980  -2.19708  -2.19233  -2.19025  -1.15516
  Beta  occ. eigenvalues --   -1.15499  -1.15474  -1.15088  -1.15080  -1.15040
  Beta  occ. eigenvalues --   -1.13909  -1.13896  -1.13853  -1.13711  -1.13635
  Beta  occ. eigenvalues --   -1.13611  -1.13407  -1.13379  -1.13333  -1.12920
  Beta  occ. eigenvalues --   -1.12906  -1.12877  -1.12719  -1.12690  -1.12685
  Beta  occ. eigenvalues --   -0.16692  -0.14007  -0.10353
  Beta virt. eigenvalues --   -0.07661  -0.07238  -0.04931  -0.04628  -0.03095
  Beta virt. eigenvalues --   -0.02886  -0.02254  -0.01556  -0.01075  -0.00710
  Beta virt. eigenvalues --   -0.00574  -0.00084   0.00140   0.00178   0.00630

 Mulliken charges and spin densities:
               1          2
     1  Na   0.002510   0.009199
     2  Na  -0.065778   0.284340
     3  Na  -0.152412  -0.039157
     4  Na   0.611118  -0.005683
     5  Na   0.331756   0.239131
     6  Na  -0.528689   0.190001
     7  Na  -0.198504   0.322168
 Sum of Mulliken charges =  -0.00000   1.00000

 Dipole moment (field-independent basis, Debye):
    X=             -0.7178    Y=             -0.2440    Z=              0.5155  Tot=              0.9167
 Quadrupole moment (field-independent basis, Debye-Ang):
   XX=            -41.4200   YY=            -78.9170   ZZ=            -73.4841
   XY=              1.9105   XZ=             -1.5067   YZ=             -5.5920

 Normal termination of Gaussian 16 at Mon Dec  4 01:41:35 2023.
