 Gaussian 16, Revision B.01,
 Gaussian 16:  ES64L-G16RevB.01 20-Dec-2017

 -------------------------
 #P B3LYP/6-311+g(d) force
 -------------------------

 -----
 DPGEN
 -----
 Symbolic Z-matrix:
 Charge =  0 Multiplicity = 2

                         Standard orientation:
 ---------------------------------------------------------------------
 Center     Atomic      Atomic             Coordinates (Angstroms)
 Number     Number       Type             X           Y           Z
 ---------------------------------------------------------------------
      1         11           0       -0.143413    3.253160    0.200035
      2         11           0       -0.357730    0.342986   -1.781051
      3         11           0       -1.363091   -2.504101   -0.312041
      4         11           0       -3.278293    0.187664    0.208631
      5         11           0        0.270521   -0.220410    2.035451
      6         11           0        2.563937    1.155689   -0.352833
      7         11           0        2.308069   -2.214989    0.001809
 ---------------------------------------------------------------------

 SCF Done:  E(UB3LYP) =  -1136.13816589     A.U. after   19 cycles

 The electronic state is 2-A.
 Alpha  occ. eigenvalues --  -38.44128 -38.43765 -38.43676 -38.43622 -38.43615
 Alpha  occ. eigenvalues --  -38.43473 -38.43397  -2.19932  -2.19566  -2.19548
 Alpha  occ. eigenvalues --   -2.19489  -2.19480  -2.19319  -2.19300  -1.13601
 Alpha  occ. eigenvalues --   -1.13596  -1.13580  -1.13240  -1.13236  -1.13222
 Alpha  occ. eigenvalues --   -1.13217  -1.13193  -1.13187  -1.13178  -1.13169
 Alpha  occ. eigenvalues --   -1.13145  -1.13138  -1.13109  -1.13100  -1.12992
 Alpha  occ. eigenvalues --   -1.12963  -1.12954  -1.12949  -1.12944  -1.12937
 Alpha  occ. eigenvalues --   -0.18365  -0.12938  -0.12393  -0.10713
 Alpha virt. eigenvalues --   -0.05607  -0.05160  -0.04903  -0.03235  -0.02989
 Alpha virt. eigenvalues --   -0.02574  -0.01433  -0.01289  -0.00432  -0.00358
 Alpha virt. eigenvalues --   -0.00024   0.00366   0.00786   0.00835   0.00868

  Beta  occ. eigenvalues --  -38.44127 -38.43763 -38.43613 -38.43605 -38.43588
  Beta  occ. eigenvalues --  -38.43471 -38.43330  -2.19932  -2.19565  -2.19473
  Beta  occ. eigenvalues --   -2.19467  -2.19386  -2.19301  -2.19195  -1.13598
  Beta  occ. eigenvalues --   -1.13590  -1.13575  -1.13236  -1.13226  -1.13210
  Beta  occ. eigenvalues --   -1.13177  -1.13167  -1.13129  -1.13122  -1.13105
  Beta  occ. eigenvalues --   -1.13102  -1.13093  -1.13058  -1.13051  -1.12956
  Beta  occ. eigenvalues --   -1.12948  -1.12939  -1.12912  -1.12857  -1.12849
  Beta  occ. eigenvalues --   -0.17624  -0.12722  -0.12207
  Beta virt. eigenvalues --   -0.06826  -0.05586  -0.05049  -0.04877  -0.02456
  Beta virt. eigenvalues --   -0.02263  -0.01555  -0.01342  -0.01210  -0.00473
  Beta virt. eigenvalues --   -0.00380   0.00120   0.00389   0.00816   0.00849

 Mulliken charges and spin densities:
               1          2
     1  Na  -0.025319  -0.093105
     2  Na  -0.032607   0.486926
     3  Na   0.166494  -0.047235
     4  Na  -0.000807  -0.086450
     5  Na  -0.453129   0.805643
     6  Na   0.219490  -0.023270
     7  Na   0.125878  -0.042509
 Sum of Mulliken charges =  -0.00000   1.00000

 Dipole moment (field-independent basis, Debye):
    X=             -0.3197    Y=              0.1367    Z=              0.1151  Tot=              0.3663
 Quadrupole moment (field-independent basis, Debye-Ang):
   XX=            -58.9994   YY=            -60.6300   ZZ=            -74.1523
   XY=             -1.4900   XZ=             -1.5767   YZ=              1.4640

 Normal termination of Gaussian 16 at Tue Dec  5 11:56:44 2023.
