 Gaussian 16, Revision B.01,
 Gaussian 16:  ES64L-G16RevB.01 20-Dec-2017

 -------------------------
 #P B3LYP/6-311+g(d) force
 -------------------------

 -----
 DPGEN
 -----
 Symbolic Z-matrix:
 Charge =  0 Multiplicity = 2

                         Standard orientation:
 ---------------------------------------------------------------------
 Center     Atomic      Atomic             Coordinates (Angstroms)
 Number     Number       Type             X           Y           Z
 ---------------------------------------------------------------------
      1         11           0        2.325973    2.286391   -0.462521
      2         11           0        3.328722   -1.157017    0.613407
      3         11           0        0.257434    0.390353   -1.233475
      4         11           0       -2.269644    2.528908    0.206098
      5         11           0       -3.161092   -0.970790    0.164067
      6         11           0       -0.416726   -2.569865   -1.090598
      7         11           0       -0.064666   -0.507981    1.803022
 ---------------------------------------------------------------------

 SCF Done:  E(UB3LYP) =  -1136.12388476     A.U. after   22 cycles

 The electronic state is 2-A.
 Alpha  occ. eigenvalues --  -38.44634 -38.44472 -38.44166 -38.44064 -38.43786
 Alpha  occ. eigenvalues --  -38.43036 -38.43029  -2.20414  -2.20297  -2.20001
 Alpha  occ. eigenvalues --   -2.19951  -2.19559  -2.19074  -2.18930  -1.14084
 Alpha  occ. eigenvalues --   -1.14063  -1.14045  -1.13981  -1.13953  -1.13931
 Alpha  occ. eigenvalues --   -1.13766  -1.13679  -1.13636  -1.13600  -1.13578
 Alpha  occ. eigenvalues --   -1.13547  -1.13242  -1.13216  -1.13203  -1.12830
 Alpha  occ. eigenvalues --   -1.12763  -1.12663  -1.12572  -1.12551  -1.12540
 Alpha  occ. eigenvalues --   -0.18297  -0.13358  -0.11909  -0.10513
 Alpha virt. eigenvalues --   -0.06177  -0.05804  -0.04149  -0.03243  -0.02636
 Alpha virt. eigenvalues --   -0.02162  -0.02099  -0.01430  -0.00612  -0.00345
 Alpha virt. eigenvalues --   -0.00001   0.00244   0.00652   0.00702   0.00820

  Beta  occ. eigenvalues --  -38.44607 -38.44468 -38.44149 -38.44004 -38.43791
  Beta  occ. eigenvalues --  -38.42995 -38.42975  -2.20366  -2.20293  -2.19973
  Beta  occ. eigenvalues --   -2.19840  -2.19570  -2.18979  -2.18858  -1.14039
  Beta  occ. eigenvalues --   -1.14029  -1.14016  -1.13971  -1.13951  -1.13921
  Beta  occ. eigenvalues --   -1.13737  -1.13613  -1.13601  -1.13580  -1.13506
  Beta  occ. eigenvalues --   -1.13458  -1.13248  -1.13223  -1.13203  -1.12756
  Beta  occ. eigenvalues --   -1.12681  -1.12605  -1.12512  -1.12500  -1.12485
  Beta  occ. eigenvalues --   -0.17680  -0.13066  -0.11614
  Beta virt. eigenvalues --   -0.06830  -0.06003  -0.05647  -0.04053  -0.02636
  Beta virt. eigenvalues --   -0.02115  -0.01891  -0.01406  -0.01168  -0.00582
  Beta virt. eigenvalues --   -0.00252   0.00111   0.00315   0.00720   0.00743

 Mulliken charges and spin densities:
               1          2
     1  Na  -0.201156   0.066467
     2  Na  -0.000577   0.179419
     3  Na   0.353771  -0.072529
     4  Na  -0.352336   0.016431
     5  Na   0.310959   0.029202
     6  Na   0.153023   0.134381
     7  Na  -0.263684   0.646629
 Sum of Mulliken charges =  -0.00000   1.00000

 Dipole moment (field-independent basis, Debye):
    X=              0.1551    Y=             -0.1640    Z=              0.3808  Tot=              0.4426
 Quadrupole moment (field-independent basis, Debye-Ang):
   XX=            -51.1395   YY=            -65.0018   ZZ=            -75.4162
   XY=              0.5822   XZ=              0.1179   YZ=              1.1814

 Normal termination of Gaussian 16 at Thu Dec  7 04:17:36 2023.
