 Gaussian 16, Revision B.01,
 Gaussian 16:  ES64L-G16RevB.01 20-Dec-2017

 -------------------------
 #P B3LYP/6-311+g(d) force
 -------------------------

 -----
 DPGEN
 -----
 Symbolic Z-matrix:
 Charge =  0 Multiplicity = 2

                         Standard orientation:
 ---------------------------------------------------------------------
 Center     Atomic      Atomic             Coordinates (Angstroms)
 Number     Number       Type             X           Y           Z
 ---------------------------------------------------------------------
      1         11           0       -1.008957   -2.166240   -0.131993
      2         11           0       -4.262948   -1.571276    0.289518
      3         11           0       -0.420770    3.070205   -0.451665
      4         11           0       -4.052515    1.687757    0.005405
      5         11           0        2.692642    1.498412    0.582000
      6         11           0        1.888196   -2.509398   -0.268693
      7         11           0        5.164352   -0.009460   -0.024571
 ---------------------------------------------------------------------

 SCF Done:  E(UB3LYP) =  -1136.11008592     A.U. after   21 cycles

 The electronic state is 2-A.
 Alpha  occ. eigenvalues --  -38.44979 -38.44692 -38.44684 -38.44472 -38.44446
 Alpha  occ. eigenvalues --  -38.43971 -38.43553  -2.20738  -2.20532  -2.20517
 Alpha  occ. eigenvalues --   -2.20299  -2.20280  -2.19746  -2.19405  -1.14422
 Alpha  occ. eigenvalues --   -1.14415  -1.14388  -1.14289  -1.14169  -1.14168
 Alpha  occ. eigenvalues --   -1.14158  -1.14144  -1.14140  -1.14020  -1.13967
 Alpha  occ. eigenvalues --   -1.13952  -1.13929  -1.13911  -1.13884  -1.13404
 Alpha  occ. eigenvalues --   -1.13398  -1.13365  -1.13088  -1.13056  -1.13035
 Alpha  occ. eigenvalues --   -0.16201  -0.14515  -0.12615  -0.11371
 Alpha virt. eigenvalues --   -0.06965  -0.05001  -0.04188  -0.03802  -0.03429
 Alpha virt. eigenvalues --   -0.02722  -0.01891  -0.01459  -0.01170  -0.00730
 Alpha virt. eigenvalues --   -0.00564  -0.00152   0.00050   0.00581   0.00744

  Beta  occ. eigenvalues --  -38.44982 -38.44654 -38.44608 -38.44460 -38.44408
  Beta  occ. eigenvalues --  -38.43906 -38.43538  -2.20749  -2.20445  -2.20392
  Beta  occ. eigenvalues --   -2.20284  -2.20215  -2.19625  -2.19382  -1.14433
  Beta  occ. eigenvalues --   -1.14419  -1.14377  -1.14201  -1.14127  -1.14119
  Beta  occ. eigenvalues --   -1.14093  -1.14063  -1.14047  -1.13962  -1.13954
  Beta  occ. eigenvalues --   -1.13940  -1.13888  -1.13846  -1.13840  -1.13323
  Beta  occ. eigenvalues --   -1.13314  -1.13286  -1.13049  -1.13045  -1.13016
  Beta  occ. eigenvalues --   -0.15607  -0.13872  -0.11873
  Beta virt. eigenvalues --   -0.08138  -0.07056  -0.04469  -0.03754  -0.03544
  Beta virt. eigenvalues --   -0.03109  -0.02510  -0.01723  -0.01232  -0.00800
  Beta virt. eigenvalues --   -0.00437  -0.00314   0.00073   0.00195   0.00629

 Mulliken charges and spin densities:
               1          2
     1  Na  -0.848451  -0.063753
     2  Na   0.977681   0.294516
     3  Na   0.066287   0.250485
     4  Na  -0.264544  -0.005832
     5  Na  -1.103750   0.120726
     6  Na   0.312503   0.046946
     7  Na   0.860274   0.356912
 Sum of Mulliken charges =  -0.00000   1.00000

 Dipole moment (field-independent basis, Debye):
    X=              0.0531    Y=             -0.3614    Z=             -0.0398  Tot=              0.3675
 Quadrupole moment (field-independent basis, Debye-Ang):
   XX=            -51.2070   YY=            -70.5650   ZZ=            -73.1520
   XY=             -3.6561   XZ=             -1.8081   YZ=             -0.2033

 Normal termination of Gaussian 16 at Mon Dec  4 03:09:25 2023.
