 Gaussian 16, Revision B.01,
 Gaussian 16:  ES64L-G16RevB.01 20-Dec-2017

 -------------------------
 #P B3LYP/6-311+g(d) force
 -------------------------

 -----
 DPGEN
 -----
 Symbolic Z-matrix:
 Charge =  0 Multiplicity = 2

                         Standard orientation:
 ---------------------------------------------------------------------
 Center     Atomic      Atomic             Coordinates (Angstroms)
 Number     Number       Type             X           Y           Z
 ---------------------------------------------------------------------
      1         11           0       -2.121924    1.968191   -0.330917
      2         11           0        3.840640   -0.870793   -0.599205
      3         11           0        0.361391   -1.116768   -1.357726
      4         11           0        1.240925    1.985525   -0.630940
      5         11           0       -1.708230   -0.349820    1.865998
      6         11           0        2.189984   -0.214207    1.679333
      7         11           0       -3.802787   -1.402128   -0.626543
 ---------------------------------------------------------------------

 SCF Done:  E(UB3LYP) =  -1136.11630461     A.U. after   28 cycles

 The electronic state is 2-A.
 Alpha  occ. eigenvalues --  -38.45262 -38.44781 -38.44366 -38.44354 -38.43929
 Alpha  occ. eigenvalues --  -38.43812 -38.42556  -2.21100  -2.20645  -2.20281
 Alpha  occ. eigenvalues --   -2.20225  -2.19717  -2.19661  -2.18454  -1.14798
 Alpha  occ. eigenvalues --   -1.14763  -1.14698  -1.14434  -1.14284  -1.14269
 Alpha  occ. eigenvalues --   -1.13934  -1.13916  -1.13915  -1.13897  -1.13880
 Alpha  occ. eigenvalues --   -1.13823  -1.13390  -1.13381  -1.13359  -1.13355
 Alpha  occ. eigenvalues --   -1.13319  -1.13272  -1.12150  -1.12129  -1.12063
 Alpha  occ. eigenvalues --   -0.18456  -0.14518  -0.11120  -0.10778
 Alpha virt. eigenvalues --   -0.07116  -0.05621  -0.04927  -0.03164  -0.02846
 Alpha virt. eigenvalues --   -0.02365  -0.02159  -0.01494  -0.00787  -0.00308
 Alpha virt. eigenvalues --    0.00054   0.00183   0.00311   0.00424   0.00617

  Beta  occ. eigenvalues --  -38.45208 -38.44783 -38.44316 -38.44300 -38.43931
  Beta  occ. eigenvalues --  -38.43809 -38.42544  -2.21003  -2.20649  -2.20182
  Beta  occ. eigenvalues --   -2.20132  -2.19720  -2.19657  -2.18433  -1.14724
  Beta  occ. eigenvalues --   -1.14687  -1.14629  -1.14426  -1.14287  -1.14259
  Beta  occ. eigenvalues --   -1.13863  -1.13850  -1.13849  -1.13838  -1.13810
  Beta  occ. eigenvalues --   -1.13747  -1.13391  -1.13379  -1.13357  -1.13344
  Beta  occ. eigenvalues --   -1.13313  -1.13274  -1.12135  -1.12097  -1.12050
  Beta  occ. eigenvalues --   -0.17752  -0.14438  -0.10634
  Beta virt. eigenvalues --   -0.07258  -0.06811  -0.05401  -0.04371  -0.02891
  Beta virt. eigenvalues --   -0.02726  -0.01696  -0.01654  -0.01148  -0.00457
  Beta virt. eigenvalues --   -0.00260   0.00077   0.00286   0.00421   0.00556

 Mulliken charges and spin densities:
               1          2
     1  Na   0.014126   0.001756
     2  Na   1.132703   0.056034
     3  Na  -0.873152   0.451646
     4  Na  -0.164257   0.143355
     5  Na  -0.109048   0.244318
     6  Na  -0.317482   0.127413
     7  Na   0.317109  -0.024522
 Sum of Mulliken charges =  -0.00000   1.00000

 Dipole moment (field-independent basis, Debye):
    X=              0.4256    Y=              0.0220    Z=             -0.4220  Tot=              0.5998
 Quadrupole moment (field-independent basis, Debye-Ang):
   XX=            -51.5725   YY=            -76.4730   ZZ=            -70.0233
   XY=             -1.5612   XZ=             -0.3548   YZ=              2.0933

 Normal termination of Gaussian 16 at Fri Dec  8 01:39:02 2023.
