 Gaussian 16, Revision B.01,
 Gaussian 16:  ES64L-G16RevB.01 20-Dec-2017

 -------------------------
 #P B3LYP/6-311+g(d) force
 -------------------------

 -----
 DPGEN
 -----
 Symbolic Z-matrix:
 Charge =  0 Multiplicity = 2

                         Standard orientation:
 ---------------------------------------------------------------------
 Center     Atomic      Atomic             Coordinates (Angstroms)
 Number     Number       Type             X           Y           Z
 ---------------------------------------------------------------------
      1         11           0       -4.488123   -0.860296   -0.761929
      2         11           0       -1.063333   -2.068752    0.285408
      3         11           0        1.594455   -1.887950    1.481873
      4         11           0        3.805269    2.294585   -0.275950
      5         11           0       -3.891784    1.734480   -0.018612
      6         11           0        0.360555    2.387984    0.566902
      7         11           0        3.682961   -1.600051   -1.277694
 ---------------------------------------------------------------------

 SCF Done:  E(UB3LYP) =  -1136.10403432     A.U. after   20 cycles

 The electronic state is 2-A.
 Alpha  occ. eigenvalues --  -38.45270 -38.44912 -38.44821 -38.44383 -38.44034
 Alpha  occ. eigenvalues --  -38.43989 -38.43786  -2.21105  -2.20700  -2.20686
 Alpha  occ. eigenvalues --   -2.20116  -2.19871  -2.19756  -2.19636  -1.14963
 Alpha  occ. eigenvalues --   -1.14742  -1.14721  -1.14358  -1.14328  -1.14311
 Alpha  occ. eigenvalues --   -1.14306  -1.14303  -1.14288  -1.13806  -1.13779
 Alpha  occ. eigenvalues --   -1.13768  -1.13655  -1.13521  -1.13496  -1.13425
 Alpha  occ. eigenvalues --   -1.13405  -1.13367  -1.13283  -1.13271  -1.13252
 Alpha  occ. eigenvalues --   -0.16262  -0.14388  -0.11945  -0.10959
 Alpha virt. eigenvalues --   -0.07098  -0.05440  -0.04253  -0.03706  -0.03488
 Alpha virt. eigenvalues --   -0.02688  -0.01934  -0.01484  -0.01389  -0.00504
 Alpha virt. eigenvalues --   -0.00298  -0.00138   0.00109   0.00439   0.00565

  Beta  occ. eigenvalues --  -38.45260 -38.44817 -38.44794 -38.44406 -38.44003
  Beta  occ. eigenvalues --  -38.43927 -38.43781  -2.21090  -2.20638  -2.20523
  Beta  occ. eigenvalues --   -2.20160  -2.19815  -2.19639  -2.19632  -1.14936
  Beta  occ. eigenvalues --   -1.14734  -1.14702  -1.14274  -1.14266  -1.14257
  Beta  occ. eigenvalues --   -1.14237  -1.14212  -1.14189  -1.13839  -1.13811
  Beta  occ. eigenvalues --   -1.13779  -1.13614  -1.13484  -1.13460  -1.13345
  Beta  occ. eigenvalues --   -1.13323  -1.13294  -1.13272  -1.13267  -1.13229
  Beta  occ. eigenvalues --   -0.15698  -0.13828  -0.11718
  Beta virt. eigenvalues --   -0.07486  -0.06985  -0.04929  -0.03915  -0.03429
  Beta virt. eigenvalues --   -0.03069  -0.02468  -0.01623  -0.01353  -0.01014
  Beta virt. eigenvalues --   -0.00411  -0.00041  -0.00025   0.00274   0.00510

 Mulliken charges and spin densities:
               1          2
     1  Na   0.337516   0.174025
     2  Na  -0.719798   0.089776
     3  Na   0.225322  -0.073441
     4  Na   0.268200  -0.019140
     5  Na  -0.115619   0.040592
     6  Na  -0.234968   0.270366
     7  Na   0.239348   0.517822
 Sum of Mulliken charges =  -0.00000   1.00000

 Dipole moment (field-independent basis, Debye):
    X=             -0.9133    Y=             -0.2280    Z=             -0.3953  Tot=              1.0209
 Quadrupole moment (field-independent basis, Debye-Ang):
   XX=            -59.8504   YY=            -70.3081   ZZ=            -69.8450
   XY=              0.6183   XZ=              0.9668   YZ=              3.2475

 Normal termination of Gaussian 16 at Sun Dec  3 18:40:33 2023.
