 Gaussian 16, Revision B.01,
 Gaussian 16:  ES64L-G16RevB.01 20-Dec-2017

 -------------------------
 #P B3LYP/6-311+g(d) force
 -------------------------

 -----
 DPGEN
 -----
 Symbolic Z-matrix:
 Charge =  0 Multiplicity = 2

                         Standard orientation:
 ---------------------------------------------------------------------
 Center     Atomic      Atomic             Coordinates (Angstroms)
 Number     Number       Type             X           Y           Z
 ---------------------------------------------------------------------
      1         11           0       -3.407808   -0.348728    0.040383
      2         11           0        2.722967   -1.618505    0.426139
      3         11           0       -1.298601    2.639910    0.217264
      4         11           0        2.612724    1.826627   -0.451466
      5         11           0        0.004322   -0.077245   -1.912158
      6         11           0        0.120071    0.056477    1.960828
      7         11           0       -0.753674   -2.478537   -0.280991
 ---------------------------------------------------------------------

 SCF Done:  E(UB3LYP) =  -1136.13463077     A.U. after   19 cycles

 The electronic state is 2-A.
 Alpha  occ. eigenvalues --  -38.44569 -38.44004 -38.43900 -38.43782 -38.43779
 Alpha  occ. eigenvalues --  -38.43306 -38.42891  -2.20362  -2.19804  -2.19726
 Alpha  occ. eigenvalues --   -2.19704  -2.19676  -2.19120  -2.18800  -1.14038
 Alpha  occ. eigenvalues --   -1.14017  -1.14004  -1.13487  -1.13467  -1.13444
 Alpha  occ. eigenvalues --   -1.13422  -1.13413  -1.13375  -1.13364  -1.13351
 Alpha  occ. eigenvalues --   -1.13334  -1.13310  -1.13302  -1.13288  -1.12806
 Alpha  occ. eigenvalues --   -1.12790  -1.12743  -1.12517  -1.12458  -1.12398
 Alpha  occ. eigenvalues --   -0.18448  -0.13081  -0.12034  -0.10989
 Alpha virt. eigenvalues --   -0.06068  -0.05236  -0.04142  -0.03354  -0.02893
 Alpha virt. eigenvalues --   -0.02765  -0.01875  -0.01146  -0.00353  -0.00174
 Alpha virt. eigenvalues --   -0.00031   0.00329   0.00725   0.00804   0.00862

  Beta  occ. eigenvalues --  -38.44571 -38.43994 -38.43891 -38.43701 -38.43697
  Beta  occ. eigenvalues --  -38.43303 -38.42880  -2.20367  -2.19787  -2.19712
  Beta  occ. eigenvalues --   -2.19554  -2.19528  -2.19117  -2.18785  -1.14037
  Beta  occ. eigenvalues --   -1.14016  -1.14006  -1.13465  -1.13446  -1.13435
  Beta  occ. eigenvalues --   -1.13385  -1.13362  -1.13354  -1.13316  -1.13253
  Beta  occ. eigenvalues --   -1.13230  -1.13206  -1.13197  -1.13182  -1.12797
  Beta  occ. eigenvalues --   -1.12779  -1.12741  -1.12499  -1.12427  -1.12387
  Beta  occ. eigenvalues --   -0.17704  -0.12868  -0.11762
  Beta virt. eigenvalues --   -0.07101  -0.06003  -0.05202  -0.04107  -0.02621
  Beta virt. eigenvalues --   -0.02112  -0.01783  -0.01730  -0.01056  -0.00392
  Beta virt. eigenvalues --   -0.00177   0.00074   0.00348   0.00799   0.00849

 Mulliken charges and spin densities:
               1          2
     1  Na  -0.019959  -0.106559
     2  Na   0.178564   0.011488
     3  Na  -0.008149  -0.111066
     4  Na  -0.016042  -0.052527
     5  Na  -0.180826   0.607785
     6  Na  -0.273628   0.667893
     7  Na   0.320039  -0.017014
 Sum of Mulliken charges =  -0.00000   1.00000

 Dipole moment (field-independent basis, Debye):
    X=             -0.0750    Y=              0.0827    Z=              0.0867  Tot=              0.1413
 Quadrupole moment (field-independent basis, Debye-Ang):
   XX=            -52.8185   YY=            -67.4889   ZZ=            -73.1351
   XY=             -0.0011   XZ=             -0.2286   YZ=             -1.0090

 Normal termination of Gaussian 16 at Tue Dec  5 22:22:57 2023.
