 Gaussian 16, Revision B.01,
 Gaussian 16:  ES64L-G16RevB.01 20-Dec-2017

 -------------------------
 #P B3LYP/6-311+g(d) force
 -------------------------

 -----
 DPGEN
 -----
 Symbolic Z-matrix:
 Charge =  0 Multiplicity = 2

                         Standard orientation:
 ---------------------------------------------------------------------
 Center     Atomic      Atomic             Coordinates (Angstroms)
 Number     Number       Type             X           Y           Z
 ---------------------------------------------------------------------
      1         11           0        2.044622   -0.391009    1.910167
      2         11           0       -4.079502   -2.291278   -0.440598
      3         11           0       -5.119763    0.602971    0.141697
      4         11           0       -0.944677    0.097917   -0.027132
      5         11           0        0.391602    2.965903   -0.283046
      6         11           0        2.786739    0.789495   -0.707652
      7         11           0        4.920981   -1.773998   -0.593436
 ---------------------------------------------------------------------

 SCF Done:  E(UB3LYP) =  -1136.11233173     A.U. after   21 cycles

 The electronic state is 2-A.
 Alpha  occ. eigenvalues --  -38.45485 -38.45272 -38.44260 -38.43773 -38.43256
 Alpha  occ. eigenvalues --  -38.43150 -38.42883  -2.21274  -2.21061  -2.20121
 Alpha  occ. eigenvalues --   -2.19630  -2.19199  -2.18937  -2.18757  -1.14956
 Alpha  occ. eigenvalues --   -1.14932  -1.14916  -1.14724  -1.14714  -1.14682
 Alpha  occ. eigenvalues --   -1.13857  -1.13776  -1.13691  -1.13337  -1.13309
 Alpha  occ. eigenvalues --   -1.13237  -1.12925  -1.12878  -1.12791  -1.12605
 Alpha  occ. eigenvalues --   -1.12597  -1.12552  -1.12417  -1.12403  -1.12379
 Alpha  occ. eigenvalues --   -0.16866  -0.14517  -0.11593  -0.09925
 Alpha virt. eigenvalues --   -0.06689  -0.05986  -0.04509  -0.03340  -0.02993
 Alpha virt. eigenvalues --   -0.02333  -0.01644  -0.01550  -0.01065  -0.00945
 Alpha virt. eigenvalues --   -0.00428  -0.00007   0.00332   0.00415   0.00574

  Beta  occ. eigenvalues --  -38.45468 -38.45278 -38.44196 -38.43750 -38.43232
  Beta  occ. eigenvalues --  -38.43133 -38.42846  -2.21241  -2.21073  -2.20005
  Beta  occ. eigenvalues --   -2.19590  -2.19156  -2.18905  -2.18686  -1.14938
  Beta  occ. eigenvalues --   -1.14908  -1.14893  -1.14734  -1.14715  -1.14686
  Beta  occ. eigenvalues --   -1.13782  -1.13690  -1.13603  -1.13314  -1.13252
  Beta  occ. eigenvalues --   -1.13212  -1.12889  -1.12836  -1.12757  -1.12582
  Beta  occ. eigenvalues --   -1.12570  -1.12534  -1.12368  -1.12353  -1.12331
  Beta  occ. eigenvalues --   -0.16278  -0.14353  -0.11323
  Beta virt. eigenvalues --   -0.06704  -0.05976  -0.05772  -0.04249  -0.03180
  Beta virt. eigenvalues --   -0.02799  -0.01937  -0.01457  -0.01131  -0.00921
  Beta virt. eigenvalues --   -0.00636  -0.00116   0.00111   0.00406   0.00537

 Mulliken charges and spin densities:
               1          2
     1  Na   0.210235   0.242964
     2  Na  -0.005297  -0.095574
     3  Na   0.225455   0.116888
     4  Na  -1.633061   0.042985
     5  Na   1.345689   0.296842
     6  Na  -0.608185   0.345043
     7  Na   0.465165   0.050853
 Sum of Mulliken charges =  -0.00000   1.00000

 Dipole moment (field-independent basis, Debye):
    X=             -3.1209    Y=             -0.7434    Z=              0.4267  Tot=              3.2365
 Quadrupole moment (field-independent basis, Debye-Ang):
   XX=            -61.6970   YY=            -61.9178   ZZ=            -71.1271
   XY=             -3.0561   XZ=              1.3212   YZ=              5.8120

 Normal termination of Gaussian 16 at Sat Dec  9 06:05:30 2023.
