 Gaussian 16, Revision B.01,
 Gaussian 16:  ES64L-G16RevB.01 20-Dec-2017

 -------------------------
 #P B3LYP/6-311+g(d) force
 -------------------------

 -----
 DPGEN
 -----
 Symbolic Z-matrix:
 Charge =  0 Multiplicity = 2

                         Standard orientation:
 ---------------------------------------------------------------------
 Center     Atomic      Atomic             Coordinates (Angstroms)
 Number     Number       Type             X           Y           Z
 ---------------------------------------------------------------------
      1         11           0       -0.803701   -2.006975    0.388890
      2         11           0        2.016142   -1.425784    2.255011
      3         11           0       -0.057873    3.701668    0.242589
      4         11           0       -3.080291    2.033803   -0.029120
      5         11           0       -3.773344   -2.138732   -0.571968
      6         11           0        2.891435    1.559903   -0.610928
      7         11           0        2.807632   -1.723882   -1.674473
 ---------------------------------------------------------------------

 SCF Done:  E(UB3LYP) =  -1136.11278163     A.U. after   21 cycles

 The electronic state is 2-A.
 Alpha  occ. eigenvalues --  -38.45298 -38.45012 -38.44898 -38.44352 -38.43953
 Alpha  occ. eigenvalues --  -38.43851 -38.43593  -2.21025  -2.20791  -2.20664
 Alpha  occ. eigenvalues --   -2.20167  -2.19758  -2.19674  -2.19360  -1.14716
 Alpha  occ. eigenvalues --   -1.14698  -1.14643  -1.14463  -1.14446  -1.14414
 Alpha  occ. eigenvalues --   -1.14348  -1.14327  -1.14282  -1.13825  -1.13807
 Alpha  occ. eigenvalues --   -1.13768  -1.13485  -1.13408  -1.13384  -1.13356
 Alpha  occ. eigenvalues --   -1.13345  -1.13267  -1.13033  -1.13024  -1.13005
 Alpha  occ. eigenvalues --   -0.16238  -0.13390  -0.12687  -0.10708
 Alpha virt. eigenvalues --   -0.07142  -0.05881  -0.04484  -0.03176  -0.02882
 Alpha virt. eigenvalues --   -0.02487  -0.01922  -0.01874  -0.01470  -0.00947
 Alpha virt. eigenvalues --   -0.00509  -0.00213   0.00309   0.00349   0.00505

  Beta  occ. eigenvalues --  -38.45297 -38.44968 -38.44877 -38.44254 -38.43925
  Beta  occ. eigenvalues --  -38.43838 -38.43589  -2.21024  -2.20713  -2.20629
  Beta  occ. eigenvalues --   -2.19987  -2.19705  -2.19656  -2.19354  -1.14716
  Beta  occ. eigenvalues --   -1.14698  -1.14636  -1.14409  -1.14387  -1.14356
  Beta  occ. eigenvalues --   -1.14321  -1.14302  -1.14249  -1.13696  -1.13684
  Beta  occ. eigenvalues --   -1.13648  -1.13449  -1.13373  -1.13355  -1.13337
  Beta  occ. eigenvalues --   -1.13334  -1.13227  -1.13028  -1.13020  -1.13000
  Beta  occ. eigenvalues --   -0.15680  -0.12940  -0.12398
  Beta virt. eigenvalues --   -0.07232  -0.06867  -0.05694  -0.04194  -0.02868
  Beta virt. eigenvalues --   -0.02536  -0.01939  -0.01717  -0.01663  -0.01318
  Beta virt. eigenvalues --   -0.00874  -0.00062   0.00041   0.00399   0.00526

 Mulliken charges and spin densities:
               1          2
     1  Na  -1.371764   0.403700
     2  Na   0.946523   0.152089
     3  Na  -0.090556   0.000457
     4  Na   0.136973  -0.008884
     5  Na   0.209308   0.144544
     6  Na  -0.148059   0.161772
     7  Na   0.317574   0.146322
 Sum of Mulliken charges =  -0.00000   1.00000

 Dipole moment (field-independent basis, Debye):
    X=              0.2394    Y=             -0.1987    Z=             -0.2762  Tot=              0.4161
 Quadrupole moment (field-independent basis, Debye-Ang):
   XX=            -57.7089   YY=            -68.0954   ZZ=            -72.4876
   XY=             -0.9860   XZ=              2.7388   YZ=              4.3970

 Normal termination of Gaussian 16 at Sun Dec  3 14:07:52 2023.
