 Gaussian 16, Revision B.01,
 Gaussian 16:  ES64L-G16RevB.01 20-Dec-2017

 -------------------------
 #P B3LYP/6-311+g(d) force
 -------------------------

 -----
 DPGEN
 -----
 Symbolic Z-matrix:
 Charge =  0 Multiplicity = 2

                         Standard orientation:
 ---------------------------------------------------------------------
 Center     Atomic      Atomic             Coordinates (Angstroms)
 Number     Number       Type             X           Y           Z
 ---------------------------------------------------------------------
      1         11           0        0.896123   -1.416160   -1.504151
      2         11           0        1.935926    1.398455    1.632227
      3         11           0       -0.022890   -1.877016    1.938617
      4         11           0       -2.771171   -2.203018   -0.477632
      5         11           0       -1.104697    0.582783   -0.013238
      6         11           0        3.773845    0.397025   -1.137448
      7         11           0       -2.707136    3.117931   -0.438374
 ---------------------------------------------------------------------

 SCF Done:  E(UB3LYP) =  -1136.11824759     A.U. after   22 cycles

 The electronic state is 2-A.
 Alpha  occ. eigenvalues --  -38.45093 -38.44561 -38.44522 -38.44495 -38.44408
 Alpha  occ. eigenvalues --  -38.42833 -38.42284  -2.20891  -2.20385  -2.20367
 Alpha  occ. eigenvalues --   -2.20353  -2.20208  -2.18630  -2.18298  -1.14567
 Alpha  occ. eigenvalues --   -1.14558  -1.14501  -1.14109  -1.14059  -1.14043
 Alpha  occ. eigenvalues --   -1.14031  -1.14020  -1.14003  -1.13997  -1.13972
 Alpha  occ. eigenvalues --   -1.13936  -1.13865  -1.13859  -1.13831  -1.12354
 Alpha  occ. eigenvalues --   -1.12280  -1.12269  -1.11998  -1.11963  -1.11909
 Alpha  occ. eigenvalues --   -0.18083  -0.13275  -0.11585  -0.11222
 Alpha virt. eigenvalues --   -0.06485  -0.05690  -0.04298  -0.03070  -0.03011
 Alpha virt. eigenvalues --   -0.02359  -0.02227  -0.01080  -0.00992  -0.00073
 Alpha virt. eigenvalues --    0.00003   0.00150   0.00309   0.00647   0.00697

  Beta  occ. eigenvalues --  -38.45085 -38.44522 -38.44477 -38.44426 -38.44383
  Beta  occ. eigenvalues --  -38.42836 -38.42271  -2.20877  -2.20302  -2.20296
  Beta  occ. eigenvalues --   -2.20226  -2.20164  -2.18637  -2.18279  -1.14559
  Beta  occ. eigenvalues --   -1.14539  -1.14493  -1.14055  -1.13994  -1.13988
  Beta  occ. eigenvalues --   -1.13957  -1.13955  -1.13943  -1.13926  -1.13904
  Beta  occ. eigenvalues --   -1.13835  -1.13835  -1.13815  -1.13803  -1.12357
  Beta  occ. eigenvalues --   -1.12284  -1.12272  -1.11981  -1.11916  -1.11905
  Beta  occ. eigenvalues --   -0.17346  -0.13014  -0.11254
  Beta virt. eigenvalues --   -0.07587  -0.06367  -0.05180  -0.03946  -0.02829
  Beta virt. eigenvalues --   -0.02310  -0.02138  -0.01763  -0.00977  -0.00583
  Beta virt. eigenvalues --   -0.00032   0.00120   0.00206   0.00403   0.00670

 Mulliken charges and spin densities:
               1          2
     1  Na   1.237067   0.207076
     2  Na   0.831739   0.164377
     3  Na   0.350096   0.355704
     4  Na   1.580743   0.019626
     5  Na  -3.283675   0.368428
     6  Na  -0.491826   0.071127
     7  Na  -0.224144  -0.186338
 Sum of Mulliken charges =  -0.00000   1.00000

 Dipole moment (field-independent basis, Debye):
    X=              0.5978    Y=             -1.5737    Z=              0.2379  Tot=              1.7001
 Quadrupole moment (field-independent basis, Debye-Ang):
   XX=            -56.5224   YY=            -67.2047   ZZ=            -68.3536
   XY=              8.8885   XZ=              1.4116   YZ=              0.6117

 Normal termination of Gaussian 16 at Fri Dec  8 17:44:53 2023.
