 Gaussian 16, Revision B.01,
 Gaussian 16:  ES64L-G16RevB.01 20-Dec-2017

 -------------------------
 #P B3LYP/6-311+g(d) force
 -------------------------

 -----
 DPGEN
 -----
 Symbolic Z-matrix:
 Charge =  0 Multiplicity = 2

                         Standard orientation:
 ---------------------------------------------------------------------
 Center     Atomic      Atomic             Coordinates (Angstroms)
 Number     Number       Type             X           Y           Z
 ---------------------------------------------------------------------
      1         11           0        1.760182   -1.790060    0.153841
      2         11           0        5.075474   -2.529224   -0.118909
      3         11           0        3.068249    1.132652   -0.352348
      4         11           0        1.801730    4.041001    0.014373
      5         11           0       -0.916530    0.302084    0.611139
      6         11           0       -3.906290   -0.823437   -0.057960
      7         11           0       -6.882816   -0.333015   -0.250137
 ---------------------------------------------------------------------

 SCF Done:  E(UB3LYP) =  -1136.11395350     A.U. after   22 cycles

 The electronic state is 2-A.
 Alpha  occ. eigenvalues --  -38.44849 -38.44582 -38.44461 -38.44351 -38.44217
 Alpha  occ. eigenvalues --  -38.43899 -38.43783  -2.20673  -2.20420  -2.20313
 Alpha  occ. eigenvalues --   -2.20121  -2.20066  -2.19698  -2.19621  -1.14344
 Alpha  occ. eigenvalues --   -1.14298  -1.14297  -1.14098  -1.14079  -1.14032
 Alpha  occ. eigenvalues --   -1.14019  -1.13989  -1.13921  -1.13788  -1.13788
 Alpha  occ. eigenvalues --   -1.13758  -1.13750  -1.13736  -1.13676  -1.13351
 Alpha  occ. eigenvalues --   -1.13347  -1.13318  -1.13309  -1.13279  -1.13278
 Alpha  occ. eigenvalues --   -0.16538  -0.14263  -0.12226  -0.11722
 Alpha virt. eigenvalues --   -0.06551  -0.05050  -0.04330  -0.03803  -0.02785
 Alpha virt. eigenvalues --   -0.02693  -0.02268  -0.01717  -0.01357  -0.00902
 Alpha virt. eigenvalues --   -0.00735  -0.00127   0.00107   0.00434   0.00694

  Beta  occ. eigenvalues --  -38.44771 -38.44507 -38.44444 -38.44342 -38.44199
  Beta  occ. eigenvalues --  -38.43861 -38.43786  -2.20529  -2.20286  -2.20283
  Beta  occ. eigenvalues --   -2.20105  -2.20033  -2.19637  -2.19628  -1.14250
  Beta  occ. eigenvalues --   -1.14200  -1.14199  -1.14027  -1.13998  -1.13984
  Beta  occ. eigenvalues --   -1.13973  -1.13932  -1.13868  -1.13777  -1.13775
  Beta  occ. eigenvalues --   -1.13736  -1.13726  -1.13721  -1.13648  -1.13302
  Beta  occ. eigenvalues --   -1.13301  -1.13297  -1.13296  -1.13276  -1.13251
  Beta  occ. eigenvalues --   -0.15888  -0.13600  -0.11789
  Beta virt. eigenvalues --   -0.08405  -0.06123  -0.04674  -0.04077  -0.03600
  Beta virt. eigenvalues --   -0.02540  -0.02457  -0.01808  -0.01517  -0.01203
  Beta virt. eigenvalues --   -0.00543  -0.00338  -0.00021   0.00266   0.00465

 Mulliken charges and spin densities:
               1          2
     1  Na  -0.686877   0.082698
     2  Na   0.882435   0.147432
     3  Na  -0.792726   0.256513
     4  Na   0.731148   0.123531
     5  Na  -0.773678   0.036021
     6  Na  -0.533870   0.291383
     7  Na   1.173568   0.062422
 Sum of Mulliken charges =  -0.00000   1.00000

 Dipole moment (field-independent basis, Debye):
    X=             -0.0265    Y=             -0.1027    Z=              0.0340  Tot=              0.1114
 Quadrupole moment (field-independent basis, Debye-Ang):
   XX=            -49.6725   YY=            -65.5671   ZZ=            -73.8664
   XY=             -5.9978   XZ=             -0.1261   YZ=              0.7655

 Normal termination of Gaussian 16 at Mon Nov 27 04:22:22 2023.
