 Gaussian 16, Revision B.01,
 Gaussian 16:  ES64L-G16RevB.01 20-Dec-2017

 -------------------------
 #P B3LYP/6-311+g(d) force
 -------------------------

 -----
 DPGEN
 -----
 Symbolic Z-matrix:
 Charge =  0 Multiplicity = 2

                         Standard orientation:
 ---------------------------------------------------------------------
 Center     Atomic      Atomic             Coordinates (Angstroms)
 Number     Number       Type             X           Y           Z
 ---------------------------------------------------------------------
      1         11           0        2.938531   -1.319709    0.557780
      2         11           0        5.964332   -1.255983   -0.306651
      3         11           0        3.693854    1.827171    0.030353
      4         11           0        0.122033    2.157317   -0.019360
      5         11           0       -0.705802   -0.859241   -0.381629
      6         11           0       -4.328923   -0.140888    0.217311
      7         11           0       -7.684025   -0.408666   -0.097804
 ---------------------------------------------------------------------

 SCF Done:  E(UB3LYP) =  -1136.11547632     A.U. after   21 cycles

 The electronic state is 2-A.
 Alpha  occ. eigenvalues --  -38.44958 -38.44879 -38.44858 -38.44613 -38.43977
 Alpha  occ. eigenvalues --  -38.43790 -38.43538  -2.20819  -2.20721  -2.20663
 Alpha  occ. eigenvalues --   -2.20431  -2.19821  -2.19555  -2.19303  -1.14529
 Alpha  occ. eigenvalues --   -1.14505  -1.14468  -1.14393  -1.14377  -1.14321
 Alpha  occ. eigenvalues --   -1.14318  -1.14296  -1.14265  -1.14112  -1.14098
 Alpha  occ. eigenvalues --   -1.14068  -1.13478  -1.13470  -1.13448  -1.13213
 Alpha  occ. eigenvalues --   -1.13213  -1.13189  -1.12993  -1.12990  -1.12916
 Alpha  occ. eigenvalues --   -0.17022  -0.13950  -0.12175  -0.11132
 Alpha virt. eigenvalues --   -0.07030  -0.05577  -0.04666  -0.03543  -0.03268
 Alpha virt. eigenvalues --   -0.02643  -0.01970  -0.01598  -0.01363  -0.00859
 Alpha virt. eigenvalues --   -0.00653  -0.00171  -0.00026   0.00348   0.00523

  Beta  occ. eigenvalues --  -38.44931 -38.44850 -38.44802 -38.44593 -38.43935
  Beta  occ. eigenvalues --  -38.43765 -38.43545  -2.20771  -2.20650  -2.20579
  Beta  occ. eigenvalues --   -2.20398  -2.19741  -2.19509  -2.19319  -1.14480
  Beta  occ. eigenvalues --   -1.14470  -1.14437  -1.14312  -1.14301  -1.14297
  Beta  occ. eigenvalues --   -1.14288  -1.14255  -1.14183  -1.14091  -1.14077
  Beta  occ. eigenvalues --   -1.14016  -1.13424  -1.13418  -1.13396  -1.13182
  Beta  occ. eigenvalues --   -1.13182  -1.13161  -1.13004  -1.13002  -1.12912
  Beta  occ. eigenvalues --   -0.16376  -0.13801  -0.11688
  Beta virt. eigenvalues --   -0.07679  -0.06674  -0.05099  -0.04435  -0.03306
  Beta virt. eigenvalues --   -0.02612  -0.02503  -0.01690  -0.01475  -0.01275
  Beta virt. eigenvalues --   -0.00498  -0.00265   0.00041   0.00111   0.00447

 Mulliken charges and spin densities:
               1          2
     1  Na  -0.600744   0.215182
     2  Na   0.778505  -0.001996
     3  Na   0.198653   0.183506
     4  Na  -0.097730   0.294936
     5  Na  -0.598239   0.221721
     6  Na  -0.111464   0.048244
     7  Na   0.431020   0.038407
 Sum of Mulliken charges =  -0.00000   1.00000

 Dipole moment (field-independent basis, Debye):
    X=              3.2402    Y=              0.0968    Z=             -0.2350  Tot=              3.2501
 Quadrupole moment (field-independent basis, Debye-Ang):
   XX=            -54.0251   YY=            -69.1593   ZZ=            -73.1661
   XY=             -3.1783   XZ=             -1.2834   YZ=              0.3636

 Normal termination of Gaussian 16 at Wed Nov 29 03:41:51 2023.
