 Gaussian 16, Revision B.01,
 Gaussian 16:  ES64L-G16RevB.01 20-Dec-2017

 -------------------------
 #P B3LYP/6-311+g(d) force
 -------------------------

 -----
 DPGEN
 -----
 Symbolic Z-matrix:
 Charge =  0 Multiplicity = 2

                         Standard orientation:
 ---------------------------------------------------------------------
 Center     Atomic      Atomic             Coordinates (Angstroms)
 Number     Number       Type             X           Y           Z
 ---------------------------------------------------------------------
      1         11           0       -3.029290    0.439473   -0.380937
      2         11           0       -1.538371   -2.472898   -0.050658
      3         11           0       -0.246946    0.205020   -1.773608
      4         11           0       -0.252038    2.760826    0.613601
      5         11           0        2.552500    1.345015   -0.382245
      6         11           0        2.791433   -1.887150    0.002532
      7         11           0       -0.277288   -0.390286    1.971315
 ---------------------------------------------------------------------

 SCF Done:  E(UB3LYP) =  -1136.13406332     A.U. after   19 cycles

 The electronic state is 2-A.
 Alpha  occ. eigenvalues --  -38.44189 -38.43920 -38.43696 -38.43638 -38.43596
 Alpha  occ. eigenvalues --  -38.43585 -38.42926  -2.20072  -2.19708  -2.19612
 Alpha  occ. eigenvalues --   -2.19598  -2.19474  -2.19466  -2.18802  -1.13792
 Alpha  occ. eigenvalues --   -1.13721  -1.13699  -1.13397  -1.13376  -1.13347
 Alpha  occ. eigenvalues --   -1.13322  -1.13279  -1.13262  -1.13257  -1.13224
 Alpha  occ. eigenvalues --   -1.13220  -1.13137  -1.13126  -1.13125  -1.13121
 Alpha  occ. eigenvalues --   -1.13093  -1.13092  -1.12481  -1.12452  -1.12441
 Alpha  occ. eigenvalues --   -0.18771  -0.13350  -0.12130  -0.11095
 Alpha virt. eigenvalues --   -0.05762  -0.05149  -0.04350  -0.03422  -0.02992
 Alpha virt. eigenvalues --   -0.02702  -0.01579  -0.01003  -0.00314  -0.00188
 Alpha virt. eigenvalues --    0.00042   0.00355   0.00808   0.00863   0.00919

  Beta  occ. eigenvalues --  -38.44174 -38.43924 -38.43606 -38.43589 -38.43579
  Beta  occ. eigenvalues --  -38.43569 -38.42910  -2.20050  -2.19717  -2.19474
  Beta  occ. eigenvalues --   -2.19465  -2.19458  -2.19445  -2.18777  -1.13765
  Beta  occ. eigenvalues --   -1.13699  -1.13675  -1.13405  -1.13372  -1.13352
  Beta  occ. eigenvalues --   -1.13243  -1.13199  -1.13185  -1.13149  -1.13144
  Beta  occ. eigenvalues --   -1.13110  -1.13106  -1.13104  -1.13092  -1.13091
  Beta  occ. eigenvalues --   -1.13085  -1.13060  -1.12461  -1.12430  -1.12412
  Beta  occ. eigenvalues --   -0.18026  -0.13097  -0.11903
  Beta virt. eigenvalues --   -0.07151  -0.05706  -0.05101  -0.04299  -0.02648
  Beta virt. eigenvalues --   -0.02235  -0.01701  -0.01459  -0.00926  -0.00360
  Beta virt. eigenvalues --   -0.00141   0.00123   0.00391   0.00858   0.00900

 Mulliken charges and spin densities:
               1          2
     1  Na   0.393846   0.047024
     2  Na  -0.005359  -0.109453
     3  Na  -0.043060   0.472782
     4  Na  -0.046570   0.034680
     5  Na   0.109825  -0.008843
     6  Na  -0.149726  -0.117161
     7  Na  -0.258956   0.680972
 Sum of Mulliken charges =  -0.00000   1.00000

 Dipole moment (field-independent basis, Debye):
    X=             -0.2793    Y=             -0.2171    Z=             -0.0015  Tot=              0.3538
 Quadrupole moment (field-independent basis, Debye-Ang):
   XX=            -57.5043   YY=            -64.6178   ZZ=            -72.7053
   XY=             -0.6814   XZ=              0.1402   YZ=              0.9791

 Normal termination of Gaussian 16 at Wed Dec  6 00:42:39 2023.
