 Gaussian 16, Revision B.01,
 Gaussian 16:  ES64L-G16RevB.01 20-Dec-2017

 -------------------------
 #P B3LYP/6-311+g(d) force
 -------------------------

 -----
 DPGEN
 -----
 Symbolic Z-matrix:
 Charge =  0 Multiplicity = 2

                         Standard orientation:
 ---------------------------------------------------------------------
 Center     Atomic      Atomic             Coordinates (Angstroms)
 Number     Number       Type             X           Y           Z
 ---------------------------------------------------------------------
      1         11           0        0.510909   -2.334001   -0.642845
      2         11           0        3.506793   -1.899190    0.324573
      3         11           0        3.535648    2.638529   -0.416820
      4         11           0        1.576021    0.679414    0.814768
      5         11           0       -1.367214    0.235917   -0.359735
      6         11           0       -3.759336    2.031476    0.037179
      7         11           0       -4.002822   -1.352146    0.242880
 ---------------------------------------------------------------------

 SCF Done:  E(UB3LYP) =  -1136.10622091     A.U. after   27 cycles

 The electronic state is 2-A.
 Alpha  occ. eigenvalues --  -38.46130 -38.45200 -38.43796 -38.43733 -38.43323
 Alpha  occ. eigenvalues --  -38.42925 -38.42667  -2.21947  -2.21040  -2.19601
 Alpha  occ. eigenvalues --   -2.19580  -2.19367  -2.18892  -2.18557  -1.15625
 Alpha  occ. eigenvalues --   -1.15611  -1.15558  -1.14750  -1.14688  -1.14650
 Alpha  occ. eigenvalues --   -1.13290  -1.13264  -1.13249  -1.13238  -1.13221
 Alpha  occ. eigenvalues --   -1.13209  -1.13050  -1.13026  -1.13012  -1.12581
 Alpha  occ. eigenvalues --   -1.12559  -1.12504  -1.12234  -1.12212  -1.12210
 Alpha  occ. eigenvalues --   -0.17648  -0.14883  -0.11278  -0.10291
 Alpha virt. eigenvalues --   -0.07422  -0.05311  -0.03980  -0.03626  -0.02900
 Alpha virt. eigenvalues --   -0.02639  -0.01752  -0.01370  -0.00758  -0.00158
 Alpha virt. eigenvalues --   -0.00139  -0.00033   0.00170   0.00331   0.00469

  Beta  occ. eigenvalues --  -38.46104 -38.45184 -38.43808 -38.43649 -38.43264
  Beta  occ. eigenvalues --  -38.42899 -38.42656  -2.21900  -2.21013  -2.19602
  Beta  occ. eigenvalues --   -2.19443  -2.19264  -2.18850  -2.18543  -1.15591
  Beta  occ. eigenvalues --   -1.15581  -1.15508  -1.14732  -1.14670  -1.14618
  Beta  occ. eigenvalues --   -1.13305  -1.13254  -1.13229  -1.13164  -1.13141
  Beta  occ. eigenvalues --   -1.13098  -1.12961  -1.12950  -1.12938  -1.12540
  Beta  occ. eigenvalues --   -1.12492  -1.12487  -1.12215  -1.12209  -1.12164
  Beta  occ. eigenvalues --   -0.16930  -0.14334  -0.11147
  Beta virt. eigenvalues --   -0.07251  -0.06663  -0.05097  -0.03720  -0.03144
  Beta virt. eigenvalues --   -0.02717  -0.02078  -0.01414  -0.01310  -0.00460
  Beta virt. eigenvalues --   -0.00100  -0.00013   0.00215   0.00274   0.00466

 Mulliken charges and spin densities:
               1          2
     1  Na   0.933906  -0.143862
     2  Na  -0.314670   0.500393
     3  Na   0.022898  -0.016790
     4  Na   0.708611  -0.041418
     5  Na  -2.554669   0.003384
     6  Na   0.503391   0.423498
     7  Na   0.700533   0.274795
 Sum of Mulliken charges =  -0.00000   1.00000

 Dipole moment (field-independent basis, Debye):
    X=             -2.6351    Y=             -0.0900    Z=             -0.2246  Tot=              2.6462
 Quadrupole moment (field-independent basis, Debye-Ang):
   XX=            -59.9087   YY=            -65.0017   ZZ=            -70.3050
   XY=              3.9682   XZ=             -2.7453   YZ=             -2.2165

 Normal termination of Gaussian 16 at Fri Dec  8 18:06:54 2023.
