 Gaussian 16, Revision B.01,
 Gaussian 16:  ES64L-G16RevB.01 20-Dec-2017

 -------------------------
 #P B3LYP/6-311+g(d) force
 -------------------------

 -----
 DPGEN
 -----
 Symbolic Z-matrix:
 Charge =  0 Multiplicity = 2

                         Standard orientation:
 ---------------------------------------------------------------------
 Center     Atomic      Atomic             Coordinates (Angstroms)
 Number     Number       Type             X           Y           Z
 ---------------------------------------------------------------------
      1         11           0       -2.512790    0.365449   -1.845662
      2         11           0        1.432168    2.060886   -0.407759
      3         11           0       -1.159056    1.704093    1.137093
      4         11           0        0.017520   -1.235250   -0.568363
      5         11           0       -3.289514   -1.365005    0.878245
      6         11           0        2.076389   -0.537141    1.918646
      7         11           0        3.435284   -0.993032   -1.112200
 ---------------------------------------------------------------------

 SCF Done:  E(UB3LYP) =  -1136.12457749     A.U. after   23 cycles

 The electronic state is 2-A.
 Alpha  occ. eigenvalues --  -38.44567 -38.44543 -38.44377 -38.43969 -38.43667
 Alpha  occ. eigenvalues --  -38.42892 -38.42465  -2.20433  -2.20411  -2.20200
 Alpha  occ. eigenvalues --   -2.19802  -2.19604  -2.18790  -2.18374  -1.14129
 Alpha  occ. eigenvalues --   -1.14109  -1.14083  -1.14056  -1.14043  -1.14009
 Alpha  occ. eigenvalues --   -1.13861  -1.13854  -1.13823  -1.13469  -1.13458
 Alpha  occ. eigenvalues --   -1.13439  -1.13336  -1.13279  -1.13202  -1.12511
 Alpha  occ. eigenvalues --   -1.12445  -1.12423  -1.12055  -1.12028  -1.11998
 Alpha  occ. eigenvalues --   -0.18507  -0.14283  -0.10929  -0.10828
 Alpha virt. eigenvalues --   -0.06427  -0.05665  -0.04776  -0.02943  -0.02538
 Alpha virt. eigenvalues --   -0.02320  -0.02192  -0.01084  -0.00810  -0.00289
 Alpha virt. eigenvalues --    0.00206   0.00234   0.00417   0.00481   0.00724

  Beta  occ. eigenvalues --  -38.44528 -38.44496 -38.44356 -38.43958 -38.43644
  Beta  occ. eigenvalues --  -38.42881 -38.42453  -2.20360  -2.20322  -2.20161
  Beta  occ. eigenvalues --   -2.19782  -2.19570  -2.18771  -2.18356  -1.14074
  Beta  occ. eigenvalues --   -1.14046  -1.14034  -1.13995  -1.13989  -1.13944
  Beta  occ. eigenvalues --   -1.13834  -1.13819  -1.13797  -1.13451  -1.13440
  Beta  occ. eigenvalues --   -1.13426  -1.13268  -1.13250  -1.13183  -1.12500
  Beta  occ. eigenvalues --   -1.12419  -1.12405  -1.12046  -1.11992  -1.11983
  Beta  occ. eigenvalues --   -0.17798  -0.14077  -0.10782
  Beta virt. eigenvalues --   -0.07243  -0.06068  -0.04932  -0.04666  -0.02821
  Beta virt. eigenvalues --   -0.02296  -0.01826  -0.01639  -0.00722  -0.00507
  Beta virt. eigenvalues --   -0.00098   0.00254   0.00417   0.00484   0.00558

 Mulliken charges and spin densities:
               1          2
     1  Na   0.197364  -0.206303
     2  Na  -0.177866   0.064965
     3  Na   0.157060   0.425537
     4  Na  -0.687497   0.749424
     5  Na   0.198921   0.032955
     6  Na  -0.174470  -0.040088
     7  Na   0.486489  -0.026490
 Sum of Mulliken charges =  -0.00000   1.00000

 Dipole moment (field-independent basis, Debye):
    X=             -0.1460    Y=             -0.0561    Z=              0.0314  Tot=              0.1595
 Quadrupole moment (field-independent basis, Debye-Ang):
   XX=            -51.1718   YY=            -77.6951   ZZ=            -64.9953
   XY=              0.6028   XZ=             -0.9217   YZ=             -4.2310

 Normal termination of Gaussian 16 at Tue Dec  5 10:45:36 2023.
