 Gaussian 16, Revision B.01,
 Gaussian 16:  ES64L-G16RevB.01 20-Dec-2017

 -------------------------
 #P B3LYP/6-311+g(d) force
 -------------------------

 -----
 DPGEN
 -----
 Symbolic Z-matrix:
 Charge =  0 Multiplicity = 2

                         Standard orientation:
 ---------------------------------------------------------------------
 Center     Atomic      Atomic             Coordinates (Angstroms)
 Number     Number       Type             X           Y           Z
 ---------------------------------------------------------------------
      1         11           0        1.286912   -2.125749   -1.559107
      2         11           0       -3.458340    1.569916    0.051688
      3         11           0        2.546087    2.121041   -0.871841
      4         11           0        2.645862   -0.311367    1.381912
      5         11           0        0.153573    0.959594    0.062382
      6         11           0       -0.835057   -1.154430    1.945481
      7         11           0       -2.339037   -1.059004   -1.010514
 ---------------------------------------------------------------------

 SCF Done:  E(UB3LYP) =  -1136.11698770     A.U. after   22 cycles

 The electronic state is 2-A.
 Alpha  occ. eigenvalues --  -38.44493 -38.44163 -38.44014 -38.43887 -38.43742
 Alpha  occ. eigenvalues --  -38.43355 -38.43188  -2.20385  -2.19989  -2.19931
 Alpha  occ. eigenvalues --   -2.19794  -2.19554  -2.19302  -2.19236  -1.14105
 Alpha  occ. eigenvalues --   -1.14040  -1.13990  -1.13750  -1.13646  -1.13640
 Alpha  occ. eigenvalues --   -1.13608  -1.13602  -1.13557  -1.13489  -1.13410
 Alpha  occ. eigenvalues --   -1.13369  -1.13224  -1.13212  -1.13196  -1.13167
 Alpha  occ. eigenvalues --   -1.12980  -1.12912  -1.12861  -1.12841  -1.12765
 Alpha  occ. eigenvalues --   -0.18667  -0.14019  -0.11333  -0.11234
 Alpha virt. eigenvalues --   -0.06163  -0.05210  -0.04533  -0.03351  -0.02697
 Alpha virt. eigenvalues --   -0.02184  -0.02047  -0.01028  -0.00743   0.00028
 Alpha virt. eigenvalues --    0.00118   0.00307   0.00390   0.00628   0.00790

  Beta  occ. eigenvalues --  -38.44468 -38.44167 -38.43995 -38.43823 -38.43682
  Beta  occ. eigenvalues --  -38.43346 -38.43165  -2.20344  -2.19997  -2.19896
  Beta  occ. eigenvalues --   -2.19678  -2.19442  -2.19272  -2.19217  -1.14075
  Beta  occ. eigenvalues --   -1.13998  -1.13955  -1.13746  -1.13645  -1.13637
  Beta  occ. eigenvalues --   -1.13592  -1.13571  -1.13481  -1.13467  -1.13320
  Beta  occ. eigenvalues --   -1.13291  -1.13187  -1.13140  -1.13119  -1.13095
  Beta  occ. eigenvalues --   -1.12912  -1.12899  -1.12842  -1.12825  -1.12751
  Beta  occ. eigenvalues --   -0.17956  -0.13874  -0.10991
  Beta virt. eigenvalues --   -0.07329  -0.06058  -0.05109  -0.03966  -0.02875
  Beta virt. eigenvalues --   -0.02214  -0.02007  -0.01507  -0.00842  -0.00383
  Beta virt. eigenvalues --    0.00082   0.00189   0.00335   0.00499   0.00687

 Mulliken charges and spin densities:
               1          2
     1  Na  -0.312566   0.308694
     2  Na   0.562019  -0.059249
     3  Na  -0.141876   0.010147
     4  Na   0.363108   0.129828
     5  Na  -1.284202   0.465683
     6  Na   0.400830   0.095000
     7  Na   0.412686   0.049897
 Sum of Mulliken charges =  -0.00000   1.00000

 Dipole moment (field-independent basis, Debye):
    X=             -0.1250    Y=             -0.5272    Z=              0.2775  Tot=              0.6087
 Quadrupole moment (field-independent basis, Debye-Ang):
   XX=            -52.9900   YY=            -72.5064   ZZ=            -67.8976
   XY=             -2.4633   XZ=             -0.0457   YZ=             -0.0255

 Normal termination of Gaussian 16 at Fri Dec  8 00:02:42 2023.
