 Gaussian 16, Revision B.01,
 Gaussian 16:  ES64L-G16RevB.01 20-Dec-2017

 -------------------------
 #P B3LYP/6-311+g(d) force
 -------------------------

 -----
 DPGEN
 -----
 Symbolic Z-matrix:
 Charge =  0 Multiplicity = 2

                         Standard orientation:
 ---------------------------------------------------------------------
 Center     Atomic      Atomic             Coordinates (Angstroms)
 Number     Number       Type             X           Y           Z
 ---------------------------------------------------------------------
      1         11           0       -0.286846   -2.831904   -0.171987
      2         11           0        2.248473    2.236223   -0.172722
      3         11           0        3.120471   -1.273199    0.208025
      4         11           0       -0.060837   -0.150680   -1.485392
      5         11           0       -3.200772   -0.952977    0.052926
      6         11           0       -0.156691    0.012502    1.578971
      7         11           0       -1.663797    2.960034   -0.009820
 ---------------------------------------------------------------------

 SCF Done:  E(UB3LYP) =  -1136.13106567     A.U. after   20 cycles

 The electronic state is 2-A.
 Alpha  occ. eigenvalues --  -38.44464 -38.44197 -38.44126 -38.44082 -38.43484
 Alpha  occ. eigenvalues --  -38.42895 -38.42851  -2.20274  -2.19993  -2.19892
 Alpha  occ. eigenvalues --   -2.19877  -2.19395  -2.18869  -2.18855  -1.13946
 Alpha  occ. eigenvalues --   -1.13930  -1.13917  -1.13673  -1.13661  -1.13623
 Alpha  occ. eigenvalues --   -1.13571  -1.13547  -1.13546  -1.13534  -1.13529
 Alpha  occ. eigenvalues --   -1.13522  -1.13157  -1.13055  -1.12993  -1.12696
 Alpha  occ. eigenvalues --   -1.12500  -1.12486  -1.12467  -1.12462  -1.12437
 Alpha  occ. eigenvalues --   -0.18492  -0.12990  -0.12473  -0.09738
 Alpha virt. eigenvalues --   -0.05967  -0.05659  -0.04968  -0.02781  -0.02521
 Alpha virt. eigenvalues --   -0.01915  -0.01679  -0.01546  -0.00814  -0.00628
 Alpha virt. eigenvalues --    0.00040   0.00310   0.00716   0.00761   0.00819

  Beta  occ. eigenvalues --  -38.44459 -38.44192 -38.44127 -38.44077 -38.43470
  Beta  occ. eigenvalues --  -38.42825 -38.42782  -2.20270  -2.19986  -2.19896
  Beta  occ. eigenvalues --   -2.19871  -2.19375  -2.18744  -2.18729  -1.13930
  Beta  occ. eigenvalues --   -1.13926  -1.13908  -1.13660  -1.13647  -1.13621
  Beta  occ. eigenvalues --   -1.13560  -1.13549  -1.13536  -1.13528  -1.13523
  Beta  occ. eigenvalues --   -1.13520  -1.13138  -1.13006  -1.12983  -1.12606
  Beta  occ. eigenvalues --   -1.12410  -1.12396  -1.12374  -1.12366  -1.12347
  Beta  occ. eigenvalues --   -0.17800  -0.12750  -0.12236
  Beta virt. eigenvalues --   -0.05958  -0.05936  -0.05608  -0.04930  -0.02064
  Beta virt. eigenvalues --   -0.01856  -0.01781  -0.01513  -0.00882  -0.00716
  Beta virt. eigenvalues --   -0.00650   0.00188   0.00361   0.00733   0.00773

 Mulliken charges and spin densities:
               1          2
     1  Na   0.465943   0.041447
     2  Na  -0.015653  -0.096006
     3  Na   0.080712  -0.015076
     4  Na  -0.246036   0.540117
     5  Na   0.158644  -0.100300
     6  Na  -0.332881   0.786409
     7  Na  -0.110728  -0.156591
 Sum of Mulliken charges =  -0.00000   1.00000

 Dipole moment (field-independent basis, Debye):
    X=             -0.1660    Y=              0.1956    Z=              0.0388  Tot=              0.2595
 Quadrupole moment (field-independent basis, Debye-Ang):
   XX=            -50.9346   YY=            -58.0532   ZZ=            -79.7519
   XY=             -0.0627   XZ=              0.2932   YZ=             -0.5125

 Normal termination of Gaussian 16 at Fri Dec  8 01:22:53 2023.
