 Gaussian 16, Revision B.01,
 Gaussian 16:  ES64L-G16RevB.01 20-Dec-2017

 -------------------------
 #P B3LYP/6-311+g(d) force
 -------------------------

 -----
 DPGEN
 -----
 Symbolic Z-matrix:
 Charge =  0 Multiplicity = 2

                         Standard orientation:
 ---------------------------------------------------------------------
 Center     Atomic      Atomic             Coordinates (Angstroms)
 Number     Number       Type             X           Y           Z
 ---------------------------------------------------------------------
      1         11           0       -1.402584   -2.825274    0.000420
      2         11           0        2.585531   -1.960078   -0.367247
      3         11           0       -0.626603    3.083332   -0.607730
      4         11           0       -3.306831    0.232138   -0.065125
      5         11           0       -0.235881    0.232857    2.053329
      6         11           0        0.153722   -0.132775   -1.384735
      7         11           0        2.832647    1.369800    0.371088
 ---------------------------------------------------------------------

 SCF Done:  E(UB3LYP) =  -1136.13508252     A.U. after   19 cycles

 The electronic state is 2-A.
 Alpha  occ. eigenvalues --  -38.44539 -38.44088 -38.43828 -38.43747 -38.43572
 Alpha  occ. eigenvalues --  -38.43482 -38.42940  -2.20327  -2.19909  -2.19656
 Alpha  occ. eigenvalues --   -2.19553  -2.19436  -2.19285  -2.18925  -1.14008
 Alpha  occ. eigenvalues --   -1.13983  -1.13962  -1.13580  -1.13578  -1.13548
 Alpha  occ. eigenvalues --   -1.13353  -1.13306  -1.13284  -1.13238  -1.13221
 Alpha  occ. eigenvalues --   -1.13182  -1.13115  -1.13061  -1.13044  -1.12972
 Alpha  occ. eigenvalues --   -1.12934  -1.12918  -1.12627  -1.12556  -1.12553
 Alpha  occ. eigenvalues --   -0.18175  -0.13041  -0.12220  -0.10360
 Alpha virt. eigenvalues --   -0.05909  -0.05364  -0.04894  -0.03104  -0.02688
 Alpha virt. eigenvalues --   -0.02245  -0.01758  -0.01322  -0.00705  -0.00612
 Alpha virt. eigenvalues --   -0.00010   0.00326   0.00739   0.00808   0.00820

  Beta  occ. eigenvalues --  -38.44537 -38.44080 -38.43822 -38.43746 -38.43478
  Beta  occ. eigenvalues --  -38.43465 -38.42893  -2.20326  -2.19896  -2.19646
  Beta  occ. eigenvalues --   -2.19553  -2.19262  -2.19254  -2.18839  -1.13994
  Beta  occ. eigenvalues --   -1.13984  -1.13960  -1.13574  -1.13547  -1.13543
  Beta  occ. eigenvalues --   -1.13339  -1.13292  -1.13279  -1.13234  -1.13213
  Beta  occ. eigenvalues --   -1.13181  -1.12998  -1.12946  -1.12939  -1.12915
  Beta  occ. eigenvalues --   -1.12909  -1.12897  -1.12557  -1.12496  -1.12489
  Beta  occ. eigenvalues --   -0.17502  -0.12847  -0.11945
  Beta virt. eigenvalues --   -0.06539  -0.05864  -0.05304  -0.04800  -0.02384
  Beta virt. eigenvalues --   -0.02024  -0.01667  -0.01273  -0.01189  -0.00723
  Beta virt. eigenvalues --   -0.00637   0.00144   0.00370   0.00774   0.00829

 Mulliken charges and spin densities:
               1          2
     1  Na  -0.011402  -0.043089
     2  Na   0.139636  -0.019920
     3  Na  -0.008667   0.043350
     4  Na   0.122729  -0.029793
     5  Na  -0.290410   0.690354
     6  Na  -0.145382   0.270667
     7  Na   0.193496   0.088430
 Sum of Mulliken charges =  -0.00000   1.00000

 Dipole moment (field-independent basis, Debye):
    X=             -0.1832    Y=             -0.0686    Z=              0.1920  Tot=              0.2741
 Quadrupole moment (field-independent basis, Debye-Ang):
   XX=            -53.8878   YY=            -61.1568   ZZ=            -76.6360
   XY=              0.2650   XZ=              0.7366   YZ=             -0.5040

 Normal termination of Gaussian 16 at Fri Dec  8 03:28:42 2023.
