 Gaussian 16, Revision B.01,
 Gaussian 16:  ES64L-G16RevB.01 20-Dec-2017

 -------------------------
 #P B3LYP/6-311+g(d) force
 -------------------------

 -----
 DPGEN
 -----
 Symbolic Z-matrix:
 Charge =  0 Multiplicity = 2

                         Standard orientation:
 ---------------------------------------------------------------------
 Center     Atomic      Atomic             Coordinates (Angstroms)
 Number     Number       Type             X           Y           Z
 ---------------------------------------------------------------------
      1         11           0        1.927134   -1.880988   -1.388771
      2         11           0       -3.051515   -1.155668    1.349255
      3         11           0       -2.309862    1.903471   -0.343356
      4         11           0       -1.362239   -1.083244   -1.543596
      5         11           0        3.766980    0.209722    1.241630
      6         11           0        0.041136   -0.259826    1.537430
      7         11           0        0.988366    2.266533   -0.852591
 ---------------------------------------------------------------------

 SCF Done:  E(UB3LYP) =  -1136.12730600     A.U. after   25 cycles

 The electronic state is 2-A.
 Alpha  occ. eigenvalues --  -38.44953 -38.44305 -38.44047 -38.43924 -38.43875
 Alpha  occ. eigenvalues --  -38.43179 -38.42879  -2.20723  -2.20200  -2.19857
 Alpha  occ. eigenvalues --   -2.19837  -2.19748  -2.19052  -2.18694  -1.14393
 Alpha  occ. eigenvalues --   -1.14369  -1.14341  -1.13907  -1.13847  -1.13839
 Alpha  occ. eigenvalues --   -1.13569  -1.13516  -1.13509  -1.13485  -1.13473
 Alpha  occ. eigenvalues --   -1.13460  -1.13417  -1.13379  -1.13362  -1.12742
 Alpha  occ. eigenvalues --   -1.12716  -1.12675  -1.12381  -1.12370  -1.12311
 Alpha  occ. eigenvalues --   -0.18280  -0.13730  -0.11616  -0.11147
 Alpha virt. eigenvalues --   -0.06406  -0.05097  -0.04817  -0.03306  -0.02727
 Alpha virt. eigenvalues --   -0.02393  -0.02275  -0.01034  -0.00843  -0.00149
 Alpha virt. eigenvalues --    0.00160   0.00247   0.00311   0.00530   0.00729

  Beta  occ. eigenvalues --  -38.44919 -38.44269 -38.44000 -38.43872 -38.43844
  Beta  occ. eigenvalues --  -38.43175 -38.42880  -2.20658  -2.20135  -2.19775
  Beta  occ. eigenvalues --   -2.19745  -2.19692  -2.19045  -2.18697  -1.14344
  Beta  occ. eigenvalues --   -1.14326  -1.14302  -1.13852  -1.13806  -1.13785
  Beta  occ. eigenvalues --   -1.13497  -1.13461  -1.13453  -1.13423  -1.13407
  Beta  occ. eigenvalues --   -1.13386  -1.13366  -1.13341  -1.13320  -1.12729
  Beta  occ. eigenvalues --   -1.12713  -1.12667  -1.12386  -1.12363  -1.12310
  Beta  occ. eigenvalues --   -0.17641  -0.13413  -0.10937
  Beta virt. eigenvalues --   -0.07750  -0.06134  -0.04842  -0.04488  -0.03006
  Beta virt. eigenvalues --   -0.02181  -0.02063  -0.01690  -0.00787  -0.00612
  Beta virt. eigenvalues --   -0.00057   0.00226   0.00373   0.00418   0.00620

 Mulliken charges and spin densities:
               1          2
     1  Na  -0.117211   0.094064
     2  Na   1.097921   0.025189
     3  Na  -0.017472  -0.045797
     4  Na  -0.064670   0.337163
     5  Na   0.774683   0.152915
     6  Na  -1.391308   0.424275
     7  Na  -0.281943   0.012192
 Sum of Mulliken charges =  -0.00000   1.00000

 Dipole moment (field-independent basis, Debye):
    X=              0.4306    Y=             -0.2296    Z=              0.3244  Tot=              0.5860
 Quadrupole moment (field-independent basis, Debye-Ang):
   XX=            -49.0668   YY=            -77.1996   ZZ=            -67.8552
   XY=              0.6562   XZ=              0.3843   YZ=              1.6588

 Normal termination of Gaussian 16 at Wed Dec  6 00:41:39 2023.
