 Gaussian 16, Revision B.01,
 Gaussian 16:  ES64L-G16RevB.01 20-Dec-2017

 -------------------------
 #P B3LYP/6-311+g(d) force
 -------------------------

 -----
 DPGEN
 -----
 Symbolic Z-matrix:
 Charge =  0 Multiplicity = 2

                         Standard orientation:
 ---------------------------------------------------------------------
 Center     Atomic      Atomic             Coordinates (Angstroms)
 Number     Number       Type             X           Y           Z
 ---------------------------------------------------------------------
      1         11           0       -0.073047    0.340006    1.829780
      2         11           0        0.272881   -0.348724   -1.648720
      3         11           0       -1.826117    2.488698   -0.210678
      4         11           0        2.471752    2.300687   -0.204067
      5         11           0        2.659605   -1.481476    0.287754
      6         11           0       -3.047888   -0.544147    0.033499
      7         11           0       -0.457185   -2.755043   -0.087568
 ---------------------------------------------------------------------

 SCF Done:  E(UB3LYP) =  -1136.13480817     A.U. after   20 cycles

 The electronic state is 2-A.
 Alpha  occ. eigenvalues --  -38.44134 -38.44057 -38.43938 -38.43866 -38.43211
 Alpha  occ. eigenvalues --  -38.43164 -38.43144  -2.19912  -2.19903  -2.19763
 Alpha  occ. eigenvalues --   -2.19725  -2.19151  -2.19128  -2.19066  -1.13602
 Alpha  occ. eigenvalues --   -1.13580  -1.13578  -1.13557  -1.13552  -1.13530
 Alpha  occ. eigenvalues --   -1.13469  -1.13435  -1.13412  -1.13392  -1.13380
 Alpha  occ. eigenvalues --   -1.13340  -1.12968  -1.12831  -1.12786  -1.12765
 Alpha  occ. eigenvalues --   -1.12759  -1.12742  -1.12701  -1.12684  -1.12662
 Alpha  occ. eigenvalues --   -0.18691  -0.13163  -0.12414  -0.10389
 Alpha virt. eigenvalues --   -0.05814  -0.05467  -0.04638  -0.03155  -0.02783
 Alpha virt. eigenvalues --   -0.02181  -0.01590  -0.01330  -0.00571  -0.00346
 Alpha virt. eigenvalues --    0.00019   0.00350   0.00770   0.00829   0.00883

  Beta  occ. eigenvalues --  -38.44132 -38.44049 -38.43935 -38.43862 -38.43135
  Beta  occ. eigenvalues --  -38.43131 -38.43097  -2.19903  -2.19898  -2.19759
  Beta  occ. eigenvalues --   -2.19721  -2.19060  -2.19022  -2.18980  -1.13594
  Beta  occ. eigenvalues --   -1.13563  -1.13557  -1.13553  -1.13544  -1.13528
  Beta  occ. eigenvalues --   -1.13470  -1.13419  -1.13404  -1.13387  -1.13356
  Beta  occ. eigenvalues --   -1.13340  -1.12914  -1.12740  -1.12698  -1.12693
  Beta  occ. eigenvalues --   -1.12677  -1.12660  -1.12642  -1.12635  -1.12603
  Beta  occ. eigenvalues --   -0.17965  -0.12939  -0.12177
  Beta virt. eigenvalues --   -0.06515  -0.05815  -0.05396  -0.04611  -0.02375
  Beta virt. eigenvalues --   -0.02043  -0.01507  -0.01298  -0.01127  -0.00616
  Beta virt. eigenvalues --   -0.00387   0.00156   0.00380   0.00792   0.00861

 Mulliken charges and spin densities:
               1          2
     1  Na  -0.335427   0.626541
     2  Na  -0.356465   0.613837
     3  Na  -0.010242  -0.112990
     4  Na  -0.127043  -0.133957
     5  Na   0.188705  -0.029613
     6  Na   0.176494  -0.010442
     7  Na   0.463979   0.046624
 Sum of Mulliken charges =  -0.00000   1.00000

 Dipole moment (field-independent basis, Debye):
    X=              0.1711    Y=              0.2897    Z=              0.0947  Tot=              0.3496
 Quadrupole moment (field-independent basis, Debye-Ang):
   XX=            -55.2194   YY=            -60.9307   ZZ=            -76.1749
   XY=              0.0244   XZ=              0.7550   YZ=             -1.7423

 Normal termination of Gaussian 16 at Sat Dec  9 07:23:07 2023.
