 Gaussian 16, Revision B.01,
 Gaussian 16:  ES64L-G16RevB.01 20-Dec-2017

 -------------------------
 #P B3LYP/6-311+g(d) force
 -------------------------

 -----
 DPGEN
 -----
 Symbolic Z-matrix:
 Charge =  0 Multiplicity = 2

                         Standard orientation:
 ---------------------------------------------------------------------
 Center     Atomic      Atomic             Coordinates (Angstroms)
 Number     Number       Type             X           Y           Z
 ---------------------------------------------------------------------
      1         11           0       -0.686422   -2.230789   -0.845126
      2         11           0        2.341905    2.281703    0.553869
      3         11           0       -1.159030    1.784686   -1.568081
      4         11           0        2.449506   -0.648830   -1.820248
      5         11           0       -1.183806    0.577623    2.200103
      6         11           0        1.644390   -1.691501    1.664732
      7         11           0       -3.406542   -0.072891   -0.185250
 ---------------------------------------------------------------------

 SCF Done:  E(UB3LYP) =  -1136.12622812     A.U. after   21 cycles

 The electronic state is 2-A.
 Alpha  occ. eigenvalues --  -38.44917 -38.44663 -38.44208 -38.44026 -38.43941
 Alpha  occ. eigenvalues --  -38.43501 -38.43204  -2.20743  -2.20450  -2.20008
 Alpha  occ. eigenvalues --   -2.19835  -2.19801  -2.19251  -2.19035  -1.14401
 Alpha  occ. eigenvalues --   -1.14386  -1.14369  -1.14132  -1.14095  -1.14066
 Alpha  occ. eigenvalues --   -1.13692  -1.13673  -1.13647  -1.13516  -1.13477
 Alpha  occ. eigenvalues --   -1.13473  -1.13472  -1.13449  -1.13433  -1.12924
 Alpha  occ. eigenvalues --   -1.12911  -1.12902  -1.12720  -1.12702  -1.12659
 Alpha  occ. eigenvalues --   -0.17727  -0.13193  -0.11907  -0.11196
 Alpha virt. eigenvalues --   -0.05649  -0.05405  -0.05086  -0.03427  -0.03329
 Alpha virt. eigenvalues --   -0.03126  -0.01399  -0.00824  -0.00639  -0.00328
 Alpha virt. eigenvalues --    0.00135   0.00222   0.00417   0.00477   0.00626

  Beta  occ. eigenvalues --  -38.44840 -38.44626 -38.44182 -38.44000 -38.43938
  Beta  occ. eigenvalues --  -38.43501 -38.43186  -2.20602  -2.20381  -2.19961
  Beta  occ. eigenvalues --   -2.19798  -2.19789  -2.19253  -2.19003  -1.14306
  Beta  occ. eigenvalues --   -1.14285  -1.14265  -1.14076  -1.14053  -1.14018
  Beta  occ. eigenvalues --   -1.13663  -1.13635  -1.13613  -1.13480  -1.13457
  Beta  occ. eigenvalues --   -1.13448  -1.13444  -1.13432  -1.13427  -1.12917
  Beta  occ. eigenvalues --   -1.12913  -1.12903  -1.12697  -1.12666  -1.12639
  Beta  occ. eigenvalues --   -0.16959  -0.13012  -0.11075
  Beta virt. eigenvalues --   -0.08063  -0.05377  -0.05024  -0.04689  -0.03167
  Beta virt. eigenvalues --   -0.02704  -0.02420  -0.01357  -0.00601  -0.00345
  Beta virt. eigenvalues --   -0.00152   0.00214   0.00339   0.00447   0.00584

 Mulliken charges and spin densities:
               1          2
     1  Na  -0.232225   0.228180
     2  Na  -0.107910  -0.029290
     3  Na  -0.293314   0.165840
     4  Na   0.106944   0.132233
     5  Na  -0.148925   0.319325
     6  Na   0.197091   0.146192
     7  Na   0.478339   0.037520
 Sum of Mulliken charges =  -0.00000   1.00000

 Dipole moment (field-independent basis, Debye):
    X=             -0.2836    Y=             -0.1302    Z=             -0.0013  Tot=              0.3121
 Quadrupole moment (field-independent basis, Debye-Ang):
   XX=            -58.8727   YY=            -76.1431   ZZ=            -62.7660
   XY=             -1.0801   XZ=             -0.1308   YZ=              1.3019

 Normal termination of Gaussian 16 at Sun Dec  3 17:34:35 2023.
