 Gaussian 16, Revision B.01,
 Gaussian 16:  ES64L-G16RevB.01 20-Dec-2017

 -------------------------
 #P B3LYP/6-311+g(d) force
 -------------------------

 -----
 DPGEN
 -----
 Symbolic Z-matrix:
 Charge =  0 Multiplicity = 2

                         Standard orientation:
 ---------------------------------------------------------------------
 Center     Atomic      Atomic             Coordinates (Angstroms)
 Number     Number       Type             X           Y           Z
 ---------------------------------------------------------------------
      1         11           0       -0.690436    2.844757    0.001649
      2         11           0        3.414521    0.780881   -0.577438
      3         11           0        2.457197   -2.145710    0.599651
      4         11           0        0.160103    0.273465    1.961855
      5         11           0       -2.510757   -2.212341   -0.586533
      6         11           0        0.262141    0.116608   -1.673589
      7         11           0       -3.092770    0.342341    0.274405
 ---------------------------------------------------------------------

 SCF Done:  E(UB3LYP) =  -1136.12322414     A.U. after   21 cycles

 The electronic state is 2-A.
 Alpha  occ. eigenvalues --  -38.45064 -38.44343 -38.44140 -38.44050 -38.43887
 Alpha  occ. eigenvalues --  -38.43322 -38.42674  -2.20877  -2.20260  -2.19958
 Alpha  occ. eigenvalues --   -2.19944  -2.19768  -2.19189  -2.18538  -1.14550
 Alpha  occ. eigenvalues --   -1.14525  -1.14518  -1.14055  -1.13912  -1.13872
 Alpha  occ. eigenvalues --   -1.13637  -1.13620  -1.13613  -1.13601  -1.13587
 Alpha  occ. eigenvalues --   -1.13565  -1.13440  -1.13409  -1.13375  -1.12884
 Alpha  occ. eigenvalues --   -1.12811  -1.12798  -1.12215  -1.12201  -1.12180
 Alpha  occ. eigenvalues --   -0.18269  -0.13906  -0.11614  -0.10912
 Alpha virt. eigenvalues --   -0.06400  -0.05430  -0.04235  -0.03497  -0.02721
 Alpha virt. eigenvalues --   -0.02547  -0.02244  -0.01161  -0.00427  -0.00290
 Alpha virt. eigenvalues --   -0.00111   0.00267   0.00581   0.00659   0.00774

  Beta  occ. eigenvalues --  -38.45046 -38.44342 -38.44121 -38.43991 -38.43803
  Beta  occ. eigenvalues --  -38.43319 -38.42675  -2.20848  -2.20261  -2.19923
  Beta  occ. eigenvalues --   -2.19837  -2.19613  -2.19185  -2.18542  -1.14519
  Beta  occ. eigenvalues --   -1.14502  -1.14496  -1.14058  -1.13896  -1.13875
  Beta  occ. eigenvalues --   -1.13595  -1.13589  -1.13568  -1.13557  -1.13514
  Beta  occ. eigenvalues --   -1.13480  -1.13338  -1.13305  -1.13256  -1.12884
  Beta  occ. eigenvalues --   -1.12801  -1.12793  -1.12218  -1.12200  -1.12168
  Beta  occ. eigenvalues --   -0.17583  -0.13688  -0.11398
  Beta virt. eigenvalues --   -0.07093  -0.06231  -0.05252  -0.04071  -0.02964
  Beta virt. eigenvalues --   -0.02180  -0.01975  -0.01658  -0.01010  -0.00394
  Beta virt. eigenvalues --   -0.00279   0.00035   0.00323   0.00737   0.00740

 Mulliken charges and spin densities:
               1          2
     1  Na  -0.085365  -0.018560
     2  Na   0.134150   0.022692
     3  Na  -0.102601   0.132938
     4  Na  -0.100896   0.442462
     5  Na  -0.021014   0.004638
     6  Na   0.004645   0.397959
     7  Na   0.171082   0.017871
 Sum of Mulliken charges =  -0.00000   1.00000

 Dipole moment (field-independent basis, Debye):
    X=              1.1503    Y=              0.2780    Z=              0.0721  Tot=              1.1856
 Quadrupole moment (field-independent basis, Debye-Ang):
   XX=            -56.1636   YY=            -66.6664   ZZ=            -73.6158
   XY=             -1.2321   XZ=             -1.2828   YZ=             -0.6195

 Normal termination of Gaussian 16 at Tue Dec  5 17:46:24 2023.
