 Gaussian 16, Revision B.01,
 Gaussian 16:  ES64L-G16RevB.01 20-Dec-2017

 -------------------------
 #P B3LYP/6-311+g(d) force
 -------------------------

 -----
 DPGEN
 -----
 Symbolic Z-matrix:
 Charge =  0 Multiplicity = 2

                         Standard orientation:
 ---------------------------------------------------------------------
 Center     Atomic      Atomic             Coordinates (Angstroms)
 Number     Number       Type             X           Y           Z
 ---------------------------------------------------------------------
      1         11           0        4.693553    0.732623   -0.642891
      2         11           0        2.294920   -1.056953   -1.224838
      3         11           0        0.708041    1.690305    0.907547
      4         11           0       -2.471497    2.477231   -0.071595
      5         11           0       -4.071124   -0.328485   -0.946683
      6         11           0       -1.375600   -2.100172   -0.448327
      7         11           0        0.221708   -1.414549    2.426786
 ---------------------------------------------------------------------

 SCF Done:  E(UB3LYP) =  -1136.11596868     A.U. after   23 cycles

 The electronic state is 2-A.
 Alpha  occ. eigenvalues --  -38.44914 -38.44589 -38.44303 -38.44174 -38.44128
 Alpha  occ. eigenvalues --  -38.43613 -38.43517  -2.20739  -2.20425  -2.20128
 Alpha  occ. eigenvalues --   -2.19983  -2.19944  -2.19456  -2.19319  -1.14418
 Alpha  occ. eigenvalues --   -1.14387  -1.14348  -1.14129  -1.14093  -1.14049
 Alpha  occ. eigenvalues --   -1.13802  -1.13780  -1.13755  -1.13643  -1.13631
 Alpha  occ. eigenvalues --   -1.13611  -1.13605  -1.13602  -1.13566  -1.13141
 Alpha  occ. eigenvalues --   -1.13113  -1.13080  -1.12994  -1.12986  -1.12958
 Alpha  occ. eigenvalues --   -0.17196  -0.13845  -0.12000  -0.11495
 Alpha virt. eigenvalues --   -0.06602  -0.05428  -0.04520  -0.03315  -0.03099
 Alpha virt. eigenvalues --   -0.02547  -0.02385  -0.01409  -0.00896  -0.00499
 Alpha virt. eigenvalues --   -0.00073   0.00023   0.00358   0.00468   0.00741

  Beta  occ. eigenvalues --  -38.44834 -38.44569 -38.44262 -38.44157 -38.44094
  Beta  occ. eigenvalues --  -38.43590 -38.43505  -2.20595  -2.20387  -2.20053
  Beta  occ. eigenvalues --   -2.19952  -2.19881  -2.19414  -2.19301  -1.14322
  Beta  occ. eigenvalues --   -1.14281  -1.14240  -1.14102  -1.14072  -1.14016
  Beta  occ. eigenvalues --   -1.13743  -1.13730  -1.13709  -1.13616  -1.13608
  Beta  occ. eigenvalues --   -1.13589  -1.13566  -1.13551  -1.13527  -1.13115
  Beta  occ. eigenvalues --   -1.13090  -1.13035  -1.12980  -1.12972  -1.12933
  Beta  occ. eigenvalues --   -0.16505  -0.13365  -0.11354
  Beta virt. eigenvalues --   -0.08303  -0.06190  -0.05009  -0.04145  -0.03040
  Beta virt. eigenvalues --   -0.02598  -0.02364  -0.02049  -0.01136  -0.00685
  Beta virt. eigenvalues --   -0.00326   0.00054   0.00068   0.00512   0.00586

 Mulliken charges and spin densities:
               1          2
     1  Na   0.484215  -0.036706
     2  Na  -0.214275   0.069231
     3  Na  -0.744133   0.601484
     4  Na   0.209385  -0.147806
     5  Na  -0.050365   0.203775
     6  Na  -0.038233   0.271733
     7  Na   0.353404   0.038289
 Sum of Mulliken charges =  -0.00000   1.00000

 Dipole moment (field-independent basis, Debye):
    X=              0.6015    Y=             -0.3253    Z=              0.5283  Tot=              0.8642
 Quadrupole moment (field-independent basis, Debye-Ang):
   XX=            -60.7587   YY=            -71.9494   ZZ=            -67.0449
   XY=              3.6087   XZ=              2.9845   YZ=              2.9491

 Normal termination of Gaussian 16 at Sun Dec  3 23:56:45 2023.
