 Gaussian 16, Revision B.01,
 Gaussian 16:  ES64L-G16RevB.01 20-Dec-2017

 -------------------------
 #P B3LYP/6-311+g(d) force
 -------------------------

 -----
 DPGEN
 -----
 Symbolic Z-matrix:
 Charge =  0 Multiplicity = 2

                         Standard orientation:
 ---------------------------------------------------------------------
 Center     Atomic      Atomic             Coordinates (Angstroms)
 Number     Number       Type             X           Y           Z
 ---------------------------------------------------------------------
      1         11           0       -1.507446    1.301295   -1.182816
      2         11           0        1.837897    0.368903   -1.160646
      3         11           0       -0.152723   -0.110158    2.033361
      4         11           0       -0.365284   -1.709507   -1.289076
      5         11           0       -4.129534   -0.869915    0.525135
      6         11           0        1.158549    3.084889    0.517034
      7         11           0        3.158540   -2.065508    0.557008
 ---------------------------------------------------------------------

 SCF Done:  E(UB3LYP) =  -1136.12486810     A.U. after   22 cycles

 The electronic state is 2-A.
 Alpha  occ. eigenvalues --  -38.44844 -38.44717 -38.44050 -38.43931 -38.43622
 Alpha  occ. eigenvalues --  -38.43194 -38.42910  -2.20656  -2.20453  -2.19950
 Alpha  occ. eigenvalues --   -2.19724  -2.19510  -2.19184  -2.18741  -1.14339
 Alpha  occ. eigenvalues --   -1.14288  -1.14265  -1.14131  -1.14122  -1.14072
 Alpha  occ. eigenvalues --   -1.13713  -1.13600  -1.13536  -1.13415  -1.13377
 Alpha  occ. eigenvalues --   -1.13350  -1.13231  -1.13174  -1.13091  -1.12908
 Alpha  occ. eigenvalues --   -1.12841  -1.12776  -1.12418  -1.12393  -1.12374
 Alpha  occ. eigenvalues --   -0.18327  -0.12775  -0.11806  -0.11260
 Alpha virt. eigenvalues --   -0.06609  -0.04898  -0.04145  -0.03253  -0.02885
 Alpha virt. eigenvalues --   -0.02747  -0.02138  -0.01346  -0.00688  -0.00104
 Alpha virt. eigenvalues --    0.00163   0.00249   0.00467   0.00678   0.00753

  Beta  occ. eigenvalues --  -38.44767 -38.44711 -38.44002 -38.43926 -38.43590
  Beta  occ. eigenvalues --  -38.43164 -38.42907  -2.20512  -2.20443  -2.19867
  Beta  occ. eigenvalues --   -2.19714  -2.19457  -2.19136  -2.18737  -1.14243
  Beta  occ. eigenvalues --   -1.14185  -1.14160  -1.14124  -1.14109  -1.14066
  Beta  occ. eigenvalues --   -1.13647  -1.13519  -1.13485  -1.13410  -1.13361
  Beta  occ. eigenvalues --   -1.13345  -1.13188  -1.13115  -1.13060  -1.12862
  Beta  occ. eigenvalues --   -1.12789  -1.12746  -1.12416  -1.12378  -1.12372
  Beta  occ. eigenvalues --   -0.17486  -0.12633  -0.11657
  Beta virt. eigenvalues --   -0.07326  -0.06330  -0.04749  -0.04017  -0.02807
  Beta virt. eigenvalues --   -0.02251  -0.02007  -0.01868  -0.01181  -0.00389
  Beta virt. eigenvalues --   -0.00121   0.00185   0.00336   0.00603   0.00750

 Mulliken charges and spin densities:
               1          2
     1  Na   0.028926   0.111514
     2  Na   0.593087   0.540648
     3  Na  -0.505178   0.820556
     4  Na  -0.152668  -0.041872
     5  Na   0.104744  -0.014627
     6  Na   0.052090  -0.245623
     7  Na  -0.121000  -0.170596
 Sum of Mulliken charges =  -0.00000   1.00000

 Dipole moment (field-independent basis, Debye):
    X=             -0.4732    Y=             -0.3441    Z=              0.4879  Tot=              0.7618
 Quadrupole moment (field-independent basis, Debye-Ang):
   XX=            -55.0105   YY=            -67.9655   ZZ=            -69.8815
   XY=              0.1635   XZ=              0.6976   YZ=             -0.9648

 Normal termination of Gaussian 16 at Thu Dec  7 09:50:49 2023.
