 Gaussian 16, Revision B.01,
 Gaussian 16:  ES64L-G16RevB.01 20-Dec-2017

 -------------------------
 #P B3LYP/6-311+g(d) force
 -------------------------

 -----
 DPGEN
 -----
 Symbolic Z-matrix:
 Charge =  0 Multiplicity = 2

                         Standard orientation:
 ---------------------------------------------------------------------
 Center     Atomic      Atomic             Coordinates (Angstroms)
 Number     Number       Type             X           Y           Z
 ---------------------------------------------------------------------
      1         11           0       -0.549001   -2.030840   -0.268171
      2         11           0       -3.650545   -2.751017   -0.207640
      3         11           0       -3.257343    0.359092    0.261913
      4         11           0        0.276223    1.283288   -0.221696
      5         11           0        2.789100   -0.182491    1.309450
      6         11           0       -2.197544    3.610277   -0.240693
      7         11           0        6.589110   -0.288310   -0.633162
 ---------------------------------------------------------------------

 SCF Done:  E(UB3LYP) =  -1136.12066878     A.U. after   21 cycles

 The electronic state is 2-A.
 Alpha  occ. eigenvalues --  -38.45336 -38.44465 -38.44014 -38.44013 -38.43838
 Alpha  occ. eigenvalues --  -38.43463 -38.43222  -2.21112  -2.20313  -2.19883
 Alpha  occ. eigenvalues --   -2.19782  -2.19699  -2.19349  -2.19037  -1.14739
 Alpha  occ. eigenvalues --   -1.14739  -1.14711  -1.14022  -1.13997  -1.13916
 Alpha  occ. eigenvalues --   -1.13582  -1.13573  -1.13523  -1.13483  -1.13450
 Alpha  occ. eigenvalues --   -1.13423  -1.13350  -1.13340  -1.13319  -1.13062
 Alpha  occ. eigenvalues --   -1.13037  -1.12933  -1.12700  -1.12696  -1.12666
 Alpha  occ. eigenvalues --   -0.16963  -0.13574  -0.12514  -0.11487
 Alpha virt. eigenvalues --   -0.06028  -0.05346  -0.04680  -0.03882  -0.02763
 Alpha virt. eigenvalues --   -0.02123  -0.01872  -0.01669  -0.01301  -0.01017
 Alpha virt. eigenvalues --   -0.00600  -0.00010   0.00062   0.00377   0.00591

  Beta  occ. eigenvalues --  -38.45183 -38.44447 -38.44030 -38.43999 -38.43829
  Beta  occ. eigenvalues --  -38.43445 -38.43217  -2.20827  -2.20281  -2.19857
  Beta  occ. eigenvalues --   -2.19815  -2.19683  -2.19318  -2.19026  -1.14546
  Beta  occ. eigenvalues --   -1.14545  -1.14520  -1.14000  -1.13977  -1.13886
  Beta  occ. eigenvalues --   -1.13562  -1.13556  -1.13507  -1.13503  -1.13475
  Beta  occ. eigenvalues --   -1.13420  -1.13337  -1.13329  -1.13307  -1.13042
  Beta  occ. eigenvalues --   -1.13015  -1.12908  -1.12691  -1.12689  -1.12660
  Beta  occ. eigenvalues --   -0.16675  -0.12970  -0.12156
  Beta virt. eigenvalues --   -0.07571  -0.05545  -0.05243  -0.04532  -0.03636
  Beta virt. eigenvalues --   -0.02484  -0.01730  -0.01683  -0.01211  -0.00929
  Beta virt. eigenvalues --   -0.00460  -0.00346   0.00162   0.00226   0.00548

 Mulliken charges and spin densities:
               1          2
     1  Na  -0.634167   0.054652
     2  Na   0.881753   0.046482
     3  Na  -0.384977   0.183759
     4  Na  -1.198519  -0.079876
     5  Na   0.446340  -0.063336
     6  Na   0.866639   0.071680
     7  Na   0.022931   0.786640
 Sum of Mulliken charges =  -0.00000   1.00000

 Dipole moment (field-independent basis, Debye):
    X=             -0.7091    Y=             -0.6246    Z=             -0.0616  Tot=              0.9470
 Quadrupole moment (field-independent basis, Debye-Ang):
   XX=            -64.2348   YY=            -63.5096   ZZ=            -70.1021
   XY=              2.9195   XZ=             -0.7606   YZ=              0.2977

 Normal termination of Gaussian 16 at Tue Nov 28 22:34:53 2023.
