 Gaussian 16, Revision B.01,
 Gaussian 16:  ES64L-G16RevB.01 20-Dec-2017

 -------------------------
 #P B3LYP/6-311+g(d) force
 -------------------------

 -----
 DPGEN
 -----
 Symbolic Z-matrix:
 Charge =  0 Multiplicity = 2

                         Standard orientation:
 ---------------------------------------------------------------------
 Center     Atomic      Atomic             Coordinates (Angstroms)
 Number     Number       Type             X           Y           Z
 ---------------------------------------------------------------------
      1         11           0       -0.249621   -0.668783    1.637341
      2         11           0       -3.741916   -0.521434    0.900778
      3         11           0       -2.166923    1.880302   -0.816811
      4         11           0       -1.485244   -1.257368   -1.136268
      5         11           0        1.569961    1.849507   -0.364668
      6         11           0        2.418328   -1.513454   -1.374048
      7         11           0        3.655414    0.231230    1.153676
 ---------------------------------------------------------------------

 SCF Done:  E(UB3LYP) =  -1136.11255701     A.U. after   28 cycles

 The electronic state is 2-A.
 Alpha  occ. eigenvalues --  -38.45175 -38.45155 -38.45003 -38.44313 -38.43947
 Alpha  occ. eigenvalues --  -38.43143 -38.42811  -2.21047  -2.20997  -2.20873
 Alpha  occ. eigenvalues --   -2.20146  -2.19894  -2.19012  -2.18674  -1.14743
 Alpha  occ. eigenvalues --   -1.14729  -1.14693  -1.14671  -1.14644  -1.14593
 Alpha  occ. eigenvalues --   -1.14555  -1.14526  -1.14494  -1.13811  -1.13789
 Alpha  occ. eigenvalues --   -1.13778  -1.13609  -1.13525  -1.13521  -1.12707
 Alpha  occ. eigenvalues --   -1.12679  -1.12650  -1.12365  -1.12333  -1.12307
 Alpha  occ. eigenvalues --   -0.18525  -0.15077  -0.10960  -0.10571
 Alpha virt. eigenvalues --   -0.07406  -0.05487  -0.05141  -0.03138  -0.03043
 Alpha virt. eigenvalues --   -0.02251  -0.01890  -0.01380  -0.01039  -0.00156
 Alpha virt. eigenvalues --    0.00040   0.00194   0.00300   0.00483   0.00598

  Beta  occ. eigenvalues --  -38.45148 -38.45133 -38.44969 -38.44265 -38.43917
  Beta  occ. eigenvalues --  -38.43136 -38.42803  -2.20996  -2.20959  -2.20809
  Beta  occ. eigenvalues --   -2.20057  -2.19842  -2.19004  -2.18662  -1.14707
  Beta  occ. eigenvalues --   -1.14693  -1.14657  -1.14634  -1.14622  -1.14560
  Beta  occ. eigenvalues --   -1.14515  -1.14472  -1.14452  -1.13745  -1.13726
  Beta  occ. eigenvalues --   -1.13715  -1.13579  -1.13487  -1.13457  -1.12702
  Beta  occ. eigenvalues --   -1.12660  -1.12632  -1.12351  -1.12321  -1.12296
  Beta  occ. eigenvalues --   -0.17945  -0.14795  -0.10338
  Beta virt. eigenvalues --   -0.07288  -0.07206  -0.05157  -0.04639  -0.02901
  Beta virt. eigenvalues --   -0.02826  -0.01728  -0.01297  -0.00981  -0.00825
  Beta virt. eigenvalues --   -0.00107   0.00077   0.00297   0.00353   0.00641

 Mulliken charges and spin densities:
               1          2
     1  Na  -0.879473   0.137646
     2  Na   1.362761   0.215852
     3  Na  -0.476720  -0.216863
     4  Na  -0.295134   0.410485
     5  Na  -0.721689   0.274274
     6  Na  -0.179143   0.070445
     7  Na   1.189398   0.108161
 Sum of Mulliken charges =  -0.00000   1.00000

 Dipole moment (field-independent basis, Debye):
    X=              0.0235    Y=             -0.6147    Z=              0.5827  Tot=              0.8473
 Quadrupole moment (field-independent basis, Debye-Ang):
   XX=            -43.4486   YY=            -82.4073   ZZ=            -69.1388
   XY=             -0.7384   XZ=             -0.0686   YZ=              2.7942

 Normal termination of Gaussian 16 at Thu Dec  7 20:05:40 2023.
