 Gaussian 16, Revision B.01,
 Gaussian 16:  ES64L-G16RevB.01 20-Dec-2017

 -------------------------
 #P B3LYP/6-311+g(d) force
 -------------------------

 -----
 DPGEN
 -----
 Symbolic Z-matrix:
 Charge =  0 Multiplicity = 2

                         Standard orientation:
 ---------------------------------------------------------------------
 Center     Atomic      Atomic             Coordinates (Angstroms)
 Number     Number       Type             X           Y           Z
 ---------------------------------------------------------------------
      1         11           0       -0.237129    0.066351    2.106973
      2         11           0       -1.896491   -2.174603    0.179371
      3         11           0        1.638094   -2.524555   -0.270618
      4         11           0       -3.016987    1.091628   -0.348612
      5         11           0        0.626347    3.166840   -0.057623
      6         11           0        2.989713    0.444750    0.032579
      7         11           0       -0.103547   -0.070410   -1.642070
 ---------------------------------------------------------------------

 SCF Done:  E(UB3LYP) =  -1136.13828240     A.U. after   20 cycles

 The electronic state is 2-A.
 Alpha  occ. eigenvalues --  -38.44097 -38.43793 -38.43750 -38.43715 -38.43564
 Alpha  occ. eigenvalues --  -38.43293 -38.43229  -2.19911  -2.19634  -2.19586
 Alpha  occ. eigenvalues --   -2.19535  -2.19442  -2.19195  -2.19159  -1.13593
 Alpha  occ. eigenvalues --   -1.13565  -1.13548  -1.13316  -1.13306  -1.13277
 Alpha  occ. eigenvalues --   -1.13260  -1.13218  -1.13210  -1.13207  -1.13187
 Alpha  occ. eigenvalues --   -1.13175  -1.13133  -1.13105  -1.13063  -1.12900
 Alpha  occ. eigenvalues --   -1.12861  -1.12823  -1.12812  -1.12796  -1.12782
 Alpha  occ. eigenvalues --   -0.18515  -0.12975  -0.12378  -0.10769
 Alpha virt. eigenvalues --   -0.05680  -0.05074  -0.04872  -0.03182  -0.02867
 Alpha virt. eigenvalues --   -0.02623  -0.01477  -0.01216  -0.00481  -0.00368
 Alpha virt. eigenvalues --   -0.00016   0.00357   0.00809   0.00846   0.00879

  Beta  occ. eigenvalues --  -38.44088 -38.43791 -38.43751 -38.43616 -38.43554
  Beta  occ. eigenvalues --  -38.43288 -38.43167  -2.19898  -2.19632  -2.19539
  Beta  occ. eigenvalues --   -2.19429  -2.19404  -2.19152  -2.19083  -1.13574
  Beta  occ. eigenvalues --   -1.13547  -1.13543  -1.13315  -1.13291  -1.13273
  Beta  occ. eigenvalues --   -1.13201  -1.13194  -1.13179  -1.13161  -1.13111
  Beta  occ. eigenvalues --   -1.13090  -1.13080  -1.13059  -1.13044  -1.12858
  Beta  occ. eigenvalues --   -1.12806  -1.12795  -1.12781  -1.12742  -1.12720
  Beta  occ. eigenvalues --   -0.17785  -0.12743  -0.12163
  Beta virt. eigenvalues --   -0.06835  -0.05675  -0.04990  -0.04859  -0.02395
  Beta virt. eigenvalues --   -0.02128  -0.01567  -0.01382  -0.01135  -0.00530
  Beta virt. eigenvalues --   -0.00412   0.00127   0.00386   0.00827   0.00868

 Mulliken charges and spin densities:
               1          2
     1  Na  -0.459562   0.714145
     2  Na   0.354427   0.066450
     3  Na   0.199109  -0.002400
     4  Na   0.078048  -0.087571
     5  Na  -0.050548  -0.110726
     6  Na   0.061938  -0.036793
     7  Na  -0.183413   0.456894
 Sum of Mulliken charges =  -0.00000   1.00000

 Dipole moment (field-independent basis, Debye):
    X=             -0.2272    Y=              0.2137    Z=              0.1191  Tot=              0.3339
 Quadrupole moment (field-independent basis, Debye-Ang):
   XX=            -58.1614   YY=            -60.9494   ZZ=            -74.4641
   XY=             -0.6029   XZ=              0.4498   YZ=             -0.2761

 Normal termination of Gaussian 16 at Thu Dec  7 19:34:09 2023.
