 Gaussian 16, Revision B.01,
 Gaussian 16:  ES64L-G16RevB.01 20-Dec-2017

 -------------------------
 #P B3LYP/6-311+g(d) force
 -------------------------

 -----
 DPGEN
 -----
 Symbolic Z-matrix:
 Charge =  0 Multiplicity = 2

                         Standard orientation:
 ---------------------------------------------------------------------
 Center     Atomic      Atomic             Coordinates (Angstroms)
 Number     Number       Type             X           Y           Z
 ---------------------------------------------------------------------
      1         11           0       -2.893245    1.249491   -1.060446
      2         11           0        0.912796    1.709077   -0.463790
      3         11           0        3.022677    3.659657    0.354161
      4         11           0        1.054321   -2.400845   -0.522330
      5         11           0        3.980585   -2.835309   -0.194963
      6         11           0       -1.248321   -0.520382    1.878295
      7         11           0       -4.828813   -0.861688    0.009073
 ---------------------------------------------------------------------

 SCF Done:  E(UB3LYP) =  -1136.10752681     A.U. after   22 cycles

 The electronic state is 2-A.
 Alpha  occ. eigenvalues --  -38.45394 -38.44882 -38.44873 -38.44018 -38.43765
 Alpha  occ. eigenvalues --  -38.43354 -38.43288  -2.21215  -2.20704  -2.20683
 Alpha  occ. eigenvalues --   -2.19825  -2.19586  -2.19181  -2.19125  -1.14905
 Alpha  occ. eigenvalues --   -1.14885  -1.14848  -1.14358  -1.14349  -1.14337
 Alpha  occ. eigenvalues --   -1.14324  -1.14319  -1.14291  -1.13528  -1.13464
 Alpha  occ. eigenvalues --   -1.13461  -1.13301  -1.13219  -1.13215  -1.12849
 Alpha  occ. eigenvalues --   -1.12840  -1.12816  -1.12814  -1.12784  -1.12756
 Alpha  occ. eigenvalues --   -0.16735  -0.13647  -0.12321  -0.10650
 Alpha virt. eigenvalues --   -0.07289  -0.05489  -0.04065  -0.03382  -0.02976
 Alpha virt. eigenvalues --   -0.02591  -0.02340  -0.01606  -0.01015  -0.00731
 Alpha virt. eigenvalues --   -0.00470  -0.00119   0.00085   0.00355   0.00411

  Beta  occ. eigenvalues --  -38.45379 -38.44841 -38.44781 -38.43996 -38.43716
  Beta  occ. eigenvalues --  -38.43359 -38.43287  -2.21191  -2.20629  -2.20512
  Beta  occ. eigenvalues --   -2.19784  -2.19496  -2.19196  -2.19128  -1.14883
  Beta  occ. eigenvalues --   -1.14872  -1.14810  -1.14302  -1.14296  -1.14272
  Beta  occ. eigenvalues --   -1.14220  -1.14198  -1.14180  -1.13503  -1.13435
  Beta  occ. eigenvalues --   -1.13433  -1.13248  -1.13156  -1.13153  -1.12863
  Beta  occ. eigenvalues --   -1.12852  -1.12818  -1.12788  -1.12785  -1.12737
  Beta  occ. eigenvalues --   -0.16133  -0.13084  -0.11976
  Beta virt. eigenvalues --   -0.07418  -0.06973  -0.05083  -0.03828  -0.02944
  Beta virt. eigenvalues --   -0.02827  -0.02400  -0.01989  -0.01294  -0.00826
  Beta virt. eigenvalues --   -0.00460  -0.00317   0.00072   0.00225   0.00451

 Mulliken charges and spin densities:
               1          2
     1  Na   0.426206   0.204955
     2  Na  -0.804760   0.072831
     3  Na   0.218879  -0.022455
     4  Na  -0.461253   0.125384
     5  Na   0.437322   0.099895
     6  Na   0.283186   0.272351
     7  Na  -0.099581   0.247039
 Sum of Mulliken charges =  -0.00000   1.00000

 Dipole moment (field-independent basis, Debye):
    X=             -1.3775    Y=             -0.0179    Z=              0.9047  Tot=              1.6481
 Quadrupole moment (field-independent basis, Debye-Ang):
   XX=            -58.5559   YY=            -72.2995   ZZ=            -68.4914
   XY=              7.1928   XZ=              0.4318   YZ=             -1.0693

 Normal termination of Gaussian 16 at Sun Dec  3 22:55:57 2023.
