 Gaussian 16, Revision B.01,
 Gaussian 16:  ES64L-G16RevB.01 20-Dec-2017

 -------------------------
 #P B3LYP/6-311+g(d) force
 -------------------------

 -----
 DPGEN
 -----
 Symbolic Z-matrix:
 Charge =  0 Multiplicity = 2

                         Standard orientation:
 ---------------------------------------------------------------------
 Center     Atomic      Atomic             Coordinates (Angstroms)
 Number     Number       Type             X           Y           Z
 ---------------------------------------------------------------------
      1         11           0        1.232319    2.649814   -0.191117
      2         11           0        1.760486   -2.659679   -0.353622
      3         11           0       -3.008862   -1.550550    0.398146
      4         11           0       -2.598302    1.591952   -0.500291
      5         11           0       -0.219163    0.151478    2.107650
      6         11           0       -0.502490   -0.399018   -1.586864
      7         11           0        3.336012    0.216003    0.126096
 ---------------------------------------------------------------------

 SCF Done:  E(UB3LYP) =  -1136.12905174     A.U. after   21 cycles

 The electronic state is 2-A.
 Alpha  occ. eigenvalues --  -38.44625 -38.44559 -38.44206 -38.44119 -38.43558
 Alpha  occ. eigenvalues --  -38.43177 -38.42965  -2.20456  -2.20384  -2.20083
 Alpha  occ. eigenvalues --   -2.19961  -2.19499  -2.18993  -2.18795  -1.14125
 Alpha  occ. eigenvalues --   -1.14114  -1.14108  -1.14063  -1.14044  -1.14031
 Alpha  occ. eigenvalues --   -1.13805  -1.13726  -1.13697  -1.13629  -1.13595
 Alpha  occ. eigenvalues --   -1.13570  -1.13178  -1.13142  -1.13124  -1.12664
 Alpha  occ. eigenvalues --   -1.12651  -1.12639  -1.12478  -1.12456  -1.12440
 Alpha  occ. eigenvalues --   -0.18304  -0.13731  -0.11684  -0.10790
 Alpha virt. eigenvalues --   -0.06363  -0.05582  -0.04213  -0.03500  -0.02640
 Alpha virt. eigenvalues --   -0.02519  -0.02002  -0.01279  -0.00596  -0.00276
 Alpha virt. eigenvalues --   -0.00082   0.00302   0.00633   0.00706   0.00782

  Beta  occ. eigenvalues --  -38.44614 -38.44561 -38.44186 -38.44025 -38.43501
  Beta  occ. eigenvalues --  -38.43176 -38.42965  -2.20437  -2.20390  -2.20050
  Beta  occ. eigenvalues --   -2.19787  -2.19396  -2.18992  -2.18799  -1.14116
  Beta  occ. eigenvalues --   -1.14102  -1.14069  -1.14068  -1.14043  -1.14033
  Beta  occ. eigenvalues --   -1.13772  -1.13684  -1.13678  -1.13513  -1.13477
  Beta  occ. eigenvalues --   -1.13440  -1.13108  -1.13056  -1.13053  -1.12658
  Beta  occ. eigenvalues --   -1.12649  -1.12635  -1.12482  -1.12450  -1.12434
  Beta  occ. eigenvalues --   -0.17589  -0.13559  -0.11473
  Beta virt. eigenvalues --   -0.06874  -0.06226  -0.05533  -0.04112  -0.02838
  Beta virt. eigenvalues --   -0.01942  -0.01835  -0.01588  -0.01168  -0.00586
  Beta virt. eigenvalues --   -0.00313   0.00089   0.00345   0.00725   0.00791

 Mulliken charges and spin densities:
               1          2
     1  Na  -0.102442  -0.027549
     2  Na   0.089744  -0.025609
     3  Na   0.054928   0.108711
     4  Na   0.354556   0.083390
     5  Na  -0.326690   0.634404
     6  Na  -0.048822   0.258051
     7  Na  -0.021275  -0.031399
 Sum of Mulliken charges =  -0.00000   1.00000

 Dipole moment (field-independent basis, Debye):
    X=             -0.5826    Y=             -0.0829    Z=              0.2787  Tot=              0.6511
 Quadrupole moment (field-independent basis, Debye-Ang):
   XX=            -52.1907   YY=            -67.7449   ZZ=            -74.6253
   XY=              1.2999   XZ=              0.1336   YZ=             -1.6339

 Normal termination of Gaussian 16 at Thu Dec  7 10:14:36 2023.
