 Gaussian 16, Revision B.01,
 Gaussian 16:  ES64L-G16RevB.01 20-Dec-2017

 -------------------------
 #P B3LYP/6-311+g(d) force
 -------------------------

 -----
 DPGEN
 -----
 Symbolic Z-matrix:
 Charge =  0 Multiplicity = 2

                         Standard orientation:
 ---------------------------------------------------------------------
 Center     Atomic      Atomic             Coordinates (Angstroms)
 Number     Number       Type             X           Y           Z
 ---------------------------------------------------------------------
      1         11           0        2.121318    1.379486   -0.638223
      2         11           0        5.691182    0.447817    0.672700
      3         11           0        3.440612   -2.111257   -0.197634
      4         11           0        0.093618   -1.001360   -0.348060
      5         11           0       -1.259070    2.046453   -0.029474
      6         11           0       -3.140567   -0.217586    0.514146
      7         11           0       -6.947094   -0.543553    0.026546
 ---------------------------------------------------------------------

 SCF Done:  E(UB3LYP) =  -1136.11063532     A.U. after   27 cycles

 The electronic state is 2-A.
 Alpha  occ. eigenvalues --  -38.44883 -38.44584 -38.44522 -38.44439 -38.44415
 Alpha  occ. eigenvalues --  -38.44102 -38.43969  -2.20744  -2.20481  -2.20237
 Alpha  occ. eigenvalues --   -2.20233  -2.20205  -2.20035  -2.19832  -1.14463
 Alpha  occ. eigenvalues --   -1.14427  -1.14329  -1.14200  -1.14131  -1.14106
 Alpha  occ. eigenvalues --   -1.13915  -1.13904  -1.13903  -1.13903  -1.13890
 Alpha  occ. eigenvalues --   -1.13887  -1.13870  -1.13863  -1.13823  -1.13736
 Alpha  occ. eigenvalues --   -1.13701  -1.13623  -1.13528  -1.13491  -1.13403
 Alpha  occ. eigenvalues --   -0.17735  -0.14466  -0.11441  -0.11234
 Alpha virt. eigenvalues --   -0.07321  -0.05753  -0.04416  -0.03902  -0.03003
 Alpha virt. eigenvalues --   -0.02601  -0.02370  -0.01509  -0.00839  -0.00791
 Alpha virt. eigenvalues --   -0.00513  -0.00200  -0.00045   0.00233   0.00550

  Beta  occ. eigenvalues --  -38.44831 -38.44606 -38.44555 -38.44374 -38.44370
  Beta  occ. eigenvalues --  -38.44043 -38.43937  -2.20653  -2.20431  -2.20362
  Beta  occ. eigenvalues --   -2.20166  -2.20103  -2.19932  -2.19771  -1.14383
  Beta  occ. eigenvalues --   -1.14364  -1.14251  -1.14150  -1.14101  -1.14059
  Beta  occ. eigenvalues --   -1.14011  -1.14011  -1.13966  -1.13872  -1.13847
  Beta  occ. eigenvalues --   -1.13806  -1.13798  -1.13781  -1.13744  -1.13648
  Beta  occ. eigenvalues --   -1.13637  -1.13534  -1.13475  -1.13447  -1.13389
  Beta  occ. eigenvalues --   -0.16896  -0.14007  -0.11731
  Beta virt. eigenvalues --   -0.07340  -0.07190  -0.05029  -0.04180  -0.03687
  Beta virt. eigenvalues --   -0.02372  -0.02296  -0.01895  -0.01489  -0.00841
  Beta virt. eigenvalues --   -0.00684  -0.00224  -0.00017   0.00155   0.00400

 Mulliken charges and spin densities:
               1          2
     1  Na  -0.103903   0.136128
     2  Na   0.086839   0.342225
     3  Na   0.690204   0.046890
     4  Na  -1.248440   0.668731
     5  Na   0.332998   0.330498
     6  Na  -0.052952  -0.112567
     7  Na   0.295253  -0.411903
 Sum of Mulliken charges =  -0.00000   1.00000

 Dipole moment (field-independent basis, Debye):
    X=              1.1871    Y=              0.4375    Z=             -0.0926  Tot=              1.2686
 Quadrupole moment (field-independent basis, Debye-Ang):
   XX=            -62.9976   YY=            -66.6479   ZZ=            -72.3409
   XY=             -2.7014   XZ=              2.2506   YZ=             -0.0658

 Normal termination of Gaussian 16 at Tue Nov 28 20:30:51 2023.
