 Gaussian 16, Revision B.01,
 Gaussian 16:  ES64L-G16RevB.01 20-Dec-2017

 -------------------------
 #P B3LYP/6-311+g(d) force
 -------------------------

 -----
 DPGEN
 -----
 Symbolic Z-matrix:
 Charge =  0 Multiplicity = 2

                         Standard orientation:
 ---------------------------------------------------------------------
 Center     Atomic      Atomic             Coordinates (Angstroms)
 Number     Number       Type             X           Y           Z
 ---------------------------------------------------------------------
      1         11           0        0.073219    2.709587    0.812574
      2         11           0        0.115324   -0.327930   -1.476077
      3         11           0        3.076140    0.916999   -1.302391
      4         11           0        2.646164   -0.139429    2.235990
      5         11           0        2.815234   -2.537041   -0.121855
      6         11           0       -3.247790    0.502760   -1.017168
      7         11           0       -5.478291   -1.124946    0.868926
 ---------------------------------------------------------------------

 SCF Done:  E(UB3LYP) =  -1136.11024532     A.U. after   27 cycles

 The electronic state is 2-A.
 Alpha  occ. eigenvalues --  -38.46149 -38.44582 -38.44372 -38.44226 -38.43746
 Alpha  occ. eigenvalues --  -38.43648 -38.43618  -2.21960  -2.20409  -2.20238
 Alpha  occ. eigenvalues --   -2.19985  -2.19512  -2.19440  -2.19435  -1.15670
 Alpha  occ. eigenvalues --   -1.15617  -1.15562  -1.14082  -1.14045  -1.14014
 Alpha  occ. eigenvalues --   -1.13922  -1.13899  -1.13840  -1.13647  -1.13645
 Alpha  occ. eigenvalues --   -1.13626  -1.13190  -1.13161  -1.13144  -1.13136
 Alpha  occ. eigenvalues --   -1.13119  -1.13114  -1.13095  -1.13077  -1.13055
 Alpha  occ. eigenvalues --   -0.17415  -0.13449  -0.11435  -0.11057
 Alpha virt. eigenvalues --   -0.07437  -0.05272  -0.04860  -0.03242  -0.02870
 Alpha virt. eigenvalues --   -0.02560  -0.02249  -0.01695  -0.00954  -0.00883
 Alpha virt. eigenvalues --   -0.00467  -0.00061   0.00085   0.00350   0.00484

  Beta  occ. eigenvalues --  -38.46133 -38.44498 -38.44316 -38.44211 -38.43719
  Beta  occ. eigenvalues --  -38.43650 -38.43619  -2.21937  -2.20252  -2.20136
  Beta  occ. eigenvalues --   -2.19957  -2.19464  -2.19447  -2.19441  -1.15634
  Beta  occ. eigenvalues --   -1.15589  -1.15551  -1.13975  -1.13943  -1.13897
  Beta  occ. eigenvalues --   -1.13847  -1.13833  -1.13763  -1.13628  -1.13626
  Beta  occ. eigenvalues --   -1.13608  -1.13156  -1.13138  -1.13127  -1.13126
  Beta  occ. eigenvalues --   -1.13119  -1.13107  -1.13087  -1.13070  -1.13055
  Beta  occ. eigenvalues --   -0.16676  -0.13278  -0.10945
  Beta virt. eigenvalues --   -0.07647  -0.07157  -0.04802  -0.04621  -0.02835
  Beta virt. eigenvalues --   -0.02434  -0.02185  -0.01957  -0.01543  -0.00739
  Beta virt. eigenvalues --   -0.00648  -0.00297   0.00020   0.00187   0.00492

 Mulliken charges and spin densities:
               1          2
     1  Na  -0.042911   0.132794
     2  Na  -0.667704   0.323805
     3  Na   0.743464   0.087640
     4  Na  -0.171237   0.455627
     5  Na   0.254061  -0.078357
     6  Na  -0.198663   0.014718
     7  Na   0.082990   0.063774
 Sum of Mulliken charges =  -0.00000   1.00000

 Dipole moment (field-independent basis, Debye):
    X=              1.4895    Y=              0.2337    Z=             -0.0537  Tot=              1.5087
 Quadrupole moment (field-independent basis, Debye-Ang):
   XX=            -63.2353   YY=            -68.3817   ZZ=            -68.3858
   XY=              4.7234   XZ=             -7.8424   YZ=             -1.5133

 Normal termination of Gaussian 16 at Fri Dec  8 17:59:32 2023.
