 Gaussian 16, Revision B.01,
 Gaussian 16:  ES64L-G16RevB.01 20-Dec-2017

 -------------------------
 #P B3LYP/6-311+g(d) force
 -------------------------

 -----
 DPGEN
 -----
 Symbolic Z-matrix:
 Charge =  0 Multiplicity = 2

                         Standard orientation:
 ---------------------------------------------------------------------
 Center     Atomic      Atomic             Coordinates (Angstroms)
 Number     Number       Type             X           Y           Z
 ---------------------------------------------------------------------
      1         11           0       -1.225519    2.012243    0.418185
      2         11           0        3.723913   -0.718503   -0.716491
      3         11           0        0.455704   -2.075328   -0.659107
      4         11           0        1.626980    1.860292   -0.773004
      5         11           0        1.128040   -0.015066    2.459258
      6         11           0       -2.816194    0.009492   -1.876212
      7         11           0       -2.892925   -1.073132    1.147370
 ---------------------------------------------------------------------

 SCF Done:  E(UB3LYP) =  -1136.12388641     A.U. after   23 cycles

 The electronic state is 2-A.
 Alpha  occ. eigenvalues --  -38.44794 -38.44785 -38.44660 -38.44242 -38.43753
 Alpha  occ. eigenvalues --  -38.43304 -38.42387  -2.20612  -2.20593  -2.20495
 Alpha  occ. eigenvalues --   -2.20051  -2.19533  -2.19178  -2.18281  -1.14305
 Alpha  occ. eigenvalues --   -1.14270  -1.14260  -1.14257  -1.14219  -1.14211
 Alpha  occ. eigenvalues --   -1.14149  -1.14135  -1.14106  -1.13730  -1.13705
 Alpha  occ. eigenvalues --   -1.13680  -1.13233  -1.13228  -1.13135  -1.12882
 Alpha  occ. eigenvalues --   -1.12821  -1.12812  -1.11985  -1.11943  -1.11908
 Alpha  occ. eigenvalues --   -0.17888  -0.13876  -0.11390  -0.11033
 Alpha virt. eigenvalues --   -0.06368  -0.05586  -0.04709  -0.03191  -0.02911
 Alpha virt. eigenvalues --   -0.02641  -0.02127  -0.01040  -0.00790  -0.00266
 Alpha virt. eigenvalues --    0.00149   0.00245   0.00295   0.00452   0.00684

  Beta  occ. eigenvalues --  -38.44783 -38.44701 -38.44622 -38.44229 -38.43749
  Beta  occ. eigenvalues --  -38.43283 -38.42380  -2.20592  -2.20437  -2.20424
  Beta  occ. eigenvalues --   -2.20028  -2.19528  -2.19140  -2.18272  -1.14286
  Beta  occ. eigenvalues --   -1.14249  -1.14240  -1.14149  -1.14108  -1.14103
  Beta  occ. eigenvalues --   -1.14099  -1.14088  -1.14059  -1.13706  -1.13689
  Beta  occ. eigenvalues --   -1.13668  -1.13228  -1.13206  -1.13135  -1.12857
  Beta  occ. eigenvalues --   -1.12789  -1.12784  -1.11977  -1.11924  -1.11891
  Beta  occ. eigenvalues --   -0.17208  -0.13625  -0.10889
  Beta virt. eigenvalues --   -0.07654  -0.06170  -0.04820  -0.04621  -0.03008
  Beta virt. eigenvalues --   -0.02224  -0.02107  -0.01924  -0.00698  -0.00504
  Beta virt. eigenvalues --   -0.00128   0.00233   0.00294   0.00356   0.00566

 Mulliken charges and spin densities:
               1          2
     1  Na   0.028707   0.301734
     2  Na   0.345227  -0.094789
     3  Na  -0.415222   0.122022
     4  Na  -0.124536   0.055871
     5  Na  -0.233945   0.403483
     6  Na   0.177503  -0.018554
     7  Na   0.222267   0.230233
 Sum of Mulliken charges =  -0.00000   1.00000

 Dipole moment (field-independent basis, Debye):
    X=             -0.1451    Y=             -0.4094    Z=              0.1921  Tot=              0.4749
 Quadrupole moment (field-independent basis, Debye-Ang):
   XX=            -53.0880   YY=            -79.4404   ZZ=            -63.5382
   XY=              0.9456   XZ=              0.6318   YZ=             -3.6280

 Normal termination of Gaussian 16 at Fri Dec  8 02:10:29 2023.
