 Gaussian 16, Revision B.01,
 Gaussian 16:  ES64L-G16RevB.01 20-Dec-2017

 -------------------------
 #P B3LYP/6-311+g(d) force
 -------------------------

 -----
 DPGEN
 -----
 Symbolic Z-matrix:
 Charge =  0 Multiplicity = 2

                         Standard orientation:
 ---------------------------------------------------------------------
 Center     Atomic      Atomic             Coordinates (Angstroms)
 Number     Number       Type             X           Y           Z
 ---------------------------------------------------------------------
      1         11           0       -1.973244    2.350746    0.413006
      2         11           0        0.241721    0.253700    2.242674
      3         11           0        0.206181   -2.664347   -0.075863
      4         11           0       -2.891203   -1.363751   -0.239340
      5         11           0       -0.429170    0.126083   -1.652834
      6         11           0        1.812198    2.209380   -0.796802
      7         11           0        3.033517   -0.911811    0.109159
 ---------------------------------------------------------------------

 SCF Done:  E(UB3LYP) =  -1136.13625510     A.U. after   18 cycles

 The electronic state is 2-A.
 Alpha  occ. eigenvalues --  -38.44191 -38.43824 -38.43755 -38.43753 -38.43645
 Alpha  occ. eigenvalues --  -38.43340 -38.43041  -2.20040  -2.19666  -2.19586
 Alpha  occ. eigenvalues --   -2.19570  -2.19493  -2.19329  -2.18928  -1.13697
 Alpha  occ. eigenvalues --   -1.13673  -1.13658  -1.13370  -1.13325  -1.13296
 Alpha  occ. eigenvalues --   -1.13258  -1.13249  -1.13249  -1.13244  -1.13241
 Alpha  occ. eigenvalues --   -1.13216  -1.13200  -1.13133  -1.13104  -1.13005
 Alpha  occ. eigenvalues --   -1.12957  -1.12950  -1.12619  -1.12594  -1.12548
 Alpha  occ. eigenvalues --   -0.18523  -0.12909  -0.12370  -0.11219
 Alpha virt. eigenvalues --   -0.05393  -0.05344  -0.04399  -0.03309  -0.03105
 Alpha virt. eigenvalues --   -0.02916  -0.01454  -0.01134  -0.00312  -0.00079
 Alpha virt. eigenvalues --   -0.00030   0.00351   0.00766   0.00879   0.00915

  Beta  occ. eigenvalues --  -38.44092 -38.43822 -38.43753 -38.43746 -38.43621
  Beta  occ. eigenvalues --  -38.43283 -38.43037  -2.19857  -2.19663  -2.19588
  Beta  occ. eigenvalues --   -2.19556  -2.19450  -2.19225  -2.18924  -1.13576
  Beta  occ. eigenvalues --   -1.13549  -1.13521  -1.13359  -1.13320  -1.13292
  Beta  occ. eigenvalues --   -1.13262  -1.13250  -1.13235  -1.13228  -1.13210
  Beta  occ. eigenvalues --   -1.13196  -1.13174  -1.13098  -1.13077  -1.12936
  Beta  occ. eigenvalues --   -1.12889  -1.12872  -1.12613  -1.12579  -1.12539
  Beta  occ. eigenvalues --   -0.17807  -0.12691  -0.12106
  Beta virt. eigenvalues --   -0.07275  -0.05335  -0.05272  -0.04337  -0.02588
  Beta virt. eigenvalues --   -0.02338  -0.01883  -0.01365  -0.01034  -0.00297
  Beta virt. eigenvalues --   -0.00114   0.00098   0.00386   0.00848   0.00890

 Mulliken charges and spin densities:
               1          2
     1  Na   0.037976   0.035928
     2  Na  -0.523969   0.663569
     3  Na   0.068399   0.010409
     4  Na   0.262791  -0.015821
     5  Na  -0.156433   0.255178
     6  Na   0.250166   0.037302
     7  Na   0.061070   0.013436
 Sum of Mulliken charges =  -0.00000   1.00000

 Dipole moment (field-independent basis, Debye):
    X=             -0.1469    Y=              0.1944    Z=              0.3141  Tot=              0.3975
 Quadrupole moment (field-independent basis, Debye-Ang):
   XX=            -57.1399   YY=            -65.4630   ZZ=            -72.0182
   XY=             -0.1712   XZ=             -1.0121   YZ=             -0.3301

 Normal termination of Gaussian 16 at Thu Dec  7 20:06:59 2023.
