 Gaussian 16, Revision B.01,
 Gaussian 16:  ES64L-G16RevB.01 20-Dec-2017

 -------------------------
 #P B3LYP/6-311+g(d) force
 -------------------------

 -----
 DPGEN
 -----
 Symbolic Z-matrix:
 Charge =  0 Multiplicity = 2

                         Standard orientation:
 ---------------------------------------------------------------------
 Center     Atomic      Atomic             Coordinates (Angstroms)
 Number     Number       Type             X           Y           Z
 ---------------------------------------------------------------------
      1         11           0        2.715567   -1.735551    0.520130
      2         11           0       -0.236300   -1.552503   -1.002075
      3         11           0        0.372531    1.986928    0.026080
      4         11           0       -3.337037    1.701731    0.529869
      5         11           0       -3.539122   -1.069556   -1.428419
      6         11           0       -0.095175   -0.650966    2.497364
      7         11           0        4.119536    1.319918   -1.142950
 ---------------------------------------------------------------------

 SCF Done:  E(UB3LYP) =  -1136.11472495     A.U. after   26 cycles

 The electronic state is 2-A.
 Alpha  occ. eigenvalues --  -38.44887 -38.44520 -38.44509 -38.44461 -38.44255
 Alpha  occ. eigenvalues --  -38.43973 -38.43832  -2.20711  -2.20329  -2.20297
 Alpha  occ. eigenvalues --   -2.20274  -2.20026  -2.19827  -2.19597  -1.14374
 Alpha  occ. eigenvalues --   -1.14360  -1.14308  -1.13999  -1.13990  -1.13981
 Alpha  occ. eigenvalues --   -1.13978  -1.13968  -1.13943  -1.13935  -1.13913
 Alpha  occ. eigenvalues --   -1.13890  -1.13745  -1.13719  -1.13618  -1.13510
 Alpha  occ. eigenvalues --   -1.13489  -1.13448  -1.13264  -1.13252  -1.13219
 Alpha  occ. eigenvalues --   -0.17516  -0.13749  -0.11627  -0.11099
 Alpha virt. eigenvalues --   -0.06897  -0.05981  -0.04456  -0.03270  -0.02894
 Alpha virt. eigenvalues --   -0.02625  -0.02418  -0.01601  -0.01083  -0.00369
 Alpha virt. eigenvalues --   -0.00008   0.00115   0.00162   0.00322   0.00525

  Beta  occ. eigenvalues --  -38.44806 -38.44510 -38.44460 -38.44457 -38.44255
  Beta  occ. eigenvalues --  -38.43953 -38.43794  -2.20562  -2.20282  -2.20274
  Beta  occ. eigenvalues --   -2.20233  -2.20028  -2.19791  -2.19526  -1.14271
  Beta  occ. eigenvalues --   -1.14259  -1.14202  -1.13980  -1.13966  -1.13961
  Beta  occ. eigenvalues --   -1.13935  -1.13926  -1.13917  -1.13910  -1.13876
  Beta  occ. eigenvalues --   -1.13868  -1.13748  -1.13710  -1.13612  -1.13489
  Beta  occ. eigenvalues --   -1.13464  -1.13410  -1.13216  -1.13200  -1.13176
  Beta  occ. eigenvalues --   -0.16900  -0.13280  -0.10885
  Beta virt. eigenvalues --   -0.08064  -0.06702  -0.05423  -0.04029  -0.03014
  Beta virt. eigenvalues --   -0.02578  -0.02303  -0.01964  -0.01426  -0.00763
  Beta virt. eigenvalues --   -0.00181   0.00045   0.00184   0.00272   0.00529

 Mulliken charges and spin densities:
               1          2
     1  Na   0.870854   0.099667
     2  Na  -0.409237   0.172666
     3  Na  -0.566180  -0.052468
     4  Na   0.227338  -0.002628
     5  Na  -0.136908   0.123171
     6  Na  -0.055771   0.372048
     7  Na   0.069904   0.287543
 Sum of Mulliken charges =  -0.00000   1.00000

 Dipole moment (field-independent basis, Debye):
    X=             -0.7724    Y=             -0.6955    Z=              0.9145  Tot=              1.3844
 Quadrupole moment (field-independent basis, Debye-Ang):
   XX=            -56.1803   YY=            -76.2006   ZZ=            -66.4261
   XY=             -4.5678   XZ=             -0.1460   YZ=              0.5997

 Normal termination of Gaussian 16 at Mon Dec  4 01:13:05 2023.
