 Gaussian 16, Revision B.01,
 Gaussian 16:  ES64L-G16RevB.01 20-Dec-2017

 -------------------------
 #P B3LYP/6-311+g(d) force
 -------------------------

 -----
 DPGEN
 -----
 Symbolic Z-matrix:
 Charge =  0 Multiplicity = 2

                         Standard orientation:
 ---------------------------------------------------------------------
 Center     Atomic      Atomic             Coordinates (Angstroms)
 Number     Number       Type             X           Y           Z
 ---------------------------------------------------------------------
      1         11           0       -2.094299    1.979487    0.605721
      2         11           0        0.804160    0.656566    1.599176
      3         11           0       -0.145270   -2.660449    0.210579
      4         11           0       -0.123044   -0.250145   -1.271132
      5         11           0        2.965521   -1.630662    0.067095
      6         11           0       -3.448404   -0.755409   -0.388131
      7         11           0        2.041336    2.660612   -0.823308
 ---------------------------------------------------------------------

 SCF Done:  E(UB3LYP) =  -1136.12613599     A.U. after   22 cycles

 The electronic state is 2-A.
 Alpha  occ. eigenvalues --  -38.44664 -38.44143 -38.43834 -38.43652 -38.43579
 Alpha  occ. eigenvalues --  -38.43302 -38.42975  -2.20491  -2.19969  -2.19697
 Alpha  occ. eigenvalues --   -2.19566  -2.19387  -2.19339  -2.18933  -1.14159
 Alpha  occ. eigenvalues --   -1.14145  -1.14133  -1.13657  -1.13633  -1.13609
 Alpha  occ. eigenvalues --   -1.13455  -1.13375  -1.13353  -1.13316  -1.13209
 Alpha  occ. eigenvalues --   -1.13150  -1.13055  -1.13052  -1.13033  -1.13022
 Alpha  occ. eigenvalues --   -1.12934  -1.12910  -1.12638  -1.12562  -1.12532
 Alpha  occ. eigenvalues --   -0.18585  -0.13379  -0.12464  -0.10034
 Alpha virt. eigenvalues --   -0.06180  -0.05466  -0.04601  -0.02961  -0.02774
 Alpha virt. eigenvalues --   -0.02090  -0.01646  -0.01451  -0.00597  -0.00266
 Alpha virt. eigenvalues --   -0.00005   0.00268   0.00733   0.00748   0.00825

  Beta  occ. eigenvalues --  -38.44659 -38.44140 -38.43810 -38.43645 -38.43542
  Beta  occ. eigenvalues --  -38.43257 -38.42921  -2.20483  -2.19966  -2.19655
  Beta  occ. eigenvalues --   -2.19558  -2.19320  -2.19260  -2.18835  -1.14146
  Beta  occ. eigenvalues --   -1.14140  -1.14122  -1.13656  -1.13621  -1.13603
  Beta  occ. eigenvalues --   -1.13435  -1.13345  -1.13305  -1.13295  -1.13189
  Beta  occ. eigenvalues --   -1.13135  -1.13004  -1.12995  -1.12979  -1.12976
  Beta  occ. eigenvalues --   -1.12890  -1.12851  -1.12574  -1.12480  -1.12459
  Beta  occ. eigenvalues --   -0.17976  -0.13158  -0.12116
  Beta virt. eigenvalues --   -0.06395  -0.06081  -0.05259  -0.04467  -0.02413
  Beta virt. eigenvalues --   -0.02145  -0.01996  -0.01324  -0.00821  -0.00496
  Beta virt. eigenvalues --   -0.00261   0.00155   0.00339   0.00763   0.00829

 Mulliken charges and spin densities:
               1          2
     1  Na  -0.034746   0.070536
     2  Na   0.097840   0.246011
     3  Na  -0.039275   0.068768
     4  Na  -0.249860   0.357892
     5  Na   0.248392   0.070224
     6  Na   0.229506  -0.004622
     7  Na  -0.251856   0.191190
 Sum of Mulliken charges =  -0.00000   1.00000

 Dipole moment (field-independent basis, Debye):
    X=              0.1953    Y=             -0.3775    Z=              0.1429  Tot=              0.4485
 Quadrupole moment (field-independent basis, Debye-Ang):
   XX=            -50.7633   YY=            -63.7663   ZZ=            -76.5655
   XY=             -1.2917   XZ=             -0.4955   YZ=             -1.3709

 Normal termination of Gaussian 16 at Tue Dec  5 20:11:38 2023.
