 Gaussian 16, Revision B.01,
 Gaussian 16:  ES64L-G16RevB.01 20-Dec-2017

 -------------------------
 #P B3LYP/6-311+g(d) force
 -------------------------

 -----
 DPGEN
 -----
 Symbolic Z-matrix:
 Charge =  0 Multiplicity = 2

                         Standard orientation:
 ---------------------------------------------------------------------
 Center     Atomic      Atomic             Coordinates (Angstroms)
 Number     Number       Type             X           Y           Z
 ---------------------------------------------------------------------
      1         11           0       -0.013822    3.886600   -0.509347
      2         11           0       -0.612231   -3.288191   -0.118138
      3         11           0        3.723135    0.862868    1.019216
      4         11           0        2.796521   -1.843553   -0.821295
      5         11           0        0.230142    0.196709   -0.056753
      6         11           0       -2.911001    1.771227   -0.005982
      7         11           0       -3.212744   -1.585660    0.492299
 ---------------------------------------------------------------------

 SCF Done:  E(UB3LYP) =  -1136.12679275     A.U. after   21 cycles

 The electronic state is 2-A.
 Alpha  occ. eigenvalues --  -38.44475 -38.44215 -38.44024 -38.43955 -38.43876
 Alpha  occ. eigenvalues --  -38.43634 -38.43394  -2.20296  -2.20036  -2.19890
 Alpha  occ. eigenvalues --   -2.19746  -2.19695  -2.19478  -2.19252  -1.13992
 Alpha  occ. eigenvalues --   -1.13967  -1.13925  -1.13727  -1.13721  -1.13654
 Alpha  occ. eigenvalues --   -1.13630  -1.13538  -1.13515  -1.13406  -1.13395
 Alpha  occ. eigenvalues --   -1.13358  -1.13347  -1.13337  -1.13306  -1.13164
 Alpha  occ. eigenvalues --   -1.13144  -1.13119  -1.12911  -1.12898  -1.12883
 Alpha  occ. eigenvalues --   -0.17054  -0.13841  -0.13019  -0.09951
 Alpha virt. eigenvalues --   -0.06493  -0.05722  -0.04315  -0.03532  -0.02560
 Alpha virt. eigenvalues --   -0.02211  -0.02106  -0.01449  -0.01360  -0.00554
 Alpha virt. eigenvalues --   -0.00016   0.00192   0.00388   0.00551   0.00700

  Beta  occ. eigenvalues --  -38.44470 -38.44199 -38.44031 -38.43906 -38.43802
  Beta  occ. eigenvalues --  -38.43612 -38.43363  -2.20293  -2.20012  -2.19902
  Beta  occ. eigenvalues --   -2.19654  -2.19557  -2.19438  -2.19196  -1.13996
  Beta  occ. eigenvalues --   -1.13971  -1.13877  -1.13717  -1.13710  -1.13631
  Beta  occ. eigenvalues --   -1.13596  -1.13551  -1.13524  -1.13342  -1.13332
  Beta  occ. eigenvalues --   -1.13299  -1.13251  -1.13241  -1.13219  -1.13141
  Beta  occ. eigenvalues --   -1.13118  -1.13081  -1.12874  -1.12857  -1.12840
  Beta  occ. eigenvalues --   -0.16742  -0.13137  -0.12584
  Beta virt. eigenvalues --   -0.06668  -0.06319  -0.05470  -0.04119  -0.03011
  Beta virt. eigenvalues --   -0.02129  -0.02038  -0.01893  -0.01263  -0.01103
  Beta virt. eigenvalues --   -0.00256   0.00196   0.00376   0.00510   0.00636

 Mulliken charges and spin densities:
               1          2
     1  Na   0.762253   0.276847
     2  Na   0.492087   0.060328
     3  Na   0.828824   0.390963
     4  Na   1.255792   0.058699
     5  Na  -3.335526  -0.123926
     6  Na   0.005273   0.152162
     7  Na  -0.008702   0.184927
 Sum of Mulliken charges =  -0.00000   1.00000

 Dipole moment (field-independent basis, Debye):
    X=              0.3949    Y=              0.0622    Z=             -0.2037  Tot=              0.4486
 Quadrupole moment (field-independent basis, Debye-Ang):
   XX=            -65.2975   YY=            -60.1181   ZZ=            -71.3121
   XY=             -0.4569   XZ=             -1.6569   YZ=              1.3220

 Normal termination of Gaussian 16 at Sat Dec  9 06:29:10 2023.
