 Gaussian 16, Revision B.01,
 Gaussian 16:  ES64L-G16RevB.01 20-Dec-2017

 -------------------------
 #P B3LYP/6-311+g(d) force
 -------------------------

 -----
 DPGEN
 -----
 Symbolic Z-matrix:
 Charge =  0 Multiplicity = 2

                         Standard orientation:
 ---------------------------------------------------------------------
 Center     Atomic      Atomic             Coordinates (Angstroms)
 Number     Number       Type             X           Y           Z
 ---------------------------------------------------------------------
      1         11           0        3.219886   -0.325854   -0.061838
      2         11           0       -0.048305   -0.207766   -1.767629
      3         11           0       -2.453338   -1.533441    0.067125
      4         11           0       -0.257168    0.288695    1.928664
      5         11           0        1.278248    2.401897   -0.010470
      6         11           0       -2.406332    1.725467   -0.290152
      7         11           0        0.667009   -2.348998    0.134300
 ---------------------------------------------------------------------

 SCF Done:  E(UB3LYP) =  -1136.13480502     A.U. after   19 cycles

 The electronic state is 2-A.
 Alpha  occ. eigenvalues --  -38.44216 -38.43647 -38.43544 -38.43466 -38.43433
 Alpha  occ. eigenvalues --  -38.43186 -38.42804  -2.20060  -2.19525  -2.19471
 Alpha  occ. eigenvalues --   -2.19455  -2.19435  -2.19067  -2.18781  -1.13731
 Alpha  occ. eigenvalues --   -1.13718  -1.13711  -1.13255  -1.13212  -1.13202
 Alpha  occ. eigenvalues --   -1.13175  -1.13149  -1.13135  -1.13107  -1.13088
 Alpha  occ. eigenvalues --   -1.13083  -1.13064  -1.13040  -1.13036  -1.12748
 Alpha  occ. eigenvalues --   -1.12738  -1.12683  -1.12477  -1.12432  -1.12388
 Alpha  occ. eigenvalues --   -0.19411  -0.13422  -0.12343  -0.11093
 Alpha virt. eigenvalues --   -0.05775  -0.05027  -0.04056  -0.03358  -0.02907
 Alpha virt. eigenvalues --   -0.02623  -0.01657  -0.00915  -0.00082  -0.00017
 Alpha virt. eigenvalues --    0.00124   0.00356   0.00812   0.00943   0.00979

  Beta  occ. eigenvalues --  -38.44216 -38.43639 -38.43536 -38.43377 -38.43357
  Beta  occ. eigenvalues --  -38.43180 -38.42792  -2.20063  -2.19513  -2.19462
  Beta  occ. eigenvalues --   -2.19316  -2.19273  -2.19060  -2.18766  -1.13735
  Beta  occ. eigenvalues --   -1.13717  -1.13701  -1.13240  -1.13174  -1.13169
  Beta  occ. eigenvalues --   -1.13156  -1.13097  -1.13085  -1.13075  -1.13010
  Beta  occ. eigenvalues --   -1.12987  -1.12952  -1.12943  -1.12931  -1.12740
  Beta  occ. eigenvalues --   -1.12703  -1.12683  -1.12464  -1.12388  -1.12376
  Beta  occ. eigenvalues --   -0.18639  -0.13175  -0.12065
  Beta virt. eigenvalues --   -0.07102  -0.05733  -0.05036  -0.04056  -0.02546
  Beta virt. eigenvalues --   -0.02070  -0.01587  -0.01527  -0.00860  -0.00114
  Beta virt. eigenvalues --    0.00076   0.00108   0.00376   0.00868   0.00934

 Mulliken charges and spin densities:
               1          2
     1  Na  -0.036382  -0.081614
     2  Na  -0.677478   0.604214
     3  Na   0.432474   0.004324
     4  Na  -0.636405   0.647735
     5  Na   0.238623  -0.107367
     6  Na   0.225413  -0.075098
     7  Na   0.453755   0.007808
 Sum of Mulliken charges =  -0.00000   1.00000

 Dipole moment (field-independent basis, Debye):
    X=              0.0941    Y=              0.1942    Z=              0.0543  Tot=              0.2225
 Quadrupole moment (field-independent basis, Debye-Ang):
   XX=            -53.9010   YY=            -67.4080   ZZ=            -72.5195
   XY=             -0.1391   XZ=              0.3074   YZ=             -1.1378

 Normal termination of Gaussian 16 at Fri Dec  8 02:15:30 2023.
