 Gaussian 16, Revision B.01,
 Gaussian 16:  ES64L-G16RevB.01 20-Dec-2017

 -------------------------
 #P B3LYP/6-311+g(d) force
 -------------------------

 -----
 DPGEN
 -----
 Symbolic Z-matrix:
 Charge =  0 Multiplicity = 2

                         Standard orientation:
 ---------------------------------------------------------------------
 Center     Atomic      Atomic             Coordinates (Angstroms)
 Number     Number       Type             X           Y           Z
 ---------------------------------------------------------------------
      1         11           0        1.083891    2.089550    0.336028
      2         11           0       -2.796512    1.873075   -0.085533
      3         11           0       -0.233482   -0.307351   -1.858932
      4         11           0       -0.597607   -0.414468    2.008075
      5         11           0       -2.819377   -1.436678   -0.354927
      6         11           0        3.900772    0.509113   -0.316878
      7         11           0        1.462315   -2.313241    0.272167
 ---------------------------------------------------------------------

 SCF Done:  E(UB3LYP) =  -1136.12582936     A.U. after   22 cycles

 The electronic state is 2-A.
 Alpha  occ. eigenvalues --  -38.45165 -38.44475 -38.44239 -38.43908 -38.43549
 Alpha  occ. eigenvalues --  -38.43148 -38.43091  -2.20939  -2.20345  -2.20142
 Alpha  occ. eigenvalues --   -2.19722  -2.19471  -2.18987  -2.18943  -1.14609
 Alpha  occ. eigenvalues --   -1.14602  -1.14571  -1.14054  -1.14015  -1.13964
 Alpha  occ. eigenvalues --   -1.13819  -1.13773  -1.13756  -1.13393  -1.13384
 Alpha  occ. eigenvalues --   -1.13365  -1.13149  -1.13104  -1.13079  -1.12673
 Alpha  occ. eigenvalues --   -1.12667  -1.12640  -1.12626  -1.12599  -1.12552
 Alpha  occ. eigenvalues --   -0.18490  -0.13634  -0.11417  -0.11015
 Alpha virt. eigenvalues --   -0.06897  -0.05409  -0.03734  -0.03272  -0.02855
 Alpha virt. eigenvalues --   -0.02545  -0.02440  -0.01338  -0.00498  -0.00216
 Alpha virt. eigenvalues --    0.00126   0.00170   0.00444   0.00666   0.00763

  Beta  occ. eigenvalues --  -38.45165 -38.44459 -38.44175 -38.43907 -38.43452
  Beta  occ. eigenvalues --  -38.43143 -38.43079  -2.20939  -2.20320  -2.20025
  Beta  occ. eigenvalues --   -2.19723  -2.19294  -2.18980  -2.18924  -1.14609
  Beta  occ. eigenvalues --   -1.14599  -1.14571  -1.14024  -1.13983  -1.13945
  Beta  occ. eigenvalues --   -1.13738  -1.13692  -1.13671  -1.13396  -1.13374
  Beta  occ. eigenvalues --   -1.13357  -1.13030  -1.12986  -1.12947  -1.12669
  Beta  occ. eigenvalues --   -1.12637  -1.12631  -1.12596  -1.12588  -1.12540
  Beta  occ. eigenvalues --   -0.17742  -0.13440  -0.11170
  Beta virt. eigenvalues --   -0.07126  -0.06705  -0.05421  -0.03442  -0.02866
  Beta virt. eigenvalues --   -0.02391  -0.01817  -0.01702  -0.01309  -0.00477
  Beta virt. eigenvalues --   -0.00035   0.00112   0.00209   0.00651   0.00722

 Mulliken charges and spin densities:
               1          2
     1  Na  -0.044317  -0.100991
     2  Na  -0.086711  -0.069281
     3  Na  -0.437190   0.628331
     4  Na  -0.209721   0.656673
     5  Na   0.625308  -0.015500
     6  Na  -0.016488   0.012421
     7  Na   0.169118  -0.111652
 Sum of Mulliken charges =  -0.00000   1.00000

 Dipole moment (field-independent basis, Debye):
    X=              0.1819    Y=             -0.2558    Z=             -0.1932  Tot=              0.3686
 Quadrupole moment (field-independent basis, Debye-Ang):
   XX=            -47.4712   YY=            -72.9569   ZZ=            -72.6674
   XY=             -0.7749   XZ=             -0.8506   YZ=             -0.1189

 Normal termination of Gaussian 16 at Tue Dec  5 19:32:52 2023.
