 Gaussian 16, Revision B.01,
 Gaussian 16:  ES64L-G16RevB.01 20-Dec-2017

 -------------------------
 #P B3LYP/6-311+g(d) force
 -------------------------

 -----
 DPGEN
 -----
 Symbolic Z-matrix:
 Charge =  0 Multiplicity = 2

                         Standard orientation:
 ---------------------------------------------------------------------
 Center     Atomic      Atomic             Coordinates (Angstroms)
 Number     Number       Type             X           Y           Z
 ---------------------------------------------------------------------
      1         11           0        1.821901   -1.928525    1.359730
      2         11           0        1.552796    1.138962   -0.733159
      3         11           0       -1.988353    0.708124    0.431044
      4         11           0       -0.565449   -2.124890   -0.485585
      5         11           0       -4.282306   -1.737057   -0.397511
      6         11           0       -1.005011    4.221918    0.306893
      7         11           0        4.466422   -0.278532   -0.481411
 ---------------------------------------------------------------------

 SCF Done:  E(UB3LYP) =  -1136.12249647     A.U. after   20 cycles

 The electronic state is 2-A.
 Alpha  occ. eigenvalues --  -38.44592 -38.44453 -38.43977 -38.43933 -38.43819
 Alpha  occ. eigenvalues --  -38.43792 -38.43602  -2.20459  -2.20277  -2.19830
 Alpha  occ. eigenvalues --   -2.19818  -2.19606  -2.19566  -2.19454  -1.14183
 Alpha  occ. eigenvalues --   -1.14114  -1.14061  -1.13991  -1.13970  -1.13877
 Alpha  occ. eigenvalues --   -1.13520  -1.13508  -1.13471  -1.13458  -1.13434
 Alpha  occ. eigenvalues --   -1.13425  -1.13266  -1.13254  -1.13243  -1.13241
 Alpha  occ. eigenvalues --   -1.13212  -1.13190  -1.13174  -1.13152  -1.13022
 Alpha  occ. eigenvalues --   -0.17402  -0.13893  -0.12221  -0.10708
 Alpha virt. eigenvalues --   -0.06584  -0.05302  -0.04533  -0.03641  -0.02736
 Alpha virt. eigenvalues --   -0.02426  -0.01766  -0.01239  -0.01034  -0.00700
 Alpha virt. eigenvalues --   -0.00596  -0.00250   0.00355   0.00512   0.00614

  Beta  occ. eigenvalues --  -38.44549 -38.44440 -38.43907 -38.43901 -38.43827
  Beta  occ. eigenvalues --  -38.43720 -38.43600  -2.20384  -2.20257  -2.19789
  Beta  occ. eigenvalues --   -2.19678  -2.19581  -2.19471  -2.19451  -1.14108
  Beta  occ. eigenvalues --   -1.14065  -1.14008  -1.13978  -1.13937  -1.13855
  Beta  occ. eigenvalues --   -1.13497  -1.13471  -1.13385  -1.13370  -1.13363
  Beta  occ. eigenvalues --   -1.13338  -1.13253  -1.13252  -1.13199  -1.13174
  Beta  occ. eigenvalues --   -1.13171  -1.13161  -1.13142  -1.13128  -1.13012
  Beta  occ. eigenvalues --   -0.16882  -0.13186  -0.11935
  Beta virt. eigenvalues --   -0.07195  -0.06395  -0.05183  -0.04059  -0.03218
  Beta virt. eigenvalues --   -0.02509  -0.02162  -0.01603  -0.00909  -0.00617
  Beta virt. eigenvalues --   -0.00578  -0.00196   0.00012   0.00423   0.00577

 Mulliken charges and spin densities:
               1          2
     1  Na   0.479487   0.137524
     2  Na  -0.690533   0.196194
     3  Na  -0.844240   0.130145
     4  Na  -0.314408  -0.023180
     5  Na   0.632303   0.320508
     6  Na   0.448122  -0.036852
     7  Na   0.289270   0.275662
 Sum of Mulliken charges =  -0.00000   1.00000

 Dipole moment (field-independent basis, Debye):
    X=              0.5521    Y=             -0.6887    Z=              0.4222  Tot=              0.9784
 Quadrupole moment (field-independent basis, Debye-Ang):
   XX=            -64.9725   YY=            -64.4178   ZZ=            -67.8816
   XY=             -3.6405   XZ=              1.3936   YZ=              0.4256

 Normal termination of Gaussian 16 at Wed Nov 29 02:20:15 2023.
