 Gaussian 16, Revision B.01,
 Gaussian 16:  ES64L-G16RevB.01 20-Dec-2017

 -------------------------
 #P B3LYP/6-311+g(d) force
 -------------------------

 -----
 DPGEN
 -----
 Symbolic Z-matrix:
 Charge =  0 Multiplicity = 2

                         Standard orientation:
 ---------------------------------------------------------------------
 Center     Atomic      Atomic             Coordinates (Angstroms)
 Number     Number       Type             X           Y           Z
 ---------------------------------------------------------------------
      1         11           0        2.805592   -3.163564   -0.526453
      2         11           0       -0.804730   -2.368490    0.892058
      3         11           0       -3.406914   -2.167501   -0.447490
      4         11           0       -3.704127    1.324717    0.330974
      5         11           0       -1.310173    3.181138   -0.632261
      6         11           0        3.752794    0.129527    0.042190
      7         11           0        2.667557    3.064174    0.340982
 ---------------------------------------------------------------------

 SCF Done:  E(UB3LYP) =  -1136.11050598     A.U. after   20 cycles

 The electronic state is 2-A.
 Alpha  occ. eigenvalues --  -38.45094 -38.44630 -38.44397 -38.44390 -38.44342
 Alpha  occ. eigenvalues --  -38.44015 -38.43959  -2.20895  -2.20440  -2.20252
 Alpha  occ. eigenvalues --   -2.20195  -2.20124  -2.19812  -2.19774  -1.14633
 Alpha  occ. eigenvalues --   -1.14552  -1.14532  -1.14131  -1.14109  -1.14069
 Alpha  occ. eigenvalues --   -1.13917  -1.13892  -1.13882  -1.13873  -1.13864
 Alpha  occ. eigenvalues --   -1.13847  -1.13790  -1.13788  -1.13750  -1.13461
 Alpha  occ. eigenvalues --   -1.13452  -1.13438  -1.13425  -1.13418  -1.13392
 Alpha  occ. eigenvalues --   -0.15910  -0.14185  -0.13231  -0.10927
 Alpha virt. eigenvalues --   -0.06950  -0.05087  -0.04225  -0.03436  -0.03179
 Alpha virt. eigenvalues --   -0.02721  -0.02218  -0.02138  -0.01333  -0.00508
 Alpha virt. eigenvalues --   -0.00228  -0.00056   0.00312   0.00536   0.00586

  Beta  occ. eigenvalues --  -38.45085 -38.44601 -38.44376 -38.44358 -38.44318
  Beta  occ. eigenvalues --  -38.43943 -38.43896  -2.20884  -2.20390  -2.20182
  Beta  occ. eigenvalues --   -2.20177  -2.20085  -2.19680  -2.19661  -1.14610
  Beta  occ. eigenvalues --   -1.14549  -1.14513  -1.14088  -1.14079  -1.14022
  Beta  occ. eigenvalues --   -1.13869  -1.13867  -1.13867  -1.13833  -1.13820
  Beta  occ. eigenvalues --   -1.13795  -1.13766  -1.13763  -1.13703  -1.13371
  Beta  occ. eigenvalues --   -1.13362  -1.13351  -1.13345  -1.13342  -1.13315
  Beta  occ. eigenvalues --   -0.15455  -0.13331  -0.12375
  Beta virt. eigenvalues --   -0.07801  -0.07124  -0.04817  -0.03862  -0.03086
  Beta virt. eigenvalues --   -0.02738  -0.02457  -0.02031  -0.01881  -0.01119
  Beta virt. eigenvalues --   -0.00215  -0.00022   0.00202   0.00412   0.00521

 Mulliken charges and spin densities:
               1          2
     1  Na   0.261827   0.333957
     2  Na  -0.459489  -0.009327
     3  Na   0.359156   0.159025
     4  Na  -0.006171   0.120249
     5  Na  -0.070170   0.048716
     6  Na  -0.327104   0.121472
     7  Na   0.241952   0.225908
 Sum of Mulliken charges =  -0.00000   1.00000

 Dipole moment (field-independent basis, Debye):
    X=             -1.1159    Y=             -0.5017    Z=             -0.0856  Tot=              1.2265
 Quadrupole moment (field-independent basis, Debye-Ang):
   XX=            -62.2523   YY=            -68.5170   ZZ=            -70.4955
   XY=              1.7806   XZ=              0.2792   YZ=              1.3380

 Normal termination of Gaussian 16 at Sun Dec  3 14:15:04 2023.
