 Gaussian 16, Revision B.01,
 Gaussian 16:  ES64L-G16RevB.01 20-Dec-2017

 -------------------------
 #P B3LYP/6-311+g(d) force
 -------------------------

 -----
 DPGEN
 -----
 Symbolic Z-matrix:
 Charge =  0 Multiplicity = 2

                         Standard orientation:
 ---------------------------------------------------------------------
 Center     Atomic      Atomic             Coordinates (Angstroms)
 Number     Number       Type             X           Y           Z
 ---------------------------------------------------------------------
      1         11           0        0.199478    4.263957    0.061859
      2         11           0       -2.788500    2.113134    0.187582
      3         11           0        3.206627    1.806547    0.182620
      4         11           0        3.986977   -1.039733   -0.775454
      5         11           0       -4.227080   -0.523720   -0.222196
      6         11           0        1.174567   -3.335397    1.083916
      7         11           0       -1.552069   -3.284787   -0.518327
 ---------------------------------------------------------------------

 SCF Done:  E(UB3LYP) =  -1136.10865906     A.U. after   20 cycles

 The electronic state is 2-A.
 Alpha  occ. eigenvalues --  -38.44714 -38.44675 -38.44665 -38.44545 -38.44497
 Alpha  occ. eigenvalues --  -38.44166 -38.44129  -2.20503  -2.20457  -2.20449
 Alpha  occ. eigenvalues --   -2.20341  -2.20309  -2.19962  -2.19951  -1.14228
 Alpha  occ. eigenvalues --   -1.14180  -1.14163  -1.14140  -1.14130  -1.14112
 Alpha  occ. eigenvalues --   -1.14110  -1.14096  -1.14057  -1.14050  -1.14015
 Alpha  occ. eigenvalues --   -1.13999  -1.13955  -1.13934  -1.13924  -1.13609
 Alpha  occ. eigenvalues --   -1.13602  -1.13599  -1.13585  -1.13579  -1.13577
 Alpha  occ. eigenvalues --   -0.15512  -0.13937  -0.13527  -0.11120
 Alpha virt. eigenvalues --   -0.07155  -0.04993  -0.04237  -0.03499  -0.03256
 Alpha virt. eigenvalues --   -0.02596  -0.02428  -0.01810  -0.01682  -0.00734
 Alpha virt. eigenvalues --   -0.00282  -0.00111   0.00153   0.00522   0.00604

  Beta  occ. eigenvalues --  -38.44683 -38.44667 -38.44649 -38.44539 -38.44447
  Beta  occ. eigenvalues --  -38.44087 -38.44076  -2.20449  -2.20448  -2.20423
  Beta  occ. eigenvalues --   -2.20337  -2.20218  -2.19863  -2.19804  -1.14185
  Beta  occ. eigenvalues --   -1.14152  -1.14130  -1.14129  -1.14107  -1.14092
  Beta  occ. eigenvalues --   -1.14086  -1.14079  -1.14027  -1.14019  -1.14007
  Beta  occ. eigenvalues --   -1.13978  -1.13895  -1.13879  -1.13857  -1.13543
  Beta  occ. eigenvalues --   -1.13533  -1.13513  -1.13502  -1.13487  -1.13480
  Beta  occ. eigenvalues --   -0.14981  -0.13173  -0.12628
  Beta virt. eigenvalues --   -0.08052  -0.07326  -0.04640  -0.03770  -0.03190
  Beta virt. eigenvalues --   -0.02932  -0.02398  -0.02128  -0.01644  -0.01446
  Beta virt. eigenvalues --   -0.00387  -0.00076   0.00113   0.00288   0.00482

 Mulliken charges and spin densities:
               1          2
     1  Na   0.319442   0.401369
     2  Na  -0.447924   0.074546
     3  Na  -0.312440   0.004553
     4  Na   0.184802   0.196624
     5  Na   0.459442   0.170766
     6  Na  -0.001778   0.094729
     7  Na  -0.201544   0.057413
 Sum of Mulliken charges =  -0.00000   1.00000

 Dipole moment (field-independent basis, Debye):
    X=              0.3224    Y=             -0.8392    Z=             -0.0510  Tot=              0.9004
 Quadrupole moment (field-independent basis, Debye-Ang):
   XX=            -64.5867   YY=            -65.6973   ZZ=            -70.5133
   XY=              0.3750   XZ=              1.5466   YZ=              1.6259

 Normal termination of Gaussian 16 at Sun Dec  3 12:45:25 2023.
