 Gaussian 16, Revision B.01,
 Gaussian 16:  ES64L-G16RevB.01 20-Dec-2017

 -------------------------
 #P B3LYP/6-311+g(d) force
 -------------------------

 -----
 DPGEN
 -----
 Symbolic Z-matrix:
 Charge =  0 Multiplicity = 2

                         Standard orientation:
 ---------------------------------------------------------------------
 Center     Atomic      Atomic             Coordinates (Angstroms)
 Number     Number       Type             X           Y           Z
 ---------------------------------------------------------------------
      1         11           0        0.135146    0.168193   -1.622247
      2         11           0       -3.241634    1.459652    0.046712
      3         11           0        1.405197   -2.914689   -0.454131
      4         11           0       -2.321039   -1.990728   -0.147730
      5         11           0        0.425474   -0.993279    2.046836
      6         11           0        0.390939    3.227484    0.221501
      7         11           0        3.205917    1.043367   -0.090941
 ---------------------------------------------------------------------

 SCF Done:  E(UB3LYP) =  -1136.13142280     A.U. after   20 cycles

 The electronic state is 2-A.
 Alpha  occ. eigenvalues --  -38.44424 -38.44219 -38.44136 -38.44039 -38.44031
 Alpha  occ. eigenvalues --  -38.43485 -38.43327  -2.20204  -2.19994  -2.19943
 Alpha  occ. eigenvalues --   -2.19858  -2.19789  -2.19340  -2.19221  -1.13881
 Alpha  occ. eigenvalues --   -1.13864  -1.13844  -1.13674  -1.13662  -1.13625
 Alpha  occ. eigenvalues --   -1.13622  -1.13621  -1.13569  -1.13537  -1.13522
 Alpha  occ. eigenvalues --   -1.13495  -1.13465  -1.13439  -1.13436  -1.12994
 Alpha  occ. eigenvalues --   -1.12976  -1.12958  -1.12911  -1.12854  -1.12850
 Alpha  occ. eigenvalues --   -0.17714  -0.12812  -0.12439  -0.10179
 Alpha virt. eigenvalues --   -0.05927  -0.05629  -0.05230  -0.03075  -0.02808
 Alpha virt. eigenvalues --   -0.02258  -0.01602  -0.01509  -0.00969  -0.00827
 Alpha virt. eigenvalues --   -0.00031   0.00332   0.00729   0.00753   0.00793

  Beta  occ. eigenvalues --  -38.44421 -38.44217 -38.44130 -38.44034 -38.44029
  Beta  occ. eigenvalues --  -38.43398 -38.43265  -2.20202  -2.19991  -2.19935
  Beta  occ. eigenvalues --   -2.19845  -2.19795  -2.19179  -2.19108  -1.13866
  Beta  occ. eigenvalues --   -1.13858  -1.13846  -1.13663  -1.13658  -1.13621
  Beta  occ. eigenvalues --   -1.13620  -1.13592  -1.13569  -1.13524  -1.13491
  Beta  occ. eigenvalues --   -1.13485  -1.13462  -1.13445  -1.13440  -1.12885
  Beta  occ. eigenvalues --   -1.12864  -1.12844  -1.12832  -1.12769  -1.12765
  Beta  occ. eigenvalues --   -0.17036  -0.12633  -0.12269
  Beta virt. eigenvalues --   -0.06349  -0.05922  -0.05604  -0.05025  -0.02377
  Beta virt. eigenvalues --   -0.02175  -0.01539  -0.01443  -0.01275  -0.00970
  Beta virt. eigenvalues --   -0.00861   0.00157   0.00386   0.00738   0.00770

 Mulliken charges and spin densities:
               1          2
     1  Na   0.366495   0.559914
     2  Na  -0.184906  -0.069963
     3  Na   0.258654  -0.091971
     4  Na   0.088361  -0.027867
     5  Na  -0.394724   0.762189
     6  Na  -0.172507  -0.048035
     7  Na   0.038626  -0.084267
 Sum of Mulliken charges =  -0.00000   1.00000

 Dipole moment (field-independent basis, Debye):
    X=              0.3047    Y=              0.0571    Z=             -0.0518  Tot=              0.3143
 Quadrupole moment (field-independent basis, Debye-Ang):
   XX=            -57.2984   YY=            -58.5845   ZZ=            -77.3124
   XY=             -0.4993   XZ=             -0.7970   YZ=              2.7403

 Normal termination of Gaussian 16 at Thu Dec  7 19:52:56 2023.
