 Gaussian 16, Revision B.01,
 Gaussian 16:  ES64L-G16RevB.01 20-Dec-2017

 -------------------------
 #P B3LYP/6-311+g(d) force
 -------------------------

 -----
 DPGEN
 -----
 Symbolic Z-matrix:
 Charge =  0 Multiplicity = 2

                         Standard orientation:
 ---------------------------------------------------------------------
 Center     Atomic      Atomic             Coordinates (Angstroms)
 Number     Number       Type             X           Y           Z
 ---------------------------------------------------------------------
      1         11           0       -2.867514    1.494845   -0.122392
      2         11           0        0.345017    2.833177   -0.242244
      3         11           0        0.153859   -0.388061    2.073583
      4         11           0        1.824910   -2.237036   -0.692407
      5         11           0       -2.448116   -2.092460    0.166017
      6         11           0       -0.386470   -0.268949   -1.348986
      7         11           0        3.378314    0.658484    0.166428
 ---------------------------------------------------------------------

 SCF Done:  E(UB3LYP) =  -1136.13152409     A.U. after   20 cycles

 The electronic state is 2-A.
 Alpha  occ. eigenvalues --  -38.44618 -38.44135 -38.43992 -38.43676 -38.43675
 Alpha  occ. eigenvalues --  -38.43113 -38.42991  -2.20406  -2.19969  -2.19829
 Alpha  occ. eigenvalues --   -2.19547  -2.19539  -2.19034  -2.18940  -1.14077
 Alpha  occ. eigenvalues --   -1.14067  -1.14050  -1.13658  -1.13629  -1.13601
 Alpha  occ. eigenvalues --   -1.13527  -1.13484  -1.13458  -1.13291  -1.13220
 Alpha  occ. eigenvalues --   -1.13188  -1.13162  -1.13157  -1.13144  -1.12717
 Alpha  occ. eigenvalues --   -1.12687  -1.12672  -1.12610  -1.12602  -1.12564
 Alpha  occ. eigenvalues --   -0.18465  -0.13323  -0.12141  -0.10508
 Alpha virt. eigenvalues --   -0.06135  -0.05507  -0.04348  -0.03222  -0.02572
 Alpha virt. eigenvalues --   -0.02378  -0.01923  -0.01353  -0.00561  -0.00279
 Alpha virt. eigenvalues --   -0.00027   0.00297   0.00699   0.00796   0.00864

  Beta  occ. eigenvalues --  -38.44618 -38.44132 -38.43988 -38.43651 -38.43579
  Beta  occ. eigenvalues --  -38.43111 -38.42940  -2.20408  -2.19965  -2.19824
  Beta  occ. eigenvalues --   -2.19503  -2.19361  -2.18945  -2.18938  -1.14072
  Beta  occ. eigenvalues --   -1.14061  -1.14051  -1.13650  -1.13619  -1.13598
  Beta  occ. eigenvalues --   -1.13522  -1.13459  -1.13458  -1.13253  -1.13141
  Beta  occ. eigenvalues --   -1.13131  -1.13096  -1.13045  -1.13013  -1.12665
  Beta  occ. eigenvalues --   -1.12635  -1.12606  -1.12595  -1.12573  -1.12557
  Beta  occ. eigenvalues --   -0.17779  -0.13119  -0.11892
  Beta virt. eigenvalues --   -0.06612  -0.06050  -0.05486  -0.04277  -0.02517
  Beta virt. eigenvalues --   -0.01910  -0.01808  -0.01315  -0.01269  -0.00587
  Beta virt. eigenvalues --   -0.00284   0.00138   0.00343   0.00766   0.00803

 Mulliken charges and spin densities:
               1          2
     1  Na   0.189075   0.026106
     2  Na  -0.019732  -0.000126
     3  Na  -0.525065   0.743694
     4  Na   0.342066   0.077298
     5  Na   0.275212   0.045818
     6  Na  -0.299104   0.080383
     7  Na   0.037548   0.026827
 Sum of Mulliken charges =  -0.00000   1.00000

 Dipole moment (field-independent basis, Debye):
    X=             -0.0183    Y=             -0.0865    Z=              0.3121  Tot=              0.3244
 Quadrupole moment (field-independent basis, Debye-Ang):
   XX=            -50.8128   YY=            -65.2397   ZZ=            -76.0336
   XY=              1.2253   XZ=             -0.6140   YZ=              0.3885

 Normal termination of Gaussian 16 at Thu Dec  7 15:37:20 2023.
