 Gaussian 16, Revision B.01,
 Gaussian 16:  ES64L-G16RevB.01 20-Dec-2017

 -------------------------
 #P B3LYP/6-311+g(d) force
 -------------------------

 -----
 DPGEN
 -----
 Symbolic Z-matrix:
 Charge =  0 Multiplicity = 2

                         Standard orientation:
 ---------------------------------------------------------------------
 Center     Atomic      Atomic             Coordinates (Angstroms)
 Number     Number       Type             X           Y           Z
 ---------------------------------------------------------------------
      1         11           0       -1.023010    0.878444    1.633924
      2         11           0        2.025621    1.010571    0.412430
      3         11           0        0.783876   -2.359911    1.099074
      4         11           0       -3.641840    0.143557   -0.982203
      5         11           0       -1.843924   -2.771153   -0.630478
      6         11           0        4.328628   -0.390370   -1.155644
      7         11           0       -0.629351    3.488862   -0.377103
 ---------------------------------------------------------------------

 SCF Done:  E(UB3LYP) =  -1136.12207509     A.U. after   20 cycles

 The electronic state is 2-A.
 Alpha  occ. eigenvalues --  -38.44621 -38.44360 -38.44266 -38.44006 -38.43947
 Alpha  occ. eigenvalues --  -38.43831 -38.43234  -2.20401  -2.20232  -2.20063
 Alpha  occ. eigenvalues --   -2.19816  -2.19769  -2.19666  -2.19120  -1.14077
 Alpha  occ. eigenvalues --   -1.14063  -1.14047  -1.13931  -1.13885  -1.13833
 Alpha  occ. eigenvalues --   -1.13726  -1.13707  -1.13682  -1.13525  -1.13487
 Alpha  occ. eigenvalues --   -1.13458  -1.13440  -1.13402  -1.13383  -1.13326
 Alpha  occ. eigenvalues --   -1.13320  -1.13274  -1.12824  -1.12802  -1.12737
 Alpha  occ. eigenvalues --   -0.17189  -0.13402  -0.12654  -0.10875
 Alpha virt. eigenvalues --   -0.06458  -0.05198  -0.04581  -0.03834  -0.02862
 Alpha virt. eigenvalues --   -0.01984  -0.01638  -0.01455  -0.01099  -0.00671
 Alpha virt. eigenvalues --   -0.00430   0.00121   0.00438   0.00604   0.00648

  Beta  occ. eigenvalues --  -38.44625 -38.44328 -38.44199 -38.44007 -38.43866
  Beta  occ. eigenvalues --  -38.43796 -38.43229  -2.20409  -2.20175  -2.19938
  Beta  occ. eigenvalues --   -2.19821  -2.19619  -2.19603  -2.19117  -1.14082
  Beta  occ. eigenvalues --   -1.14066  -1.14051  -1.13890  -1.13840  -1.13792
  Beta  occ. eigenvalues --   -1.13641  -1.13628  -1.13594  -1.13512  -1.13489
  Beta  occ. eigenvalues --   -1.13453  -1.13340  -1.13299  -1.13284  -1.13283
  Beta  occ. eigenvalues --   -1.13271  -1.13237  -1.12808  -1.12783  -1.12725
  Beta  occ. eigenvalues --   -0.16672  -0.12668  -0.12366
  Beta virt. eigenvalues --   -0.07498  -0.06281  -0.04940  -0.04120  -0.03544
  Beta virt. eigenvalues --   -0.02596  -0.01496  -0.01334  -0.01227  -0.00842
  Beta virt. eigenvalues --   -0.00611  -0.00169   0.00279   0.00476   0.00683

 Mulliken charges and spin densities:
               1          2
     1  Na   0.884024   0.149284
     2  Na  -1.279825   0.093062
     3  Na  -0.091495   0.135225
     4  Na  -0.250917   0.413572
     5  Na   0.082892  -0.037396
     6  Na   0.489823   0.305152
     7  Na   0.165497  -0.058898
 Sum of Mulliken charges =  -0.00000   1.00000

 Dipole moment (field-independent basis, Debye):
    X=             -0.5106    Y=              0.4824    Z=             -0.2738  Tot=              0.7540
 Quadrupole moment (field-independent basis, Debye-Ang):
   XX=            -69.9472   YY=            -60.7231   ZZ=            -67.8265
   XY=             -3.9958   XZ=             -1.2974   YZ=             -1.4607

 Normal termination of Gaussian 16 at Tue Nov 28 23:56:06 2023.
