 Gaussian 16, Revision B.01,
 Gaussian 16:  ES64L-G16RevB.01 20-Dec-2017

 -------------------------
 #P B3LYP/6-311+g(d) force
 -------------------------

 -----
 DPGEN
 -----
 Symbolic Z-matrix:
 Charge =  0 Multiplicity = 2

                         Standard orientation:
 ---------------------------------------------------------------------
 Center     Atomic      Atomic             Coordinates (Angstroms)
 Number     Number       Type             X           Y           Z
 ---------------------------------------------------------------------
      1         11           0        2.883773    0.688051    0.328833
      2         11           0       -2.653415    0.900193    0.198486
      3         11           0        0.101652    0.024685    2.021419
      4         11           0       -2.582182   -2.412128   -0.012255
      5         11           0       -0.122154    3.023597   -0.448037
      6         11           0       -0.122069   -0.034862   -1.718328
      7         11           0        2.494396   -2.189536   -0.370118
 ---------------------------------------------------------------------

 SCF Done:  E(UB3LYP) =  -1136.13170014     A.U. after   20 cycles

 The electronic state is 2-A.
 Alpha  occ. eigenvalues --  -38.44103 -38.44058 -38.43964 -38.43780 -38.43752
 Alpha  occ. eigenvalues --  -38.43582 -38.42907  -2.19957  -2.19935  -2.19847
 Alpha  occ. eigenvalues --   -2.19689  -2.19540  -2.19509  -2.18763  -1.13767
 Alpha  occ. eigenvalues --   -1.13645  -1.13605  -1.13575  -1.13569  -1.13515
 Alpha  occ. eigenvalues --   -1.13494  -1.13480  -1.13457  -1.13392  -1.13362
 Alpha  occ. eigenvalues --   -1.13319  -1.13204  -1.13198  -1.13192  -1.13175
 Alpha  occ. eigenvalues --   -1.13140  -1.13130  -1.12439  -1.12422  -1.12401
 Alpha  occ. eigenvalues --   -0.18507  -0.13538  -0.11924  -0.10882
 Alpha virt. eigenvalues --   -0.05618  -0.05577  -0.04463  -0.03557  -0.02667
 Alpha virt. eigenvalues --   -0.02634  -0.01575  -0.01279  -0.00575  -0.00207
 Alpha virt. eigenvalues --    0.00002   0.00356   0.00737   0.00810   0.00885

  Beta  occ. eigenvalues --  -38.44097 -38.44049 -38.43872 -38.43772 -38.43756
  Beta  occ. eigenvalues --  -38.43514 -38.42899  -2.19945  -2.19925  -2.19678
  Beta  occ. eigenvalues --   -2.19676  -2.19550  -2.19385  -2.18752  -1.13764
  Beta  occ. eigenvalues --   -1.13617  -1.13582  -1.13565  -1.13547  -1.13489
  Beta  occ. eigenvalues --   -1.13419  -1.13381  -1.13361  -1.13338  -1.13322
  Beta  occ. eigenvalues --   -1.13310  -1.13207  -1.13198  -1.13181  -1.13109
  Beta  occ. eigenvalues --   -1.13049  -1.13039  -1.12423  -1.12416  -1.12381
  Beta  occ. eigenvalues --   -0.17758  -0.13325  -0.11724
  Beta virt. eigenvalues --   -0.06967  -0.05566  -0.05444  -0.04444  -0.02759
  Beta virt. eigenvalues --   -0.01994  -0.01652  -0.01468  -0.01162  -0.00617
  Beta virt. eigenvalues --   -0.00178   0.00120   0.00378   0.00808   0.00835

 Mulliken charges and spin densities:
               1          2
     1  Na   0.267677   0.093127
     2  Na   0.261488   0.064742
     3  Na  -0.158420   0.531084
     4  Na  -0.189897  -0.117966
     5  Na   0.022243   0.004748
     6  Na  -0.069794   0.502241
     7  Na  -0.133298  -0.077976
 Sum of Mulliken charges =  -0.00000   1.00000

 Dipole moment (field-independent basis, Debye):
    X=              0.2386    Y=             -0.2983    Z=              0.1040  Tot=              0.3959
 Quadrupole moment (field-independent basis, Debye-Ang):
   XX=            -59.2231   YY=            -61.7241   ZZ=            -74.0002
   XY=              0.0506   XZ=             -0.5121   YZ=              0.4947

 Normal termination of Gaussian 16 at Thu Dec  7 05:34:18 2023.
