 Gaussian 16, Revision B.01,
 Gaussian 16:  ES64L-G16RevB.01 20-Dec-2017

 -------------------------
 #P B3LYP/6-311+g(d) force
 -------------------------

 -----
 DPGEN
 -----
 Symbolic Z-matrix:
 Charge =  0 Multiplicity = 2

                         Standard orientation:
 ---------------------------------------------------------------------
 Center     Atomic      Atomic             Coordinates (Angstroms)
 Number     Number       Type             X           Y           Z
 ---------------------------------------------------------------------
      1         11           0       -1.649113   -0.241593    1.738635
      2         11           0        3.758694   -1.761394    0.252541
      3         11           0        0.281182   -1.155540   -0.695282
      4         11           0        3.036718    1.068919   -1.047935
      5         11           0        1.029491    1.763093    1.175770
      6         11           0       -2.235906    1.442799   -0.969362
      7         11           0       -4.221067   -1.116284   -0.454367
 ---------------------------------------------------------------------

 SCF Done:  E(UB3LYP) =  -1136.11465759     A.U. after   28 cycles

 The electronic state is 2-A.
 Alpha  occ. eigenvalues --  -38.45059 -38.44577 -38.44211 -38.43906 -38.43891
 Alpha  occ. eigenvalues --  -38.43827 -38.42631  -2.20937  -2.20458  -2.20115
 Alpha  occ. eigenvalues --   -2.19780  -2.19720  -2.19696  -2.18540  -1.14654
 Alpha  occ. eigenvalues --   -1.14590  -1.14546  -1.14159  -1.14138  -1.14040
 Alpha  occ. eigenvalues --   -1.13812  -1.13770  -1.13733  -1.13468  -1.13435
 Alpha  occ. eigenvalues --   -1.13404  -1.13387  -1.13377  -1.13364  -1.13357
 Alpha  occ. eigenvalues --   -1.13342  -1.13333  -1.12235  -1.12194  -1.12163
 Alpha  occ. eigenvalues --   -0.18382  -0.14692  -0.10993  -0.10574
 Alpha virt. eigenvalues --   -0.07043  -0.05924  -0.04463  -0.03145  -0.02829
 Alpha virt. eigenvalues --   -0.02301  -0.02036  -0.01600  -0.00787  -0.00462
 Alpha virt. eigenvalues --   -0.00089   0.00172   0.00354   0.00474   0.00553

  Beta  occ. eigenvalues --  -38.45019 -38.44539 -38.44171 -38.43912 -38.43896
  Beta  occ. eigenvalues --  -38.43767 -38.42609  -2.20869  -2.20387  -2.20040
  Beta  occ. eigenvalues --   -2.19735  -2.19707  -2.19672  -2.18503  -1.14564
  Beta  occ. eigenvalues --   -1.14551  -1.14503  -1.14110  -1.14089  -1.13987
  Beta  occ. eigenvalues --   -1.13761  -1.13724  -1.13677  -1.13413  -1.13391
  Beta  occ. eigenvalues --   -1.13380  -1.13375  -1.13370  -1.13356  -1.13345
  Beta  occ. eigenvalues --   -1.13337  -1.13291  -1.12202  -1.12151  -1.12134
  Beta  occ. eigenvalues --   -0.17768  -0.14436  -0.10737
  Beta virt. eigenvalues --   -0.06920  -0.06834  -0.05587  -0.04104  -0.02984
  Beta virt. eigenvalues --   -0.02620  -0.01777  -0.01564  -0.01199  -0.00418
  Beta virt. eigenvalues --   -0.00359  -0.00011   0.00228   0.00453   0.00556

 Mulliken charges and spin densities:
               1          2
     1  Na  -0.006690  -0.017032
     2  Na   0.136195  -0.142908
     3  Na  -0.723306   0.542765
     4  Na   0.225274   0.048240
     5  Na   0.195046   0.265939
     6  Na  -0.174313   0.301602
     7  Na   0.347793   0.001395
 Sum of Mulliken charges =  -0.00000   1.00000

 Dipole moment (field-independent basis, Debye):
    X=             -0.1721    Y=             -0.0241    Z=              0.3142  Tot=              0.3591
 Quadrupole moment (field-independent basis, Debye-Ang):
   XX=            -61.5576   YY=            -72.5618   ZZ=            -67.0697
   XY=              1.9823   XZ=             -0.1203   YZ=             -2.2707

 Normal termination of Gaussian 16 at Thu Dec  7 03:05:58 2023.
