 Gaussian 16, Revision B.01,
 Gaussian 16:  ES64L-G16RevB.01 20-Dec-2017

 -------------------------
 #P B3LYP/6-311+g(d) force
 -------------------------

 -----
 DPGEN
 -----
 Symbolic Z-matrix:
 Charge =  0 Multiplicity = 2

                         Standard orientation:
 ---------------------------------------------------------------------
 Center     Atomic      Atomic             Coordinates (Angstroms)
 Number     Number       Type             X           Y           Z
 ---------------------------------------------------------------------
      1         11           0        0.007991   -1.573109    0.505241
      2         11           0       -1.167938    2.055236    1.045859
      3         11           0       -3.131334   -1.932474    0.458136
      4         11           0       -2.536509    0.934192   -1.124650
      5         11           0        2.955144    0.196370    1.761359
      6         11           0        1.208926    1.856478   -1.128913
      7         11           0        2.663720   -1.536693   -1.517031
 ---------------------------------------------------------------------

 SCF Done:  E(UB3LYP) =  -1136.12329212     A.U. after   19 cycles

 The electronic state is 2-A.
 Alpha  occ. eigenvalues --  -38.44512 -38.44441 -38.44013 -38.43947 -38.43751
 Alpha  occ. eigenvalues --  -38.43550 -38.43352  -2.20422  -2.20250  -2.19856
 Alpha  occ. eigenvalues --   -2.19845  -2.19598  -2.19389  -2.19238  -1.14253
 Alpha  occ. eigenvalues --   -1.14068  -1.14011  -1.13914  -1.13892  -1.13866
 Alpha  occ. eigenvalues --   -1.13522  -1.13520  -1.13501  -1.13488  -1.13465
 Alpha  occ. eigenvalues --   -1.13463  -1.13282  -1.13270  -1.13202  -1.13096
 Alpha  occ. eigenvalues --   -1.13048  -1.13028  -1.12936  -1.12918  -1.12835
 Alpha  occ. eigenvalues --   -0.18101  -0.13981  -0.11846  -0.10578
 Alpha virt. eigenvalues --   -0.06089  -0.05686  -0.04825  -0.03495  -0.02644
 Alpha virt. eigenvalues --   -0.02312  -0.01876  -0.01075  -0.00829  -0.00137
 Alpha virt. eigenvalues --    0.00047   0.00241   0.00349   0.00362   0.00701

  Beta  occ. eigenvalues --  -38.44504 -38.44376 -38.43960 -38.43940 -38.43729
  Beta  occ. eigenvalues --  -38.43552 -38.43340  -2.20407  -2.20130  -2.19845
  Beta  occ. eigenvalues --   -2.19747  -2.19562  -2.19394  -2.19219  -1.14244
  Beta  occ. eigenvalues --   -1.14054  -1.13999  -1.13826  -1.13807  -1.13785
  Beta  occ. eigenvalues --   -1.13515  -1.13487  -1.13452  -1.13448  -1.13412
  Beta  occ. eigenvalues --   -1.13397  -1.13260  -1.13220  -1.13179  -1.13097
  Beta  occ. eigenvalues --   -1.13049  -1.13031  -1.12910  -1.12886  -1.12830
  Beta  occ. eigenvalues --   -0.17571  -0.13668  -0.11721
  Beta virt. eigenvalues --   -0.06876  -0.05822  -0.05544  -0.04287  -0.03345
  Beta virt. eigenvalues --   -0.02106  -0.01970  -0.01311  -0.00999  -0.00388
  Beta virt. eigenvalues --   -0.00064   0.00201   0.00324   0.00439   0.00514

 Mulliken charges and spin densities:
               1          2
     1  Na  -0.672867   0.367757
     2  Na   0.192597   0.159836
     3  Na  -0.062138  -0.135130
     4  Na   0.276819  -0.004589
     5  Na   0.059864   0.266315
     6  Na  -0.053020   0.280675
     7  Na   0.258746   0.065136
 Sum of Mulliken charges =  -0.00000   1.00000

 Dipole moment (field-independent basis, Debye):
    X=             -0.0245    Y=              0.2799    Z=             -0.1523  Tot=              0.3196
 Quadrupole moment (field-independent basis, Debye-Ang):
   XX=            -53.9739   YY=            -72.8692   ZZ=            -68.9999
   XY=             -0.1440   XZ=              0.4760   YZ=              1.0652

 Normal termination of Gaussian 16 at Wed Dec  6 00:30:53 2023.
