 Gaussian 16, Revision B.01,
 Gaussian 16:  ES64L-G16RevB.01 20-Dec-2017

 -------------------------
 #P B3LYP/6-311+g(d) force
 -------------------------

 -----
 DPGEN
 -----
 Symbolic Z-matrix:
 Charge =  0 Multiplicity = 2

                         Standard orientation:
 ---------------------------------------------------------------------
 Center     Atomic      Atomic             Coordinates (Angstroms)
 Number     Number       Type             X           Y           Z
 ---------------------------------------------------------------------
      1         11           0        1.448149   -1.176845    1.445601
      2         11           0        3.568907    0.310960   -0.331358
      3         11           0       -1.080192   -2.228545   -0.774763
      4         11           0        0.201134    2.471645    0.889329
      5         11           0       -2.176633   -0.494771    1.729855
      6         11           0        0.789092   -0.088449   -1.779618
      7         11           0       -2.750458    1.206005   -1.179046
 ---------------------------------------------------------------------

 SCF Done:  E(UB3LYP) =  -1136.12725563     A.U. after   22 cycles

 The electronic state is 2-A.
 Alpha  occ. eigenvalues --  -38.44565 -38.44243 -38.44159 -38.43937 -38.43753
 Alpha  occ. eigenvalues --  -38.43371 -38.42662  -2.20415  -2.20111  -2.19968
 Alpha  occ. eigenvalues --   -2.19901  -2.19657  -2.19156  -2.18580  -1.14111
 Alpha  occ. eigenvalues --   -1.14100  -1.14026  -1.13785  -1.13777  -1.13730
 Alpha  occ. eigenvalues --   -1.13643  -1.13619  -1.13608  -1.13592  -1.13541
 Alpha  occ. eigenvalues --   -1.13506  -1.13335  -1.13307  -1.13276  -1.12847
 Alpha  occ. eigenvalues --   -1.12832  -1.12768  -1.12295  -1.12230  -1.12187
 Alpha  occ. eigenvalues --   -0.18615  -0.13583  -0.11714  -0.11262
 Alpha virt. eigenvalues --   -0.06238  -0.05079  -0.04105  -0.03410  -0.03164
 Alpha virt. eigenvalues --   -0.02766  -0.01878  -0.00912  -0.00375   0.00022
 Alpha virt. eigenvalues --    0.00191   0.00305   0.00381   0.00730   0.00877

  Beta  occ. eigenvalues --  -38.44563 -38.44200 -38.44141 -38.43871 -38.43713
  Beta  occ. eigenvalues --  -38.43360 -38.42646  -2.20413  -2.20031  -2.19935
  Beta  occ. eigenvalues --   -2.19781  -2.19586  -2.19137  -2.18556  -1.14101
  Beta  occ. eigenvalues --   -1.14095  -1.14026  -1.13734  -1.13712  -1.13677
  Beta  occ. eigenvalues --   -1.13607  -1.13593  -1.13568  -1.13532  -1.13449
  Beta  occ. eigenvalues --   -1.13421  -1.13289  -1.13241  -1.13227  -1.12832
  Beta  occ. eigenvalues --   -1.12805  -1.12757  -1.12269  -1.12206  -1.12159
  Beta  occ. eigenvalues --   -0.17839  -0.13415  -0.11061
  Beta virt. eigenvalues --   -0.07745  -0.06105  -0.04618  -0.03846  -0.03243
  Beta virt. eigenvalues --   -0.02382  -0.01980  -0.01764  -0.00593  -0.00239
  Beta virt. eigenvalues --    0.00109   0.00242   0.00381   0.00443   0.00821

 Mulliken charges and spin densities:
               1          2
     1  Na  -0.194677   0.315881
     2  Na   0.450662  -0.034170
     3  Na   0.308130   0.055069
     4  Na  -0.476058   0.000068
     5  Na   0.037974   0.329877
     6  Na  -0.191002   0.373331
     7  Na   0.064970  -0.040056
 Sum of Mulliken charges =  -0.00000   1.00000

 Dipole moment (field-independent basis, Debye):
    X=              0.3908    Y=              0.1459    Z=              0.1062  Tot=              0.4304
 Quadrupole moment (field-independent basis, Debye-Ang):
   XX=            -52.7137   YY=            -76.2411   ZZ=            -65.7202
   XY=              1.0499   XZ=              0.5224   YZ=             -1.0141

 Normal termination of Gaussian 16 at Thu Dec  7 02:45:28 2023.
