 Gaussian 16, Revision B.01,
 Gaussian 16:  ES64L-G16RevB.01 20-Dec-2017

 -------------------------
 #P B3LYP/6-311+g(d) force
 -------------------------

 -----
 DPGEN
 -----
 Symbolic Z-matrix:
 Charge =  0 Multiplicity = 2

                         Standard orientation:
 ---------------------------------------------------------------------
 Center     Atomic      Atomic             Coordinates (Angstroms)
 Number     Number       Type             X           Y           Z
 ---------------------------------------------------------------------
      1         11           0       -1.770529   -2.551709    0.833090
      2         11           0        4.135655   -0.706290   -0.871242
      3         11           0       -0.091129    0.120567    2.011090
      4         11           0       -3.988850    0.011488   -1.052465
      5         11           0        2.295838    1.696352    0.705204
      6         11           0       -1.729522    2.458805   -0.455664
      7         11           0        1.148538   -1.029212   -1.170012
 ---------------------------------------------------------------------

 SCF Done:  E(UB3LYP) =  -1136.11778267     A.U. after   23 cycles

 The electronic state is 2-A.
 Alpha  occ. eigenvalues --  -38.45054 -38.44535 -38.44381 -38.44227 -38.43865
 Alpha  occ. eigenvalues --  -38.43658 -38.43002  -2.20843  -2.20399  -2.20241
 Alpha  occ. eigenvalues --   -2.20135  -2.19738  -2.19438  -2.18812  -1.14505
 Alpha  occ. eigenvalues --   -1.14488  -1.14453  -1.14136  -1.14083  -1.14051
 Alpha  occ. eigenvalues --   -1.13877  -1.13872  -1.13840  -1.13835  -1.13779
 Alpha  occ. eigenvalues --   -1.13737  -1.13436  -1.13402  -1.13334  -1.13131
 Alpha  occ. eigenvalues --   -1.13114  -1.13063  -1.12496  -1.12461  -1.12449
 Alpha  occ. eigenvalues --   -0.17681  -0.14160  -0.11589  -0.11294
 Alpha virt. eigenvalues --   -0.06494  -0.05255  -0.04591  -0.03397  -0.03029
 Alpha virt. eigenvalues --   -0.02584  -0.02189  -0.01297  -0.00797  -0.00192
 Alpha virt. eigenvalues --   -0.00120   0.00026   0.00362   0.00511   0.00699

  Beta  occ. eigenvalues --  -38.44984 -38.44527 -38.44342 -38.44145 -38.43847
  Beta  occ. eigenvalues --  -38.43655 -38.42986  -2.20714  -2.20387  -2.20168
  Beta  occ. eigenvalues --   -2.19987  -2.19710  -2.19436  -2.18785  -1.14417
  Beta  occ. eigenvalues --   -1.14399  -1.14364  -1.14121  -1.14064  -1.14034
  Beta  occ. eigenvalues --   -1.13827  -1.13822  -1.13801  -1.13734  -1.13682
  Beta  occ. eigenvalues --   -1.13627  -1.13400  -1.13385  -1.13307  -1.13133
  Beta  occ. eigenvalues --   -1.13117  -1.13036  -1.12466  -1.12445  -1.12430
  Beta  occ. eigenvalues --   -0.17102  -0.13433  -0.11027
  Beta virt. eigenvalues --   -0.08061  -0.06293  -0.04889  -0.04169  -0.03153
  Beta virt. eigenvalues --   -0.02553  -0.02316  -0.01693  -0.01171  -0.00472
  Beta virt. eigenvalues --   -0.00067  -0.00059   0.00108   0.00502   0.00646

 Mulliken charges and spin densities:
               1          2
     1  Na   0.391043  -0.022216
     2  Na   0.459395   0.070022
     3  Na  -0.078713   0.302497
     4  Na   0.025136   0.299893
     5  Na   0.155236   0.081926
     6  Na  -0.182631   0.046260
     7  Na  -0.769466   0.221617
 Sum of Mulliken charges =  -0.00000   1.00000

 Dipole moment (field-independent basis, Debye):
    X=              0.6363    Y=              0.0033    Z=             -0.1033  Tot=              0.6447
 Quadrupole moment (field-independent basis, Debye-Ang):
   XX=            -53.5549   YY=            -75.0874   ZZ=            -68.4736
   XY=              3.3564   XZ=              2.1016   YZ=             -0.6684

 Normal termination of Gaussian 16 at Mon Dec  4 05:05:18 2023.
