 Gaussian 16, Revision B.01,
 Gaussian 16:  ES64L-G16RevB.01 20-Dec-2017

 -------------------------
 #P B3LYP/6-311+g(d) force
 -------------------------

 -----
 DPGEN
 -----
 Symbolic Z-matrix:
 Charge =  0 Multiplicity = 2

                         Standard orientation:
 ---------------------------------------------------------------------
 Center     Atomic      Atomic             Coordinates (Angstroms)
 Number     Number       Type             X           Y           Z
 ---------------------------------------------------------------------
      1         11           0       -1.989887    2.159138    0.124874
      2         11           0       -2.804062   -1.166768   -0.227360
      3         11           0       -0.197400    0.300623   -1.646840
      4         11           0        0.203323   -2.548309    0.047136
      5         11           0        1.954723    2.137434   -0.089767
      6         11           0        2.804612   -0.918816   -0.216021
      7         11           0        0.028690    0.036696    2.007979
 ---------------------------------------------------------------------

 SCF Done:  E(UB3LYP) =  -1136.13595432     A.U. after   19 cycles

 The electronic state is 2-A.
 Alpha  occ. eigenvalues --  -38.43871 -38.43755 -38.43634 -38.43535 -38.43514
 Alpha  occ. eigenvalues --  -38.43169 -38.42794  -2.19743  -2.19666  -2.19506
 Alpha  occ. eigenvalues --   -2.19476  -2.19397  -2.19202  -2.18743  -1.13432
 Alpha  occ. eigenvalues --   -1.13398  -1.13390  -1.13362  -1.13348  -1.13310
 Alpha  occ. eigenvalues --   -1.13225  -1.13184  -1.13150  -1.13125  -1.13107
 Alpha  occ. eigenvalues --   -1.13092  -1.13084  -1.13044  -1.13019  -1.12875
 Alpha  occ. eigenvalues --   -1.12830  -1.12814  -1.12426  -1.12397  -1.12378
 Alpha  occ. eigenvalues --   -0.19330  -0.13394  -0.12442  -0.11021
 Alpha virt. eigenvalues --   -0.05457  -0.05308  -0.04212  -0.03342  -0.02878
 Alpha virt. eigenvalues --   -0.02636  -0.01473  -0.01032  -0.00121  -0.00036
 Alpha virt. eigenvalues --    0.00073   0.00364   0.00817   0.00919   0.00975

  Beta  occ. eigenvalues --  -38.43865 -38.43749 -38.43628 -38.43508 -38.43437
  Beta  occ. eigenvalues --  -38.43104 -38.42785  -2.19736  -2.19659  -2.19499
  Beta  occ. eigenvalues --   -2.19391  -2.19297  -2.19083  -2.18732  -1.13422
  Beta  occ. eigenvalues --   -1.13389  -1.13374  -1.13362  -1.13345  -1.13278
  Beta  occ. eigenvalues --   -1.13214  -1.13148  -1.13121  -1.13085  -1.13040
  Beta  occ. eigenvalues --   -1.13030  -1.13015  -1.12967  -1.12957  -1.12797
  Beta  occ. eigenvalues --   -1.12748  -1.12727  -1.12421  -1.12380  -1.12346
  Beta  occ. eigenvalues --   -0.18573  -0.13131  -0.12175
  Beta virt. eigenvalues --   -0.07050  -0.05426  -0.05301  -0.04215  -0.02513
  Beta virt. eigenvalues --   -0.02060  -0.01541  -0.01384  -0.00974  -0.00182
  Beta virt. eigenvalues --    0.00000   0.00130   0.00384   0.00878   0.00909

 Mulliken charges and spin densities:
               1          2
     1  Na   0.239337  -0.075868
     2  Na   0.205598  -0.031470
     3  Na  -0.565171   0.424595
     4  Na   0.375924   0.032779
     5  Na   0.336166  -0.045777
     6  Na   0.078026  -0.009051
     7  Na  -0.669880   0.704791
 Sum of Mulliken charges =  -0.00000   1.00000

 Dipole moment (field-independent basis, Debye):
    X=             -0.1997    Y=              0.2481    Z=              0.1458  Tot=              0.3502
 Quadrupole moment (field-independent basis, Debye-Ang):
   XX=            -55.9316   YY=            -65.0916   ZZ=            -73.0639
   XY=              0.2067   XZ=             -0.4233   YZ=              0.7871

 Normal termination of Gaussian 16 at Fri Dec  8 01:41:05 2023.
