 Gaussian 16, Revision B.01,
 Gaussian 16:  ES64L-G16RevB.01 20-Dec-2017

 -------------------------
 #P B3LYP/6-311+g(d) force
 -------------------------

 -----
 DPGEN
 -----
 Symbolic Z-matrix:
 Charge =  0 Multiplicity = 2

                         Standard orientation:
 ---------------------------------------------------------------------
 Center     Atomic      Atomic             Coordinates (Angstroms)
 Number     Number       Type             X           Y           Z
 ---------------------------------------------------------------------
      1         11           0        0.082340   -0.238163   -0.692866
      2         11           0        1.450636   -0.147618    1.901906
      3         11           0        2.333341    2.325503   -0.792328
      4         11           0       -3.418116    0.277785   -0.239628
      5         11           0        2.929880   -2.410177   -0.462516
      6         11           0       -2.231134   -2.803553   -0.009466
      7         11           0       -1.146947    2.996224    0.294898
 ---------------------------------------------------------------------

 SCF Done:  E(UB3LYP) =  -1136.11950407     A.U. after   23 cycles

 The electronic state is 2-A.
 Alpha  occ. eigenvalues --  -38.45234 -38.44174 -38.44146 -38.43822 -38.43816
 Alpha  occ. eigenvalues --  -38.43600 -38.43360  -2.20984  -2.19973  -2.19966
 Alpha  occ. eigenvalues --   -2.19709  -2.19615  -2.19430  -2.19349  -1.14662
 Alpha  occ. eigenvalues --   -1.14644  -1.14620  -1.13670  -1.13648  -1.13633
 Alpha  occ. eigenvalues --   -1.13627  -1.13619  -1.13559  -1.13504  -1.13334
 Alpha  occ. eigenvalues --   -1.13292  -1.13282  -1.13276  -1.13253  -1.13102
 Alpha  occ. eigenvalues --   -1.13078  -1.13073  -1.13046  -1.12961  -1.12956
 Alpha  occ. eigenvalues --   -0.17678  -0.13358  -0.12409  -0.09468
 Alpha virt. eigenvalues --   -0.06894  -0.05558  -0.05065  -0.02829  -0.02555
 Alpha virt. eigenvalues --   -0.02264  -0.01872  -0.01489  -0.01152  -0.00843
 Alpha virt. eigenvalues --   -0.00059   0.00218   0.00456   0.00520   0.00728

  Beta  occ. eigenvalues --  -38.45243 -38.44162 -38.44143 -38.43806 -38.43748
  Beta  occ. eigenvalues --  -38.43537 -38.43346  -2.21003  -2.19964  -2.19950
  Beta  occ. eigenvalues --   -2.19599  -2.19571  -2.19326  -2.19314  -1.14668
  Beta  occ. eigenvalues --   -1.14654  -1.14630  -1.13664  -1.13647  -1.13613
  Beta  occ. eigenvalues --   -1.13612  -1.13607  -1.13547  -1.13418  -1.13282
  Beta  occ. eigenvalues --   -1.13259  -1.13236  -1.13232  -1.13183  -1.13026
  Beta  occ. eigenvalues --   -1.13013  -1.12995  -1.12969  -1.12951  -1.12933
  Beta  occ. eigenvalues --   -0.17160  -0.13088  -0.12138
  Beta virt. eigenvalues --   -0.06721  -0.05885  -0.05307  -0.04991  -0.02411
  Beta virt. eigenvalues --   -0.02166  -0.01972  -0.01641  -0.01082  -0.00956
  Beta virt. eigenvalues --   -0.00613   0.00168   0.00306   0.00543   0.00655

 Mulliken charges and spin densities:
               1          2
     1  Na  -0.687550   0.558127
     2  Na  -0.559895   0.135907
     3  Na   0.385165   0.334014
     4  Na   0.163759  -0.012795
     5  Na   0.119833  -0.040128
     6  Na   0.319935   0.003389
     7  Na   0.258752   0.021487
 Sum of Mulliken charges =  -0.00000   1.00000

 Dipole moment (field-independent basis, Debye):
    X=              0.1142    Y=             -0.8448    Z=              0.2705  Tot=              0.8944
 Quadrupole moment (field-independent basis, Debye-Ang):
   XX=            -56.2881   YY=            -59.3796   ZZ=            -76.7382
   XY=             -5.7292   XZ=             -0.9970   YZ=              2.0999

 Normal termination of Gaussian 16 at Wed Nov 29 16:32:17 2023.
