 Gaussian 16, Revision B.01,
 Gaussian 16:  ES64L-G16RevB.01 20-Dec-2017

 -------------------------
 #P B3LYP/6-311+g(d) force
 -------------------------

 -----
 DPGEN
 -----
 Symbolic Z-matrix:
 Charge =  0 Multiplicity = 2

                         Standard orientation:
 ---------------------------------------------------------------------
 Center     Atomic      Atomic             Coordinates (Angstroms)
 Number     Number       Type             X           Y           Z
 ---------------------------------------------------------------------
      1         11           0        1.359149    2.878308    0.394709
      2         11           0        3.154273    0.012456   -0.709159
      3         11           0        1.185884   -2.396386   -0.186825
      4         11           0       -0.352224    0.026949   -1.116048
      5         11           0       -2.390245   -1.919192   -0.469141
      6         11           0       -0.205794   -0.723609    2.415268
      7         11           0       -2.751042    2.121475   -0.328804
 ---------------------------------------------------------------------

 SCF Done:  E(UB3LYP) =  -1136.12560371     A.U. after   19 cycles

 The electronic state is 2-A.
 Alpha  occ. eigenvalues --  -38.44271 -38.44206 -38.44081 -38.44056 -38.43682
 Alpha  occ. eigenvalues --  -38.43303 -38.42928  -2.20072  -2.20043  -2.19907
 Alpha  occ. eigenvalues --   -2.19851  -2.19532  -2.19246  -2.19008  -1.13845
 Alpha  occ. eigenvalues --   -1.13731  -1.13713  -1.13702  -1.13675  -1.13664
 Alpha  occ. eigenvalues --   -1.13556  -1.13534  -1.13525  -1.13516  -1.13512
 Alpha  occ. eigenvalues --   -1.13487  -1.13234  -1.13193  -1.13162  -1.13005
 Alpha  occ. eigenvalues --   -1.12896  -1.12850  -1.12679  -1.12656  -1.12619
 Alpha  occ. eigenvalues --   -0.18402  -0.12919  -0.12334  -0.10883
 Alpha virt. eigenvalues --   -0.05976  -0.05169  -0.04646  -0.02988  -0.02836
 Alpha virt. eigenvalues --   -0.02714  -0.01557  -0.01347  -0.00598  -0.00288
 Alpha virt. eigenvalues --   -0.00050   0.00306   0.00755   0.00804   0.00867

  Beta  occ. eigenvalues --  -38.44272 -38.44194 -38.44077 -38.43937 -38.43669
  Beta  occ. eigenvalues --  -38.43290 -38.42896  -2.20054  -2.20047  -2.19844
  Beta  occ. eigenvalues --   -2.19687  -2.19509  -2.19228  -2.18952  -1.13828
  Beta  occ. eigenvalues --   -1.13728  -1.13705  -1.13685  -1.13674  -1.13653
  Beta  occ. eigenvalues --   -1.13513  -1.13511  -1.13485  -1.13409  -1.13382
  Beta  occ. eigenvalues --   -1.13359  -1.13218  -1.13172  -1.13144  -1.12992
  Beta  occ. eigenvalues --   -1.12860  -1.12825  -1.12639  -1.12601  -1.12577
  Beta  occ. eigenvalues --   -0.17711  -0.12667  -0.12163
  Beta virt. eigenvalues --   -0.06899  -0.05888  -0.05058  -0.04537  -0.02355
  Beta virt. eigenvalues --   -0.02151  -0.01674  -0.01461  -0.01292  -0.00537
  Beta virt. eigenvalues --   -0.00300   0.00145   0.00371   0.00786   0.00876

 Mulliken charges and spin densities:
               1          2
     1  Na   0.012302   0.074132
     2  Na   0.023133   0.045912
     3  Na   0.807902   0.174759
     4  Na  -0.212246  -0.020619
     5  Na   0.132162   0.049186
     6  Na  -0.666085   0.656175
     7  Na  -0.097167   0.020454
 Sum of Mulliken charges =  -0.00000   1.00000

 Dipole moment (field-independent basis, Debye):
    X=             -0.4202    Y=              0.1582    Z=              0.3413  Tot=              0.5640
 Quadrupole moment (field-independent basis, Debye-Ang):
   XX=            -57.2011   YY=            -61.8136   ZZ=            -73.9694
   XY=              0.6826   XZ=             -0.5157   YZ=              1.7768

 Normal termination of Gaussian 16 at Tue Nov 28 22:14:40 2023.
