 Gaussian 16, Revision B.01,
 Gaussian 16:  ES64L-G16RevB.01 20-Dec-2017

 -------------------------
 #P B3LYP/6-311+g(d) force
 -------------------------

 -----
 DPGEN
 -----
 Symbolic Z-matrix:
 Charge =  0 Multiplicity = 2

                         Standard orientation:
 ---------------------------------------------------------------------
 Center     Atomic      Atomic             Coordinates (Angstroms)
 Number     Number       Type             X           Y           Z
 ---------------------------------------------------------------------
      1         11           0       -0.616413    3.111241    0.390844
      2         11           0       -3.092526    0.386355   -0.320991
      3         11           0        1.962788   -1.986897   -0.551652
      4         11           0       -1.533941   -2.502837    0.257404
      5         11           0        0.311782   -0.444475    1.929514
      6         11           0        3.189336    1.064223   -0.074067
      7         11           0       -0.221026    0.372389   -1.631053
 ---------------------------------------------------------------------

 SCF Done:  E(UB3LYP) =  -1136.13523638     A.U. after   20 cycles

 The electronic state is 2-A.
 Alpha  occ. eigenvalues --  -38.44396 -38.44093 -38.43700 -38.43525 -38.43452
 Alpha  occ. eigenvalues --  -38.43262 -38.43186  -2.20191  -2.19945  -2.19490
 Alpha  occ. eigenvalues --   -2.19414  -2.19364  -2.19218  -2.19066  -1.13861
 Alpha  occ. eigenvalues --   -1.13856  -1.13833  -1.13655  -1.13599  -1.13569
 Alpha  occ. eigenvalues --   -1.13168  -1.13156  -1.13125  -1.13121  -1.13094
 Alpha  occ. eigenvalues --   -1.13044  -1.13030  -1.12992  -1.12977  -1.12899
 Alpha  occ. eigenvalues --   -1.12853  -1.12840  -1.12739  -1.12714  -1.12706
 Alpha  occ. eigenvalues --   -0.18543  -0.13171  -0.12287  -0.10627
 Alpha virt. eigenvalues --   -0.05958  -0.04964  -0.04800  -0.03231  -0.02898
 Alpha virt. eigenvalues --   -0.02387  -0.01683  -0.01119  -0.00527  -0.00307
 Alpha virt. eigenvalues --    0.00009   0.00351   0.00795   0.00826   0.00880

  Beta  occ. eigenvalues --  -38.44396 -38.44085 -38.43693 -38.43508 -38.43366
  Beta  occ. eigenvalues --  -38.43204 -38.43179  -2.20193  -2.19933  -2.19479
  Beta  occ. eigenvalues --   -2.19387  -2.19207  -2.19113  -2.19056  -1.13861
  Beta  occ. eigenvalues --   -1.13846  -1.13833  -1.13638  -1.13582  -1.13562
  Beta  occ. eigenvalues --   -1.13156  -1.13141  -1.13116  -1.13097  -1.13047
  Beta  occ. eigenvalues --   -1.13017  -1.12942  -1.12881  -1.12871  -1.12827
  Beta  occ. eigenvalues --   -1.12774  -1.12763  -1.12723  -1.12704  -1.12679
  Beta  occ. eigenvalues --   -0.17830  -0.12927  -0.12059
  Beta virt. eigenvalues --   -0.06774  -0.05914  -0.04900  -0.04717  -0.02504
  Beta virt. eigenvalues --   -0.02182  -0.01612  -0.01375  -0.01024  -0.00546
  Beta virt. eigenvalues --   -0.00311   0.00140   0.00385   0.00815   0.00866

 Mulliken charges and spin densities:
               1          2
     1  Na  -0.199611  -0.036959
     2  Na   0.164064  -0.037546
     3  Na   0.217965   0.054815
     4  Na   0.273099   0.020104
     5  Na  -0.392424   0.743814
     6  Na  -0.070137  -0.094839
     7  Na   0.007044   0.350610
 Sum of Mulliken charges =  -0.00000   1.00000

 Dipole moment (field-independent basis, Debye):
    X=              0.2008    Y=              0.2760    Z=              0.0782  Tot=              0.3501
 Quadrupole moment (field-independent basis, Debye-Ang):
   XX=            -55.6427   YY=            -62.7261   ZZ=            -74.7324
   XY=              1.2918   XZ=             -0.6208   YZ=              1.9479

 Normal termination of Gaussian 16 at Thu Dec  7 20:54:17 2023.
