 Gaussian 16, Revision B.01,
 Gaussian 16:  ES64L-G16RevB.01 20-Dec-2017

 -------------------------
 #P B3LYP/6-311+g(d) force
 -------------------------

 -----
 DPGEN
 -----
 Symbolic Z-matrix:
 Charge =  0 Multiplicity = 2

                         Standard orientation:
 ---------------------------------------------------------------------
 Center     Atomic      Atomic             Coordinates (Angstroms)
 Number     Number       Type             X           Y           Z
 ---------------------------------------------------------------------
      1         11           0        0.069939   -0.287033    2.145801
      2         11           0       -2.036117   -2.044439   -0.389790
      3         11           0        0.568720    2.751390    0.276220
      4         11           0        1.923345   -2.375988    0.187216
      5         11           0        2.826908    0.791912   -0.598242
      6         11           0       -3.063240    1.095706    0.086225
      7         11           0       -0.289555    0.068452   -1.707429
 ---------------------------------------------------------------------

 SCF Done:  E(UB3LYP) =  -1136.13527206     A.U. after   20 cycles

 The electronic state is 2-A.
 Alpha  occ. eigenvalues --  -38.44233 -38.43899 -38.43757 -38.43738 -38.43528
 Alpha  occ. eigenvalues --  -38.43321 -38.43042  -2.20051  -2.19774  -2.19633
 Alpha  occ. eigenvalues --   -2.19626  -2.19502  -2.19153  -2.18912  -1.13725
 Alpha  occ. eigenvalues --   -1.13718  -1.13693  -1.13436  -1.13414  -1.13403
 Alpha  occ. eigenvalues --   -1.13396  -1.13319  -1.13296  -1.13283  -1.13263
 Alpha  occ. eigenvalues --   -1.13235  -1.13165  -1.13121  -1.13106  -1.12828
 Alpha  occ. eigenvalues --   -1.12814  -1.12792  -1.12590  -1.12570  -1.12549
 Alpha  occ. eigenvalues --   -0.18678  -0.13295  -0.12119  -0.11129
 Alpha virt. eigenvalues --   -0.05669  -0.05143  -0.04337  -0.03447  -0.03001
 Alpha virt. eigenvalues --   -0.02835  -0.01564  -0.01015  -0.00261  -0.00124
 Alpha virt. eigenvalues --   -0.00004   0.00362   0.00773   0.00870   0.00929

  Beta  occ. eigenvalues --  -38.44233 -38.43801 -38.43746 -38.43725 -38.43465
  Beta  occ. eigenvalues --  -38.43319 -38.43036  -2.20052  -2.19617  -2.19605
  Beta  occ. eigenvalues --   -2.19592  -2.19389  -2.19152  -2.18905  -1.13722
  Beta  occ. eigenvalues --   -1.13716  -1.13686  -1.13382  -1.13319  -1.13301
  Beta  occ. eigenvalues --   -1.13282  -1.13272  -1.13263  -1.13256  -1.13241
  Beta  occ. eigenvalues --   -1.13223  -1.13091  -1.13047  -1.13026  -1.12823
  Beta  occ. eigenvalues --   -1.12798  -1.12792  -1.12588  -1.12553  -1.12533
  Beta  occ. eigenvalues --   -0.17939  -0.13055  -0.11886
  Beta virt. eigenvalues --   -0.07193  -0.05609  -0.05123  -0.04268  -0.02688
  Beta virt. eigenvalues --   -0.02205  -0.01800  -0.01472  -0.00940  -0.00251
  Beta virt. eigenvalues --   -0.00157   0.00107   0.00388   0.00858   0.00878

 Mulliken charges and spin densities:
               1          2
     1  Na  -0.522344   0.741509
     2  Na   0.265750  -0.060615
     3  Na   0.026071   0.019581
     4  Na   0.105522  -0.050782
     5  Na   0.208592   0.028386
     6  Na   0.017879  -0.027205
     7  Na  -0.101470   0.349126
 Sum of Mulliken charges =  -0.00000   1.00000

 Dipole moment (field-independent basis, Debye):
    X=             -0.4444    Y=             -0.0530    Z=              0.1456  Tot=              0.4707
 Quadrupole moment (field-independent basis, Debye-Ang):
   XX=            -56.8742   YY=            -65.5530   ZZ=            -72.3210
   XY=             -1.0864   XZ=             -1.4151   YZ=              0.9566

 Normal termination of Gaussian 16 at Tue Dec  5 11:39:05 2023.
