 Gaussian 16, Revision B.01,
 Gaussian 16:  ES64L-G16RevB.01 20-Dec-2017

 -------------------------
 #P B3LYP/6-311+g(d) force
 -------------------------

 -----
 DPGEN
 -----
 Symbolic Z-matrix:
 Charge =  0 Multiplicity = 2

                         Standard orientation:
 ---------------------------------------------------------------------
 Center     Atomic      Atomic             Coordinates (Angstroms)
 Number     Number       Type             X           Y           Z
 ---------------------------------------------------------------------
      1         11           0        1.900161    1.970352    0.270480
      2         11           0       -0.151368    0.007292    1.977818
      3         11           0       -3.072669   -0.720439    0.175962
      4         11           0        3.209640   -1.198445    0.047656
      5         11           0       -1.663628    2.399113   -0.450686
      6         11           0        0.492876    0.102536   -1.673864
      7         11           0       -0.715012   -2.560408   -0.347366
 ---------------------------------------------------------------------

 SCF Done:  E(UB3LYP) =  -1136.13312026     A.U. after   21 cycles

 The electronic state is 2-A.
 Alpha  occ. eigenvalues --  -38.44407 -38.44140 -38.43682 -38.43579 -38.43293
 Alpha  occ. eigenvalues --  -38.43168 -38.43157  -2.20208  -2.20012  -2.19597
 Alpha  occ. eigenvalues --   -2.19494  -2.19293  -2.19066  -2.19006  -1.13880
 Alpha  occ. eigenvalues --   -1.13867  -1.13851  -1.13712  -1.13671  -1.13651
 Alpha  occ. eigenvalues --   -1.13296  -1.13248  -1.13243  -1.13210  -1.13146
 Alpha  occ. eigenvalues --   -1.13085  -1.12981  -1.12937  -1.12895  -1.12743
 Alpha  occ. eigenvalues --   -1.12715  -1.12692  -1.12681  -1.12660  -1.12643
 Alpha  occ. eigenvalues --   -0.18908  -0.13442  -0.12123  -0.10895
 Alpha virt. eigenvalues --   -0.06013  -0.05164  -0.04156  -0.03435  -0.02753
 Alpha virt. eigenvalues --   -0.02564  -0.01838  -0.01063  -0.00227  -0.00063
 Alpha virt. eigenvalues --    0.00002   0.00341   0.00754   0.00889   0.00912

  Beta  occ. eigenvalues --  -38.44408 -38.44138 -38.43593 -38.43567 -38.43223
  Beta  occ. eigenvalues --  -38.43158 -38.43148  -2.20211  -2.20011  -2.19477
  Beta  occ. eigenvalues --   -2.19433  -2.19166  -2.19052  -2.18992  -1.13878
  Beta  occ. eigenvalues --   -1.13859  -1.13855  -1.13715  -1.13659  -1.13640
  Beta  occ. eigenvalues --   -1.13246  -1.13175  -1.13141  -1.13098  -1.13080
  Beta  occ. eigenvalues --   -1.13073  -1.12900  -1.12856  -1.12804  -1.12728
  Beta  occ. eigenvalues --   -1.12687  -1.12675  -1.12663  -1.12637  -1.12633
  Beta  occ. eigenvalues --   -0.18163  -0.13227  -0.11860
  Beta virt. eigenvalues --   -0.06958  -0.05949  -0.05152  -0.04118  -0.02653
  Beta virt. eigenvalues --   -0.01996  -0.01754  -0.01502  -0.01002  -0.00228
  Beta virt. eigenvalues --   -0.00091   0.00113   0.00357   0.00819   0.00886

 Mulliken charges and spin densities:
               1          2
     1  Na   0.266442   0.044086
     2  Na  -0.375923   0.637358
     3  Na   0.130420   0.023585
     4  Na   0.024736  -0.112170
     5  Na   0.082493  -0.031488
     6  Na  -0.224309   0.543651
     7  Na   0.096140  -0.105022
 Sum of Mulliken charges =  -0.00000   1.00000

 Dipole moment (field-independent basis, Debye):
    X=              0.2883    Y=             -0.1122    Z=              0.2253  Tot=              0.3827
 Quadrupole moment (field-independent basis, Debye-Ang):
   XX=            -52.9218   YY=            -66.8499   ZZ=            -73.6774
   XY=             -1.5530   XZ=              0.9792   YZ=             -0.0401

 Normal termination of Gaussian 16 at Thu Dec  7 02:55:27 2023.
