 Gaussian 16, Revision B.01,
 Gaussian 16:  ES64L-G16RevB.01 20-Dec-2017

 -------------------------
 #P B3LYP/6-311+g(d) force
 -------------------------

 -----
 DPGEN
 -----
 Symbolic Z-matrix:
 Charge =  0 Multiplicity = 2

                         Standard orientation:
 ---------------------------------------------------------------------
 Center     Atomic      Atomic             Coordinates (Angstroms)
 Number     Number       Type             X           Y           Z
 ---------------------------------------------------------------------
      1         11           0        2.474934    2.195941   -0.014665
      2         11           0       -3.817318    0.205448   -0.671966
      3         11           0        3.365354   -1.641332   -0.758080
      4         11           0       -0.898292    2.207212   -0.040458
      5         11           0       -2.208710   -1.515812    1.154663
      6         11           0        1.129643   -0.475094    2.170974
      7         11           0       -0.045611   -0.976362   -1.840468
 ---------------------------------------------------------------------

 SCF Done:  E(UB3LYP) =  -1136.12144902     A.U. after   24 cycles

 The electronic state is 2-A.
 Alpha  occ. eigenvalues --  -38.45093 -38.44904 -38.44434 -38.44220 -38.44088
 Alpha  occ. eigenvalues --  -38.43703 -38.42820  -2.20932  -2.20696  -2.20253
 Alpha  occ. eigenvalues --   -2.20088  -2.19855  -2.19501  -2.18648  -1.14654
 Alpha  occ. eigenvalues --   -1.14571  -1.14559  -1.14378  -1.14363  -1.14295
 Alpha  occ. eigenvalues --   -1.13932  -1.13878  -1.13875  -1.13747  -1.13736
 Alpha  occ. eigenvalues --   -1.13726  -1.13526  -1.13518  -1.13494  -1.13178
 Alpha  occ. eigenvalues --   -1.13159  -1.13139  -1.12350  -1.12327  -1.12264
 Alpha  occ. eigenvalues --   -0.17848  -0.13819  -0.11371  -0.11095
 Alpha virt. eigenvalues --   -0.06898  -0.05522  -0.04737  -0.03267  -0.02801
 Alpha virt. eigenvalues --   -0.02581  -0.02381  -0.01302  -0.00909  -0.00275
 Alpha virt. eigenvalues --    0.00101   0.00146   0.00222   0.00523   0.00673

  Beta  occ. eigenvalues --  -38.45087 -38.44852 -38.44351 -38.44184 -38.44085
  Beta  occ. eigenvalues --  -38.43702 -38.42818  -2.20920  -2.20600  -2.20101
  Beta  occ. eigenvalues --   -2.20024  -2.19850  -2.19500  -2.18647  -1.14646
  Beta  occ. eigenvalues --   -1.14563  -1.14545  -1.14313  -1.14294  -1.14224
  Beta  occ. eigenvalues --   -1.13826  -1.13776  -1.13760  -1.13701  -1.13696
  Beta  occ. eigenvalues --   -1.13662  -1.13519  -1.13508  -1.13492  -1.13170
  Beta  occ. eigenvalues --   -1.13158  -1.13142  -1.12349  -1.12314  -1.12262
  Beta  occ. eigenvalues --   -0.17154  -0.13716  -0.10906
  Beta virt. eigenvalues --   -0.07430  -0.06689  -0.05400  -0.04150  -0.02980
  Beta virt. eigenvalues --   -0.02473  -0.01972  -0.01900  -0.01193  -0.00509
  Beta virt. eigenvalues --   -0.00231   0.00117   0.00186   0.00379   0.00654

 Mulliken charges and spin densities:
               1          2
     1  Na   0.016322   0.039180
     2  Na   1.110444   0.090515
     3  Na   0.144208  -0.033486
     4  Na  -0.598278   0.028013
     5  Na  -0.318245   0.101526
     6  Na   0.074491   0.371206
     7  Na  -0.428944   0.403046
 Sum of Mulliken charges =  -0.00000   1.00000

 Dipole moment (field-independent basis, Debye):
    X=             -0.5648    Y=             -0.2224    Z=             -0.2553  Tot=              0.6585
 Quadrupole moment (field-independent basis, Debye-Ang):
   XX=            -47.7586   YY=            -78.2095   ZZ=            -70.0715
   XY=              0.5992   XZ=              2.5241   YZ=             -1.7347

 Normal termination of Gaussian 16 at Thu Dec  7 09:34:09 2023.
