 Gaussian 16, Revision B.01,
 Gaussian 16:  ES64L-G16RevB.01 20-Dec-2017

 -------------------------
 #P B3LYP/6-311+g(d) force
 -------------------------

 -----
 DPGEN
 -----
 Symbolic Z-matrix:
 Charge =  0 Multiplicity = 2

                         Standard orientation:
 ---------------------------------------------------------------------
 Center     Atomic      Atomic             Coordinates (Angstroms)
 Number     Number       Type             X           Y           Z
 ---------------------------------------------------------------------
      1         11           0       -3.341593    0.392748   -0.601768
      2         11           0        0.161068    0.010966    1.711458
      3         11           0       -1.325091   -2.432868    0.402561
      4         11           0       -0.645020    2.695480    0.464309
      5         11           0        0.081328   -0.201881   -1.480560
      6         11           0        2.822129    1.540334   -0.380199
      7         11           0        2.247179   -2.004780   -0.115801
 ---------------------------------------------------------------------

 SCF Done:  E(UB3LYP) =  -1136.13440351     A.U. after   21 cycles

 The electronic state is 2-A.
 Alpha  occ. eigenvalues --  -38.44100 -38.43954 -38.43661 -38.43328 -38.43270
 Alpha  occ. eigenvalues --  -38.43160 -38.43041  -2.19905  -2.19780  -2.19543
 Alpha  occ. eigenvalues --   -2.19228  -2.19193  -2.19139  -2.19070  -1.13576
 Alpha  occ. eigenvalues --   -1.13554  -1.13540  -1.13462  -1.13439  -1.13413
 Alpha  occ. eigenvalues --   -1.13265  -1.13214  -1.13153  -1.12998  -1.12946
 Alpha  occ. eigenvalues --   -1.12916  -1.12883  -1.12828  -1.12818  -1.12785
 Alpha  occ. eigenvalues --   -1.12780  -1.12743  -1.12721  -1.12664  -1.12648
 Alpha  occ. eigenvalues --   -0.18971  -0.13122  -0.12490  -0.10564
 Alpha virt. eigenvalues --   -0.05708  -0.05235  -0.04450  -0.03083  -0.02793
 Alpha virt. eigenvalues --   -0.02101  -0.01785  -0.01215  -0.00373  -0.00118
 Alpha virt. eigenvalues --    0.00044   0.00309   0.00781   0.00851   0.00881

  Beta  occ. eigenvalues --  -38.44081 -38.43946 -38.43655 -38.43315 -38.43256
  Beta  occ. eigenvalues --  -38.43110 -38.42954  -2.19871  -2.19768  -2.19536
  Beta  occ. eigenvalues --   -2.19209  -2.19117  -2.19103  -2.18913  -1.13542
  Beta  occ. eigenvalues --   -1.13532  -1.13520  -1.13444  -1.13434  -1.13396
  Beta  occ. eigenvalues --   -1.13256  -1.13196  -1.13139  -1.12965  -1.12894
  Beta  occ. eigenvalues --   -1.12876  -1.12830  -1.12813  -1.12774  -1.12742
  Beta  occ. eigenvalues --   -1.12732  -1.12716  -1.12623  -1.12561  -1.12541
  Beta  occ. eigenvalues --   -0.18300  -0.12785  -0.12212
  Beta virt. eigenvalues --   -0.06769  -0.05545  -0.05222  -0.04422  -0.02423
  Beta virt. eigenvalues --   -0.02029  -0.01612  -0.01180  -0.01135  -0.00347
  Beta virt. eigenvalues --   -0.00135   0.00149   0.00359   0.00843   0.00860

 Mulliken charges and spin densities:
               1          2
     1  Na  -0.103687   0.081055
     2  Na   0.122033   0.383345
     3  Na   0.261553   0.062557
     4  Na   0.073004   0.020481
     5  Na  -0.423010   0.527091
     6  Na  -0.060216  -0.026409
     7  Na   0.130323  -0.048119
 Sum of Mulliken charges =  -0.00000   1.00000

 Dipole moment (field-independent basis, Debye):
    X=              0.1311    Y=              0.0012    Z=             -0.0328  Tot=              0.1351
 Quadrupole moment (field-independent basis, Debye-Ang):
   XX=            -53.6682   YY=            -62.7020   ZZ=            -75.0688
   XY=              0.0309   XZ=              0.1094   YZ=             -0.8778

 Normal termination of Gaussian 16 at Thu Dec  7 20:44:56 2023.
