 Gaussian 16, Revision B.01,
 Gaussian 16:  ES64L-G16RevB.01 20-Dec-2017

 -------------------------
 #P B3LYP/6-311+g(d) force
 -------------------------

 -----
 DPGEN
 -----
 Symbolic Z-matrix:
 Charge =  0 Multiplicity = 2

                         Standard orientation:
 ---------------------------------------------------------------------
 Center     Atomic      Atomic             Coordinates (Angstroms)
 Number     Number       Type             X           Y           Z
 ---------------------------------------------------------------------
      1         11           0       -0.195315   -1.810160   -0.548042
      2         11           0        3.028450   -3.161079    0.008399
      3         11           0        3.036444   -0.026810    0.239690
      4         11           0        2.940558    3.460817   -0.501981
      5         11           0       -0.282570    1.799826    0.696906
      6         11           0       -2.840090   -0.653448    0.495223
      7         11           0       -5.687478    0.390855   -0.390195
 ---------------------------------------------------------------------

 SCF Done:  E(UB3LYP) =  -1136.12302677     A.U. after   19 cycles

 The electronic state is 2-A.
 Alpha  occ. eigenvalues --  -38.44791 -38.44617 -38.44248 -38.44037 -38.43839
 Alpha  occ. eigenvalues --  -38.43494 -38.43327  -2.20579  -2.20446  -2.20115
 Alpha  occ. eigenvalues --   -2.19808  -2.19696  -2.19331  -2.19228  -1.14279
 Alpha  occ. eigenvalues --   -1.14265  -1.14164  -1.14089  -1.14066  -1.14063
 Alpha  occ. eigenvalues --   -1.13806  -1.13778  -1.13746  -1.13480  -1.13477
 Alpha  occ. eigenvalues --   -1.13429  -1.13395  -1.13384  -1.13317  -1.12991
 Alpha  occ. eigenvalues --   -1.12979  -1.12952  -1.12929  -1.12886  -1.12871
 Alpha  occ. eigenvalues --   -0.16988  -0.14188  -0.12369  -0.11234
 Alpha virt. eigenvalues --   -0.06228  -0.05065  -0.04773  -0.03862  -0.02679
 Alpha virt. eigenvalues --   -0.02390  -0.01839  -0.01461  -0.01208  -0.00814
 Alpha virt. eigenvalues --   -0.00544  -0.00050   0.00293   0.00497   0.00657

  Beta  occ. eigenvalues --  -38.44769 -38.44496 -38.44217 -38.44027 -38.43821
  Beta  occ. eigenvalues --  -38.43476 -38.43314  -2.20539  -2.20221  -2.20060
  Beta  occ. eigenvalues --   -2.19790  -2.19664  -2.19297  -2.19218  -1.14253
  Beta  occ. eigenvalues --   -1.14236  -1.14132  -1.13940  -1.13912  -1.13911
  Beta  occ. eigenvalues --   -1.13769  -1.13738  -1.13701  -1.13467  -1.13463
  Beta  occ. eigenvalues --   -1.13419  -1.13374  -1.13358  -1.13290  -1.12962
  Beta  occ. eigenvalues --   -1.12956  -1.12934  -1.12908  -1.12882  -1.12811
  Beta  occ. eigenvalues --   -0.16420  -0.13288  -0.12279
  Beta virt. eigenvalues --   -0.07629  -0.05969  -0.04953  -0.04350  -0.03506
  Beta virt. eigenvalues --   -0.02453  -0.02045  -0.01691  -0.01176  -0.00803
  Beta virt. eigenvalues --   -0.00566  -0.00118   0.00154   0.00409   0.00621

 Mulliken charges and spin densities:
               1          2
     1  Na  -0.790706  -0.018803
     2  Na   0.980258   0.118048
     3  Na  -0.859152   0.244185
     4  Na   0.505974   0.034996
     5  Na  -0.148722   0.038571
     6  Na   0.059813   0.040291
     7  Na   0.252534   0.542712
 Sum of Mulliken charges =  -0.00000   1.00000

 Dipole moment (field-independent basis, Debye):
    X=              0.2887    Y=              0.3675    Z=             -0.2257  Tot=              0.5190
 Quadrupole moment (field-independent basis, Debye-Ang):
   XX=            -66.2234   YY=            -61.2675   ZZ=            -70.6531
   XY=             -0.7671   XZ=              0.1853   YZ=             -0.8831

 Normal termination of Gaussian 16 at Wed Nov 29 00:14:45 2023.
