 Gaussian 16, Revision B.01,
 Gaussian 16:  ES64L-G16RevB.01 20-Dec-2017

 -------------------------
 #P B3LYP/6-311+g(d) force
 -------------------------

 -----
 DPGEN
 -----
 Symbolic Z-matrix:
 Charge =  0 Multiplicity = 2

                         Standard orientation:
 ---------------------------------------------------------------------
 Center     Atomic      Atomic             Coordinates (Angstroms)
 Number     Number       Type             X           Y           Z
 ---------------------------------------------------------------------
      1         11           0       -2.574483   -2.896114   -0.209532
      2         11           0       -4.079971   -0.575955    1.179974
      3         11           0        3.385900    0.226893   -0.560842
      4         11           0        0.882158   -2.132849   -2.253124
      5         11           0        0.566436    3.280022   -0.963474
      6         11           0       -2.044967    3.157275    0.362394
      7         11           0        3.864927   -1.059271    2.444605
 ---------------------------------------------------------------------

 SCF Done:  E(UB3LYP) =  -1136.10273508     A.U. after   18 cycles

 The electronic state is 2-A.
 Alpha  occ. eigenvalues --  -38.45240 -38.45158 -38.44436 -38.44369 -38.44219
 Alpha  occ. eigenvalues --  -38.44076 -38.44004  -2.21003  -2.20950  -2.20203
 Alpha  occ. eigenvalues --   -2.20165  -2.19996  -2.19876  -2.19813  -1.14652
 Alpha  occ. eigenvalues --   -1.14638  -1.14613  -1.14588  -1.14585  -1.14574
 Alpha  occ. eigenvalues --   -1.13885  -1.13875  -1.13871  -1.13865  -1.13818
 Alpha  occ. eigenvalues --   -1.13800  -1.13704  -1.13666  -1.13652  -1.13622
 Alpha  occ. eigenvalues --   -1.13535  -1.13518  -1.13458  -1.13444  -1.13377
 Alpha  occ. eigenvalues --   -0.15364  -0.13593  -0.12678  -0.11503
 Alpha virt. eigenvalues --   -0.06714  -0.06330  -0.03816  -0.03535  -0.03155
 Alpha virt. eigenvalues --   -0.02823  -0.01756  -0.01602  -0.01369  -0.01016
 Alpha virt. eigenvalues --   -0.00838  -0.00578  -0.00235   0.00374   0.00615

  Beta  occ. eigenvalues --  -38.45138 -38.45067 -38.44451 -38.44337 -38.44230
  Beta  occ. eigenvalues --  -38.44086 -38.43997  -2.20812  -2.20779  -2.20237
  Beta  occ. eigenvalues --   -2.20104  -2.20019  -2.19895  -2.19799  -1.14522
  Beta  occ. eigenvalues --   -1.14510  -1.14485  -1.14471  -1.14467  -1.14463
  Beta  occ. eigenvalues --   -1.13910  -1.13898  -1.13851  -1.13847  -1.13777
  Beta  occ. eigenvalues --   -1.13758  -1.13708  -1.13684  -1.13666  -1.13611
  Beta  occ. eigenvalues --   -1.13547  -1.13529  -1.13447  -1.13435  -1.13378
  Beta  occ. eigenvalues --   -0.14851  -0.13103  -0.12438
  Beta virt. eigenvalues --   -0.08023  -0.06234  -0.05956  -0.03463  -0.03323
  Beta virt. eigenvalues --   -0.02939  -0.02478  -0.01645  -0.01273  -0.01228
  Beta virt. eigenvalues --   -0.00854  -0.00624  -0.00195   0.00095   0.00451

 Mulliken charges and spin densities:
               1          2
     1  Na  -0.118560  -0.054191
     2  Na   0.100082   0.171366
     3  Na  -0.191366  -0.092640
     4  Na   0.037148   0.533737
     5  Na   0.016826   0.081355
     6  Na   0.042453  -0.051804
     7  Na   0.113416   0.412177
 Sum of Mulliken charges =  -0.00000   1.00000

 Dipole moment (field-independent basis, Debye):
    X=              0.4631    Y=             -0.5426    Z=              0.6009  Tot=              0.9327
 Quadrupole moment (field-independent basis, Debye-Ang):
   XX=            -66.3184   YY=            -70.2709   ZZ=            -65.2674
   XY=             -1.5542   XZ=             -2.4713   YZ=             -0.7994

 Normal termination of Gaussian 16 at Sun Dec  3 22:07:21 2023.
