 Gaussian 16, Revision B.01,
 Gaussian 16:  ES64L-G16RevB.01 20-Dec-2017

 -------------------------
 #P B3LYP/6-311+g(d) force
 -------------------------

 -----
 DPGEN
 -----
 Symbolic Z-matrix:
 Charge =  0 Multiplicity = 2

                         Standard orientation:
 ---------------------------------------------------------------------
 Center     Atomic      Atomic             Coordinates (Angstroms)
 Number     Number       Type             X           Y           Z
 ---------------------------------------------------------------------
      1         11           0        2.092832   -1.878244    0.024431
      2         11           0        0.223012   -0.050915    1.807227
      3         11           0       -0.310635    0.130774   -1.678907
      4         11           0        2.780400    0.995891   -0.120339
      5         11           0       -1.320868   -2.589612   -0.257672
      6         11           0       -0.355255    3.028437   -0.102030
      7         11           0       -3.109486    0.363668    0.327289
 ---------------------------------------------------------------------

 SCF Done:  E(UB3LYP) =  -1136.13686485     A.U. after   20 cycles

 The electronic state is 2-A.
 Alpha  occ. eigenvalues --  -38.44212 -38.43819 -38.43491 -38.43395 -38.43338
 Alpha  occ. eigenvalues --  -38.43248 -38.42990  -2.20036  -2.19722  -2.19338
 Alpha  occ. eigenvalues --   -2.19320  -2.19217  -2.19212  -2.18985  -1.13710
 Alpha  occ. eigenvalues --   -1.13700  -1.13668  -1.13479  -1.13378  -1.13352
 Alpha  occ. eigenvalues --   -1.13054  -1.13014  -1.12986  -1.12983  -1.12968
 Alpha  occ. eigenvalues --   -1.12949  -1.12916  -1.12889  -1.12869  -1.12839
 Alpha  occ. eigenvalues --   -1.12824  -1.12822  -1.12662  -1.12605  -1.12603
 Alpha  occ. eigenvalues --   -0.19068  -0.13240  -0.12534  -0.10644
 Alpha virt. eigenvalues --   -0.05711  -0.04859  -0.04840  -0.03250  -0.02788
 Alpha virt. eigenvalues --   -0.02308  -0.01516  -0.01124  -0.00316  -0.00194
 Alpha virt. eigenvalues --    0.00028   0.00368   0.00834   0.00906   0.00937

  Beta  occ. eigenvalues --  -38.44205 -38.43813 -38.43488 -38.43387 -38.43329
  Beta  occ. eigenvalues --  -38.43167 -38.42918  -2.20025  -2.19715  -2.19328
  Beta  occ. eigenvalues --   -2.19317  -2.19202  -2.19068  -2.18854  -1.13696
  Beta  occ. eigenvalues --   -1.13680  -1.13665  -1.13478  -1.13361  -1.13332
  Beta  occ. eigenvalues --   -1.13032  -1.13005  -1.12974  -1.12969  -1.12948
  Beta  occ. eigenvalues --   -1.12938  -1.12899  -1.12843  -1.12834  -1.12792
  Beta  occ. eigenvalues --   -1.12725  -1.12718  -1.12574  -1.12510  -1.12508
  Beta  occ. eigenvalues --   -0.18332  -0.12984  -0.12271
  Beta virt. eigenvalues --   -0.06736  -0.05677  -0.04848  -0.04823  -0.02430
  Beta virt. eigenvalues --   -0.02028  -0.01416  -0.01280  -0.01052  -0.00361
  Beta virt. eigenvalues --   -0.00244   0.00150   0.00388   0.00853   0.00909

 Mulliken charges and spin densities:
               1          2
     1  Na   0.367460   0.032330
     2  Na  -0.414328   0.669439
     3  Na  -0.333199   0.589544
     4  Na   0.154372  -0.067949
     5  Na   0.229787  -0.034731
     6  Na   0.004072  -0.131281
     7  Na  -0.008164  -0.057352
 Sum of Mulliken charges =  -0.00000   1.00000

 Dipole moment (field-independent basis, Debye):
    X=             -0.3339    Y=              0.2023    Z=              0.0880  Tot=              0.4002
 Quadrupole moment (field-independent basis, Debye-Ang):
   XX=            -56.5589   YY=            -61.4178   ZZ=            -74.9577
   XY=              0.1700   XZ=             -1.3613   YZ=              0.4878

 Normal termination of Gaussian 16 at Fri Dec  8 06:28:31 2023.
