 Gaussian 16, Revision B.01,
 Gaussian 16:  ES64L-G16RevB.01 20-Dec-2017

 -------------------------
 #P B3LYP/6-311+g(d) force
 -------------------------

 -----
 DPGEN
 -----
 Symbolic Z-matrix:
 Charge =  0 Multiplicity = 2

                         Standard orientation:
 ---------------------------------------------------------------------
 Center     Atomic      Atomic             Coordinates (Angstroms)
 Number     Number       Type             X           Y           Z
 ---------------------------------------------------------------------
      1         11           0        0.763168    2.710776    0.091436
      2         11           0        0.353613   -2.977909   -0.164935
      3         11           0        6.225980    0.566776    0.277450
      4         11           0        3.466143   -1.142742   -0.100740
      5         11           0       -3.217777   -2.442267   -0.280327
      6         11           0       -5.076698    0.070810    0.720597
      7         11           0       -2.514428    3.214556   -0.543482
 ---------------------------------------------------------------------

 SCF Done:  E(UB3LYP) =  -1136.10610777     A.U. after   22 cycles

 The electronic state is 2-A.
 Alpha  occ. eigenvalues --  -38.45222 -38.45144 -38.44814 -38.44471 -38.44303
 Alpha  occ. eigenvalues --  -38.44195 -38.44050  -2.21006  -2.20944  -2.20564
 Alpha  occ. eigenvalues --   -2.20257  -2.20071  -2.19975  -2.19797  -1.14657
 Alpha  occ. eigenvalues --   -1.14653  -1.14630  -1.14581  -1.14579  -1.14569
 Alpha  occ. eigenvalues --   -1.14233  -1.14227  -1.14179  -1.13914  -1.13907
 Alpha  occ. eigenvalues --   -1.13877  -1.13753  -1.13746  -1.13723  -1.13661
 Alpha  occ. eigenvalues --   -1.13652  -1.13630  -1.13478  -1.13463  -1.13442
 Alpha  occ. eigenvalues --   -0.15298  -0.14040  -0.12565  -0.11772
 Alpha virt. eigenvalues --   -0.06856  -0.06055  -0.03988  -0.03371  -0.03297
 Alpha virt. eigenvalues --   -0.02670  -0.02370  -0.01834  -0.01250  -0.01130
 Alpha virt. eigenvalues --   -0.00899  -0.00598  -0.00135   0.00361   0.00583

  Beta  occ. eigenvalues --  -38.45155 -38.45059 -38.44781 -38.44400 -38.44319
  Beta  occ. eigenvalues --  -38.44201 -38.44061  -2.20883  -2.20784  -2.20504
  Beta  occ. eigenvalues --   -2.20125  -2.20105  -2.19994  -2.19820  -1.14574
  Beta  occ. eigenvalues --   -1.14571  -1.14547  -1.14472  -1.14470  -1.14464
  Beta  occ. eigenvalues --   -1.14192  -1.14185  -1.14139  -1.13824  -1.13818
  Beta  occ. eigenvalues --   -1.13799  -1.13780  -1.13772  -1.13712  -1.13680
  Beta  occ. eigenvalues --   -1.13671  -1.13589  -1.13495  -1.13480  -1.13444
  Beta  occ. eigenvalues --   -0.14694  -0.13214  -0.12145
  Beta virt. eigenvalues --   -0.08639  -0.06565  -0.05651  -0.03683  -0.03138
  Beta virt. eigenvalues --   -0.02961  -0.02465  -0.02091  -0.01688  -0.00870
  Beta virt. eigenvalues --   -0.00803  -0.00560  -0.00418   0.00031   0.00390

 Mulliken charges and spin densities:
               1          2
     1  Na  -0.209081   0.196681
     2  Na   0.179791  -0.036015
     3  Na   0.788126   0.243930
     4  Na  -0.791755   0.508310
     5  Na  -0.212332  -0.066824
     6  Na   0.095440   0.275184
     7  Na   0.149811  -0.121267
 Sum of Mulliken charges =  -0.00000   1.00000

 Dipole moment (field-independent basis, Debye):
    X=              0.1543    Y=              0.4641    Z=              0.2890  Tot=              0.5681
 Quadrupole moment (field-independent basis, Debye-Ang):
   XX=            -47.9196   YY=            -71.4672   ZZ=            -73.9517
   XY=              1.8143   XZ=              0.2166   YZ=              1.2507

 Normal termination of Gaussian 16 at Mon Dec  4 05:43:02 2023.
