 Gaussian 16, Revision B.01,
 Gaussian 16:  ES64L-G16RevB.01 20-Dec-2017

 -------------------------
 #P B3LYP/6-311+g(d) force
 -------------------------

 -----
 DPGEN
 -----
 Symbolic Z-matrix:
 Charge =  0 Multiplicity = 2

                         Standard orientation:
 ---------------------------------------------------------------------
 Center     Atomic      Atomic             Coordinates (Angstroms)
 Number     Number       Type             X           Y           Z
 ---------------------------------------------------------------------
      1         11           0       -2.470977   -1.527209   -0.096411
      2         11           0       -0.016460    0.201109   -1.561603
      3         11           0        0.738865   -2.700414   -0.016645
      4         11           0        3.329198    0.088651   -0.332676
      5         11           0       -2.522844    1.563802   -0.083788
      6         11           0        0.713117    2.750006    0.341826
      7         11           0        0.229101   -0.375945    1.749297
 ---------------------------------------------------------------------

 SCF Done:  E(UB3LYP) =  -1136.13474295     A.U. after   20 cycles

 The electronic state is 2-A.
 Alpha  occ. eigenvalues --  -38.44416 -38.43579 -38.43549 -38.43392 -38.43387
 Alpha  occ. eigenvalues --  -38.43052 -38.42964  -2.20212  -2.19484  -2.19464
 Alpha  occ. eigenvalues --   -2.19300  -2.19258  -2.19052  -2.18999  -1.13887
 Alpha  occ. eigenvalues --   -1.13856  -1.13855  -1.13264  -1.13165  -1.13140
 Alpha  occ. eigenvalues --   -1.13129  -1.13111  -1.13078  -1.13049  -1.12964
 Alpha  occ. eigenvalues --   -1.12959  -1.12930  -1.12895  -1.12874  -1.12744
 Alpha  occ. eigenvalues --   -1.12669  -1.12659  -1.12643  -1.12627  -1.12605
 Alpha  occ. eigenvalues --   -0.19178  -0.13173  -0.12698  -0.10498
 Alpha virt. eigenvalues --   -0.05872  -0.04871  -0.04730  -0.03057  -0.02837
 Alpha virt. eigenvalues --   -0.02095  -0.01769  -0.01050  -0.00259  -0.00209
 Alpha virt. eigenvalues --    0.00033   0.00341   0.00812   0.00905   0.00924

  Beta  occ. eigenvalues --  -38.44407 -38.43574 -38.43542 -38.43382 -38.43378
  Beta  occ. eigenvalues --  -38.42969 -38.42902  -2.20198  -2.19478  -2.19456
  Beta  occ. eigenvalues --   -2.19289  -2.19243  -2.18902  -2.18885  -1.13860
  Beta  occ. eigenvalues --   -1.13849  -1.13848  -1.13262  -1.13159  -1.13132
  Beta  occ. eigenvalues --   -1.13099  -1.13078  -1.13058  -1.13041  -1.12948
  Beta  occ. eigenvalues --   -1.12932  -1.12894  -1.12889  -1.12867  -1.12656
  Beta  occ. eigenvalues --   -1.12580  -1.12556  -1.12548  -1.12538  -1.12518
  Beta  occ. eigenvalues --   -0.18465  -0.12895  -0.12425
  Beta virt. eigenvalues --   -0.06620  -0.05810  -0.04872  -0.04697  -0.02306
  Beta virt. eigenvalues --   -0.02044  -0.01654  -0.01095  -0.00985  -0.00291
  Beta virt. eigenvalues --   -0.00256   0.00160   0.00378   0.00840   0.00906

 Mulliken charges and spin densities:
               1          2
     1  Na   0.292447  -0.021401
     2  Na  -0.521703   0.562160
     3  Na   0.336298  -0.062760
     4  Na  -0.017754  -0.054729
     5  Na   0.232241   0.001207
     6  Na   0.089653  -0.034984
     7  Na  -0.411181   0.610507
 Sum of Mulliken charges =  -0.00000   1.00000

 Dipole moment (field-independent basis, Debye):
    X=              0.4269    Y=              0.0471    Z=              0.0338  Tot=              0.4308
 Quadrupole moment (field-independent basis, Debye-Ang):
   XX=            -54.1919   YY=            -62.2415   ZZ=            -75.6222
   XY=              0.0811   XZ=             -0.6644   YZ=              1.3143

 Normal termination of Gaussian 16 at Thu Dec  7 16:30:06 2023.
