 Gaussian 16, Revision B.01,
 Gaussian 16:  ES64L-G16RevB.01 20-Dec-2017

 -------------------------
 #P B3LYP/6-311+g(d) force
 -------------------------

 -----
 DPGEN
 -----
 Symbolic Z-matrix:
 Charge =  0 Multiplicity = 2

                         Standard orientation:
 ---------------------------------------------------------------------
 Center     Atomic      Atomic             Coordinates (Angstroms)
 Number     Number       Type             X           Y           Z
 ---------------------------------------------------------------------
      1         11           0       -1.347460   -1.923931    0.551741
      2         11           0       -4.279362   -2.574832   -0.330331
      3         11           0       -2.657475    0.925412   -0.764862
      4         11           0       -0.998816    3.693685   -0.465336
      5         11           0        0.479464    1.657828    1.294358
      6         11           0        2.888912   -0.746906    0.693718
      7         11           0        5.914736   -1.031257   -0.979289
 ---------------------------------------------------------------------

 SCF Done:  E(UB3LYP) =  -1136.12086792     A.U. after   20 cycles

 The electronic state is 2-A.
 Alpha  occ. eigenvalues --  -38.44842 -38.44793 -38.44523 -38.44106 -38.43951
 Alpha  occ. eigenvalues --  -38.43870 -38.42892  -2.20650  -2.20634  -2.20366
 Alpha  occ. eigenvalues --   -2.19974  -2.19746  -2.19736  -2.18679  -1.14346
 Alpha  occ. eigenvalues --   -1.14339  -1.14329  -1.14306  -1.14283  -1.14224
 Alpha  occ. eigenvalues --   -1.14055  -1.14043  -1.13947  -1.13678  -1.13634
 Alpha  occ. eigenvalues --   -1.13630  -1.13388  -1.13382  -1.13382  -1.13374
 Alpha  occ. eigenvalues --   -1.13358  -1.13357  -1.12376  -1.12369  -1.12320
 Alpha  occ. eigenvalues --   -0.17017  -0.13623  -0.12983  -0.10803
 Alpha virt. eigenvalues --   -0.06452  -0.05218  -0.04854  -0.03844  -0.02505
 Alpha virt. eigenvalues --   -0.02306  -0.02052  -0.01784  -0.01347  -0.00845
 Alpha virt. eigenvalues --   -0.00189  -0.00078   0.00205   0.00284   0.00570

  Beta  occ. eigenvalues --  -38.44835 -38.44771 -38.44502 -38.44076 -38.43856
  Beta  occ. eigenvalues --  -38.43847 -38.42899  -2.20637  -2.20594  -2.20327
  Beta  occ. eigenvalues --   -2.19920  -2.19710  -2.19552  -2.18701  -1.14331
  Beta  occ. eigenvalues --   -1.14309  -1.14303  -1.14297  -1.14271  -1.14193
  Beta  occ. eigenvalues --   -1.14031  -1.14019  -1.13905  -1.13638  -1.13605
  Beta  occ. eigenvalues --   -1.13587  -1.13361  -1.13355  -1.13341  -1.13250
  Beta  occ. eigenvalues --   -1.13249  -1.13232  -1.12398  -1.12391  -1.12276
  Beta  occ. eigenvalues --   -0.16572  -0.13484  -0.12124
  Beta virt. eigenvalues --   -0.07401  -0.06316  -0.04793  -0.04435  -0.03620
  Beta virt. eigenvalues --   -0.02408  -0.02233  -0.01661  -0.01372  -0.01037
  Beta virt. eigenvalues --   -0.00486   0.00029   0.00138   0.00360   0.00429

 Mulliken charges and spin densities:
               1          2
     1  Na  -0.853026   0.067501
     2  Na   1.547276   0.071566
     3  Na  -0.712512   0.270070
     4  Na   1.092677   0.012386
     5  Na  -0.836147   0.115869
     6  Na  -0.281972  -0.089268
     7  Na   0.043703   0.551876
 Sum of Mulliken charges =  -0.00000   1.00000

 Dipole moment (field-independent basis, Debye):
    X=             -2.7598    Y=              0.0631    Z=             -0.3515  Tot=              2.7828
 Quadrupole moment (field-independent basis, Debye-Ang):
   XX=            -63.6787   YY=            -60.9814   ZZ=            -70.8025
   XY=              9.0212   XZ=             -0.2028   YZ=              0.6085

 Normal termination of Gaussian 16 at Tue Nov 28 19:14:55 2023.
