 Gaussian 16, Revision B.01,
 Gaussian 16:  ES64L-G16RevB.01 20-Dec-2017

 -------------------------
 #P B3LYP/6-311+g(d) force
 -------------------------

 -----
 DPGEN
 -----
 Symbolic Z-matrix:
 Charge =  0 Multiplicity = 2

                         Standard orientation:
 ---------------------------------------------------------------------
 Center     Atomic      Atomic             Coordinates (Angstroms)
 Number     Number       Type             X           Y           Z
 ---------------------------------------------------------------------
      1         11           0        1.093471   -2.411224   -0.503850
      2         11           0        3.162587    0.404708   -0.880897
      3         11           0        1.668839    0.176433    2.220819
      4         11           0        0.824914    2.445251   -0.519564
      5         11           0       -3.057072    1.645529   -0.346903
      6         11           0       -1.573619   -1.310844   -1.717378
      7         11           0       -2.119120   -0.949853    1.747774
 ---------------------------------------------------------------------

 SCF Done:  E(UB3LYP) =  -1136.12640782     A.U. after   21 cycles

 The electronic state is 2-A.
 Alpha  occ. eigenvalues --  -38.44796 -38.44756 -38.44406 -38.43944 -38.43824
 Alpha  occ. eigenvalues --  -38.43590 -38.42779  -2.20603  -2.20581  -2.20265
 Alpha  occ. eigenvalues --   -2.19800  -2.19619  -2.19406  -2.18628  -1.14271
 Alpha  occ. eigenvalues --   -1.14248  -1.14245  -1.14235  -1.14225  -1.14199
 Alpha  occ. eigenvalues --   -1.13959  -1.13909  -1.13897  -1.13487  -1.13452
 Alpha  occ. eigenvalues --   -1.13426  -1.13297  -1.13270  -1.13261  -1.13095
 Alpha  occ. eigenvalues --   -1.13072  -1.13026  -1.12325  -1.12277  -1.12268
 Alpha  occ. eigenvalues --   -0.17745  -0.13663  -0.11569  -0.11421
 Alpha virt. eigenvalues --   -0.05884  -0.05584  -0.04870  -0.03536  -0.03142
 Alpha virt. eigenvalues --   -0.02867  -0.01487  -0.00896  -0.00505  -0.00275
 Alpha virt. eigenvalues --   -0.00005   0.00301   0.00404   0.00449   0.00529

  Beta  occ. eigenvalues --  -38.44752 -38.44686 -38.44394 -38.43911 -38.43823
  Beta  occ. eigenvalues --  -38.43580 -38.42770  -2.20522  -2.20450  -2.20243
  Beta  occ. eigenvalues --   -2.19738  -2.19617  -2.19388  -2.18614  -1.14214
  Beta  occ. eigenvalues --   -1.14192  -1.14172  -1.14156  -1.14140  -1.14100
  Beta  occ. eigenvalues --   -1.13939  -1.13891  -1.13880  -1.13446  -1.13407
  Beta  occ. eigenvalues --   -1.13380  -1.13285  -1.13269  -1.13262  -1.13077
  Beta  occ. eigenvalues --   -1.13056  -1.13015  -1.12309  -1.12263  -1.12251
  Beta  occ. eigenvalues --   -0.17093  -0.13524  -0.11353
  Beta virt. eigenvalues --   -0.07624  -0.05680  -0.05178  -0.04480  -0.03393
  Beta virt. eigenvalues --   -0.02315  -0.02192  -0.01449  -0.00726  -0.00193
  Beta virt. eigenvalues --   -0.00147   0.00035   0.00428   0.00526   0.00641

 Mulliken charges and spin densities:
               1          2
     1  Na  -0.169023   0.216970
     2  Na   0.488174   0.001157
     3  Na  -0.195554   0.372750
     4  Na  -0.302014   0.103776
     5  Na   0.164164   0.025539
     6  Na   0.000113   0.142058
     7  Na   0.014140   0.137750
 Sum of Mulliken charges =  -0.00000   1.00000

 Dipole moment (field-independent basis, Debye):
    X=              0.0859    Y=              0.1063    Z=              0.2841  Tot=              0.3153
 Quadrupole moment (field-independent basis, Debye-Ang):
   XX=            -57.0393   YY=            -75.0269   ZZ=            -66.1155
   XY=             -0.6659   XZ=             -0.8516   YZ=             -1.7677

 Normal termination of Gaussian 16 at Mon Dec  4 05:32:34 2023.
