 Gaussian 16, Revision B.01,
 Gaussian 16:  ES64L-G16RevB.01 20-Dec-2017

 -------------------------
 #P B3LYP/6-311+g(d) force
 -------------------------

 -----
 DPGEN
 -----
 Symbolic Z-matrix:
 Charge =  0 Multiplicity = 2

                         Standard orientation:
 ---------------------------------------------------------------------
 Center     Atomic      Atomic             Coordinates (Angstroms)
 Number     Number       Type             X           Y           Z
 ---------------------------------------------------------------------
      1         11           0        2.370294   -2.247372   -0.020482
      2         11           0       -0.357297    2.894067   -0.074878
      3         11           0        0.003127    0.055238    2.227590
      4         11           0        0.379917   -0.388301   -1.460925
      5         11           0       -3.132214    0.689665   -0.378707
      6         11           0       -2.013429   -2.399139   -0.039511
      7         11           0        2.749602    1.395842   -0.253086
 ---------------------------------------------------------------------

 SCF Done:  E(UB3LYP) =  -1136.13483558     A.U. after   19 cycles

 The electronic state is 2-A.
 Alpha  occ. eigenvalues --  -38.44078 -38.44045 -38.44040 -38.43885 -38.43704
 Alpha  occ. eigenvalues --  -38.43205 -38.43124  -2.19927  -2.19865  -2.19864
 Alpha  occ. eigenvalues --   -2.19704  -2.19552  -2.19189  -2.18962  -1.13634
 Alpha  occ. eigenvalues --   -1.13588  -1.13579  -1.13551  -1.13537  -1.13533
 Alpha  occ. eigenvalues --   -1.13514  -1.13513  -1.13488  -1.13379  -1.13362
 Alpha  occ. eigenvalues --   -1.13334  -1.13208  -1.13174  -1.13170  -1.12873
 Alpha  occ. eigenvalues --   -1.12829  -1.12819  -1.12633  -1.12627  -1.12606
 Alpha  occ. eigenvalues --   -0.18344  -0.13167  -0.12269  -0.10628
 Alpha virt. eigenvalues --   -0.05750  -0.05535  -0.04624  -0.03160  -0.02775
 Alpha virt. eigenvalues --   -0.02596  -0.01593  -0.01304  -0.00633  -0.00403
 Alpha virt. eigenvalues --   -0.00028   0.00324   0.00754   0.00798   0.00875

  Beta  occ. eigenvalues --  -38.44071 -38.44039 -38.44039 -38.43882 -38.43592
  Beta  occ. eigenvalues --  -38.43162 -38.43120  -2.19917  -2.19864  -2.19853
  Beta  occ. eigenvalues --   -2.19702  -2.19345  -2.19111  -2.18958  -1.13622
  Beta  occ. eigenvalues --   -1.13578  -1.13561  -1.13547  -1.13533  -1.13515
  Beta  occ. eigenvalues --   -1.13504  -1.13501  -1.13486  -1.13374  -1.13351
  Beta  occ. eigenvalues --   -1.13332  -1.13069  -1.13030  -1.13022  -1.12813
  Beta  occ. eigenvalues --   -1.12774  -1.12759  -1.12632  -1.12608  -1.12602
  Beta  occ. eigenvalues --   -0.17649  -0.12946  -0.12078
  Beta virt. eigenvalues --   -0.06672  -0.05752  -0.05458  -0.04584  -0.02424
  Beta virt. eigenvalues --   -0.02025  -0.01519  -0.01497  -0.01229  -0.00678
  Beta virt. eigenvalues --   -0.00433   0.00145   0.00374   0.00798   0.00844

 Mulliken charges and spin densities:
               1          2
     1  Na   0.241759  -0.012067
     2  Na   0.102331   0.026647
     3  Na  -0.579767   0.779395
     4  Na  -0.273550   0.161287
     5  Na   0.038475   0.019678
     6  Na   0.195452   0.010022
     7  Na   0.275300   0.015040
 Sum of Mulliken charges =  -0.00000   1.00000

 Dipole moment (field-independent basis, Debye):
    X=              0.1795    Y=             -0.2610    Z=              0.1306  Tot=              0.3426
 Quadrupole moment (field-independent basis, Debye-Ang):
   XX=            -55.8345   YY=            -62.3419   ZZ=            -75.4290
   XY=             -0.4001   XZ=              0.8380   YZ=             -1.1511

 Normal termination of Gaussian 16 at Thu Dec  7 08:55:07 2023.
