 Gaussian 16, Revision B.01,
 Gaussian 16:  ES64L-G16RevB.01 20-Dec-2017

 -------------------------
 #P B3LYP/6-311+g(d) force
 -------------------------

 -----
 DPGEN
 -----
 Symbolic Z-matrix:
 Charge =  0 Multiplicity = 2

                         Standard orientation:
 ---------------------------------------------------------------------
 Center     Atomic      Atomic             Coordinates (Angstroms)
 Number     Number       Type             X           Y           Z
 ---------------------------------------------------------------------
      1         11           0        0.051307   -0.797246    2.023116
      2         11           0       -2.038579   -2.118872   -0.195742
      3         11           0        3.121855    0.625054   -0.080607
      4         11           0        1.347412   -2.554254   -0.468894
      5         11           0       -2.880405    1.332558   -0.119439
      6         11           0        0.054783    0.543733   -1.504748
      7         11           0        0.343627    2.969028    0.346315
 ---------------------------------------------------------------------

 SCF Done:  E(UB3LYP) =  -1136.13773234     A.U. after   18 cycles

 The electronic state is 2-A.
 Alpha  occ. eigenvalues --  -38.43919 -38.43858 -38.43794 -38.43612 -38.43582
 Alpha  occ. eigenvalues --  -38.43405 -38.42982  -2.19736  -2.19704  -2.19617
 Alpha  occ. eigenvalues --   -2.19477  -2.19452  -2.19300  -2.18979  -1.13437
 Alpha  occ. eigenvalues --   -1.13415  -1.13395  -1.13378  -1.13359  -1.13317
 Alpha  occ. eigenvalues --   -1.13300  -1.13274  -1.13254  -1.13183  -1.13156
 Alpha  occ. eigenvalues --   -1.13133  -1.13121  -1.13110  -1.13062  -1.12954
 Alpha  occ. eigenvalues --   -1.12920  -1.12914  -1.12665  -1.12625  -1.12594
 Alpha  occ. eigenvalues --   -0.18584  -0.12920  -0.12747  -0.10454
 Alpha virt. eigenvalues --   -0.05520  -0.05271  -0.04970  -0.03183  -0.02869
 Alpha virt. eigenvalues --   -0.02293  -0.01433  -0.01194  -0.00495  -0.00423
 Alpha virt. eigenvalues --   -0.00000   0.00360   0.00829   0.00857   0.00875

  Beta  occ. eigenvalues --  -38.43916 -38.43851 -38.43792 -38.43605 -38.43568
  Beta  occ. eigenvalues --  -38.43316 -38.42930  -2.19734  -2.19694  -2.19615
  Beta  occ. eigenvalues --   -2.19467  -2.19432  -2.19135  -2.18885  -1.13429
  Beta  occ. eigenvalues --   -1.13404  -1.13384  -1.13377  -1.13338  -1.13314
  Beta  occ. eigenvalues --   -1.13292  -1.13264  -1.13254  -1.13174  -1.13130
  Beta  occ. eigenvalues --   -1.13112  -1.13102  -1.13078  -1.13053  -1.12847
  Beta  occ. eigenvalues --   -1.12807  -1.12797  -1.12595  -1.12557  -1.12525
  Beta  occ. eigenvalues --   -0.17881  -0.12707  -0.12523
  Beta virt. eigenvalues --   -0.06579  -0.05518  -0.05261  -0.04826  -0.02419
  Beta virt. eigenvalues --   -0.02158  -0.01368  -0.01275  -0.01109  -0.00514
  Beta virt. eigenvalues --   -0.00463   0.00162   0.00400   0.00853   0.00869

 Mulliken charges and spin densities:
               1          2
     1  Na  -0.599974   0.746991
     2  Na   0.275932  -0.009204
     3  Na   0.108357  -0.035139
     4  Na   0.229839  -0.016426
     5  Na   0.095024  -0.053623
     6  Na  -0.118836   0.361539
     7  Na   0.009659   0.005862
 Sum of Mulliken charges =  -0.00000   1.00000

 Dipole moment (field-independent basis, Debye):
    X=              0.0743    Y=              0.1462    Z=              0.1342  Tot=              0.2119
 Quadrupole moment (field-independent basis, Debye-Ang):
   XX=            -57.2961   YY=            -60.4613   ZZ=            -75.2388
   XY=             -0.0203   XZ=              0.0836   YZ=              2.7845

 Normal termination of Gaussian 16 at Thu Dec  7 08:53:48 2023.
