 Gaussian 16, Revision B.01,
 Gaussian 16:  ES64L-G16RevB.01 20-Dec-2017

 -------------------------
 #P B3LYP/6-311+g(d) force
 -------------------------

 -----
 DPGEN
 -----
 Symbolic Z-matrix:
 Charge =  0 Multiplicity = 2

                         Standard orientation:
 ---------------------------------------------------------------------
 Center     Atomic      Atomic             Coordinates (Angstroms)
 Number     Number       Type             X           Y           Z
 ---------------------------------------------------------------------
      1         11           0        1.142160    3.385974   -0.540110
      2         11           0       -1.307809   -2.560796   -0.468243
      3         11           0        3.017281    0.850751   -0.654109
      4         11           0        0.831729   -0.328979    1.574175
      5         11           0       -3.849669   -0.438296   -0.619006
      6         11           0        2.453881   -2.799900   -0.020273
      7         11           0       -2.287572    1.891247    0.727565
 ---------------------------------------------------------------------

 SCF Done:  E(UB3LYP) =  -1136.12148670     A.U. after   21 cycles

 The electronic state is 2-A.
 Alpha  occ. eigenvalues --  -38.44686 -38.44463 -38.44327 -38.43987 -38.43936
 Alpha  occ. eigenvalues --  -38.43891 -38.43869  -2.20488  -2.20265  -2.20189
 Alpha  occ. eigenvalues --   -2.19788  -2.19779  -2.19731  -2.19712  -1.14162
 Alpha  occ. eigenvalues --   -1.14145  -1.14134  -1.13949  -1.13944  -1.13885
 Alpha  occ. eigenvalues --   -1.13871  -1.13862  -1.13781  -1.13517  -1.13514
 Alpha  occ. eigenvalues --   -1.13456  -1.13430  -1.13425  -1.13423  -1.13395
 Alpha  occ. eigenvalues --   -1.13380  -1.13367  -1.13350  -1.13319  -1.13309
 Alpha  occ. eigenvalues --   -0.17249  -0.13857  -0.12930  -0.09933
 Alpha virt. eigenvalues --   -0.06750  -0.06156  -0.04339  -0.03482  -0.03088
 Alpha virt. eigenvalues --   -0.02093  -0.01674  -0.01431  -0.01299  -0.01057
 Alpha virt. eigenvalues --    0.00033   0.00339   0.00374   0.00547   0.00673

  Beta  occ. eigenvalues --  -38.44686 -38.44430 -38.44278 -38.43970 -38.43915
  Beta  occ. eigenvalues --  -38.43857 -38.43831  -2.20489  -2.20208  -2.20097
  Beta  occ. eigenvalues --   -2.19762  -2.19743  -2.19664  -2.19649  -1.14154
  Beta  occ. eigenvalues --   -1.14146  -1.14134  -1.13911  -1.13907  -1.13826
  Beta  occ. eigenvalues --   -1.13808  -1.13803  -1.13711  -1.13484  -1.13481
  Beta  occ. eigenvalues --   -1.13441  -1.13407  -1.13391  -1.13386  -1.13348
  Beta  occ. eigenvalues --   -1.13338  -1.13322  -1.13305  -1.13271  -1.13264
  Beta  occ. eigenvalues --   -0.16787  -0.13471  -0.12466
  Beta virt. eigenvalues --   -0.06687  -0.06503  -0.06007  -0.04061  -0.02960
  Beta virt. eigenvalues --   -0.02454  -0.02000  -0.01534  -0.01309  -0.00957
  Beta virt. eigenvalues --   -0.00803   0.00269   0.00441   0.00466   0.00683

 Mulliken charges and spin densities:
               1          2
     1  Na   0.075604   0.044448
     2  Na  -0.534391   0.152923
     3  Na  -0.227756   0.201991
     4  Na   0.130561   0.380357
     5  Na   0.466440   0.121791
     6  Na   0.571653  -0.009190
     7  Na  -0.482112   0.107680
 Sum of Mulliken charges =  -0.00000   1.00000

 Dipole moment (field-independent basis, Debye):
    X=              0.5678    Y=             -0.7057    Z=             -0.0343  Tot=              0.9064
 Quadrupole moment (field-independent basis, Debye-Ang):
   XX=            -62.5790   YY=            -62.4739   ZZ=            -73.8370
   XY=            -10.4762   XZ=              0.3165   YZ=              0.2582

 Normal termination of Gaussian 16 at Sun Dec  3 22:25:44 2023.
