 Gaussian 16, Revision B.01,
 Gaussian 16:  ES64L-G16RevB.01 20-Dec-2017

 -------------------------
 #P B3LYP/6-311+g(d) force
 -------------------------

 -----
 DPGEN
 -----
 Symbolic Z-matrix:
 Charge =  0 Multiplicity = 2

                         Standard orientation:
 ---------------------------------------------------------------------
 Center     Atomic      Atomic             Coordinates (Angstroms)
 Number     Number       Type             X           Y           Z
 ---------------------------------------------------------------------
      1         11           0        1.035342    2.202320    0.648897
      2         11           0       -2.913354   -1.160831    0.002556
      3         11           0        0.283294    0.079910   -1.785546
      4         11           0        0.934879   -2.562871   -0.456441
      5         11           0       -0.496592   -0.723252    1.988306
      6         11           0        3.073148    0.100458    0.098826
      7         11           0       -1.916717    2.064266   -0.496598
 ---------------------------------------------------------------------

 SCF Done:  E(UB3LYP) =  -1136.13123045     A.U. after   19 cycles

 The electronic state is 2-A.
 Alpha  occ. eigenvalues --  -38.44151 -38.44123 -38.43800 -38.43523 -38.43340
 Alpha  occ. eigenvalues --  -38.43311 -38.42990  -2.20014  -2.19990  -2.19713
 Alpha  occ. eigenvalues --   -2.19535  -2.19232  -2.19208  -2.18948  -1.13739
 Alpha  occ. eigenvalues --   -1.13705  -1.13669  -1.13644  -1.13641  -1.13623
 Alpha  occ. eigenvalues --   -1.13371  -1.13341  -1.13337  -1.13256  -1.13210
 Alpha  occ. eigenvalues --   -1.13149  -1.12916  -1.12895  -1.12886  -1.12873
 Alpha  occ. eigenvalues --   -1.12831  -1.12830  -1.12619  -1.12592  -1.12575
 Alpha  occ. eigenvalues --   -0.19155  -0.13294  -0.12394  -0.11332
 Alpha virt. eigenvalues --   -0.05805  -0.04798  -0.04111  -0.03558  -0.03193
 Alpha virt. eigenvalues --   -0.02811  -0.01553  -0.00833  -0.00113  -0.00015
 Alpha virt. eigenvalues --    0.00202   0.00371   0.00837   0.00880   0.00944

  Beta  occ. eigenvalues --  -38.44149 -38.44119 -38.43722 -38.43447 -38.43326
  Beta  occ. eigenvalues --  -38.43299 -38.42971  -2.20010  -2.19990  -2.19569
  Beta  occ. eigenvalues --   -2.19397  -2.19210  -2.19190  -2.18917  -1.13737
  Beta  occ. eigenvalues --   -1.13690  -1.13643  -1.13639  -1.13632  -1.13626
  Beta  occ. eigenvalues --   -1.13279  -1.13242  -1.13233  -1.13166  -1.13117
  Beta  occ. eigenvalues --   -1.13054  -1.12894  -1.12875  -1.12853  -1.12839
  Beta  occ. eigenvalues --   -1.12817  -1.12813  -1.12603  -1.12574  -1.12523
  Beta  occ. eigenvalues --   -0.18412  -0.13034  -0.12130
  Beta virt. eigenvalues --   -0.07387  -0.05734  -0.04774  -0.04058  -0.02765
  Beta virt. eigenvalues --   -0.02414  -0.01762  -0.01469  -0.00769  -0.00070
  Beta virt. eigenvalues --    0.00068   0.00190   0.00396   0.00879   0.00964

 Mulliken charges and spin densities:
               1          2
     1  Na   0.174199   0.193317
     2  Na   0.183023  -0.085529
     3  Na  -0.343979   0.404843
     4  Na   0.242981  -0.080260
     5  Na  -0.500901   0.514889
     6  Na   0.091059  -0.013387
     7  Na   0.153618   0.066127
 Sum of Mulliken charges =  -0.00000   1.00000

 Dipole moment (field-independent basis, Debye):
    X=             -0.1360    Y=             -0.3655    Z=              0.0903  Tot=              0.4003
 Quadrupole moment (field-independent basis, Debye-Ang):
   XX=            -56.5274   YY=            -67.7095   ZZ=            -71.0408
   XY=             -0.1816   XZ=              1.5961   YZ=              0.9308

 Normal termination of Gaussian 16 at Tue Dec  5 19:50:01 2023.
