 Gaussian 16, Revision B.01,
 Gaussian 16:  ES64L-G16RevB.01 20-Dec-2017

 -------------------------
 #P B3LYP/6-311+g(d) force
 -------------------------

 -----
 DPGEN
 -----
 Symbolic Z-matrix:
 Charge =  0 Multiplicity = 2

                         Standard orientation:
 ---------------------------------------------------------------------
 Center     Atomic      Atomic             Coordinates (Angstroms)
 Number     Number       Type             X           Y           Z
 ---------------------------------------------------------------------
      1         11           0        1.684388    0.637607   -1.503829
      2         11           0       -2.334848    2.025105   -0.276467
      3         11           0        0.968483    2.571007    0.318835
      4         11           0       -0.387219   -0.429914    1.700631
      5         11           0       -3.001532   -1.584868   -0.018684
      6         11           0        0.341442   -2.104934   -1.165461
      7         11           0        2.729286   -1.114003    0.944976
 ---------------------------------------------------------------------

 SCF Done:  E(UB3LYP) =  -1136.12702699     A.U. after   19 cycles

 The electronic state is 2-A.
 Alpha  occ. eigenvalues --  -38.44268 -38.44058 -38.43911 -38.43757 -38.43437
 Alpha  occ. eigenvalues --  -38.43415 -38.43394  -2.20061  -2.19959  -2.19768
 Alpha  occ. eigenvalues --   -2.19727  -2.19369  -2.19353  -2.19318  -1.13741
 Alpha  occ. eigenvalues --   -1.13727  -1.13695  -1.13649  -1.13636  -1.13631
 Alpha  occ. eigenvalues --   -1.13589  -1.13435  -1.13409  -1.13385  -1.13366
 Alpha  occ. eigenvalues --   -1.13347  -1.13066  -1.13025  -1.13010  -1.12992
 Alpha  occ. eigenvalues --   -1.12976  -1.12970  -1.12951  -1.12938  -1.12914
 Alpha  occ. eigenvalues --   -0.18862  -0.13287  -0.12496  -0.11017
 Alpha virt. eigenvalues --   -0.05662  -0.05508  -0.04305  -0.03445  -0.03037
 Alpha virt. eigenvalues --   -0.02470  -0.01532  -0.01009  -0.00262  -0.00147
 Alpha virt. eigenvalues --    0.00050   0.00354   0.00745   0.00851   0.00866

  Beta  occ. eigenvalues --  -38.44269 -38.44027 -38.43910 -38.43705 -38.43430
  Beta  occ. eigenvalues --  -38.43355 -38.43348  -2.20065  -2.19906  -2.19727
  Beta  occ. eigenvalues --   -2.19675  -2.19344  -2.19250  -2.19247  -1.13736
  Beta  occ. eigenvalues --   -1.13730  -1.13699  -1.13617  -1.13579  -1.13571
  Beta  occ. eigenvalues --   -1.13537  -1.13403  -1.13381  -1.13372  -1.13368
  Beta  occ. eigenvalues --   -1.13282  -1.13000  -1.12980  -1.12965  -1.12933
  Beta  occ. eigenvalues --   -1.12929  -1.12914  -1.12889  -1.12885  -1.12863
  Beta  occ. eigenvalues --   -0.18143  -0.13120  -0.12284
  Beta virt. eigenvalues --   -0.06984  -0.05625  -0.05382  -0.04183  -0.02838
  Beta virt. eigenvalues --   -0.02362  -0.01552  -0.01302  -0.00985  -0.00188
  Beta virt. eigenvalues --   -0.00053   0.00141   0.00419   0.00805   0.00888

 Mulliken charges and spin densities:
               1          2
     1  Na   0.444331   0.293049
     2  Na  -0.321212  -0.064579
     3  Na   0.115083   0.037435
     4  Na  -0.424034   0.440163
     5  Na   0.380143   0.002171
     6  Na  -0.403311   0.213235
     7  Na   0.209000   0.078526
 Sum of Mulliken charges =  -0.00000   1.00000

 Dipole moment (field-independent basis, Debye):
    X=             -0.4185    Y=             -0.1327    Z=              0.0870  Tot=              0.4475
 Quadrupole moment (field-independent basis, Debye-Ang):
   XX=            -55.8490   YY=            -66.9096   ZZ=            -72.1316
   XY=             -0.9576   XZ=              2.8961   YZ=              0.3448

 Normal termination of Gaussian 16 at Tue Dec  5 11:55:19 2023.
