 Gaussian 16, Revision B.01,
 Gaussian 16:  ES64L-G16RevB.01 20-Dec-2017

 -------------------------
 #P B3LYP/6-311+g(d) force
 -------------------------

 -----
 DPGEN
 -----
 Symbolic Z-matrix:
 Charge =  0 Multiplicity = 2

                         Standard orientation:
 ---------------------------------------------------------------------
 Center     Atomic      Atomic             Coordinates (Angstroms)
 Number     Number       Type             X           Y           Z
 ---------------------------------------------------------------------
      1         11           0        0.320309    0.019478    1.965354
      2         11           0        0.546663    3.066105    0.121781
      3         11           0        3.065330    0.185738   -0.082617
      4         11           0       -2.205655   -1.804610    0.592224
      5         11           0        0.044449    0.185229   -1.498646
      6         11           0        1.063281   -2.802328   -0.559927
      7         11           0       -2.834378    1.150388   -0.538168
 ---------------------------------------------------------------------

 SCF Done:  E(UB3LYP) =  -1136.13768712     A.U. after   19 cycles

 The electronic state is 2-A.
 Alpha  occ. eigenvalues --  -38.44035 -38.43724 -38.43705 -38.43496 -38.43493
 Alpha  occ. eigenvalues --  -38.43390 -38.42939  -2.19879  -2.19561  -2.19544
 Alpha  occ. eigenvalues --   -2.19415  -2.19335  -2.19264  -2.18965  -1.13565
 Alpha  occ. eigenvalues --   -1.13558  -1.13494  -1.13269  -1.13228  -1.13225
 Alpha  occ. eigenvalues --   -1.13221  -1.13189  -1.13167  -1.13097  -1.13049
 Alpha  occ. eigenvalues --   -1.13035  -1.13029  -1.12983  -1.12970  -1.12929
 Alpha  occ. eigenvalues --   -1.12912  -1.12893  -1.12649  -1.12601  -1.12586
 Alpha  occ. eigenvalues --   -0.18739  -0.12978  -0.12493  -0.10794
 Alpha virt. eigenvalues --   -0.05581  -0.04984  -0.04755  -0.03189  -0.02921
 Alpha virt. eigenvalues --   -0.02459  -0.01427  -0.01279  -0.00341  -0.00198
 Alpha virt. eigenvalues --    0.00050   0.00361   0.00820   0.00886   0.00916

  Beta  occ. eigenvalues --  -38.44030 -38.43722 -38.43694 -38.43480 -38.43405
  Beta  occ. eigenvalues --  -38.43376 -38.42881  -2.19873  -2.19546  -2.19541
  Beta  occ. eigenvalues --   -2.19315  -2.19248  -2.19242  -2.18861  -1.13559
  Beta  occ. eigenvalues --   -1.13539  -1.13487  -1.13254  -1.13224  -1.13207
  Beta  occ. eigenvalues --   -1.13202  -1.13179  -1.13163  -1.13017  -1.12989
  Beta  occ. eigenvalues --   -1.12964  -1.12955  -1.12940  -1.12918  -1.12895
  Beta  occ. eigenvalues --   -1.12882  -1.12868  -1.12572  -1.12525  -1.12511
  Beta  occ. eigenvalues --   -0.18031  -0.12724  -0.12222
  Beta virt. eigenvalues --   -0.06901  -0.05585  -0.04914  -0.04675  -0.02425
  Beta virt. eigenvalues --   -0.02203  -0.01431  -0.01351  -0.01194  -0.00314
  Beta virt. eigenvalues --   -0.00225   0.00149   0.00393   0.00822   0.00909

 Mulliken charges and spin densities:
               1          2
     1  Na  -0.174789   0.630991
     2  Na  -0.045853  -0.039862
     3  Na   0.128245  -0.044519
     4  Na   0.153079   0.123366
     5  Na  -0.144562   0.295265
     6  Na   0.037075   0.045293
     7  Na   0.046806  -0.010533
 Sum of Mulliken charges =  -0.00000   1.00000

 Dipole moment (field-independent basis, Debye):
    X=              0.3147    Y=              0.2037    Z=              0.1430  Tot=              0.4013
 Quadrupole moment (field-independent basis, Debye-Ang):
   XX=            -58.1183   YY=            -60.3001   ZZ=            -74.2317
   XY=              0.0337   XZ=             -0.3185   YZ=              0.3046

 Normal termination of Gaussian 16 at Fri Dec  8 07:05:11 2023.
