 Gaussian 16, Revision B.01,
 Gaussian 16:  ES64L-G16RevB.01 20-Dec-2017

 -------------------------
 #P B3LYP/6-311+g(d) force
 -------------------------

 -----
 DPGEN
 -----
 Symbolic Z-matrix:
 Charge =  0 Multiplicity = 2

                         Standard orientation:
 ---------------------------------------------------------------------
 Center     Atomic      Atomic             Coordinates (Angstroms)
 Number     Number       Type             X           Y           Z
 ---------------------------------------------------------------------
      1         11           0        2.547709   -1.277010   -0.402715
      2         11           0       -3.010193   -0.968160   -0.216326
      3         11           0        0.038149    0.220007   -1.574580
      4         11           0        0.184666    0.186032    2.063402
      5         11           0       -0.179792   -2.865170    0.202639
      6         11           0        2.704345    2.110547   -0.015071
      7         11           0       -2.284884    2.593755   -0.057349
 ---------------------------------------------------------------------

 SCF Done:  E(UB3LYP) =  -1136.13350479     A.U. after   20 cycles

 The electronic state is 2-A.
 Alpha  occ. eigenvalues --  -38.44309 -38.44197 -38.44142 -38.43709 -38.43617
 Alpha  occ. eigenvalues --  -38.43364 -38.42861  -2.20122  -2.19994  -2.19911
 Alpha  occ. eigenvalues --   -2.19621  -2.19482  -2.19310  -2.18745  -1.13805
 Alpha  occ. eigenvalues --   -1.13787  -1.13754  -1.13661  -1.13655  -1.13644
 Alpha  occ. eigenvalues --   -1.13586  -1.13566  -1.13553  -1.13349  -1.13276
 Alpha  occ. eigenvalues --   -1.13244  -1.13153  -1.13103  -1.13098  -1.13000
 Alpha  occ. eigenvalues --   -1.12942  -1.12929  -1.12417  -1.12402  -1.12394
 Alpha  occ. eigenvalues --   -0.18417  -0.13170  -0.12140  -0.10581
 Alpha virt. eigenvalues --   -0.06093  -0.05437  -0.04477  -0.03183  -0.02755
 Alpha virt. eigenvalues --   -0.02481  -0.01736  -0.01365  -0.00692  -0.00293
 Alpha virt. eigenvalues --   -0.00005   0.00325   0.00731   0.00771   0.00881

  Beta  occ. eigenvalues --  -38.44306 -38.44197 -38.44144 -38.43694 -38.43517
  Beta  occ. eigenvalues --  -38.43308 -38.42855  -2.20118  -2.19995  -2.19916
  Beta  occ. eigenvalues --   -2.19598  -2.19297  -2.19209  -2.18737  -1.13795
  Beta  occ. eigenvalues --   -1.13775  -1.13754  -1.13662  -1.13649  -1.13637
  Beta  occ. eigenvalues --   -1.13582  -1.13567  -1.13557  -1.13327  -1.13240
  Beta  occ. eigenvalues --   -1.13226  -1.13031  -1.12973  -1.12964  -1.12929
  Beta  occ. eigenvalues --   -1.12864  -1.12855  -1.12416  -1.12400  -1.12359
  Beta  occ. eigenvalues --   -0.17682  -0.12956  -0.11942
  Beta virt. eigenvalues --   -0.06640  -0.06105  -0.05332  -0.04473  -0.02448
  Beta virt. eigenvalues --   -0.01998  -0.01656  -0.01513  -0.01198  -0.00738
  Beta virt. eigenvalues --   -0.00313   0.00142   0.00361   0.00741   0.00839

 Mulliken charges and spin densities:
               1          2
     1  Na   0.427136   0.151708
     2  Na   0.088191  -0.005228
     3  Na  -0.082970   0.228268
     4  Na  -0.473646   0.716161
     5  Na   0.068397   0.056820
     6  Na   0.024693  -0.062748
     7  Na  -0.051801  -0.084981
 Sum of Mulliken charges =  -0.00000   1.00000

 Dipole moment (field-independent basis, Debye):
    X=             -0.1367    Y=              0.5198    Z=              0.0751  Tot=              0.5427
 Quadrupole moment (field-independent basis, Debye-Ang):
   XX=            -55.8919   YY=            -61.3568   ZZ=            -75.6447
   XY=              1.2948   XZ=             -0.3062   YZ=              0.2789

 Normal termination of Gaussian 16 at Thu Dec  7 19:55:44 2023.
