 Gaussian 16, Revision B.01,
 Gaussian 16:  ES64L-G16RevB.01 20-Dec-2017

 -------------------------
 #P B3LYP/6-311+g(d) force
 -------------------------

 -----
 DPGEN
 -----
 Symbolic Z-matrix:
 Charge =  0 Multiplicity = 2

                         Standard orientation:
 ---------------------------------------------------------------------
 Center     Atomic      Atomic             Coordinates (Angstroms)
 Number     Number       Type             X           Y           Z
 ---------------------------------------------------------------------
      1         11           0       -3.118908   -1.299732   -0.915226
      2         11           0       -2.649130    2.161001   -0.214564
      3         11           0        0.026469    0.274514   -1.516335
      4         11           0        1.233506    1.198244    1.888842
      5         11           0       -1.131738   -1.181736    1.679391
      6         11           0        1.754444   -1.560535    0.107616
      7         11           0        3.885358    0.408244   -1.029725
 ---------------------------------------------------------------------

 SCF Done:  E(UB3LYP) =  -1136.12007574     A.U. after   24 cycles

 The electronic state is 2-A.
 Alpha  occ. eigenvalues --  -38.44595 -38.44374 -38.44278 -38.44120 -38.43865
 Alpha  occ. eigenvalues --  -38.43737 -38.42243  -2.20433  -2.20184  -2.20176
 Alpha  occ. eigenvalues --   -2.19930  -2.19857  -2.19607  -2.18165  -1.14112
 Alpha  occ. eigenvalues --   -1.14095  -1.14049  -1.13962  -1.13875  -1.13846
 Alpha  occ. eigenvalues --   -1.13826  -1.13799  -1.13753  -1.13665  -1.13590
 Alpha  occ. eigenvalues --   -1.13571  -1.13554  -1.13493  -1.13407  -1.13276
 Alpha  occ. eigenvalues --   -1.13241  -1.13222  -1.11853  -1.11825  -1.11803
 Alpha  occ. eigenvalues --   -0.18588  -0.14069  -0.11385  -0.10884
 Alpha virt. eigenvalues --   -0.06692  -0.05458  -0.04389  -0.03095  -0.02664
 Alpha virt. eigenvalues --   -0.02537  -0.02281  -0.01199  -0.00844  -0.00076
 Alpha virt. eigenvalues --    0.00085   0.00251   0.00439   0.00612   0.00659

  Beta  occ. eigenvalues --  -38.44567 -38.44317 -38.44254 -38.44133 -38.43845
  Beta  occ. eigenvalues --  -38.43684 -38.42228  -2.20384  -2.20138  -2.20079
  Beta  occ. eigenvalues --   -2.19957  -2.19821  -2.19507  -2.18142  -1.14079
  Beta  occ. eigenvalues --   -1.14056  -1.14008  -1.13923  -1.13819  -1.13773
  Beta  occ. eigenvalues --   -1.13757  -1.13736  -1.13720  -1.13674  -1.13603
  Beta  occ. eigenvalues --   -1.13586  -1.13531  -1.13460  -1.13391  -1.13207
  Beta  occ. eigenvalues --   -1.13167  -1.13158  -1.11839  -1.11803  -1.11765
  Beta  occ. eigenvalues --   -0.17902  -0.13868  -0.10698
  Beta virt. eigenvalues --   -0.07572  -0.06489  -0.04739  -0.04302  -0.02735
  Beta virt. eigenvalues --   -0.02506  -0.01991  -0.01747  -0.00825  -0.00590
  Beta virt. eigenvalues --    0.00002   0.00150   0.00348   0.00498   0.00707

 Mulliken charges and spin densities:
               1          2
     1  Na   0.252780  -0.051623
     2  Na  -0.157052   0.247694
     3  Na  -0.486476   0.304550
     4  Na  -0.559416   0.387655
     5  Na   0.337515   0.249587
     6  Na   0.321493  -0.032034
     7  Na   0.291157  -0.105830
 Sum of Mulliken charges =  -0.00000   1.00000

 Dipole moment (field-independent basis, Debye):
    X=             -0.0838    Y=              0.2169    Z=              0.2304  Tot=              0.3274
 Quadrupole moment (field-independent basis, Debye-Ang):
   XX=            -52.5619   YY=            -65.6019   ZZ=            -77.1241
   XY=              3.2201   XZ=              0.7062   YZ=              4.3792

 Normal termination of Gaussian 16 at Thu Dec  7 20:52:25 2023.
