 Gaussian 16, Revision B.01,
 Gaussian 16:  ES64L-G16RevB.01 20-Dec-2017

 -------------------------
 #P B3LYP/6-311+g(d) force
 -------------------------

 -----
 DPGEN
 -----
 Symbolic Z-matrix:
 Charge =  0 Multiplicity = 2

                         Standard orientation:
 ---------------------------------------------------------------------
 Center     Atomic      Atomic             Coordinates (Angstroms)
 Number     Number       Type             X           Y           Z
 ---------------------------------------------------------------------
      1         11           0        2.308763   -2.300811    0.075670
      2         11           0       -3.468384   -0.478563   -0.720675
      3         11           0       -1.380727   -1.413217    1.647938
      4         11           0        0.936059    0.898859    1.846829
      5         11           0       -0.840531    2.832501    0.118943
      6         11           0        2.814151    1.071371   -0.981356
      7         11           0       -0.369331   -0.610140   -1.987349
 ---------------------------------------------------------------------

 SCF Done:  E(UB3LYP) =  -1136.12859423     A.U. after   21 cycles

 The electronic state is 2-A.
 Alpha  occ. eigenvalues --  -38.44529 -38.44337 -38.44205 -38.44107 -38.43565
 Alpha  occ. eigenvalues --  -38.43381 -38.43168  -2.20344  -2.20176  -2.20064
 Alpha  occ. eigenvalues --   -2.19927  -2.19353  -2.19301  -2.18973  -1.14033
 Alpha  occ. eigenvalues --   -1.14008  -1.13949  -1.13849  -1.13830  -1.13807
 Alpha  occ. eigenvalues --   -1.13757  -1.13714  -1.13689  -1.13592  -1.13563
 Alpha  occ. eigenvalues --   -1.13558  -1.13025  -1.13014  -1.13001  -1.12997
 Alpha  occ. eigenvalues --   -1.12956  -1.12928  -1.12647  -1.12633  -1.12596
 Alpha  occ. eigenvalues --   -0.18073  -0.13117  -0.11825  -0.11447
 Alpha virt. eigenvalues --   -0.05869  -0.05180  -0.04478  -0.03384  -0.03258
 Alpha virt. eigenvalues --   -0.02980  -0.01694  -0.00985  -0.00592  -0.00043
 Alpha virt. eigenvalues --    0.00184   0.00339   0.00448   0.00664   0.00852

  Beta  occ. eigenvalues --  -38.44508 -38.44280 -38.44142 -38.44100 -38.43565
  Beta  occ. eigenvalues --  -38.43331 -38.43167  -2.20305  -2.20072  -2.19951
  Beta  occ. eigenvalues --   -2.19914  -2.19355  -2.19213  -2.18972  -1.13998
  Beta  occ. eigenvalues --   -1.13981  -1.13923  -1.13782  -1.13753  -1.13730
  Beta  occ. eigenvalues --   -1.13670  -1.13652  -1.13612  -1.13564  -1.13554
  Beta  occ. eigenvalues --   -1.13537  -1.13024  -1.13013  -1.12994  -1.12942
  Beta  occ. eigenvalues --   -1.12874  -1.12871  -1.12637  -1.12625  -1.12597
  Beta  occ. eigenvalues --   -0.17272  -0.12951  -0.11323
  Beta virt. eigenvalues --   -0.07826  -0.05731  -0.04947  -0.03909  -0.03247
  Beta virt. eigenvalues --   -0.02488  -0.02220  -0.01565  -0.00882  -0.00330
  Beta virt. eigenvalues --    0.00010   0.00251   0.00397   0.00522   0.00788

 Mulliken charges and spin densities:
               1          2
     1  Na  -0.052279   0.010166
     2  Na   0.254504   0.085816
     3  Na  -0.207692   0.117711
     4  Na   0.526889   0.278624
     5  Na  -0.385212  -0.031350
     6  Na   0.186479   0.083378
     7  Na  -0.322690   0.455655
 Sum of Mulliken charges =  -0.00000   1.00000

 Dipole moment (field-independent basis, Debye):
    X=             -0.0815    Y=             -0.0994    Z=             -0.4828  Tot=              0.4996
 Quadrupole moment (field-independent basis, Debye-Ang):
   XX=            -56.6379   YY=            -71.4368   ZZ=            -67.8248
   XY=             -0.1416   XZ=             -0.2871   YZ=             -4.6762

 Normal termination of Gaussian 16 at Sun Dec  3 16:18:56 2023.
