 Gaussian 16, Revision B.01,
 Gaussian 16:  ES64L-G16RevB.01 20-Dec-2017

 -------------------------
 #P B3LYP/6-311+g(d) force
 -------------------------

 -----
 DPGEN
 -----
 Symbolic Z-matrix:
 Charge =  0 Multiplicity = 2

                         Standard orientation:
 ---------------------------------------------------------------------
 Center     Atomic      Atomic             Coordinates (Angstroms)
 Number     Number       Type             X           Y           Z
 ---------------------------------------------------------------------
      1         11           0        0.567439   -2.847650    0.061527
      2         11           0        1.546375    2.546593   -0.445532
      3         11           0        0.147713   -0.200099   -1.568428
      4         11           0       -0.249687    0.368409    2.080113
      5         11           0        3.166517   -0.647396    0.163628
      6         11           0       -2.063659    2.168638   -0.019376
      7         11           0       -3.114699   -1.388495   -0.271932
 ---------------------------------------------------------------------

 SCF Done:  E(UB3LYP) =  -1136.13672888     A.U. after   19 cycles

 The electronic state is 2-A.
 Alpha  occ. eigenvalues --  -38.44215 -38.44098 -38.43780 -38.43603 -38.43497
 Alpha  occ. eigenvalues --  -38.43404 -38.43152  -2.19988  -2.19921  -2.19620
 Alpha  occ. eigenvalues --   -2.19476  -2.19348  -2.19249  -2.19127  -1.13665
 Alpha  occ. eigenvalues --   -1.13637  -1.13633  -1.13591  -1.13582  -1.13569
 Alpha  occ. eigenvalues --   -1.13324  -1.13291  -1.13242  -1.13137  -1.13098
 Alpha  occ. eigenvalues --   -1.13092  -1.13084  -1.13006  -1.12962  -1.12956
 Alpha  occ. eigenvalues --   -1.12904  -1.12875  -1.12806  -1.12759  -1.12731
 Alpha  occ. eigenvalues --   -0.18403  -0.12951  -0.12395  -0.10570
 Alpha virt. eigenvalues --   -0.05788  -0.05367  -0.04663  -0.03165  -0.02805
 Alpha virt. eigenvalues --   -0.02444  -0.01702  -0.01226  -0.00473  -0.00447
 Alpha virt. eigenvalues --   -0.00021   0.00332   0.00762   0.00837   0.00861

  Beta  occ. eigenvalues --  -38.44211 -38.44095 -38.43775 -38.43507 -38.43493
  Beta  occ. eigenvalues --  -38.43392 -38.43094  -2.19983  -2.19919  -2.19614
  Beta  occ. eigenvalues --   -2.19343  -2.19299  -2.19230  -2.19024  -1.13650
  Beta  occ. eigenvalues --   -1.13635  -1.13631  -1.13586  -1.13573  -1.13563
  Beta  occ. eigenvalues --   -1.13309  -1.13265  -1.13243  -1.13075  -1.13021
  Beta  occ. eigenvalues --   -1.12989  -1.12970  -1.12969  -1.12959  -1.12932
  Beta  occ. eigenvalues --   -1.12878  -1.12862  -1.12734  -1.12689  -1.12655
  Beta  occ. eigenvalues --   -0.17697  -0.12740  -0.12149
  Beta virt. eigenvalues --   -0.06692  -0.05755  -0.05318  -0.04610  -0.02392
  Beta virt. eigenvalues --   -0.02092  -0.01620  -0.01395  -0.01149  -0.00517
  Beta virt. eigenvalues --   -0.00484   0.00130   0.00366   0.00829   0.00835

 Mulliken charges and spin densities:
               1          2
     1  Na   0.078357  -0.058103
     2  Na   0.168649  -0.014496
     3  Na  -0.159271   0.443011
     4  Na  -0.444365   0.727216
     5  Na   0.110792   0.009092
     6  Na   0.246376  -0.032998
     7  Na  -0.000538  -0.073721
 Sum of Mulliken charges =  -0.00000   1.00000

 Dipole moment (field-independent basis, Debye):
    X=             -0.0713    Y=             -0.0588    Z=              0.1469  Tot=              0.1735
 Quadrupole moment (field-independent basis, Debye-Ang):
   XX=            -54.7174   YY=            -62.6991   ZZ=            -75.3102
   XY=              0.2931   XZ=              1.1172   YZ=             -1.2715

 Normal termination of Gaussian 16 at Thu Dec  7 22:23:24 2023.
