 Gaussian 16, Revision B.01,
 Gaussian 16:  ES64L-G16RevB.01 20-Dec-2017

 -------------------------
 #P B3LYP/6-311+g(d) force
 -------------------------

 -----
 DPGEN
 -----
 Symbolic Z-matrix:
 Charge =  0 Multiplicity = 2

                         Standard orientation:
 ---------------------------------------------------------------------
 Center     Atomic      Atomic             Coordinates (Angstroms)
 Number     Number       Type             X           Y           Z
 ---------------------------------------------------------------------
      1         11           0        0.086406    0.348948    1.898337
      2         11           0       -1.445918    2.354696   -0.285240
      3         11           0        2.195042    2.167121    0.108730
      4         11           0       -0.268023    0.069661   -1.822356
      5         11           0        2.920158   -1.586644   -0.209254
      6         11           0       -3.237573   -0.813660    0.205869
      7         11           0       -0.250092   -2.540122    0.103914
 ---------------------------------------------------------------------

 SCF Done:  E(UB3LYP) =  -1136.13569262     A.U. after   19 cycles

 The electronic state is 2-A.
 Alpha  occ. eigenvalues --  -38.44145 -38.43946 -38.43819 -38.43507 -38.43499
 Alpha  occ. eigenvalues --  -38.43488 -38.42998  -2.19958  -2.19746  -2.19642
 Alpha  occ. eigenvalues --   -2.19472  -2.19428  -2.19390  -2.18902  -1.13624
 Alpha  occ. eigenvalues --   -1.13620  -1.13602  -1.13417  -1.13410  -1.13390
 Alpha  occ. eigenvalues --   -1.13340  -1.13307  -1.13277  -1.13265  -1.13151
 Alpha  occ. eigenvalues --   -1.13109  -1.13084  -1.13065  -1.13039  -1.13017
 Alpha  occ. eigenvalues --   -1.13001  -1.12975  -1.12597  -1.12575  -1.12511
 Alpha  occ. eigenvalues --   -0.18742  -0.12883  -0.12516  -0.10809
 Alpha virt. eigenvalues --   -0.05726  -0.05387  -0.04296  -0.03123  -0.02964
 Alpha virt. eigenvalues --   -0.02563  -0.01744  -0.01207  -0.00295  -0.00081
 Alpha virt. eigenvalues --   -0.00030   0.00327   0.00754   0.00850   0.00932

  Beta  occ. eigenvalues --  -38.44143 -38.43946 -38.43815 -38.43473 -38.43426
  Beta  occ. eigenvalues --  -38.43417 -38.42989  -2.19955  -2.19748  -2.19639
  Beta  occ. eigenvalues --   -2.19371  -2.19322  -2.19277  -2.18890  -1.13623
  Beta  occ. eigenvalues --   -1.13603  -1.13599  -1.13419  -1.13400  -1.13392
  Beta  occ. eigenvalues --   -1.13325  -1.13290  -1.13274  -1.13206  -1.13059
  Beta  occ. eigenvalues --   -1.13028  -1.12992  -1.12982  -1.12955  -1.12940
  Beta  occ. eigenvalues --   -1.12927  -1.12925  -1.12590  -1.12539  -1.12503
  Beta  occ. eigenvalues --   -0.17998  -0.12673  -0.12245
  Beta virt. eigenvalues --   -0.06893  -0.05669  -0.05368  -0.04280  -0.02384
  Beta virt. eigenvalues --   -0.02152  -0.01659  -0.01505  -0.01151  -0.00339
  Beta virt. eigenvalues --   -0.00115   0.00102   0.00350   0.00802   0.00855

 Mulliken charges and spin densities:
               1          2
     1  Na  -0.349450   0.739279
     2  Na   0.343738  -0.095938
     3  Na   0.130415  -0.119541
     4  Na  -0.275616   0.654500
     5  Na  -0.067888  -0.085549
     6  Na   0.134606  -0.049659
     7  Na   0.084196  -0.043091
 Sum of Mulliken charges =  -0.00000   1.00000

 Dipole moment (field-independent basis, Debye):
    X=              0.0102    Y=              0.1595    Z=              0.0628  Tot=              0.1717
 Quadrupole moment (field-independent basis, Debye-Ang):
   XX=            -53.4672   YY=            -65.5150   ZZ=            -74.0303
   XY=              0.6865   XZ=             -1.1782   YZ=             -0.4490

 Normal termination of Gaussian 16 at Thu Dec  7 04:19:54 2023.
