 Gaussian 16, Revision B.01,
 Gaussian 16:  ES64L-G16RevB.01 20-Dec-2017

 -------------------------
 #P B3LYP/6-311+g(d) force
 -------------------------

 -----
 DPGEN
 -----
 Symbolic Z-matrix:
 Charge =  0 Multiplicity = 2

                         Standard orientation:
 ---------------------------------------------------------------------
 Center     Atomic      Atomic             Coordinates (Angstroms)
 Number     Number       Type             X           Y           Z
 ---------------------------------------------------------------------
      1         11           0        0.122513    0.217644    1.999338
      2         11           0        0.436987   -1.692859   -1.288313
      3         11           0       -0.471461    3.449339    0.349288
      4         11           0        3.286883   -1.923584    0.499671
      5         11           0       -2.114900    0.618129   -0.934727
      6         11           0       -3.231170   -2.169657    0.365996
      7         11           0        1.971148    1.500988   -0.991255
 ---------------------------------------------------------------------

 SCF Done:  E(UB3LYP) =  -1136.13193945     A.U. after   19 cycles

 The electronic state is 2-A.
 Alpha  occ. eigenvalues --  -38.44157 -38.44152 -38.44136 -38.43959 -38.43594
 Alpha  occ. eigenvalues --  -38.43527 -38.43493  -2.19989  -2.19930  -2.19917
 Alpha  occ. eigenvalues --   -2.19794  -2.19458  -2.19405  -2.19317  -1.13678
 Alpha  occ. eigenvalues --   -1.13665  -1.13611  -1.13599  -1.13596  -1.13588
 Alpha  occ. eigenvalues --   -1.13575  -1.13567  -1.13550  -1.13470  -1.13425
 Alpha  occ. eigenvalues --   -1.13406  -1.13177  -1.13128  -1.13101  -1.13081
 Alpha  occ. eigenvalues --   -1.13043  -1.13022  -1.12981  -1.12972  -1.12952
 Alpha  occ. eigenvalues --   -0.17894  -0.12775  -0.12459  -0.10448
 Alpha virt. eigenvalues --   -0.05943  -0.05679  -0.04566  -0.03205  -0.02931
 Alpha virt. eigenvalues --   -0.02426  -0.01787  -0.01603  -0.00682  -0.00322
 Alpha virt. eigenvalues --    0.00145   0.00277   0.00641   0.00711   0.00768

  Beta  occ. eigenvalues --  -38.44156 -38.44134 -38.44128 -38.43870 -38.43561
  Beta  occ. eigenvalues --  -38.43509 -38.43492  -2.19938  -2.19937  -2.19914
  Beta  occ. eigenvalues --   -2.19629  -2.19400  -2.19374  -2.19318  -1.13643
  Beta  occ. eigenvalues --   -1.13617  -1.13610  -1.13597  -1.13586  -1.13573
  Beta  occ. eigenvalues --   -1.13568  -1.13560  -1.13547  -1.13358  -1.13310
  Beta  occ. eigenvalues --   -1.13287  -1.13139  -1.13079  -1.13065  -1.13041
  Beta  occ. eigenvalues --   -1.13011  -1.13005  -1.12979  -1.12953  -1.12951
  Beta  occ. eigenvalues --   -0.17156  -0.12644  -0.12317
  Beta virt. eigenvalues --   -0.06610  -0.05719  -0.05579  -0.04527  -0.02627
  Beta virt. eigenvalues --   -0.02362  -0.01679  -0.01547  -0.01387  -0.00623
  Beta virt. eigenvalues --   -0.00154   0.00212   0.00330   0.00699   0.00777

 Mulliken charges and spin densities:
               1          2
     1  Na  -0.566932   0.793524
     2  Na  -0.033333   0.223133
     3  Na   0.563871  -0.032300
     4  Na   0.109436  -0.127728
     5  Na  -0.085525   0.191982
     6  Na   0.126700  -0.163685
     7  Na  -0.114216   0.115074
 Sum of Mulliken charges =  -0.00000   1.00000

 Dipole moment (field-independent basis, Debye):
    X=              0.1932    Y=             -0.2212    Z=              0.1814  Tot=              0.3452
 Quadrupole moment (field-independent basis, Debye-Ang):
   XX=            -57.8992   YY=            -60.0199   ZZ=            -74.2464
   XY=              0.0616   XZ=             -0.5649   YZ=             -1.9423

 Normal termination of Gaussian 16 at Thu Dec  7 13:54:18 2023.
