 Gaussian 16, Revision B.01,
 Gaussian 16:  ES64L-G16RevB.01 20-Dec-2017

 -------------------------
 #P B3LYP/6-311+g(d) force
 -------------------------

 -----
 DPGEN
 -----
 Symbolic Z-matrix:
 Charge =  0 Multiplicity = 2

                         Standard orientation:
 ---------------------------------------------------------------------
 Center     Atomic      Atomic             Coordinates (Angstroms)
 Number     Number       Type             X           Y           Z
 ---------------------------------------------------------------------
      1         11           0       -2.252306   -2.062832   -0.553712
      2         11           0        3.932883   -0.580342    0.853520
      3         11           0       -1.255280    1.972306   -0.487487
      4         11           0        2.116899    1.872655   -0.750235
      5         11           0        0.324977   -0.450079    1.926332
      6         11           0        1.040909   -1.342417   -1.640034
      7         11           0       -3.908082    0.590709    0.651616
 ---------------------------------------------------------------------

 SCF Done:  E(UB3LYP) =  -1136.12003186     A.U. after   28 cycles

 The electronic state is 2-A.
 Alpha  occ. eigenvalues --  -38.46054 -38.45198 -38.44866 -38.43655 -38.43367
 Alpha  occ. eigenvalues --  -38.43342 -38.42710  -2.21824  -2.20998  -2.20693
 Alpha  occ. eigenvalues --   -2.19505  -2.19228  -2.19161  -2.18563  -1.15515
 Alpha  occ. eigenvalues --   -1.15477  -1.15439  -1.14656  -1.14654  -1.14618
 Alpha  occ. eigenvalues --   -1.14363  -1.14345  -1.14326  -1.13183  -1.13146
 Alpha  occ. eigenvalues --   -1.13131  -1.12906  -1.12890  -1.12861  -1.12837
 Alpha  occ. eigenvalues --   -1.12820  -1.12813  -1.12255  -1.12227  -1.12209
 Alpha  occ. eigenvalues --   -0.17981  -0.14226  -0.11078  -0.11015
 Alpha virt. eigenvalues --   -0.07498  -0.05278  -0.04621  -0.03164  -0.03120
 Alpha virt. eigenvalues --   -0.02477  -0.02290  -0.01296  -0.01065  -0.00296
 Alpha virt. eigenvalues --   -0.00093   0.00163   0.00252   0.00579   0.00663

  Beta  occ. eigenvalues --  -38.46021 -38.45155 -38.44847 -38.43590 -38.43346
  Beta  occ. eigenvalues --  -38.43336 -38.42706  -2.21764  -2.20918  -2.20656
  Beta  occ. eigenvalues --   -2.19386  -2.19192  -2.19153  -2.18560  -1.15468
  Beta  occ. eigenvalues --   -1.15439  -1.15389  -1.14602  -1.14589  -1.14568
  Beta  occ. eigenvalues --   -1.14340  -1.14321  -1.14301  -1.13103  -1.13058
  Beta  occ. eigenvalues --   -1.13045  -1.12875  -1.12858  -1.12830  -1.12829
  Beta  occ. eigenvalues --   -1.12818  -1.12788  -1.12257  -1.12220  -1.12188
  Beta  occ. eigenvalues --   -0.17369  -0.13923  -0.10738
  Beta virt. eigenvalues --   -0.07474  -0.07155  -0.05258  -0.04010  -0.02948
  Beta virt. eigenvalues --   -0.02813  -0.01921  -0.01656  -0.01202  -0.00739
  Beta virt. eigenvalues --   -0.00229  -0.00009   0.00205   0.00386   0.00690

 Mulliken charges and spin densities:
               1          2
     1  Na  -0.138155   0.007195
     2  Na   0.491403   0.245099
     3  Na  -0.621704  -0.043406
     4  Na  -0.048038   0.124290
     5  Na  -0.375946   0.241636
     6  Na  -0.093975   0.290158
     7  Na   0.786415   0.135027
 Sum of Mulliken charges =  -0.00000   1.00000

 Dipole moment (field-independent basis, Debye):
    X=              0.4405    Y=             -0.4198    Z=              0.6949  Tot=              0.9236
 Quadrupole moment (field-independent basis, Debye-Ang):
   XX=            -46.1874   YY=            -80.1781   ZZ=            -69.3026
   XY=              0.2652   XZ=             -2.4782   YZ=              0.3842

 Normal termination of Gaussian 16 at Thu Dec  7 17:06:02 2023.
