 Gaussian 16, Revision B.01,
 Gaussian 16:  ES64L-G16RevB.01 20-Dec-2017

 -------------------------
 #P B3LYP/6-311+g(d) force
 -------------------------

 -----
 DPGEN
 -----
 Symbolic Z-matrix:
 Charge =  0 Multiplicity = 2

                         Standard orientation:
 ---------------------------------------------------------------------
 Center     Atomic      Atomic             Coordinates (Angstroms)
 Number     Number       Type             X           Y           Z
 ---------------------------------------------------------------------
      1         11           0       -5.198369    0.362047   -0.460050
      2         11           0       -1.698382    1.387585    0.342038
      3         11           0        2.367497    2.436838    0.327398
      4         11           0       -2.536657   -1.663554    0.143191
      5         11           0        4.580272   -0.811445   -0.375591
      6         11           0        1.389393   -0.537411   -1.799122
      7         11           0        1.096246   -1.174059    1.822136
 ---------------------------------------------------------------------

 SCF Done:  E(UB3LYP) =  -1136.10930332     A.U. after   28 cycles

 The electronic state is 2-A.
 Alpha  occ. eigenvalues --  -38.46232 -38.44893 -38.44595 -38.44265 -38.43946
 Alpha  occ. eigenvalues --  -38.43523 -38.42625  -2.22013  -2.20687  -2.20420
 Alpha  occ. eigenvalues --   -2.20111  -2.19733  -2.19315  -2.18425  -1.15711
 Alpha  occ. eigenvalues --   -1.15671  -1.15617  -1.14367  -1.14324  -1.14282
 Alpha  occ. eigenvalues --   -1.14137  -1.14126  -1.13993  -1.13808  -1.13801
 Alpha  occ. eigenvalues --   -1.13676  -1.13414  -1.13392  -1.13360  -1.12988
 Alpha  occ. eigenvalues --   -1.12976  -1.12939  -1.12099  -1.12093  -1.12060
 Alpha  occ. eigenvalues --   -0.17279  -0.14087  -0.11353  -0.10230
 Alpha virt. eigenvalues --   -0.07357  -0.05633  -0.04730  -0.03208  -0.03145
 Alpha virt. eigenvalues --   -0.02301  -0.01985  -0.01881  -0.01436  -0.00749
 Alpha virt. eigenvalues --   -0.00595   0.00011   0.00220   0.00465   0.00536

  Beta  occ. eigenvalues --  -38.46217 -38.44805 -38.44571 -38.44251 -38.43934
  Beta  occ. eigenvalues --  -38.43500 -38.42628  -2.21989  -2.20525  -2.20376
  Beta  occ. eigenvalues --   -2.20085  -2.19713  -2.19273  -2.18430  -1.15667
  Beta  occ. eigenvalues --   -1.15659  -1.15603  -1.14257  -1.14216  -1.14160
  Beta  occ. eigenvalues --   -1.14109  -1.14089  -1.13957  -1.13790  -1.13784
  Beta  occ. eigenvalues --   -1.13654  -1.13383  -1.13381  -1.13347  -1.12961
  Beta  occ. eigenvalues --   -1.12937  -1.12916  -1.12101  -1.12097  -1.12063
  Beta  occ. eigenvalues --   -0.16651  -0.13891  -0.10086
  Beta virt. eigenvalues --   -0.07480  -0.07215  -0.04997  -0.04641  -0.03135
  Beta virt. eigenvalues --   -0.02610  -0.01763  -0.01570  -0.01415  -0.01273
  Beta virt. eigenvalues --   -0.00711  -0.00435   0.00188   0.00256   0.00556

 Mulliken charges and spin densities:
               1          2
     1  Na   0.377486  -0.038286
     2  Na  -0.553932   0.222942
     3  Na  -0.099262   0.373257
     4  Na   0.186884   0.081495
     5  Na   0.191146   0.048383
     6  Na   0.025765   0.237420
     7  Na  -0.128087   0.074789
 Sum of Mulliken charges =  -0.00000   1.00000

 Dipole moment (field-independent basis, Debye):
    X=              0.8606    Y=             -0.4171    Z=              0.0516  Tot=              0.9578
 Quadrupole moment (field-independent basis, Debye-Ang):
   XX=            -77.0300   YY=            -68.0209   ZZ=            -65.7946
   XY=              0.6584   XZ=              5.7621   YZ=              1.3590

 Normal termination of Gaussian 16 at Thu Dec  7 11:06:52 2023.
