 Gaussian 16, Revision B.01,
 Gaussian 16:  ES64L-G16RevB.01 20-Dec-2017

 -------------------------
 #P B3LYP/6-311+g(d) force
 -------------------------

 -----
 DPGEN
 -----
 Symbolic Z-matrix:
 Charge =  0 Multiplicity = 2

                         Standard orientation:
 ---------------------------------------------------------------------
 Center     Atomic      Atomic             Coordinates (Angstroms)
 Number     Number       Type             X           Y           Z
 ---------------------------------------------------------------------
      1         11           0        4.189307   -0.219408   -0.617496
      2         11           0        2.827048    3.316043    0.434252
      3         11           0       -3.462215   -1.903267   -0.582356
      4         11           0       -1.267023   -3.063076    0.794539
      5         11           0       -3.902708    2.154385   -0.066935
      6         11           0        2.527201   -3.134087    0.035797
      7         11           0       -0.911610    2.849411    0.002199
 ---------------------------------------------------------------------

 SCF Done:  E(UB3LYP) =  -1136.10491414     A.U. after   20 cycles

 The electronic state is 2-A.
 Alpha  occ. eigenvalues --  -38.45094 -38.44928 -38.44547 -38.44512 -38.44392
 Alpha  occ. eigenvalues --  -38.44335 -38.44178  -2.20835  -2.20760  -2.20327
 Alpha  occ. eigenvalues --   -2.20296  -2.20172  -2.20168  -2.20001  -1.14549
 Alpha  occ. eigenvalues --   -1.14523  -1.14509  -1.14476  -1.14397  -1.14367
 Alpha  occ. eigenvalues --   -1.13994  -1.13988  -1.13977  -1.13976  -1.13966
 Alpha  occ. eigenvalues --   -1.13952  -1.13828  -1.13822  -1.13805  -1.13804
 Alpha  occ. eigenvalues --   -1.13794  -1.13789  -1.13641  -1.13637  -1.13620
 Alpha  occ. eigenvalues --   -0.15514  -0.13806  -0.13577  -0.11143
 Alpha virt. eigenvalues --   -0.07335  -0.04740  -0.04438  -0.03611  -0.03510
 Alpha virt. eigenvalues --   -0.02382  -0.02232  -0.02167  -0.01443  -0.00729
 Alpha virt. eigenvalues --   -0.00502  -0.00332   0.00158   0.00389   0.00521

  Beta  occ. eigenvalues --  -38.45096 -38.44897 -38.44506 -38.44495 -38.44319
  Beta  occ. eigenvalues --  -38.44308 -38.44123  -2.20845  -2.20706  -2.20293
  Beta  occ. eigenvalues --   -2.20233  -2.20142  -2.20015  -2.19901  -1.14534
  Beta  occ. eigenvalues --   -1.14518  -1.14499  -1.14450  -1.14362  -1.14327
  Beta  occ. eigenvalues --   -1.13980  -1.13972  -1.13941  -1.13925  -1.13916
  Beta  occ. eigenvalues --   -1.13884  -1.13803  -1.13790  -1.13761  -1.13716
  Beta  occ. eigenvalues --   -1.13700  -1.13692  -1.13573  -1.13569  -1.13554
  Beta  occ. eigenvalues --   -0.15015  -0.13012  -0.12743
  Beta virt. eigenvalues --   -0.08064  -0.07482  -0.04259  -0.04056  -0.03402
  Beta virt. eigenvalues --   -0.03186  -0.02134  -0.01984  -0.01931  -0.01195
  Beta virt. eigenvalues --   -0.00370  -0.00319  -0.00044   0.00203   0.00373

 Mulliken charges and spin densities:
               1          2
     1  Na  -0.006675  -0.007862
     2  Na   0.448026   0.333764
     3  Na   0.077673   0.100673
     4  Na  -0.360493   0.024388
     5  Na   0.398119   0.120370
     6  Na   0.204022   0.223222
     7  Na  -0.760672   0.205445
 Sum of Mulliken charges =  -0.00000   1.00000

 Dipole moment (field-independent basis, Debye):
    X=             -0.3055    Y=             -0.3786    Z=             -0.1417  Tot=              0.5067
 Quadrupole moment (field-independent basis, Debye-Ang):
   XX=            -57.1202   YY=            -70.7122   ZZ=            -72.0414
   XY=              1.1694   XZ=              1.1844   YZ=             -0.1470

 Normal termination of Gaussian 16 at Sun Dec  3 23:42:37 2023.
