 Gaussian 16, Revision B.01,
 Gaussian 16:  ES64L-G16RevB.01 20-Dec-2017

 -------------------------
 #P B3LYP/6-311+g(d) force
 -------------------------

 -----
 DPGEN
 -----
 Symbolic Z-matrix:
 Charge =  0 Multiplicity = 2

                         Standard orientation:
 ---------------------------------------------------------------------
 Center     Atomic      Atomic             Coordinates (Angstroms)
 Number     Number       Type             X           Y           Z
 ---------------------------------------------------------------------
      1         11           0        1.629546   -1.553500    0.379092
      2         11           0        4.853861   -1.398075   -0.187964
      3         11           0        2.326480    0.942192   -1.335675
      4         11           0       -0.969163    2.292351   -0.919800
      5         11           0       -2.408981   -0.886943    0.795466
      6         11           0        0.229781    1.804356    1.970812
      7         11           0       -5.661523   -1.200383   -0.701930
 ---------------------------------------------------------------------

 SCF Done:  E(UB3LYP) =  -1136.11480746     A.U. after   21 cycles

 The electronic state is 2-A.
 Alpha  occ. eigenvalues --  -38.45042 -38.44814 -38.44739 -38.44567 -38.44446
 Alpha  occ. eigenvalues --  -38.43387 -38.43162  -2.20838  -2.20638  -2.20606
 Alpha  occ. eigenvalues --   -2.20433  -2.20283  -2.19145  -2.18938  -1.14513
 Alpha  occ. eigenvalues --   -1.14503  -1.14473  -1.14361  -1.14331  -1.14288
 Alpha  occ. eigenvalues --   -1.14276  -1.14269  -1.14186  -1.14131  -1.14094
 Alpha  occ. eigenvalues --   -1.13998  -1.13951  -1.13926  -1.13895  -1.12805
 Alpha  occ. eigenvalues --   -1.12804  -1.12764  -1.12645  -1.12630  -1.12545
 Alpha  occ. eigenvalues --   -0.17617  -0.13787  -0.11701  -0.10612
 Alpha virt. eigenvalues --   -0.06947  -0.06026  -0.04746  -0.03256  -0.03025
 Alpha virt. eigenvalues --   -0.02342  -0.02091  -0.01714  -0.01268  -0.00598
 Alpha virt. eigenvalues --   -0.00360  -0.00067   0.00259   0.00344   0.00476

  Beta  occ. eigenvalues --  -38.45040 -38.44795 -38.44706 -38.44521 -38.44415
  Beta  occ. eigenvalues --  -38.43346 -38.43163  -2.20836  -2.20602  -2.20545
  Beta  occ. eigenvalues --   -2.20349  -2.20227  -2.19068  -2.18945  -1.14506
  Beta  occ. eigenvalues --   -1.14502  -1.14469  -1.14316  -1.14309  -1.14266
  Beta  occ. eigenvalues --   -1.14234  -1.14229  -1.14132  -1.14075  -1.14035
  Beta  occ. eigenvalues --   -1.13932  -1.13910  -1.13886  -1.13850  -1.12753
  Beta  occ. eigenvalues --   -1.12751  -1.12716  -1.12654  -1.12639  -1.12518
  Beta  occ. eigenvalues --   -0.17019  -0.13660  -0.11216
  Beta virt. eigenvalues --   -0.07173  -0.06704  -0.05715  -0.04241  -0.03118
  Beta virt. eigenvalues --   -0.02674  -0.02219  -0.01635  -0.01473  -0.00860
  Beta virt. eigenvalues --   -0.00397  -0.00230   0.00134   0.00373   0.00447

 Mulliken charges and spin densities:
               1          2
     1  Na  -0.402439   0.222723
     2  Na   0.868703   0.063604
     3  Na  -0.163912   0.233374
     4  Na   0.138666   0.221052
     5  Na  -0.765327  -0.168354
     6  Na   0.286427   0.188994
     7  Na   0.037882   0.238607
 Sum of Mulliken charges =  -0.00000   1.00000

 Dipole moment (field-independent basis, Debye):
    X=              3.3862    Y=              0.8602    Z=              0.4501  Tot=              3.5227
 Quadrupole moment (field-independent basis, Debye-Ang):
   XX=            -58.7460   YY=            -70.1311   ZZ=            -69.3772
   XY=             -7.4264   XZ=              3.8705   YZ=              2.9774

 Normal termination of Gaussian 16 at Wed Nov 29 01:57:28 2023.
