 Gaussian 16, Revision B.01,
 Gaussian 16:  ES64L-G16RevB.01 20-Dec-2017

 -------------------------
 #P B3LYP/6-311+g(d) force
 -------------------------

 -----
 DPGEN
 -----
 Symbolic Z-matrix:
 Charge =  0 Multiplicity = 2

                         Standard orientation:
 ---------------------------------------------------------------------
 Center     Atomic      Atomic             Coordinates (Angstroms)
 Number     Number       Type             X           Y           Z
 ---------------------------------------------------------------------
      1         11           0        0.041741   -0.118415    1.779302
      2         11           0        1.568677   -1.275251   -1.509284
      3         11           0       -1.057236    1.749684   -0.860567
      4         11           0       -2.053232   -1.418441   -0.970178
      5         11           0        3.523281   -0.942645    0.968998
      6         11           0        1.907436    2.080351   -0.290621
      7         11           0       -3.930666   -0.075282    0.882351
 ---------------------------------------------------------------------

 SCF Done:  E(UB3LYP) =  -1136.12129873     A.U. after   26 cycles

 The electronic state is 2-A.
 Alpha  occ. eigenvalues --  -38.45233 -38.45056 -38.43994 -38.43816 -38.43810
 Alpha  occ. eigenvalues --  -38.43073 -38.42437  -2.21081  -2.20893  -2.19913
 Alpha  occ. eigenvalues --   -2.19693  -2.19656  -2.18975  -2.18373  -1.14784
 Alpha  occ. eigenvalues --   -1.14727  -1.14692  -1.14609  -1.14537  -1.14515
 Alpha  occ. eigenvalues --   -1.13579  -1.13568  -1.13554  -1.13409  -1.13367
 Alpha  occ. eigenvalues --   -1.13333  -1.13313  -1.13299  -1.13249  -1.12677
 Alpha  occ. eigenvalues --   -1.12636  -1.12605  -1.12059  -1.12029  -1.11999
 Alpha  occ. eigenvalues --   -0.18716  -0.14404  -0.11323  -0.10964
 Alpha virt. eigenvalues --   -0.07059  -0.04989  -0.04831  -0.03186  -0.02860
 Alpha virt. eigenvalues --   -0.02408  -0.02205  -0.01208  -0.00843  -0.00111
 Alpha virt. eigenvalues --    0.00084   0.00218   0.00387   0.00702   0.00730

  Beta  occ. eigenvalues --  -38.45185 -38.45044 -38.43961 -38.43812 -38.43755
  Beta  occ. eigenvalues --  -38.43064 -38.42424  -2.20994  -2.20870  -2.19855
  Beta  occ. eigenvalues --   -2.19650  -2.19592  -2.18961  -2.18353  -1.14717
  Beta  occ. eigenvalues --   -1.14666  -1.14623  -1.14598  -1.14518  -1.14496
  Beta  occ. eigenvalues --   -1.13543  -1.13529  -1.13482  -1.13379  -1.13313
  Beta  occ. eigenvalues --   -1.13298  -1.13282  -1.13259  -1.13197  -1.12669
  Beta  occ. eigenvalues --   -1.12615  -1.12594  -1.12050  -1.11999  -1.11977
  Beta  occ. eigenvalues --   -0.17971  -0.14292  -0.10819
  Beta virt. eigenvalues --   -0.07380  -0.06792  -0.04788  -0.04345  -0.02909
  Beta virt. eigenvalues --   -0.02622  -0.01813  -0.01562  -0.00848  -0.00672
  Beta virt. eigenvalues --   -0.00069   0.00100   0.00363   0.00420   0.00773

 Mulliken charges and spin densities:
               1          2
     1  Na  -0.807514   0.435559
     2  Na  -0.584074   0.204162
     3  Na  -0.322302   0.159279
     4  Na  -0.062987   0.027828
     5  Na   0.865834  -0.020358
     6  Na   0.046665   0.042342
     7  Na   0.864378   0.151188
 Sum of Mulliken charges =  -0.00000   1.00000

 Dipole moment (field-independent basis, Debye):
    X=             -0.6815    Y=              0.2108    Z=              0.6090  Tot=              0.9380
 Quadrupole moment (field-independent basis, Debye-Ang):
   XX=            -50.2776   YY=            -78.2318   ZZ=            -68.0896
   XY=              0.7579   XZ=             -1.3293   YZ=              1.2032

 Normal termination of Gaussian 16 at Fri Dec  8 03:19:05 2023.
