 Gaussian 16, Revision B.01,
 Gaussian 16:  ES64L-G16RevB.01 20-Dec-2017

 -------------------------
 #P B3LYP/6-311+g(d) force
 -------------------------

 -----
 DPGEN
 -----
 Symbolic Z-matrix:
 Charge =  0 Multiplicity = 2

                         Standard orientation:
 ---------------------------------------------------------------------
 Center     Atomic      Atomic             Coordinates (Angstroms)
 Number     Number       Type             X           Y           Z
 ---------------------------------------------------------------------
      1         11           0        6.767974   -1.267072    1.098712
      2         11           0       -4.964471   -0.541895    0.932169
      3         11           0       -7.448023   -1.320882   -0.967669
      4         11           0       -1.641380    0.809335    1.635978
      5         11           0        4.370467   -1.498931   -0.793071
      6         11           0        0.743577    3.058578   -0.192973
      7         11           0        2.171855    0.760869   -1.713147
 ---------------------------------------------------------------------

 SCF Done:  E(UB3LYP) =  -1136.10523877     A.U. after   19 cycles

 The electronic state is 2-A.
 Alpha  occ. eigenvalues --  -38.44959 -38.44952 -38.44708 -38.44616 -38.44291
 Alpha  occ. eigenvalues --  -38.44114 -38.43460  -2.20762  -2.20738  -2.20494
 Alpha  occ. eigenvalues --   -2.20459  -2.20090  -2.19942  -2.19240  -1.14458
 Alpha  occ. eigenvalues --   -1.14430  -1.14407  -1.14401  -1.14399  -1.14384
 Alpha  occ. eigenvalues --   -1.14151  -1.14143  -1.14116  -1.14103  -1.14092
 Alpha  occ. eigenvalues --   -1.14077  -1.13729  -1.13728  -1.13727  -1.13617
 Alpha  occ. eigenvalues --   -1.13598  -1.13597  -1.12922  -1.12921  -1.12896
 Alpha  occ. eigenvalues --   -0.15654  -0.14077  -0.12910  -0.11160
 Alpha virt. eigenvalues --   -0.07536  -0.05134  -0.03970  -0.03548  -0.03234
 Alpha virt. eigenvalues --   -0.02479  -0.02324  -0.01937  -0.01641  -0.01272
 Alpha virt. eigenvalues --   -0.00735  -0.00457  -0.00049   0.00282   0.00449

  Beta  occ. eigenvalues --  -38.44975 -38.44913 -38.44616 -38.44565 -38.44222
  Beta  occ. eigenvalues --  -38.44122 -38.43471  -2.20783  -2.20676  -2.20365
  Beta  occ. eigenvalues --   -2.20324  -2.19961  -2.19960  -2.19267  -1.14472
  Beta  occ. eigenvalues --   -1.14441  -1.14404  -1.14376  -1.14342  -1.14341
  Beta  occ. eigenvalues --   -1.14058  -1.14039  -1.14035  -1.14028  -1.14023
  Beta  occ. eigenvalues --   -1.13982  -1.13644  -1.13640  -1.13639  -1.13615
  Beta  occ. eigenvalues --   -1.13614  -1.13594  -1.12947  -1.12945  -1.12865
  Beta  occ. eigenvalues --   -0.15223  -0.13376  -0.12422
  Beta virt. eigenvalues --   -0.08081  -0.06961  -0.04648  -0.03876  -0.03430
  Beta virt. eigenvalues --   -0.02898  -0.02255  -0.02117  -0.01624  -0.01416
  Beta virt. eigenvalues --   -0.01076  -0.00402  -0.00136   0.00162   0.00334

 Mulliken charges and spin densities:
               1          2
     1  Na   0.371006   0.215020
     2  Na  -0.265554  -0.040601
     3  Na   0.124111   0.290673
     4  Na  -0.212071   0.489516
     5  Na  -0.193262  -0.037892
     6  Na   0.361602  -0.103417
     7  Na  -0.185832   0.186701
 Sum of Mulliken charges =  -0.00000   1.00000

 Dipole moment (field-independent basis, Debye):
    X=              1.8120    Y=              0.6650    Z=             -0.0488  Tot=              1.9308
 Quadrupole moment (field-independent basis, Debye-Ang):
   XX=            -62.0933   YY=            -66.7306   ZZ=            -67.6992
   XY=              2.5259   XZ=             10.8577   YZ=              2.0871

 Normal termination of Gaussian 16 at Mon Dec  4 04:40:58 2023.
