 Gaussian 16, Revision B.01,
 Gaussian 16:  ES64L-G16RevB.01 20-Dec-2017

 -------------------------
 #P B3LYP/6-311+g(d) force
 -------------------------

 -----
 DPGEN
 -----
 Symbolic Z-matrix:
 Charge =  0 Multiplicity = 2

                         Standard orientation:
 ---------------------------------------------------------------------
 Center     Atomic      Atomic             Coordinates (Angstroms)
 Number     Number       Type             X           Y           Z
 ---------------------------------------------------------------------
      1         11           0       -3.106528    1.290926    1.508496
      2         11           0       -3.902617   -2.084571   -0.430722
      3         11           0       -0.600341   -2.339551   -1.180366
      4         11           0        1.914438   -1.632687    1.375952
      5         11           0        4.864288   -0.315712    0.177256
      6         11           0        1.942509    1.565468   -0.920845
      7         11           0       -1.111750    3.516127   -0.529770
 ---------------------------------------------------------------------

 SCF Done:  E(UB3LYP) =  -1136.11071467     A.U. after   23 cycles

 The electronic state is 2-A.
 Alpha  occ. eigenvalues --  -38.45716 -38.44869 -38.44576 -38.44555 -38.44225
 Alpha  occ. eigenvalues --  -38.43687 -38.43370  -2.21488  -2.20644  -2.20328
 Alpha  occ. eigenvalues --   -2.20309  -2.20043  -2.19484  -2.19135  -1.15177
 Alpha  occ. eigenvalues --   -1.15151  -1.15113  -1.14335  -1.14324  -1.14243
 Alpha  occ. eigenvalues --   -1.14011  -1.13991  -1.13990  -1.13976  -1.13960
 Alpha  occ. eigenvalues --   -1.13921  -1.13699  -1.13691  -1.13654  -1.13151
 Alpha  occ. eigenvalues --   -1.13141  -1.13111  -1.12814  -1.12796  -1.12783
 Alpha  occ. eigenvalues --   -0.16200  -0.13659  -0.12263  -0.10374
 Alpha virt. eigenvalues --   -0.07445  -0.05340  -0.04965  -0.03400  -0.03126
 Alpha virt. eigenvalues --   -0.02647  -0.01853  -0.01597  -0.00919  -0.00692
 Alpha virt. eigenvalues --   -0.00665  -0.00422   0.00148   0.00297   0.00506

  Beta  occ. eigenvalues --  -38.45705 -38.44834 -38.44585 -38.44511 -38.44159
  Beta  occ. eigenvalues --  -38.43647 -38.43372  -2.21472  -2.20582  -2.20344
  Beta  occ. eigenvalues --   -2.20226  -2.19919  -2.19410  -2.19141  -1.15170
  Beta  occ. eigenvalues --   -1.15136  -1.15077  -1.14296  -1.14277  -1.14186
  Beta  occ. eigenvalues --   -1.14023  -1.14003  -1.13973  -1.13933  -1.13906
  Beta  occ. eigenvalues --   -1.13864  -1.13610  -1.13605  -1.13576  -1.13097
  Beta  occ. eigenvalues --   -1.13090  -1.13065  -1.12819  -1.12802  -1.12772
  Beta  occ. eigenvalues --   -0.15613  -0.13200  -0.12029
  Beta virt. eigenvalues --   -0.07254  -0.07063  -0.04919  -0.04526  -0.03110
  Beta virt. eigenvalues --   -0.02840  -0.02434  -0.01604  -0.01336  -0.00663
  Beta virt. eigenvalues --   -0.00435  -0.00379  -0.00341   0.00255   0.00471

 Mulliken charges and spin densities:
               1          2
     1  Na  -0.299171   0.305444
     2  Na   0.203860   0.089095
     3  Na  -0.138126   0.068756
     4  Na   0.135395   0.040357
     5  Na   0.395188   0.365751
     6  Na  -0.614902   0.301342
     7  Na   0.317756  -0.170745
 Sum of Mulliken charges =  -0.00000   1.00000

 Dipole moment (field-independent basis, Debye):
    X=              0.8295    Y=             -0.7809    Z=              0.2622  Tot=              1.1690
 Quadrupole moment (field-independent basis, Debye-Ang):
   XX=            -64.2978   YY=            -72.0744   ZZ=            -65.7522
   XY=              1.7763   XZ=             -0.6711   YZ=             -2.4704

 Normal termination of Gaussian 16 at Sun Dec  3 19:01:51 2023.
