 Gaussian 16, Revision B.01,
 Gaussian 16:  ES64L-G16RevB.01 20-Dec-2017

 -------------------------
 #P B3LYP/6-311+g(d) force
 -------------------------

 -----
 DPGEN
 -----
 Symbolic Z-matrix:
 Charge =  0 Multiplicity = 2

                         Standard orientation:
 ---------------------------------------------------------------------
 Center     Atomic      Atomic             Coordinates (Angstroms)
 Number     Number       Type             X           Y           Z
 ---------------------------------------------------------------------
      1         11           0       -2.556272   -1.827833   -0.157557
      2         11           0       -2.460785    2.014052   -0.226812
      3         11           0        1.031917    2.180151    0.249335
      4         11           0       -0.255219   -0.536802   -1.896625
      5         11           0       -0.595224   -0.021057    1.919338
      6         11           0        1.551746   -2.207330    0.536139
      7         11           0        3.283838    0.398819   -0.423820
 ---------------------------------------------------------------------

 SCF Done:  E(UB3LYP) =  -1136.13148804     A.U. after   19 cycles

 The electronic state is 2-A.
 Alpha  occ. eigenvalues --  -38.44239 -38.44065 -38.43880 -38.43776 -38.43582
 Alpha  occ. eigenvalues --  -38.43517 -38.42990  -2.20111  -2.19910  -2.19700
 Alpha  occ. eigenvalues --   -2.19688  -2.19472  -2.19445  -2.18914  -1.13837
 Alpha  occ. eigenvalues --   -1.13756  -1.13743  -1.13626  -1.13582  -1.13528
 Alpha  occ. eigenvalues --   -1.13377  -1.13366  -1.13353  -1.13339  -1.13315
 Alpha  occ. eigenvalues --   -1.13306  -1.13178  -1.13135  -1.13108  -1.13099
 Alpha  occ. eigenvalues --   -1.13070  -1.13054  -1.12596  -1.12576  -1.12544
 Alpha  occ. eigenvalues --   -0.18836  -0.13462  -0.12015  -0.11109
 Alpha virt. eigenvalues --   -0.05874  -0.05519  -0.03885  -0.03465  -0.02939
 Alpha virt. eigenvalues --   -0.02737  -0.01703  -0.01213  -0.00285  -0.00022
 Alpha virt. eigenvalues --    0.00121   0.00336   0.00733   0.00798   0.00864

  Beta  occ. eigenvalues --  -38.44236 -38.44059 -38.43877 -38.43705 -38.43566
  Beta  occ. eigenvalues --  -38.43430 -38.42982  -2.20106  -2.19902  -2.19696
  Beta  occ. eigenvalues --   -2.19558  -2.19420  -2.19313  -2.18903  -1.13836
  Beta  occ. eigenvalues --   -1.13752  -1.13728  -1.13607  -1.13562  -1.13523
  Beta  occ. eigenvalues --   -1.13362  -1.13358  -1.13332  -1.13273  -1.13226
  Beta  occ. eigenvalues --   -1.13214  -1.13121  -1.13071  -1.13055  -1.13045
  Beta  occ. eigenvalues --   -1.12993  -1.12950  -1.12586  -1.12548  -1.12532
  Beta  occ. eigenvalues --   -0.18089  -0.13240  -0.11768
  Beta virt. eigenvalues --   -0.07181  -0.05768  -0.05496  -0.03793  -0.02791
  Beta virt. eigenvalues --   -0.02148  -0.01720  -0.01592  -0.01157  -0.00255
  Beta virt. eigenvalues --    0.00062   0.00118   0.00363   0.00800   0.00851

 Mulliken charges and spin densities:
               1          2
     1  Na   0.210407  -0.146283
     2  Na   0.015403  -0.071503
     3  Na   0.057882   0.021330
     4  Na  -0.434905   0.686176
     5  Na  -0.080581   0.546992
     6  Na   0.209034  -0.037976
     7  Na   0.022760   0.001264
 Sum of Mulliken charges =  -0.00000   1.00000

 Dipole moment (field-independent basis, Debye):
    X=             -0.3298    Y=             -0.2609    Z=             -0.1976  Tot=              0.4646
 Quadrupole moment (field-independent basis, Debye-Ang):
   XX=            -53.5057   YY=            -68.7532   ZZ=            -72.1060
   XY=             -0.6646   XZ=             -0.2561   YZ=             -1.6156

 Normal termination of Gaussian 16 at Wed Nov 29 17:15:53 2023.
