 Gaussian 16, Revision B.01,
 Gaussian 16:  ES64L-G16RevB.01 20-Dec-2017

 -------------------------
 #P B3LYP/6-311+g(d) force
 -------------------------

 -----
 DPGEN
 -----
 Symbolic Z-matrix:
 Charge =  0 Multiplicity = 2

                         Standard orientation:
 ---------------------------------------------------------------------
 Center     Atomic      Atomic             Coordinates (Angstroms)
 Number     Number       Type             X           Y           Z
 ---------------------------------------------------------------------
      1         11           0       -2.115464   -2.080588   -0.305367
      2         11           0        0.351966    2.975628   -0.437758
      3         11           0       -0.434335    0.139754    2.200023
      4         11           0        3.505881    0.430089    0.349832
      5         11           0        1.567729   -2.597823   -0.239214
      6         11           0       -3.258513    0.894419   -0.058257
      7         11           0        0.382736    0.238522   -1.509258
 ---------------------------------------------------------------------

 SCF Done:  E(UB3LYP) =  -1136.12904359     A.U. after   20 cycles

 The electronic state is 2-A.
 Alpha  occ. eigenvalues --  -38.45143 -38.44638 -38.44019 -38.43517 -38.43356
 Alpha  occ. eigenvalues --  -38.43352 -38.43161  -2.20903  -2.20444  -2.19850
 Alpha  occ. eigenvalues --   -2.19365  -2.19197  -2.19171  -2.19132  -1.14579
 Alpha  occ. eigenvalues --   -1.14551  -1.14542  -1.14130  -1.14107  -1.14076
 Alpha  occ. eigenvalues --   -1.13510  -1.13481  -1.13463  -1.13053  -1.13041
 Alpha  occ. eigenvalues --   -1.13025  -1.13006  -1.12882  -1.12842  -1.12834
 Alpha  occ. eigenvalues --   -1.12805  -1.12798  -1.12787  -1.12730  -1.12709
 Alpha  occ. eigenvalues --   -0.18090  -0.13174  -0.12040  -0.10552
 Alpha virt. eigenvalues --   -0.06541  -0.05084  -0.04503  -0.03335  -0.02637
 Alpha virt. eigenvalues --   -0.02545  -0.02143  -0.01115  -0.00639  -0.00427
 Alpha virt. eigenvalues --   -0.00070   0.00301   0.00660   0.00735   0.00790

  Beta  occ. eigenvalues --  -38.45138 -38.44638 -38.43921 -38.43509 -38.43349
  Beta  occ. eigenvalues --  -38.43345 -38.43106  -2.20895  -2.20447  -2.19667
  Beta  occ. eigenvalues --   -2.19354  -2.19178  -2.19168  -2.19035  -1.14562
  Beta  occ. eigenvalues --   -1.14547  -1.14539  -1.14134  -1.14090  -1.14080
  Beta  occ. eigenvalues --   -1.13387  -1.13355  -1.13332  -1.13037  -1.13013
  Beta  occ. eigenvalues --   -1.13009  -1.12989  -1.12868  -1.12824  -1.12811
  Beta  occ. eigenvalues --   -1.12795  -1.12792  -1.12726  -1.12665  -1.12652
  Beta  occ. eigenvalues --   -0.17406  -0.13016  -0.11776
  Beta virt. eigenvalues --   -0.06767  -0.06324  -0.05101  -0.04439  -0.02653
  Beta virt. eigenvalues --   -0.01983  -0.01940  -0.01488  -0.01063  -0.00651
  Beta virt. eigenvalues --   -0.00461   0.00102   0.00339   0.00778   0.00795

 Mulliken charges and spin densities:
               1          2
     1  Na   0.068003  -0.011013
     2  Na   0.082140  -0.062790
     3  Na  -0.547274   0.765710
     4  Na   0.030395   0.057693
     5  Na   0.075691  -0.033915
     6  Na   0.266373  -0.006461
     7  Na   0.024672   0.290776
 Sum of Mulliken charges =  -0.00000   1.00000

 Dipole moment (field-independent basis, Debye):
    X=              0.2375    Y=              0.2421    Z=              0.3089  Tot=              0.4588
 Quadrupole moment (field-independent basis, Debye-Ang):
   XX=            -51.0955   YY=            -65.8607   ZZ=            -75.7713
   XY=             -0.4033   XZ=              2.2347   YZ=              0.6130

 Normal termination of Gaussian 16 at Fri Dec  8 01:48:00 2023.
