 Gaussian 16, Revision B.01,
 Gaussian 16:  ES64L-G16RevB.01 20-Dec-2017

 -------------------------
 #P B3LYP/6-311+g(d) force
 -------------------------

 -----
 DPGEN
 -----
 Symbolic Z-matrix:
 Charge =  0 Multiplicity = 2

                         Standard orientation:
 ---------------------------------------------------------------------
 Center     Atomic      Atomic             Coordinates (Angstroms)
 Number     Number       Type             X           Y           Z
 ---------------------------------------------------------------------
      1         11           0       -1.706809    2.187813    0.161655
      2         11           0        2.818740   -1.337477   -0.033852
      3         11           0       -0.083268   -0.264429    1.988729
      4         11           0       -0.179842   -2.662624   -0.295523
      5         11           0       -2.996794   -0.691723   -0.189853
      6         11           0        2.128513    2.312166   -0.025330
      7         11           0        0.019460    0.456273   -1.605826
 ---------------------------------------------------------------------

 SCF Done:  E(UB3LYP) =  -1136.13694975     A.U. after   19 cycles

 The electronic state is 2-A.
 Alpha  occ. eigenvalues --  -38.43991 -38.43808 -38.43716 -38.43564 -38.43440
 Alpha  occ. eigenvalues --  -38.43095 -38.43030  -2.19824  -2.19687  -2.19539
 Alpha  occ. eigenvalues --   -2.19482  -2.19363  -2.19112  -2.18937  -1.13500
 Alpha  occ. eigenvalues --   -1.13489  -1.13464  -1.13389  -1.13347  -1.13335
 Alpha  occ. eigenvalues --   -1.13243  -1.13222  -1.13194  -1.13170  -1.13143
 Alpha  occ. eigenvalues --   -1.13082  -1.13038  -1.12993  -1.12971  -1.12786
 Alpha  occ. eigenvalues --   -1.12753  -1.12719  -1.12612  -1.12597  -1.12565
 Alpha  occ. eigenvalues --   -0.19023  -0.13168  -0.12524  -0.10759
 Alpha virt. eigenvalues --   -0.05526  -0.05378  -0.04440  -0.03186  -0.02886
 Alpha virt. eigenvalues --   -0.02458  -0.01534  -0.01139  -0.00244  -0.00154
 Alpha virt. eigenvalues --   -0.00004   0.00355   0.00790   0.00887   0.00936

  Beta  occ. eigenvalues --  -38.43990 -38.43802 -38.43715 -38.43555 -38.43347
  Beta  occ. eigenvalues --  -38.43032 -38.43019  -2.19824  -2.19679  -2.19539
  Beta  occ. eigenvalues --   -2.19469  -2.19191  -2.18998  -2.18922  -1.13498
  Beta  occ. eigenvalues --   -1.13474  -1.13466  -1.13387  -1.13340  -1.13306
  Beta  occ. eigenvalues --   -1.13234  -1.13207  -1.13183  -1.13173  -1.13100
  Beta  occ. eigenvalues --   -1.13078  -1.12927  -1.12872  -1.12848  -1.12712
  Beta  occ. eigenvalues --   -1.12677  -1.12635  -1.12596  -1.12562  -1.12547
  Beta  occ. eigenvalues --   -0.18273  -0.12933  -0.12282
  Beta virt. eigenvalues --   -0.06804  -0.05500  -0.05365  -0.04416  -0.02380
  Beta virt. eigenvalues --   -0.02113  -0.01471  -0.01366  -0.01084  -0.00288
  Beta virt. eigenvalues --   -0.00200   0.00139   0.00379   0.00846   0.00874

 Mulliken charges and spin densities:
               1          2
     1  Na   0.363188  -0.010042
     2  Na   0.055452  -0.080230
     3  Na  -0.567679   0.721111
     4  Na   0.207079  -0.008323
     5  Na   0.247459   0.010641
     6  Na   0.121065  -0.106422
     7  Na  -0.426563   0.473265
 Sum of Mulliken charges =  -0.00000   1.00000

 Dipole moment (field-independent basis, Debye):
    X=              0.1944    Y=              0.0711    Z=              0.1712  Tot=              0.2686
 Quadrupole moment (field-independent basis, Debye-Ang):
   XX=            -55.1581   YY=            -63.8044   ZZ=            -74.2926
   XY=              0.4526   XZ=              0.4600   YZ=              1.5442

 Normal termination of Gaussian 16 at Fri Dec  8 05:11:30 2023.
