 Gaussian 16, Revision B.01,
 Gaussian 16:  ES64L-G16RevB.01 20-Dec-2017

 -------------------------
 #P B3LYP/6-311+g(d) force
 -------------------------

 -----
 DPGEN
 -----
 Symbolic Z-matrix:
 Charge =  0 Multiplicity = 2

                         Standard orientation:
 ---------------------------------------------------------------------
 Center     Atomic      Atomic             Coordinates (Angstroms)
 Number     Number       Type             X           Y           Z
 ---------------------------------------------------------------------
      1         11           0       -2.533971    1.522168    1.179936
      2         11           0        3.435617    1.208127   -0.781315
      3         11           0       -4.171642   -1.369444   -0.278443
      4         11           0       -1.205179   -1.223495   -1.506859
      5         11           0        0.082209    2.308451   -0.656984
      6         11           0        0.737705   -0.435087    1.617620
      7         11           0        3.655261   -2.010719    0.426045
 ---------------------------------------------------------------------

 SCF Done:  E(UB3LYP) =  -1136.11682272     A.U. after   25 cycles

 The electronic state is 2-A.
 Alpha  occ. eigenvalues --  -38.45120 -38.44744 -38.44571 -38.44450 -38.43982
 Alpha  occ. eigenvalues --  -38.43979 -38.42699  -2.20937  -2.20556  -2.20406
 Alpha  occ. eigenvalues --   -2.20288  -2.19779  -2.19773  -2.18560  -1.14613
 Alpha  occ. eigenvalues --   -1.14573  -1.14563  -1.14230  -1.14203  -1.14178
 Alpha  occ. eigenvalues --   -1.14113  -1.14060  -1.13996  -1.13962  -1.13930
 Alpha  occ. eigenvalues --   -1.13910  -1.13452  -1.13444  -1.13438  -1.13436
 Alpha  occ. eigenvalues --   -1.13433  -1.13416  -1.12243  -1.12230  -1.12203
 Alpha  occ. eigenvalues --   -0.17601  -0.14074  -0.11571  -0.10673
 Alpha virt. eigenvalues --   -0.07402  -0.05732  -0.04267  -0.03240  -0.03144
 Alpha virt. eigenvalues --   -0.02589  -0.02290  -0.01631  -0.00890  -0.00536
 Alpha virt. eigenvalues --   -0.00215   0.00077   0.00305   0.00461   0.00569

  Beta  occ. eigenvalues --  -38.45071 -38.44697 -38.44511 -38.44412 -38.44002
  Beta  occ. eigenvalues --  -38.43976 -38.42691  -2.20847  -2.20468  -2.20297
  Beta  occ. eigenvalues --   -2.20217  -2.19819  -2.19770  -2.18549  -1.14540
  Beta  occ. eigenvalues --   -1.14514  -1.14505  -1.14170  -1.14145  -1.14111
  Beta  occ. eigenvalues --   -1.14038  -1.13986  -1.13914  -1.13910  -1.13879
  Beta  occ. eigenvalues --   -1.13867  -1.13476  -1.13464  -1.13458  -1.13438
  Beta  occ. eigenvalues --   -1.13427  -1.13411  -1.12239  -1.12226  -1.12164
  Beta  occ. eigenvalues --   -0.17057  -0.13906  -0.11150
  Beta virt. eigenvalues --   -0.07208  -0.07098  -0.05456  -0.03843  -0.02940
  Beta virt. eigenvalues --   -0.02855  -0.02253  -0.01862  -0.01110  -0.00579
  Beta virt. eigenvalues --   -0.00537  -0.00137   0.00145   0.00439   0.00559

 Mulliken charges and spin densities:
               1          2
     1  Na   0.561970   0.278523
     2  Na  -0.180959   0.184787
     3  Na   0.103869  -0.233074
     4  Na  -0.252978   0.357351
     5  Na  -0.155082   0.045755
     6  Na  -0.544092   0.436710
     7  Na   0.467271  -0.070051
 Sum of Mulliken charges =  -0.00000   1.00000

 Dipole moment (field-independent basis, Debye):
    X=             -0.0696    Y=             -0.0146    Z=              0.2012  Tot=              0.2134
 Quadrupole moment (field-independent basis, Debye-Ang):
   XX=            -53.7808   YY=            -72.9541   ZZ=            -72.3802
   XY=             -3.9060   XZ=             -5.5975   YZ=              0.1382

 Normal termination of Gaussian 16 at Sun Dec  3 16:59:55 2023.
