 Gaussian 16, Revision B.01,
 Gaussian 16:  ES64L-G16RevB.01 20-Dec-2017

 -------------------------
 #P B3LYP/6-311+g(d) force
 -------------------------

 -----
 DPGEN
 -----
 Symbolic Z-matrix:
 Charge =  0 Multiplicity = 2

                         Standard orientation:
 ---------------------------------------------------------------------
 Center     Atomic      Atomic             Coordinates (Angstroms)
 Number     Number       Type             X           Y           Z
 ---------------------------------------------------------------------
      1         11           0       -2.675397   -2.868383   -0.544542
      2         11           0       -4.235089   -0.033944    0.219732
      3         11           0        0.832268    3.509682   -0.735644
      4         11           0        1.100456   -3.414978   -0.193176
      5         11           0        3.466958    1.564724   -0.295738
      6         11           0        3.536219   -1.777935    0.802278
      7         11           0       -2.025416    3.020834    0.747090
 ---------------------------------------------------------------------

 SCF Done:  E(UB3LYP) =  -1136.10829427     A.U. after   23 cycles

 The electronic state is 2-A.
 Alpha  occ. eigenvalues --  -38.45281 -38.44765 -38.44676 -38.44551 -38.44359
 Alpha  occ. eigenvalues --  -38.44122 -38.43899  -2.21042  -2.20566  -2.20489
 Alpha  occ. eigenvalues --   -2.20352  -2.20144  -2.19938  -2.19709  -1.14720
 Alpha  occ. eigenvalues --   -1.14709  -1.14686  -1.14303  -1.14224  -1.14210
 Alpha  occ. eigenvalues --   -1.14145  -1.14135  -1.14095  -1.14031  -1.14027
 Alpha  occ. eigenvalues --   -1.14021  -1.13805  -1.13796  -1.13782  -1.13589
 Alpha  occ. eigenvalues --   -1.13581  -1.13565  -1.13357  -1.13353  -1.13337
 Alpha  occ. eigenvalues --   -0.15698  -0.13951  -0.13750  -0.10708
 Alpha virt. eigenvalues --   -0.07941  -0.04598  -0.04464  -0.03670  -0.03585
 Alpha virt. eigenvalues --   -0.02298  -0.02152  -0.01773  -0.01454  -0.00930
 Alpha virt. eigenvalues --   -0.00610   0.00025   0.00129   0.00283   0.00714

  Beta  occ. eigenvalues --  -38.45272 -38.44731 -38.44664 -38.44549 -38.44323
  Beta  occ. eigenvalues --  -38.44055 -38.43831  -2.21030  -2.20506  -2.20472
  Beta  occ. eigenvalues --   -2.20355  -2.20078  -2.19814  -2.19581  -1.14717
  Beta  occ. eigenvalues --   -1.14705  -1.14645  -1.14257  -1.14185  -1.14167
  Beta  occ. eigenvalues --   -1.14137  -1.14122  -1.14051  -1.14036  -1.14033
  Beta  occ. eigenvalues --   -1.13975  -1.13761  -1.13754  -1.13729  -1.13505
  Beta  occ. eigenvalues --   -1.13500  -1.13482  -1.13273  -1.13267  -1.13252
  Beta  occ. eigenvalues --   -0.15161  -0.13222  -0.13008
  Beta virt. eigenvalues --   -0.08116  -0.07568  -0.04106  -0.03955  -0.03438
  Beta virt. eigenvalues --   -0.03318  -0.02047  -0.01999  -0.01596  -0.01343
  Beta virt. eigenvalues --   -0.00531  -0.00392   0.00148   0.00234   0.00394

 Mulliken charges and spin densities:
               1          2
     1  Na   0.145978   0.173324
     2  Na   0.058653   0.052609
     3  Na  -0.017626   0.004120
     4  Na  -0.212892   0.180934
     5  Na   0.075759   0.291310
     6  Na   0.267711   0.009461
     7  Na  -0.317583   0.288242
 Sum of Mulliken charges =  -0.00000   1.00000

 Dipole moment (field-independent basis, Debye):
    X=             -0.1134    Y=             -0.5404    Z=              0.0540  Tot=              0.5548
 Quadrupole moment (field-independent basis, Debye-Ang):
   XX=            -61.5176   YY=            -68.3865   ZZ=            -71.2611
   XY=             -1.5646   XZ=              0.7008   YZ=              0.4128

 Normal termination of Gaussian 16 at Mon Dec  4 00:30:12 2023.
