 Gaussian 16, Revision B.01,
 Gaussian 16:  ES64L-G16RevB.01 20-Dec-2017

 -------------------------
 #P B3LYP/6-311+g(d) force
 -------------------------

 -----
 DPGEN
 -----
 Symbolic Z-matrix:
 Charge =  0 Multiplicity = 2

                         Standard orientation:
 ---------------------------------------------------------------------
 Center     Atomic      Atomic             Coordinates (Angstroms)
 Number     Number       Type             X           Y           Z
 ---------------------------------------------------------------------
      1         11           0        3.101109    0.940436    0.093752
      2         11           0        0.375138   -0.237623   -1.698167
      3         11           0       -2.807892    1.114635    0.555727
      4         11           0       -0.101589   -0.213847    1.987017
      5         11           0        1.404140   -2.360725    0.383975
      6         11           0       -1.881111   -2.045185   -0.809852
      7         11           0       -0.089795    2.802310   -0.512451
 ---------------------------------------------------------------------

 SCF Done:  E(UB3LYP) =  -1136.13486009     A.U. after   19 cycles

 The electronic state is 2-A.
 Alpha  occ. eigenvalues --  -38.43919 -38.43869 -38.43517 -38.43509 -38.43440
 Alpha  occ. eigenvalues --  -38.43398 -38.43390  -2.19804  -2.19724  -2.19417
 Alpha  occ. eigenvalues --   -2.19401  -2.19362  -2.19359  -2.19243  -1.13509
 Alpha  occ. eigenvalues --   -1.13453  -1.13415  -1.13406  -1.13380  -1.13364
 Alpha  occ. eigenvalues --   -1.13235  -1.13132  -1.13081  -1.13048  -1.13039
 Alpha  occ. eigenvalues --   -1.13036  -1.13032  -1.13018  -1.12987  -1.12975
 Alpha  occ. eigenvalues --   -1.12971  -1.12944  -1.12916  -1.12894  -1.12853
 Alpha  occ. eigenvalues --   -0.18918  -0.12839  -0.12547  -0.11346
 Alpha virt. eigenvalues --   -0.05426  -0.04840  -0.04518  -0.03340  -0.03142
 Alpha virt. eigenvalues --   -0.02885  -0.01416  -0.00974  -0.00261   0.00048
 Alpha virt. eigenvalues --    0.00116   0.00364   0.00866   0.00908   0.00929

  Beta  occ. eigenvalues --  -38.43920 -38.43781 -38.43500 -38.43492 -38.43427
  Beta  occ. eigenvalues --  -38.43391 -38.43320  -2.19729  -2.19642  -2.19367
  Beta  occ. eigenvalues --   -2.19345  -2.19341  -2.19281  -2.19232  -1.13405
  Beta  occ. eigenvalues --   -1.13401  -1.13384  -1.13361  -1.13337  -1.13300
  Beta  occ. eigenvalues --   -1.13174  -1.13084  -1.13030  -1.13020  -1.13008
  Beta  occ. eigenvalues --   -1.13004  -1.12997  -1.12984  -1.12970  -1.12931
  Beta  occ. eigenvalues --   -1.12924  -1.12900  -1.12883  -1.12870  -1.12844
  Beta  occ. eigenvalues --   -0.18179  -0.12594  -0.12264
  Beta virt. eigenvalues --   -0.07375  -0.05394  -0.04788  -0.04448  -0.02585
  Beta virt. eigenvalues --   -0.02400  -0.01821  -0.01330  -0.00890  -0.00180
  Beta virt. eigenvalues --    0.00037   0.00156   0.00394   0.00894   0.00927

 Mulliken charges and spin densities:
               1          2
     1  Na  -0.154443  -0.083205
     2  Na   0.063606   0.415399
     3  Na   0.018098   0.040440
     4  Na  -0.203449   0.601486
     5  Na   0.283481   0.042756
     6  Na   0.127180   0.043698
     7  Na  -0.134474  -0.060574
 Sum of Mulliken charges =  -0.00000   1.00000

 Dipole moment (field-independent basis, Debye):
    X=              0.2079    Y=              0.0146    Z=              0.1961  Tot=              0.2861
 Quadrupole moment (field-independent basis, Debye-Ang):
   XX=            -58.2748   YY=            -64.5066   ZZ=            -71.6289
   XY=              0.5697   XZ=              1.0704   YZ=              0.0913

 Normal termination of Gaussian 16 at Fri Dec  8 06:50:17 2023.
