 Gaussian 16, Revision B.01,
 Gaussian 16:  ES64L-G16RevB.01 20-Dec-2017

 -------------------------
 #P B3LYP/6-311+g(d) force
 -------------------------

 -----
 DPGEN
 -----
 Symbolic Z-matrix:
 Charge =  0 Multiplicity = 2

                         Standard orientation:
 ---------------------------------------------------------------------
 Center     Atomic      Atomic             Coordinates (Angstroms)
 Number     Number       Type             X           Y           Z
 ---------------------------------------------------------------------
      1         11           0        1.964811   -2.032990    1.097823
      2         11           0       -0.305505    2.657087   -0.968198
      3         11           0        1.302563    1.196079    1.380534
      4         11           0        3.011455   -0.074320   -1.281882
      5         11           0       -0.502067   -1.226164   -1.023709
      6         11           0       -2.061930    0.804976    1.341259
      7         11           0       -3.409327   -1.324668   -0.545827
 ---------------------------------------------------------------------

 SCF Done:  E(UB3LYP) =  -1136.12790698     A.U. after   20 cycles

 The electronic state is 2-A.
 Alpha  occ. eigenvalues --  -38.44534 -38.43864 -38.43767 -38.43748 -38.43449
 Alpha  occ. eigenvalues --  -38.43266 -38.43066  -2.20385  -2.19743  -2.19678
 Alpha  occ. eigenvalues --   -2.19634  -2.19391  -2.19114  -2.19022  -1.14054
 Alpha  occ. eigenvalues --   -1.14037  -1.14015  -1.13503  -1.13448  -1.13371
 Alpha  occ. eigenvalues --   -1.13363  -1.13324  -1.13314  -1.13289  -1.13260
 Alpha  occ. eigenvalues --   -1.13258  -1.13074  -1.13042  -1.12994  -1.12817
 Alpha  occ. eigenvalues --   -1.12774  -1.12746  -1.12709  -1.12672  -1.12618
 Alpha  occ. eigenvalues --   -0.18610  -0.13872  -0.11891  -0.10842
 Alpha virt. eigenvalues --   -0.06087  -0.04976  -0.04705  -0.03354  -0.02932
 Alpha virt. eigenvalues --   -0.02291  -0.01856  -0.00825  -0.00660   0.00078
 Alpha virt. eigenvalues --    0.00226   0.00290   0.00410   0.00743   0.00856

  Beta  occ. eigenvalues --  -38.44500 -38.43863 -38.43742 -38.43716 -38.43424
  Beta  occ. eigenvalues --  -38.43248 -38.43028  -2.20323  -2.19741  -2.19633
  Beta  occ. eigenvalues --   -2.19576  -2.19349  -2.19081  -2.18958  -1.14011
  Beta  occ. eigenvalues --   -1.13994  -1.13963  -1.13496  -1.13437  -1.13362
  Beta  occ. eigenvalues --   -1.13335  -1.13289  -1.13275  -1.13245  -1.13235
  Beta  occ. eigenvalues --   -1.13208  -1.13031  -1.13004  -1.12968  -1.12793
  Beta  occ. eigenvalues --   -1.12751  -1.12710  -1.12661  -1.12613  -1.12568
  Beta  occ. eigenvalues --   -0.17913  -0.13686  -0.11711
  Beta virt. eigenvalues --   -0.07034  -0.05911  -0.04803  -0.04216  -0.03077
  Beta virt. eigenvalues --   -0.02388  -0.01870  -0.01326  -0.00764  -0.00283
  Beta virt. eigenvalues --    0.00124   0.00315   0.00364   0.00523   0.00888

 Mulliken charges and spin densities:
               1          2
     1  Na   0.272891  -0.001784
     2  Na  -0.315655   0.166071
     3  Na   0.282721   0.339044
     4  Na   0.131417   0.227577
     5  Na  -0.672161   0.339042
     6  Na  -0.009802   0.034764
     7  Na   0.310588  -0.104715
 Sum of Mulliken charges =  -0.00000   1.00000

 Dipole moment (field-independent basis, Debye):
    X=              0.1227    Y=             -0.0465    Z=             -0.1629  Tot=              0.2092
 Quadrupole moment (field-independent basis, Debye-Ang):
   XX=            -54.3009   YY=            -70.7737   ZZ=            -69.1146
   XY=             -0.7813   XZ=             -1.5672   YZ=             -2.7522

 Normal termination of Gaussian 16 at Fri Dec  8 19:14:51 2023.
