 Gaussian 16, Revision B.01,
 Gaussian 16:  ES64L-G16RevB.01 20-Dec-2017

 -------------------------
 #P B3LYP/6-311+g(d) force
 -------------------------

 -----
 DPGEN
 -----
 Symbolic Z-matrix:
 Charge =  0 Multiplicity = 2

                         Standard orientation:
 ---------------------------------------------------------------------
 Center     Atomic      Atomic             Coordinates (Angstroms)
 Number     Number       Type             X           Y           Z
 ---------------------------------------------------------------------
      1         11           0        1.198703    0.348955    1.832316
      2         11           0       -2.001582    0.039019    2.293512
      3         11           0        0.365442   -1.572239   -0.692040
      4         11           0       -1.281201    1.828800   -0.526999
      5         11           0        3.317490   -1.682593   -0.163670
      6         11           0        1.414789    2.548928   -1.298845
      7         11           0       -3.013642   -1.510870   -1.444273
 ---------------------------------------------------------------------

 SCF Done:  E(UB3LYP) =  -1136.12351443     A.U. after   23 cycles

 The electronic state is 2-A.
 Alpha  occ. eigenvalues --  -38.44881 -38.44354 -38.44014 -38.43672 -38.43421
 Alpha  occ. eigenvalues --  -38.43251 -38.43175  -2.20731  -2.20261  -2.19808
 Alpha  occ. eigenvalues --   -2.19512  -2.19276  -2.19175  -2.19100  -1.14421
 Alpha  occ. eigenvalues --   -1.14381  -1.14320  -1.13978  -1.13898  -1.13860
 Alpha  occ. eigenvalues --   -1.13476  -1.13465  -1.13423  -1.13249  -1.13155
 Alpha  occ. eigenvalues --   -1.13142  -1.13098  -1.12910  -1.12889  -1.12874
 Alpha  occ. eigenvalues --   -1.12836  -1.12772  -1.12762  -1.12754  -1.12665
 Alpha  occ. eigenvalues --   -0.18302  -0.12978  -0.12189  -0.11883
 Alpha virt. eigenvalues --   -0.05497  -0.05183  -0.04549  -0.03460  -0.03105
 Alpha virt. eigenvalues --   -0.02732  -0.01653  -0.01077  -0.00784   0.00101
 Alpha virt. eigenvalues --    0.00215   0.00333   0.00374   0.00639   0.00768

  Beta  occ. eigenvalues --  -38.44802 -38.44300 -38.43977 -38.43674 -38.43393
  Beta  occ. eigenvalues --  -38.43236 -38.43160  -2.20589  -2.20165  -2.19739
  Beta  occ. eigenvalues --   -2.19517  -2.19227  -2.19149  -2.19076  -1.14309
  Beta  occ. eigenvalues --   -1.14288  -1.14218  -1.13917  -1.13813  -1.13788
  Beta  occ. eigenvalues --   -1.13422  -1.13416  -1.13383  -1.13250  -1.13155
  Beta  occ. eigenvalues --   -1.13146  -1.13063  -1.12876  -1.12858  -1.12850
  Beta  occ. eigenvalues --   -1.12813  -1.12753  -1.12741  -1.12716  -1.12651
  Beta  occ. eigenvalues --   -0.17568  -0.12812  -0.11523
  Beta virt. eigenvalues --   -0.08179  -0.05326  -0.04908  -0.04082  -0.03157
  Beta virt. eigenvalues --   -0.02561  -0.02075  -0.01549  -0.00818  -0.00484
  Beta virt. eigenvalues --    0.00223   0.00273   0.00425   0.00480   0.00746

 Mulliken charges and spin densities:
               1          2
     1  Na   0.035403   0.241254
     2  Na   0.174933   0.194800
     3  Na  -2.357185   0.318031
     4  Na  -0.151210   0.441797
     5  Na   1.257504   0.066914
     6  Na   0.056842  -0.057841
     7  Na   0.983713  -0.204956
 Sum of Mulliken charges =  -0.00000   1.00000

 Dipole moment (field-independent basis, Debye):
    X=             -0.0165    Y=             -0.1294    Z=              0.4239  Tot=              0.4435
 Quadrupole moment (field-independent basis, Debye-Ang):
   XX=            -55.0285   YY=            -75.3051   ZZ=            -64.6194
   XY=              0.8624   XZ=             -1.3744   YZ=              0.8463

 Normal termination of Gaussian 16 at Tue Nov 28 19:56:41 2023.
