 Gaussian 16, Revision B.01,
 Gaussian 16:  ES64L-G16RevB.01 20-Dec-2017

 -------------------------
 #P B3LYP/6-311+g(d) force
 -------------------------

 -----
 DPGEN
 -----
 Symbolic Z-matrix:
 Charge =  0 Multiplicity = 2

                         Standard orientation:
 ---------------------------------------------------------------------
 Center     Atomic      Atomic             Coordinates (Angstroms)
 Number     Number       Type             X           Y           Z
 ---------------------------------------------------------------------
      1         11           0       -3.760111   -0.735578   -0.370876
      2         11           0        1.059432   -3.570487   -0.337449
      3         11           0       -2.590506   -3.229955    0.693481
      4         11           0       -2.741254    2.897768   -0.242221
      5         11           0        4.425493   -1.376005   -0.180812
      6         11           0        0.328767    4.418907    0.183025
      7         11           0        3.278180    1.595350    0.254853
 ---------------------------------------------------------------------

 SCF Done:  E(UB3LYP) =  -1136.10374913     A.U. after   23 cycles

 The electronic state is 2-A.
 Alpha  occ. eigenvalues --  -38.45315 -38.45121 -38.44886 -38.44853 -38.44383
 Alpha  occ. eigenvalues --  -38.44245 -38.43928  -2.21056  -2.20893  -2.20655
 Alpha  occ. eigenvalues --   -2.20649  -2.20169  -2.20021  -2.19765  -1.14744
 Alpha  occ. eigenvalues --   -1.14732  -1.14693  -1.14563  -1.14555  -1.14530
 Alpha  occ. eigenvalues --   -1.14390  -1.14318  -1.14309  -1.14301  -1.14289
 Alpha  occ. eigenvalues --   -1.14252  -1.13833  -1.13829  -1.13812  -1.13681
 Alpha  occ. eigenvalues --   -1.13671  -1.13655  -1.13424  -1.13400  -1.13393
 Alpha  occ. eigenvalues --   -0.15359  -0.13897  -0.13510  -0.10762
 Alpha virt. eigenvalues --   -0.08000  -0.05020  -0.04481  -0.03567  -0.03297
 Alpha virt. eigenvalues --   -0.02477  -0.02251  -0.02101  -0.01864  -0.00677
 Alpha virt. eigenvalues --   -0.00376  -0.00115   0.00096   0.00212   0.00264

  Beta  occ. eigenvalues --  -38.45318 -38.45087 -38.44867 -38.44792 -38.44372
  Beta  occ. eigenvalues --  -38.44206 -38.43880  -2.21066  -2.20833  -2.20684
  Beta  occ. eigenvalues --   -2.20478  -2.20153  -2.19948  -2.19675  -1.14755
  Beta  occ. eigenvalues --   -1.14742  -1.14669  -1.14525  -1.14518  -1.14470
  Beta  occ. eigenvalues --   -1.14399  -1.14343  -1.14290  -1.14192  -1.14179
  Beta  occ. eigenvalues --   -1.14136  -1.13826  -1.13816  -1.13785  -1.13631
  Beta  occ. eigenvalues --   -1.13622  -1.13605  -1.13375  -1.13337  -1.13331
  Beta  occ. eigenvalues --   -0.14837  -0.13378  -0.12821
  Beta virt. eigenvalues --   -0.07999  -0.07519  -0.04634  -0.03991  -0.03349
  Beta virt. eigenvalues --   -0.02916  -0.02326  -0.02049  -0.01983  -0.01725
  Beta virt. eigenvalues --   -0.00316  -0.00102   0.00019   0.00141   0.00343

 Mulliken charges and spin densities:
               1          2
     1  Na  -0.230266   0.201907
     2  Na  -0.147206   0.496675
     3  Na  -0.116957  -0.076309
     4  Na   0.167645  -0.007352
     5  Na   0.643892  -0.059461
     6  Na   0.166441   0.220268
     7  Na  -0.483549   0.224272
 Sum of Mulliken charges =  -0.00000   1.00000

 Dipole moment (field-independent basis, Debye):
    X=              0.3192    Y=              0.0805    Z=              0.0625  Tot=              0.3351
 Quadrupole moment (field-independent basis, Debye-Ang):
   XX=            -63.6031   YY=            -63.7845   ZZ=            -73.4256
   XY=             -0.9867   XZ=             -0.3561   YZ=             -0.4906

 Normal termination of Gaussian 16 at Sun Dec  3 15:26:54 2023.
