 Gaussian 16, Revision B.01,
 Gaussian 16:  ES64L-G16RevB.01 20-Dec-2017

 -------------------------
 #P B3LYP/6-311+g(d) force
 -------------------------

 -----
 DPGEN
 -----
 Symbolic Z-matrix:
 Charge =  0 Multiplicity = 2

                         Standard orientation:
 ---------------------------------------------------------------------
 Center     Atomic      Atomic             Coordinates (Angstroms)
 Number     Number       Type             X           Y           Z
 ---------------------------------------------------------------------
      1         11           0       -0.086650    0.065763    2.067039
      2         11           0        1.384464   -2.479112   -0.465664
      3         11           0       -2.355148   -2.310801    0.260746
      4         11           0       -2.809911    1.247926   -0.436405
      5         11           0        0.202387    0.137328   -1.597340
      6         11           0        3.392156    0.180770    0.156476
      7         11           0        0.272702    3.158127    0.015147
 ---------------------------------------------------------------------

 SCF Done:  E(UB3LYP) =  -1136.13550337     A.U. after   19 cycles

 The electronic state is 2-A.
 Alpha  occ. eigenvalues --  -38.44373 -38.44074 -38.43696 -38.43642 -38.43628
 Alpha  occ. eigenvalues --  -38.43545 -38.43260  -2.20165  -2.19893  -2.19551
 Alpha  occ. eigenvalues --   -2.19434  -2.19431  -2.19413  -2.19221  -1.13837
 Alpha  occ. eigenvalues --   -1.13823  -1.13811  -1.13584  -1.13554  -1.13514
 Alpha  occ. eigenvalues --   -1.13225  -1.13183  -1.13173  -1.13167  -1.13117
 Alpha  occ. eigenvalues --   -1.13101  -1.13095  -1.13088  -1.13080  -1.13068
 Alpha  occ. eigenvalues --   -1.13064  -1.13016  -1.12897  -1.12847  -1.12832
 Alpha  occ. eigenvalues --   -0.18219  -0.12934  -0.12248  -0.10594
 Alpha virt. eigenvalues --   -0.05846  -0.05201  -0.04854  -0.03139  -0.02830
 Alpha virt. eigenvalues --   -0.02525  -0.01709  -0.01285  -0.00547  -0.00453
 Alpha virt. eigenvalues --   -0.00017   0.00335   0.00757   0.00803   0.00866

  Beta  occ. eigenvalues --  -38.44373 -38.44063 -38.43640 -38.43626 -38.43601
  Beta  occ. eigenvalues --  -38.43532 -38.43200  -2.20167  -2.19876  -2.19434
  Beta  occ. eigenvalues --   -2.19430  -2.19394  -2.19376  -2.19112  -1.13834
  Beta  occ. eigenvalues --   -1.13821  -1.13807  -1.13563  -1.13534  -1.13505
  Beta  occ. eigenvalues --   -1.13148  -1.13118  -1.13104  -1.13094  -1.13091
  Beta  occ. eigenvalues --   -1.13084  -1.13080  -1.13065  -1.13058  -1.13035
  Beta  occ. eigenvalues --   -1.13029  -1.13005  -1.12822  -1.12770  -1.12755
  Beta  occ. eigenvalues --   -0.17506  -0.12706  -0.12042
  Beta virt. eigenvalues --   -0.06716  -0.05801  -0.05158  -0.04799  -0.02407
  Beta virt. eigenvalues --   -0.02115  -0.01608  -0.01479  -0.01198  -0.00590
  Beta virt. eigenvalues --   -0.00467   0.00120   0.00367   0.00793   0.00822

 Mulliken charges and spin densities:
               1          2
     1  Na  -0.437516   0.850147
     2  Na   0.221460  -0.002992
     3  Na  -0.000937  -0.029493
     4  Na   0.129800  -0.026110
     5  Na   0.076525   0.336733
     6  Na   0.024566  -0.041753
     7  Na  -0.013899  -0.086533
 Sum of Mulliken charges =  -0.00000   1.00000

 Dipole moment (field-independent basis, Debye):
    X=              0.2113    Y=              0.2188    Z=              0.1417  Tot=              0.3356
 Quadrupole moment (field-independent basis, Debye-Ang):
   XX=            -55.4582   YY=            -61.7259   ZZ=            -75.4512
   XY=              0.9697   XZ=              1.0071   YZ=              0.1534

 Normal termination of Gaussian 16 at Thu Dec  7 17:39:07 2023.
