 Gaussian 16, Revision B.01,
 Gaussian 16:  ES64L-G16RevB.01 20-Dec-2017

 -------------------------
 #P B3LYP/6-311+g(d) force
 -------------------------

 -----
 DPGEN
 -----
 Symbolic Z-matrix:
 Charge =  0 Multiplicity = 2

                         Standard orientation:
 ---------------------------------------------------------------------
 Center     Atomic      Atomic             Coordinates (Angstroms)
 Number     Number       Type             X           Y           Z
 ---------------------------------------------------------------------
      1         11           0       -0.731426    2.684383   -0.338293
      2         11           0        2.954934   -1.986853   -0.365401
      3         11           0       -2.911266    0.554258   -0.166021
      4         11           0       -0.028378   -0.141999    1.789932
      5         11           0        0.256388   -0.184100   -1.484514
      6         11           0       -2.243198   -2.424778    0.150600
      7         11           0        2.702946    1.499088    0.413697
 ---------------------------------------------------------------------

 SCF Done:  E(UB3LYP) =  -1136.13011412     A.U. after   22 cycles

 The electronic state is 2-A.
 Alpha  occ. eigenvalues --  -38.44366 -38.44257 -38.43989 -38.43694 -38.43480
 Alpha  occ. eigenvalues --  -38.43304 -38.42690  -2.20203  -2.20051  -2.19932
 Alpha  occ. eigenvalues --   -2.19539  -2.19408  -2.19281  -2.18605  -1.13882
 Alpha  occ. eigenvalues --   -1.13871  -1.13828  -1.13722  -1.13704  -1.13684
 Alpha  occ. eigenvalues --   -1.13635  -1.13609  -1.13579  -1.13202  -1.13189
 Alpha  occ. eigenvalues --   -1.13183  -1.13132  -1.13034  -1.13009  -1.12976
 Alpha  occ. eigenvalues --   -1.12920  -1.12892  -1.12294  -1.12266  -1.12228
 Alpha  occ. eigenvalues --   -0.18801  -0.13716  -0.12022  -0.10431
 Alpha virt. eigenvalues --   -0.05980  -0.05858  -0.04164  -0.03341  -0.02468
 Alpha virt. eigenvalues --   -0.02138  -0.01956  -0.01442  -0.00573  -0.00200
 Alpha virt. eigenvalues --   -0.00002   0.00288   0.00678   0.00752   0.00878

  Beta  occ. eigenvalues --  -38.44352 -38.44245 -38.43980 -38.43693 -38.43399
  Beta  occ. eigenvalues --  -38.43248 -38.42681  -2.20180  -2.20029  -2.19919
  Beta  occ. eigenvalues --   -2.19539  -2.19260  -2.19180  -2.18592  -1.13860
  Beta  occ. eigenvalues --   -1.13843  -1.13811  -1.13696  -1.13688  -1.13672
  Beta  occ. eigenvalues --   -1.13635  -1.13603  -1.13538  -1.13204  -1.13183
  Beta  occ. eigenvalues --   -1.13169  -1.13038  -1.12935  -1.12896  -1.12894
  Beta  occ. eigenvalues --   -1.12849  -1.12815  -1.12288  -1.12256  -1.12193
  Beta  occ. eigenvalues --   -0.18116  -0.13451  -0.11741
  Beta virt. eigenvalues --   -0.06645  -0.05877  -0.05754  -0.04134  -0.02622
  Beta virt. eigenvalues --   -0.01925  -0.01712  -0.01413  -0.01080  -0.00616
  Beta virt. eigenvalues --   -0.00189   0.00143   0.00334   0.00741   0.00773

 Mulliken charges and spin densities:
               1          2
     1  Na   0.070420   0.074660
     2  Na  -0.106860   0.001779
     3  Na   0.200500   0.068881
     4  Na  -0.298142   0.454137
     5  Na  -0.233266   0.290112
     6  Na   0.145143   0.012396
     7  Na   0.222206   0.098035
 Sum of Mulliken charges =  -0.00000   1.00000

 Dipole moment (field-independent basis, Debye):
    X=              0.5567    Y=             -0.2708    Z=              0.1882  Tot=              0.6471
 Quadrupole moment (field-independent basis, Debye-Ang):
   XX=            -53.4511   YY=            -63.2600   ZZ=            -75.9849
   XY=              0.6946   XZ=              0.9069   YZ=              0.2543

 Normal termination of Gaussian 16 at Thu Dec  7 09:03:04 2023.
