 Gaussian 16, Revision B.01,
 Gaussian 16:  ES64L-G16RevB.01 20-Dec-2017

 -------------------------
 #P B3LYP/6-311+g(d) force
 -------------------------

 -----
 DPGEN
 -----
 Symbolic Z-matrix:
 Charge =  0 Multiplicity = 2

                         Standard orientation:
 ---------------------------------------------------------------------
 Center     Atomic      Atomic             Coordinates (Angstroms)
 Number     Number       Type             X           Y           Z
 ---------------------------------------------------------------------
      1         11           0        1.720593    2.397356   -0.911802
      2         11           0       -2.704193   -0.201453    1.798548
      3         11           0        2.516653   -2.785756   -0.429009
      4         11           0       -3.527818   -1.817565   -1.123899
      5         11           0        3.885548    0.261074    0.753029
      6         11           0       -1.964673    2.572354   -0.307915
      7         11           0        0.073891   -0.426010    0.221047
 ---------------------------------------------------------------------

 SCF Done:  E(UB3LYP) =  -1136.11600588     A.U. after   23 cycles

 The electronic state is 2-A.
 Alpha  occ. eigenvalues --  -38.44889 -38.44760 -38.44294 -38.43985 -38.43880
 Alpha  occ. eigenvalues --  -38.43620 -38.43200  -2.20725  -2.20563  -2.20088
 Alpha  occ. eigenvalues --   -2.19881  -2.19689  -2.19441  -2.19021  -1.14439
 Alpha  occ. eigenvalues --   -1.14375  -1.14361  -1.14247  -1.14217  -1.14186
 Alpha  occ. eigenvalues --   -1.13773  -1.13739  -1.13716  -1.13626  -1.13530
 Alpha  occ. eigenvalues --   -1.13493  -1.13350  -1.13335  -1.13305  -1.13089
 Alpha  occ. eigenvalues --   -1.13082  -1.13042  -1.12713  -1.12697  -1.12630
 Alpha  occ. eigenvalues --   -0.17210  -0.14302  -0.11877  -0.09804
 Alpha virt. eigenvalues --   -0.06983  -0.06244  -0.04337  -0.03483  -0.02735
 Alpha virt. eigenvalues --   -0.02233  -0.01983  -0.01503  -0.01145  -0.00578
 Alpha virt. eigenvalues --   -0.00166   0.00010   0.00071   0.00317   0.00550

  Beta  occ. eigenvalues --  -38.44899 -38.44732 -38.44288 -38.43976 -38.43837
  Beta  occ. eigenvalues --  -38.43516 -38.43185  -2.20749  -2.20515  -2.20077
  Beta  occ. eigenvalues --   -2.19864  -2.19608  -2.19246  -2.18995  -1.14455
  Beta  occ. eigenvalues --   -1.14394  -1.14344  -1.14217  -1.14180  -1.14133
  Beta  occ. eigenvalues --   -1.13762  -1.13725  -1.13722  -1.13613  -1.13528
  Beta  occ. eigenvalues --   -1.13474  -1.13295  -1.13277  -1.13257  -1.12954
  Beta  occ. eigenvalues --   -1.12949  -1.12915  -1.12699  -1.12679  -1.12603
  Beta  occ. eigenvalues --   -0.16943  -0.13727  -0.11548
  Beta virt. eigenvalues --   -0.06634  -0.06308  -0.06040  -0.04199  -0.03283
  Beta virt. eigenvalues --   -0.02442  -0.01956  -0.01633  -0.01116  -0.00834
  Beta virt. eigenvalues --   -0.00396  -0.00018   0.00204   0.00251   0.00483

 Mulliken charges and spin densities:
               1          2
     1  Na   0.225430   0.093819
     2  Na   1.621649   0.184282
     3  Na   0.234861   0.115609
     4  Na   0.362585   0.515964
     5  Na   0.113862   0.171035
     6  Na   0.660851  -0.022771
     7  Na  -3.219238  -0.057938
 Sum of Mulliken charges =  -0.00000   1.00000

 Dipole moment (field-independent basis, Debye):
    X=              0.3210    Y=              0.4701    Z=              0.8107  Tot=              0.9906
 Quadrupole moment (field-independent basis, Debye-Ang):
   XX=            -63.7990   YY=            -73.7148   ZZ=            -64.3034
   XY=             -9.7742   XZ=             -1.3857   YZ=              0.7177

 Normal termination of Gaussian 16 at Wed Dec  6 00:04:11 2023.
