 Gaussian 16, Revision B.01,
 Gaussian 16:  ES64L-G16RevB.01 20-Dec-2017

 -------------------------
 #P B3LYP/6-311+g(d) force
 -------------------------

 -----
 DPGEN
 -----
 Symbolic Z-matrix:
 Charge =  0 Multiplicity = 2

                         Standard orientation:
 ---------------------------------------------------------------------
 Center     Atomic      Atomic             Coordinates (Angstroms)
 Number     Number       Type             X           Y           Z
 ---------------------------------------------------------------------
      1         11           0       -2.578780   -1.952775   -0.286982
      2         11           0       -0.135425    0.172900    2.085911
      3         11           0        1.512184   -2.598497    0.309523
      4         11           0        0.358764   -0.277969   -1.682369
      5         11           0        3.217821    0.513251   -0.189366
      6         11           0        0.317514    2.830531   -0.116286
      7         11           0       -2.692078    1.312560   -0.120431
 ---------------------------------------------------------------------

 SCF Done:  E(UB3LYP) =  -1136.13763478     A.U. after   19 cycles

 The electronic state is 2-A.
 Alpha  occ. eigenvalues --  -38.44353 -38.43805 -38.43714 -38.43702 -38.43654
 Alpha  occ. eigenvalues --  -38.43385 -38.43016  -2.20173  -2.19615  -2.19578
 Alpha  occ. eigenvalues --   -2.19534  -2.19529  -2.19328  -2.18878  -1.13859
 Alpha  occ. eigenvalues --   -1.13828  -1.13806  -1.13327  -1.13283  -1.13260
 Alpha  occ. eigenvalues --   -1.13246  -1.13243  -1.13232  -1.13207  -1.13193
 Alpha  occ. eigenvalues --   -1.13187  -1.13158  -1.13153  -1.13145  -1.13009
 Alpha  occ. eigenvalues --   -1.12964  -1.12947  -1.12557  -1.12545  -1.12510
 Alpha  occ. eigenvalues --   -0.18476  -0.13181  -0.12215  -0.10752
 Alpha virt. eigenvalues --   -0.05836  -0.05253  -0.04560  -0.03294  -0.02822
 Alpha virt. eigenvalues --   -0.02603  -0.01681  -0.01087  -0.00504  -0.00300
 Alpha virt. eigenvalues --   -0.00037   0.00351   0.00770   0.00841   0.00896

  Beta  occ. eigenvalues --  -38.44349 -38.43801 -38.43709 -38.43694 -38.43557
  Beta  occ. eigenvalues --  -38.43327 -38.43011  -2.20167  -2.19610  -2.19573
  Beta  occ. eigenvalues --   -2.19519  -2.19352  -2.19222  -2.18872  -1.13843
  Beta  occ. eigenvalues --   -1.13816  -1.13805  -1.13326  -1.13266  -1.13253
  Beta  occ. eigenvalues --   -1.13240  -1.13221  -1.13220  -1.13189  -1.13169
  Beta  occ. eigenvalues --   -1.13151  -1.13076  -1.13033  -1.13018  -1.12937
  Beta  occ. eigenvalues --   -1.12891  -1.12866  -1.12555  -1.12524  -1.12500
  Beta  occ. eigenvalues --   -0.17754  -0.12958  -0.11986
  Beta virt. eigenvalues --   -0.06857  -0.05787  -0.05220  -0.04507  -0.02525
  Beta virt. eigenvalues --   -0.02085  -0.01592  -0.01541  -0.01010  -0.00545
  Beta virt. eigenvalues --   -0.00347   0.00114   0.00384   0.00831   0.00858

 Mulliken charges and spin densities:
               1          2
     1  Na   0.082415  -0.050263
     2  Na  -0.422004   0.728888
     3  Na   0.029879  -0.043408
     4  Na  -0.187437   0.498695
     5  Na   0.248330  -0.053843
     6  Na   0.114356  -0.067877
     7  Na   0.134462  -0.012193
 Sum of Mulliken charges =  -0.00000   1.00000

 Dipole moment (field-independent basis, Debye):
    X=              0.3295    Y=             -0.1669    Z=              0.0964  Tot=              0.3817
 Quadrupole moment (field-independent basis, Debye-Ang):
   XX=            -55.7637   YY=            -63.8120   ZZ=            -74.1879
   XY=              0.4568   XZ=              0.8137   YZ=             -0.9353

 Normal termination of Gaussian 16 at Wed Dec  6 01:14:06 2023.
