 Gaussian 16, Revision B.01,
 Gaussian 16:  ES64L-G16RevB.01 20-Dec-2017

 -------------------------
 #P B3LYP/6-311+g(d) force
 -------------------------

 -----
 DPGEN
 -----
 Symbolic Z-matrix:
 Charge =  0 Multiplicity = 2

                         Standard orientation:
 ---------------------------------------------------------------------
 Center     Atomic      Atomic             Coordinates (Angstroms)
 Number     Number       Type             X           Y           Z
 ---------------------------------------------------------------------
      1         11           0        3.730237   -2.576744   -0.451824
      2         11           0       -2.671175   -0.943716    2.048510
      3         11           0       -0.132726   -1.915020   -0.189953
      4         11           0        4.407340    1.282927   -0.119741
      5         11           0       -4.784129   -0.395135   -1.235794
      6         11           0        1.310155    2.444759    0.521302
      7         11           0       -1.859702    2.102929   -0.572502
 ---------------------------------------------------------------------

 SCF Done:  E(UB3LYP) =  -1136.10630847     A.U. after   24 cycles

 The electronic state is 2-A.
 Alpha  occ. eigenvalues --  -38.45657 -38.44857 -38.44766 -38.44719 -38.44602
 Alpha  occ. eigenvalues --  -38.44409 -38.43225  -2.21423  -2.20616  -2.20556
 Alpha  occ. eigenvalues --   -2.20469  -2.20397  -2.20128  -2.19026  -1.15089
 Alpha  occ. eigenvalues --   -1.15080  -1.15049  -1.14295  -1.14280  -1.14245
 Alpha  occ. eigenvalues --   -1.14239  -1.14220  -1.14170  -1.14163  -1.14148
 Alpha  occ. eigenvalues --   -1.14067  -1.14045  -1.14034  -1.13996  -1.13820
 Alpha  occ. eigenvalues --   -1.13789  -1.13779  -1.12704  -1.12693  -1.12675
 Alpha  occ. eigenvalues --   -0.16430  -0.13676  -0.11812  -0.10979
 Alpha virt. eigenvalues --   -0.07511  -0.05951  -0.04557  -0.03353  -0.02966
 Alpha virt. eigenvalues --   -0.02572  -0.02327  -0.01651  -0.01506  -0.00997
 Alpha virt. eigenvalues --   -0.00566  -0.00048   0.00042   0.00235   0.00449

  Beta  occ. eigenvalues --  -38.45623 -38.44846 -38.44722 -38.44700 -38.44488
  Beta  occ. eigenvalues --  -38.44434 -38.43222  -2.21364  -2.20593  -2.20481
  Beta  occ. eigenvalues --   -2.20435  -2.20185  -2.20175  -2.19023  -1.15046
  Beta  occ. eigenvalues --   -1.15024  -1.15006  -1.14279  -1.14270  -1.14225
  Beta  occ. eigenvalues --   -1.14199  -1.14160  -1.14132  -1.14122  -1.14095
  Beta  occ. eigenvalues --   -1.14052  -1.13901  -1.13884  -1.13858  -1.13852
  Beta  occ. eigenvalues --   -1.13824  -1.13805  -1.12703  -1.12692  -1.12659
  Beta  occ. eigenvalues --   -0.15695  -0.13347  -0.11622
  Beta virt. eigenvalues --   -0.07486  -0.07194  -0.05723  -0.04102  -0.03065
  Beta virt. eigenvalues --   -0.02699  -0.02322  -0.02011  -0.01305  -0.01097
  Beta virt. eigenvalues --   -0.00724  -0.00288  -0.00070   0.00168   0.00428

 Mulliken charges and spin densities:
               1          2
     1  Na   0.020507  -0.029729
     2  Na   0.482601   0.225761
     3  Na  -0.633188  -0.104064
     4  Na   0.076080   0.132369
     5  Na   0.212502   0.634367
     6  Na  -0.352007  -0.114669
     7  Na   0.193506   0.255965
 Sum of Mulliken charges =  -0.00000   1.00000

 Dipole moment (field-independent basis, Debye):
    X=             -0.4698    Y=             -0.4197    Z=              0.7229  Tot=              0.9589
 Quadrupole moment (field-independent basis, Debye-Ang):
   XX=            -60.7247   YY=            -73.8901   ZZ=            -66.9027
   XY=              1.7397   XZ=             -4.7124   YZ=              0.8769

 Normal termination of Gaussian 16 at Mon Dec  4 01:16:29 2023.
