 Gaussian 16, Revision B.01,
 Gaussian 16:  ES64L-G16RevB.01 20-Dec-2017

 -------------------------
 #P B3LYP/6-311+g(d) force
 -------------------------

 -----
 DPGEN
 -----
 Symbolic Z-matrix:
 Charge =  0 Multiplicity = 2

                         Standard orientation:
 ---------------------------------------------------------------------
 Center     Atomic      Atomic             Coordinates (Angstroms)
 Number     Number       Type             X           Y           Z
 ---------------------------------------------------------------------
      1         11           0        0.331046   -0.393332    2.340450
      2         11           0       -1.193543   -2.417690   -0.589474
      3         11           0        2.051345   -1.799287   -0.189646
      4         11           0       -0.654118    2.967421    0.000120
      5         11           0        0.156642    0.473411   -1.701034
      6         11           0        2.838215    1.088320   -0.051843
      7         11           0       -3.529586    0.081156    0.191427
 ---------------------------------------------------------------------

 SCF Done:  E(UB3LYP) =  -1136.12888272     A.U. after   20 cycles

 The electronic state is 2-A.
 Alpha  occ. eigenvalues --  -38.44769 -38.44373 -38.44132 -38.43467 -38.43427
 Alpha  occ. eigenvalues --  -38.43243 -38.43134  -2.20519  -2.20215  -2.20021
 Alpha  occ. eigenvalues --   -2.19408  -2.19274  -2.19199  -2.18998  -1.14197
 Alpha  occ. eigenvalues --   -1.14176  -1.14158  -1.13869  -1.13843  -1.13832
 Alpha  occ. eigenvalues --   -1.13753  -1.13672  -1.13650  -1.13124  -1.13093
 Alpha  occ. eigenvalues --   -1.13037  -1.12939  -1.12924  -1.12889  -1.12868
 Alpha  occ. eigenvalues --   -1.12858  -1.12841  -1.12684  -1.12649  -1.12623
 Alpha  occ. eigenvalues --   -0.18597  -0.12968  -0.12171  -0.11238
 Alpha virt. eigenvalues --   -0.06232  -0.04773  -0.04398  -0.03345  -0.03176
 Alpha virt. eigenvalues --   -0.02860  -0.01740  -0.00853  -0.00425  -0.00139
 Alpha virt. eigenvalues --   -0.00054   0.00338   0.00670   0.00786   0.00882

  Beta  occ. eigenvalues --  -38.44772 -38.44267 -38.44125 -38.43468 -38.43368
  Beta  occ. eigenvalues --  -38.43232 -38.43121  -2.20526  -2.20020  -2.20011
  Beta  occ. eigenvalues --   -2.19302  -2.19277  -2.19185  -2.18976  -1.14193
  Beta  occ. eigenvalues --   -1.14183  -1.14163  -1.13755  -1.13734  -1.13706
  Beta  occ. eigenvalues --   -1.13692  -1.13653  -1.13630  -1.13071  -1.13029
  Beta  occ. eigenvalues --   -1.12961  -1.12927  -1.12902  -1.12888  -1.12860
  Beta  occ. eigenvalues --   -1.12850  -1.12783  -1.12662  -1.12623  -1.12609
  Beta  occ. eigenvalues --   -0.17816  -0.12807  -0.11954
  Beta virt. eigenvalues --   -0.07219  -0.06154  -0.04738  -0.04315  -0.02634
  Beta virt. eigenvalues --   -0.02323  -0.01892  -0.01636  -0.00787  -0.00454
  Beta virt. eigenvalues --   -0.00141   0.00096   0.00379   0.00813   0.00867

 Mulliken charges and spin densities:
               1          2
     1  Na  -0.713241   0.669337
     2  Na   0.044234   0.022531
     3  Na   0.476764   0.174968
     4  Na  -0.090634  -0.050996
     5  Na   0.140193   0.210217
     6  Na   0.253068  -0.002162
     7  Na  -0.110385  -0.023896
 Sum of Mulliken charges =  -0.00000   1.00000

 Dipole moment (field-independent basis, Debye):
    X=             -0.3270    Y=              0.2345    Z=              0.4356  Tot=              0.5930
 Quadrupole moment (field-independent basis, Debye-Ang):
   XX=            -55.8746   YY=            -67.5942   ZZ=            -71.6243
   XY=              0.0705   XZ=             -0.9991   YZ=              1.9264

 Normal termination of Gaussian 16 at Thu Dec  7 09:24:16 2023.
