 Gaussian 16, Revision B.01,
 Gaussian 16:  ES64L-G16RevB.01 20-Dec-2017

 -------------------------
 #P B3LYP/6-311+g(d) force
 -------------------------

 -----
 DPGEN
 -----
 Symbolic Z-matrix:
 Charge =  0 Multiplicity = 2

                         Standard orientation:
 ---------------------------------------------------------------------
 Center     Atomic      Atomic             Coordinates (Angstroms)
 Number     Number       Type             X           Y           Z
 ---------------------------------------------------------------------
      1         11           0       -0.417833    0.173218    1.888001
      2         11           0        0.875434   -2.519613    0.146032
      3         11           0       -2.066041   -2.001653   -0.024283
      4         11           0       -2.774931    1.575150   -0.281346
      5         11           0        3.333748   -0.169898   -0.154526
      6         11           0       -0.049655    0.134894   -1.806395
      7         11           0        1.099277    2.807901    0.232517
 ---------------------------------------------------------------------

 SCF Done:  E(UB3LYP) =  -1136.13623083     A.U. after   19 cycles

 The electronic state is 2-A.
 Alpha  occ. eigenvalues --  -38.44139 -38.44040 -38.43838 -38.43484 -38.43392
 Alpha  occ. eigenvalues --  -38.43372 -38.43037  -2.19932  -2.19862  -2.19647
 Alpha  occ. eigenvalues --   -2.19407  -2.19331  -2.19308  -2.18963  -1.13604
 Alpha  occ. eigenvalues --   -1.13598  -1.13572  -1.13539  -1.13525  -1.13496
 Alpha  occ. eigenvalues --   -1.13333  -1.13320  -1.13267  -1.13156  -1.13073
 Alpha  occ. eigenvalues --   -1.13056  -1.13008  -1.12972  -1.12961  -1.12941
 Alpha  occ. eigenvalues --   -1.12931  -1.12923  -1.12633  -1.12613  -1.12592
 Alpha  occ. eigenvalues --   -0.18768  -0.12889  -0.12581  -0.10783
 Alpha virt. eigenvalues --   -0.05865  -0.05112  -0.04554  -0.03079  -0.03012
 Alpha virt. eigenvalues --   -0.02535  -0.01630  -0.01139  -0.00453  -0.00122
 Alpha virt. eigenvalues --   -0.00020   0.00347   0.00808   0.00850   0.00928

  Beta  occ. eigenvalues --  -38.44140 -38.44032 -38.43832 -38.43476 -38.43317
  Beta  occ. eigenvalues --  -38.43288 -38.43029  -2.19936  -2.19850  -2.19638
  Beta  occ. eigenvalues --   -2.19397  -2.19193  -2.19153  -2.18954  -1.13605
  Beta  occ. eigenvalues --   -1.13591  -1.13576  -1.13522  -1.13506  -1.13489
  Beta  occ. eigenvalues --   -1.13320  -1.13300  -1.13265  -1.13149  -1.13052
  Beta  occ. eigenvalues --   -1.13018  -1.12924  -1.12873  -1.12865  -1.12839
  Beta  occ. eigenvalues --   -1.12825  -1.12810  -1.12628  -1.12599  -1.12564
  Beta  occ. eigenvalues --   -0.18019  -0.12672  -0.12313
  Beta virt. eigenvalues --   -0.06866  -0.05839  -0.05065  -0.04538  -0.02346
  Beta virt. eigenvalues --   -0.02200  -0.01548  -0.01482  -0.01058  -0.00501
  Beta virt. eigenvalues --   -0.00168   0.00115   0.00372   0.00822   0.00888

 Mulliken charges and spin densities:
               1          2
     1  Na  -0.262441   0.639570
     2  Na   0.031013  -0.023680
     3  Na   0.410957   0.021310
     4  Na   0.188212  -0.106604
     5  Na  -0.008805  -0.065586
     6  Na  -0.331004   0.681743
     7  Na  -0.027932  -0.146754
 Sum of Mulliken charges =  -0.00000   1.00000

 Dipole moment (field-independent basis, Debye):
    X=             -0.0115    Y=              0.4696    Z=             -0.0240  Tot=              0.4704
 Quadrupole moment (field-independent basis, Debye-Ang):
   XX=            -55.7151   YY=            -63.4582   ZZ=            -74.2110
   XY=             -0.1664   XZ=              0.6084   YZ=             -0.0996

 Normal termination of Gaussian 16 at Thu Dec  7 09:47:27 2023.
