 Gaussian 16, Revision B.01,
 Gaussian 16:  ES64L-G16RevB.01 20-Dec-2017

 -------------------------
 #P B3LYP/6-311+g(d) force
 -------------------------

 -----
 DPGEN
 -----
 Symbolic Z-matrix:
 Charge =  0 Multiplicity = 2

                         Standard orientation:
 ---------------------------------------------------------------------
 Center     Atomic      Atomic             Coordinates (Angstroms)
 Number     Number       Type             X           Y           Z
 ---------------------------------------------------------------------
      1         11           0       -3.728375   -0.811051   -0.681833
      2         11           0        0.025948   -1.247115   -1.097759
      3         11           0       -1.680022    1.682999   -0.036743
      4         11           0        3.261318   -1.614330   -0.200756
      5         11           0       -1.191224   -0.647577    1.894229
      6         11           0        1.703624    0.917073    1.455857
      7         11           0        1.608731    1.720001   -1.332994
 ---------------------------------------------------------------------

 SCF Done:  E(UB3LYP) =  -1136.12214860     A.U. after   25 cycles

 The electronic state is 2-A.
 Alpha  occ. eigenvalues --  -38.44735 -38.44334 -38.43752 -38.43663 -38.43572
 Alpha  occ. eigenvalues --  -38.43512 -38.43145  -2.20554  -2.20282  -2.19665
 Alpha  occ. eigenvalues --   -2.19631  -2.19499  -2.19333  -2.19086  -1.14230
 Alpha  occ. eigenvalues --   -1.14212  -1.14176  -1.13991  -1.13930  -1.13870
 Alpha  occ. eigenvalues --   -1.13465  -1.13386  -1.13360  -1.13305  -1.13260
 Alpha  occ. eigenvalues --   -1.13222  -1.13160  -1.13092  -1.13064  -1.13006
 Alpha  occ. eigenvalues --   -1.12984  -1.12971  -1.12798  -1.12766  -1.12674
 Alpha  occ. eigenvalues --   -0.19115  -0.14165  -0.11538  -0.10952
 Alpha virt. eigenvalues --   -0.06688  -0.05036  -0.04526  -0.03156  -0.02616
 Alpha virt. eigenvalues --   -0.02372  -0.02179  -0.01155  -0.00613   0.00046
 Alpha virt. eigenvalues --    0.00152   0.00339   0.00382   0.00738   0.00794

  Beta  occ. eigenvalues --  -38.44721 -38.44253 -38.43730 -38.43631 -38.43531
  Beta  occ. eigenvalues --  -38.43514 -38.43132  -2.20528  -2.20135  -2.19629
  Beta  occ. eigenvalues --   -2.19576  -2.19424  -2.19340  -2.19067  -1.14211
  Beta  occ. eigenvalues --   -1.14188  -1.14161  -1.13897  -1.13830  -1.13747
  Beta  occ. eigenvalues --   -1.13416  -1.13351  -1.13312  -1.13258  -1.13236
  Beta  occ. eigenvalues --   -1.13189  -1.13100  -1.13043  -1.13013  -1.13007
  Beta  occ. eigenvalues --   -1.12983  -1.12974  -1.12782  -1.12722  -1.12663
  Beta  occ. eigenvalues --   -0.18332  -0.13984  -0.10781
  Beta virt. eigenvalues --   -0.07477  -0.06473  -0.04997  -0.03850  -0.02831
  Beta virt. eigenvalues --   -0.02343  -0.01792  -0.01626  -0.01044  -0.00248
  Beta virt. eigenvalues --    0.00101   0.00188   0.00365   0.00587   0.00763

 Mulliken charges and spin densities:
               1          2
     1  Na   0.702473  -0.000345
     2  Na  -0.509499   0.397322
     3  Na  -0.497313   0.314545
     4  Na  -0.215962  -0.107160
     5  Na  -0.072885   0.099044
     6  Na   0.491445   0.196175
     7  Na   0.101741   0.100418
 Sum of Mulliken charges =  -0.00000   1.00000

 Dipole moment (field-independent basis, Debye):
    X=             -0.8330    Y=              0.0458    Z=             -0.0080  Tot=              0.8343
 Quadrupole moment (field-independent basis, Debye-Ang):
   XX=            -49.5951   YY=            -76.4823   ZZ=            -67.8967
   XY=              1.9607   XZ=              1.7901   YZ=             -1.9639

 Normal termination of Gaussian 16 at Tue Dec  5 12:05:28 2023.
