 Gaussian 16, Revision B.01,
 Gaussian 16:  ES64L-G16RevB.01 20-Dec-2017

 -------------------------
 #P B3LYP/6-311+g(d) force
 -------------------------

 -----
 DPGEN
 -----
 Symbolic Z-matrix:
 Charge =  0 Multiplicity = 2

                         Standard orientation:
 ---------------------------------------------------------------------
 Center     Atomic      Atomic             Coordinates (Angstroms)
 Number     Number       Type             X           Y           Z
 ---------------------------------------------------------------------
      1         11           0       -4.400375    0.963406    0.901146
      2         11           0        1.023822    1.010982   -0.995403
      3         11           0       -1.241465    3.029614   -0.878000
      4         11           0       -3.561098   -2.109081    0.372300
      5         11           0        3.789022   -1.302954   -0.646358
      6         11           0       -0.087700   -2.523324   -0.457477
      7         11           0        4.477795    0.931357    1.703792
 ---------------------------------------------------------------------

 SCF Done:  E(UB3LYP) =  -1136.11075473     A.U. after   22 cycles

 The electronic state is 2-A.
 Alpha  occ. eigenvalues --  -38.45709 -38.45297 -38.45130 -38.44394 -38.43684
 Alpha  occ. eigenvalues --  -38.43620 -38.42558  -2.21503  -2.21077  -2.20919
 Alpha  occ. eigenvalues --   -2.20174  -2.19473  -2.19472  -2.18366  -1.15144
 Alpha  occ. eigenvalues --   -1.15142  -1.15119  -1.14737  -1.14732  -1.14690
 Alpha  occ. eigenvalues --   -1.14604  -1.14580  -1.14565  -1.13846  -1.13844
 Alpha  occ. eigenvalues --   -1.13773  -1.13155  -1.13149  -1.13145  -1.13137
 Alpha  occ. eigenvalues --   -1.13123  -1.13116  -1.12057  -1.12020  -1.11997
 Alpha  occ. eigenvalues --   -0.16335  -0.14209  -0.11787  -0.11517
 Alpha virt. eigenvalues --   -0.06917  -0.05348  -0.04617  -0.03512  -0.03059
 Alpha virt. eigenvalues --   -0.02556  -0.02185  -0.01441  -0.00815  -0.00786
 Alpha virt. eigenvalues --   -0.00421  -0.00199  -0.00089   0.00327   0.00553

  Beta  occ. eigenvalues --  -38.45621 -38.45235 -38.45137 -38.44338 -38.43691
  Beta  occ. eigenvalues --  -38.43589 -38.42559  -2.21338  -2.20963  -2.20937
  Beta  occ. eigenvalues --   -2.20069  -2.19488  -2.19417  -2.18370  -1.15032
  Beta  occ. eigenvalues --   -1.15025  -1.15012  -1.14659  -1.14654  -1.14620
  Beta  occ. eigenvalues --   -1.14610  -1.14598  -1.14535  -1.13774  -1.13770
  Beta  occ. eigenvalues --   -1.13708  -1.13159  -1.13157  -1.13122  -1.13116
  Beta  occ. eigenvalues --   -1.13089  -1.13077  -1.12051  -1.12024  -1.11998
  Beta  occ. eigenvalues --   -0.15654  -0.13482  -0.11382
  Beta virt. eigenvalues --   -0.08362  -0.06456  -0.05019  -0.04350  -0.03110
  Beta virt. eigenvalues --   -0.02730  -0.02288  -0.01883  -0.01191  -0.00672
  Beta virt. eigenvalues --   -0.00529  -0.00189  -0.00050   0.00070   0.00418

 Mulliken charges and spin densities:
               1          2
     1  Na  -0.001142   0.285966
     2  Na  -1.729009   0.151083
     3  Na   0.367338  -0.148250
     4  Na  -0.063174   0.136331
     5  Na   0.839156  -0.002632
     6  Na   0.265817   0.136541
     7  Na   0.321016   0.440961
 Sum of Mulliken charges =  -0.00000   1.00000

 Dipole moment (field-independent basis, Debye):
    X=              1.4424    Y=             -0.2551    Z=              1.0546  Tot=              1.8050
 Quadrupole moment (field-independent basis, Debye-Ang):
   XX=            -54.4652   YY=            -71.1058   ZZ=            -68.8101
   XY=             -4.0068   XZ=             -0.5892   YZ=              6.4534

 Normal termination of Gaussian 16 at Sun Dec  3 16:58:26 2023.
