 Gaussian 16, Revision B.01,
 Gaussian 16:  ES64L-G16RevB.01 20-Dec-2017

 -------------------------
 #P B3LYP/6-311+g(d) force
 -------------------------

 -----
 DPGEN
 -----
 Symbolic Z-matrix:
 Charge =  0 Multiplicity = 2

                         Standard orientation:
 ---------------------------------------------------------------------
 Center     Atomic      Atomic             Coordinates (Angstroms)
 Number     Number       Type             X           Y           Z
 ---------------------------------------------------------------------
      1         11           0        3.001493   -1.058946   -0.016291
      2         11           0       -1.771012    2.256235   -0.147267
      3         11           0        2.114118    1.994003   -0.207001
      4         11           0        0.250239    0.373314    1.735688
      5         11           0        0.106445   -0.605845   -1.680860
      6         11           0       -3.074362   -0.439169   -0.068738
      7         11           0       -0.626922   -2.519592    0.384470
 ---------------------------------------------------------------------

 SCF Done:  E(UB3LYP) =  -1136.13032741     A.U. after   19 cycles

 The electronic state is 2-A.
 Alpha  occ. eigenvalues --  -38.44436 -38.44299 -38.43714 -38.43322 -38.43301
 Alpha  occ. eigenvalues --  -38.43101 -38.42998  -2.20299  -2.20197  -2.19603
 Alpha  occ. eigenvalues --   -2.19300  -2.19205  -2.19097  -2.18940  -1.13982
 Alpha  occ. eigenvalues --   -1.13961  -1.13937  -1.13908  -1.13848  -1.13840
 Alpha  occ. eigenvalues --   -1.13310  -1.13259  -1.13231  -1.13079  -1.12949
 Alpha  occ. eigenvalues --   -1.12903  -1.12892  -1.12860  -1.12843  -1.12774
 Alpha  occ. eigenvalues --   -1.12739  -1.12698  -1.12599  -1.12577  -1.12543
 Alpha  occ. eigenvalues --   -0.19270  -0.13801  -0.12225  -0.10663
 Alpha virt. eigenvalues --   -0.06082  -0.05278  -0.04098  -0.03446  -0.02704
 Alpha virt. eigenvalues --   -0.02195  -0.01884  -0.00993  -0.00214  -0.00102
 Alpha virt. eigenvalues --    0.00011   0.00351   0.00772   0.00898   0.00927

  Beta  occ. eigenvalues --  -38.44430 -38.44295 -38.43706 -38.43317 -38.43236
  Beta  occ. eigenvalues --  -38.43020 -38.42983  -2.20292  -2.20194  -2.19593
  Beta  occ. eigenvalues --   -2.19199  -2.19180  -2.18949  -2.18918  -1.13979
  Beta  occ. eigenvalues --   -1.13940  -1.13925  -1.13909  -1.13847  -1.13814
  Beta  occ. eigenvalues --   -1.13299  -1.13231  -1.13225  -1.13004  -1.12895
  Beta  occ. eigenvalues --   -1.12866  -1.12844  -1.12827  -1.12807  -1.12681
  Beta  occ. eigenvalues --   -1.12637  -1.12598  -1.12570  -1.12533  -1.12516
  Beta  occ. eigenvalues --   -0.18534  -0.13539  -0.11984
  Beta virt. eigenvalues --   -0.06735  -0.06023  -0.05272  -0.04076  -0.02620
  Beta virt. eigenvalues --   -0.01951  -0.01789  -0.01168  -0.00944  -0.00246
  Beta virt. eigenvalues --   -0.00134   0.00155   0.00382   0.00820   0.00906

 Mulliken charges and spin densities:
               1          2
     1  Na   0.314155  -0.033911
     2  Na   0.115004  -0.067998
     3  Na   0.083325  -0.059894
     4  Na  -0.449100   0.606406
     5  Na  -0.546095   0.579498
     6  Na   0.093176   0.003662
     7  Na   0.389535  -0.027762
 Sum of Mulliken charges =  -0.00000   1.00000

 Dipole moment (field-independent basis, Debye):
    X=              0.3557    Y=             -0.0713    Z=             -0.0251  Tot=              0.3636
 Quadrupole moment (field-independent basis, Debye-Ang):
   XX=            -52.2712   YY=            -66.4426   ZZ=            -74.7369
   XY=             -0.1422   XZ=             -0.1564   YZ=             -2.0555

 Normal termination of Gaussian 16 at Thu Dec  7 17:42:16 2023.
