 Gaussian 16, Revision B.01,
 Gaussian 16:  ES64L-G16RevB.01 20-Dec-2017

 -------------------------
 #P B3LYP/6-311+g(d) force
 -------------------------

 -----
 DPGEN
 -----
 Symbolic Z-matrix:
 Charge =  0 Multiplicity = 2

                         Standard orientation:
 ---------------------------------------------------------------------
 Center     Atomic      Atomic             Coordinates (Angstroms)
 Number     Number       Type             X           Y           Z
 ---------------------------------------------------------------------
      1         11           0        0.623003   -0.029137   -1.653361
      2         11           0        3.198870    0.908947    0.185024
      3         11           0       -0.261272    2.935231   -0.242678
      4         11           0       -3.100127    0.714977   -0.202598
      5         11           0        2.076352   -2.439725   -0.075510
      6         11           0       -2.363971   -2.189922   -0.112870
      7         11           0       -0.172855    0.099629    2.101993
 ---------------------------------------------------------------------

 SCF Done:  E(UB3LYP) =  -1136.13082338     A.U. after   19 cycles

 The electronic state is 2-A.
 Alpha  occ. eigenvalues --  -38.44967 -38.44195 -38.43900 -38.43816 -38.43720
 Alpha  occ. eigenvalues --  -38.43464 -38.42978  -2.20773  -2.20048  -2.19717
 Alpha  occ. eigenvalues --   -2.19642  -2.19568  -2.19395  -2.18806  -1.14459
 Alpha  occ. eigenvalues --   -1.14433  -1.14401  -1.13782  -1.13705  -1.13681
 Alpha  occ. eigenvalues --   -1.13421  -1.13372  -1.13349  -1.13309  -1.13291
 Alpha  occ. eigenvalues --   -1.13274  -1.13233  -1.13194  -1.13185  -1.13075
 Alpha  occ. eigenvalues --   -1.13032  -1.13022  -1.12488  -1.12467  -1.12442
 Alpha  occ. eigenvalues --   -0.18184  -0.13516  -0.11896  -0.10532
 Alpha virt. eigenvalues --   -0.06241  -0.05484  -0.04427  -0.03462  -0.02600
 Alpha virt. eigenvalues --   -0.02525  -0.01914  -0.01177  -0.00695  -0.00456
 Alpha virt. eigenvalues --   -0.00048   0.00338   0.00710   0.00771   0.00785

  Beta  occ. eigenvalues --  -38.44964 -38.44192 -38.43897 -38.43816 -38.43621
  Beta  occ. eigenvalues --  -38.43407 -38.42973  -2.20770  -2.20043  -2.19714
  Beta  occ. eigenvalues --   -2.19643  -2.19385  -2.19291  -2.18799  -1.14448
  Beta  occ. eigenvalues --   -1.14419  -1.14402  -1.13783  -1.13683  -1.13680
  Beta  occ. eigenvalues --   -1.13411  -1.13356  -1.13349  -1.13310  -1.13276
  Beta  occ. eigenvalues --   -1.13275  -1.13111  -1.13065  -1.13055  -1.13001
  Beta  occ. eigenvalues --   -1.12956  -1.12947  -1.12480  -1.12446  -1.12439
  Beta  occ. eigenvalues --   -0.17480  -0.13336  -0.11686
  Beta virt. eigenvalues --   -0.06651  -0.06152  -0.05456  -0.04397  -0.02699
  Beta virt. eigenvalues --   -0.01894  -0.01806  -0.01476  -0.01098  -0.00748
  Beta virt. eigenvalues --   -0.00492   0.00122   0.00380   0.00776   0.00815

 Mulliken charges and spin densities:
               1          2
     1  Na  -0.003103   0.478929
     2  Na   0.190383  -0.030336
     3  Na   0.063882  -0.056618
     4  Na   0.098643   0.008589
     5  Na   0.036208  -0.096491
     6  Na   0.025326  -0.078741
     7  Na  -0.411339   0.774669
 Sum of Mulliken charges =  -0.00000   1.00000

 Dipole moment (field-independent basis, Debye):
    X=              0.6258    Y=             -0.0339    Z=              0.1396  Tot=              0.6421
 Quadrupole moment (field-independent basis, Debye-Ang):
   XX=            -53.9041   YY=            -64.4412   ZZ=            -75.6875
   XY=              0.2715   XZ=              1.7160   YZ=             -0.1559

 Normal termination of Gaussian 16 at Fri Dec  8 02:45:24 2023.
