 Gaussian 16, Revision B.01,
 Gaussian 16:  ES64L-G16RevB.01 20-Dec-2017

 -------------------------
 #P B3LYP/6-311+g(d) force
 -------------------------

 -----
 DPGEN
 -----
 Symbolic Z-matrix:
 Charge =  0 Multiplicity = 2

                         Standard orientation:
 ---------------------------------------------------------------------
 Center     Atomic      Atomic             Coordinates (Angstroms)
 Number     Number       Type             X           Y           Z
 ---------------------------------------------------------------------
      1         11           0        0.745965   -1.943898    0.248206
      2         11           0       -1.297024    3.388767   -0.112849
      3         11           0       -3.838543   -1.131610    0.747260
      4         11           0       -1.516624   -1.125247   -1.318759
      5         11           0        0.491976    0.938593   -0.505304
      6         11           0        3.319953   -0.327609   -0.967863
      7         11           0        2.094298    0.201004    1.909310
 ---------------------------------------------------------------------

 SCF Done:  E(UB3LYP) =  -1136.09550832     A.U. after   26 cycles

 The electronic state is 2-A.
 Alpha  occ. eigenvalues --  -38.45734 -38.45448 -38.44324 -38.44253 -38.43688
 Alpha  occ. eigenvalues --  -38.42856 -38.42449  -2.21625  -2.21228  -2.20364
 Alpha  occ. eigenvalues --   -2.20232  -2.19664  -2.18649  -2.18603  -1.15315
 Alpha  occ. eigenvalues --   -1.15273  -1.15264  -1.14904  -1.14862  -1.14856
 Alpha  occ. eigenvalues --   -1.14164  -1.14140  -1.13950  -1.13897  -1.13851
 Alpha  occ. eigenvalues --   -1.13794  -1.13398  -1.13278  -1.13268  -1.12404
 Alpha  occ. eigenvalues --   -1.12307  -1.12301  -1.12279  -1.12275  -1.12154
 Alpha  occ. eigenvalues --   -0.19201  -0.13886  -0.11352  -0.10746
 Alpha virt. eigenvalues --   -0.07424  -0.05097  -0.04200  -0.03265  -0.02739
 Alpha virt. eigenvalues --   -0.02246  -0.01868  -0.00915  -0.00791  -0.00031
 Alpha virt. eigenvalues --    0.00050   0.00088   0.00315   0.00575   0.00733

  Beta  occ. eigenvalues --  -38.45724 -38.45414 -38.44300 -38.44173 -38.43663
  Beta  occ. eigenvalues --  -38.42863 -38.42415  -2.21610  -2.21163  -2.20330
  Beta  occ. eigenvalues --   -2.20083  -2.19623  -2.18664  -2.18549  -1.15310
  Beta  occ. eigenvalues --   -1.15257  -1.15225  -1.14862  -1.14817  -1.14813
  Beta  occ. eigenvalues --   -1.14137  -1.14069  -1.13902  -1.13810  -1.13748
  Beta  occ. eigenvalues --   -1.13696  -1.13361  -1.13255  -1.13211  -1.12402
  Beta  occ. eigenvalues --   -1.12310  -1.12302  -1.12256  -1.12211  -1.12106
  Beta  occ. eigenvalues --   -0.18412  -0.13595  -0.11245
  Beta virt. eigenvalues --   -0.07107  -0.06812  -0.04989  -0.03650  -0.03176
  Beta virt. eigenvalues --   -0.02576  -0.01487  -0.01461  -0.00785  -0.00371
  Beta virt. eigenvalues --    0.00072   0.00105   0.00149   0.00488   0.00618

 Mulliken charges and spin densities:
               1          2
     1  Na   0.150390   0.486627
     2  Na   0.805769  -0.173593
     3  Na  -0.081977   0.168573
     4  Na   0.881638  -0.178330
     5  Na  -2.641830   0.583694
     6  Na   1.022678  -0.119100
     7  Na  -0.136668   0.232129
 Sum of Mulliken charges =  -0.00000   1.00000

 Dipole moment (field-independent basis, Debye):
    X=              0.5246    Y=             -0.7923    Z=              0.1979  Tot=              0.9706
 Quadrupole moment (field-independent basis, Debye-Ang):
   XX=            -46.7715   YY=            -74.6818   ZZ=            -69.6081
   XY=             -0.9139   XZ=             -6.2833   YZ=              0.5789

 Normal termination of Gaussian 16 at Fri Dec  8 19:42:11 2023.
