 Gaussian 16, Revision B.01,
 Gaussian 16:  ES64L-G16RevB.01 20-Dec-2017

 -------------------------
 #P B3LYP/6-311+g(d) force
 -------------------------

 -----
 DPGEN
 -----
 Symbolic Z-matrix:
 Charge =  0 Multiplicity = 2

                         Standard orientation:
 ---------------------------------------------------------------------
 Center     Atomic      Atomic             Coordinates (Angstroms)
 Number     Number       Type             X           Y           Z
 ---------------------------------------------------------------------
      1         11           0        0.118701    0.187091   -1.639515
      2         11           0       -2.609166    2.174783   -0.243163
      3         11           0        0.555985   -0.171715    2.021296
      4         11           0        2.327208    2.610721    0.154230
      5         11           0       -3.111553   -0.819004    0.283888
      6         11           0       -0.184830   -2.812239   -0.205731
      7         11           0        2.903654   -1.169636   -0.371005
 ---------------------------------------------------------------------

 SCF Done:  E(UB3LYP) =  -1136.13105908     A.U. after   21 cycles

 The electronic state is 2-A.
 Alpha  occ. eigenvalues --  -38.44524 -38.44126 -38.44107 -38.44006 -38.43709
 Alpha  occ. eigenvalues --  -38.43474 -38.42932  -2.20370  -2.19965  -2.19917
 Alpha  occ. eigenvalues --   -2.19771  -2.19576  -2.19392  -2.18803  -1.14056
 Alpha  occ. eigenvalues --   -1.14040  -1.13985  -1.13726  -1.13628  -1.13610
 Alpha  occ. eigenvalues --   -1.13573  -1.13553  -1.13515  -1.13443  -1.13433
 Alpha  occ. eigenvalues --   -1.13415  -1.13246  -1.13218  -1.13179  -1.13084
 Alpha  occ. eigenvalues --   -1.13028  -1.13017  -1.12488  -1.12462  -1.12440
 Alpha  occ. eigenvalues --   -0.18222  -0.13398  -0.11932  -0.10541
 Alpha virt. eigenvalues --   -0.06081  -0.05706  -0.04449  -0.03291  -0.02647
 Alpha virt. eigenvalues --   -0.02489  -0.01801  -0.01364  -0.00790  -0.00362
 Alpha virt. eigenvalues --   -0.00049   0.00323   0.00691   0.00752   0.00834

  Beta  occ. eigenvalues --  -38.44511 -38.44123 -38.44106 -38.44006 -38.43619
  Beta  occ. eigenvalues --  -38.43410 -38.42925  -2.20350  -2.19962  -2.19917
  Beta  occ. eigenvalues --   -2.19773  -2.19410  -2.19277  -2.18795  -1.14036
  Beta  occ. eigenvalues --   -1.14007  -1.13972  -1.13728  -1.13616  -1.13604
  Beta  occ. eigenvalues --   -1.13562  -1.13554  -1.13516  -1.13436  -1.13429
  Beta  occ. eigenvalues --   -1.13417  -1.13136  -1.13104  -1.13057  -1.13005
  Beta  occ. eigenvalues --   -1.12942  -1.12931  -1.12483  -1.12446  -1.12417
  Beta  occ. eigenvalues --   -0.17504  -0.13212  -0.11716
  Beta virt. eigenvalues --   -0.06672  -0.06041  -0.05570  -0.04417  -0.02607
  Beta virt. eigenvalues --   -0.01966  -0.01706  -0.01506  -0.01195  -0.00825
  Beta virt. eigenvalues --   -0.00401   0.00119   0.00361   0.00745   0.00792

 Mulliken charges and spin densities:
               1          2
     1  Na  -0.007804   0.349633
     2  Na   0.076491  -0.064097
     3  Na  -0.358868   0.712055
     4  Na  -0.148402  -0.100957
     5  Na  -0.014796   0.030228
     6  Na   0.074090   0.060087
     7  Na   0.379289   0.013051
 Sum of Mulliken charges =  -0.00000   1.00000

 Dipole moment (field-independent basis, Debye):
    X=              0.2442    Y=              0.1382    Z=              0.0576  Tot=              0.2864
 Quadrupole moment (field-independent basis, Debye-Ang):
   XX=            -55.2413   YY=            -62.8693   ZZ=            -75.6704
   XY=             -0.2805   XZ=             -1.1944   YZ=              0.3837

 Normal termination of Gaussian 16 at Thu Dec  7 19:33:49 2023.
