 Gaussian 16, Revision B.01,
 Gaussian 16:  ES64L-G16RevB.01 20-Dec-2017

 -------------------------
 #P B3LYP/6-311+g(d) force
 -------------------------

 -----
 DPGEN
 -----
 Symbolic Z-matrix:
 Charge =  0 Multiplicity = 2

                         Standard orientation:
 ---------------------------------------------------------------------
 Center     Atomic      Atomic             Coordinates (Angstroms)
 Number     Number       Type             X           Y           Z
 ---------------------------------------------------------------------
      1         11           0        1.311973    1.525640   -1.073917
      2         11           0       -0.558884   -0.819341   -1.856875
      3         11           0       -0.700425   -0.220016    1.299866
      4         11           0        2.756440    0.718916    1.840174
      5         11           0        3.271376   -1.701764   -0.576359
      6         11           0       -2.339147    2.018031   -0.379212
      7         11           0       -3.741333   -1.521466    0.746324
 ---------------------------------------------------------------------

 SCF Done:  E(UB3LYP) =  -1136.11958030     A.U. after   26 cycles

 The electronic state is 2-A.
 Alpha  occ. eigenvalues --  -38.44957 -38.44739 -38.44214 -38.43949 -38.43799
 Alpha  occ. eigenvalues --  -38.43236 -38.42870  -2.20739  -2.20566  -2.20118
 Alpha  occ. eigenvalues --   -2.19799  -2.19735  -2.19029  -2.18795  -1.14411
 Alpha  occ. eigenvalues --   -1.14384  -1.14373  -1.14276  -1.14218  -1.14159
 Alpha  occ. eigenvalues --   -1.13850  -1.13752  -1.13713  -1.13467  -1.13461
 Alpha  occ. eigenvalues --   -1.13454  -1.13415  -1.13396  -1.13331  -1.12699
 Alpha  occ. eigenvalues --   -1.12696  -1.12667  -1.12508  -1.12478  -1.12384
 Alpha  occ. eigenvalues --   -0.18390  -0.13928  -0.11425  -0.10695
 Alpha virt. eigenvalues --   -0.06563  -0.05654  -0.04671  -0.03147  -0.02484
 Alpha virt. eigenvalues --   -0.02416  -0.02206  -0.01489  -0.00711  -0.00163
 Alpha virt. eigenvalues --    0.00083   0.00184   0.00315   0.00492   0.00504

  Beta  occ. eigenvalues --  -38.44928 -38.44722 -38.44158 -38.43904 -38.43774
  Beta  occ. eigenvalues --  -38.43241 -38.42856  -2.20686  -2.20534  -2.20014
  Beta  occ. eigenvalues --   -2.19717  -2.19693  -2.19038  -2.18776  -1.14376
  Beta  occ. eigenvalues --   -1.14342  -1.14332  -1.14246  -1.14195  -1.14140
  Beta  occ. eigenvalues --   -1.13786  -1.13676  -1.13630  -1.13410  -1.13406
  Beta  occ. eigenvalues --   -1.13401  -1.13366  -1.13357  -1.13292  -1.12705
  Beta  occ. eigenvalues --   -1.12699  -1.12673  -1.12494  -1.12429  -1.12375
  Beta  occ. eigenvalues --   -0.17663  -0.13739  -0.10580
  Beta virt. eigenvalues --   -0.07585  -0.06252  -0.05300  -0.04260  -0.02685
  Beta virt. eigenvalues --   -0.02312  -0.02037  -0.01667  -0.01212  -0.00434
  Beta virt. eigenvalues --   -0.00050   0.00125   0.00359   0.00412   0.00555

 Mulliken charges and spin densities:
               1          2
     1  Na   0.173573   0.467695
     2  Na  -0.141548   0.399863
     3  Na  -1.148188   0.398480
     4  Na   0.581173  -0.229832
     5  Na  -0.117590   0.112783
     6  Na   0.303216  -0.145445
     7  Na   0.349364  -0.003544
 Sum of Mulliken charges =  -0.00000   1.00000

 Dipole moment (field-independent basis, Debye):
    X=              0.1820    Y=              0.4814    Z=             -0.6947  Tot=              0.8645
 Quadrupole moment (field-independent basis, Debye-Ang):
   XX=            -55.0206   YY=            -67.3316   ZZ=            -73.3867
   XY=             -4.5903   XZ=              1.8379   YZ=              5.6936

 Normal termination of Gaussian 16 at Thu Dec  7 07:27:23 2023.
