 Gaussian 16, Revision B.01,
 Gaussian 16:  ES64L-G16RevB.01 20-Dec-2017

 -------------------------
 #P B3LYP/6-311+g(d) force
 -------------------------

 -----
 DPGEN
 -----
 Symbolic Z-matrix:
 Charge =  0 Multiplicity = 2

                         Standard orientation:
 ---------------------------------------------------------------------
 Center     Atomic      Atomic             Coordinates (Angstroms)
 Number     Number       Type             X           Y           Z
 ---------------------------------------------------------------------
      1         11           0        0.114917   -0.265764   -1.556034
      2         11           0        0.033050    2.892928   -0.635981
      3         11           0        3.174445    0.509295   -0.132289
      4         11           0       -2.175894   -2.367989   -0.422401
      5         11           0        1.459914   -2.334479    0.237168
      6         11           0       -2.710637    1.275148    0.322246
      7         11           0        0.104205    0.290860    2.187290
 ---------------------------------------------------------------------

 SCF Done:  E(UB3LYP) =  -1136.13686123     A.U. after   19 cycles

 The electronic state is 2-A.
 Alpha  occ. eigenvalues --  -38.43959 -38.43903 -38.43783 -38.43552 -38.43451
 Alpha  occ. eigenvalues --  -38.43430 -38.43152  -2.19826  -2.19731  -2.19622
 Alpha  occ. eigenvalues --   -2.19451  -2.19281  -2.19266  -2.19161  -1.13489
 Alpha  occ. eigenvalues --   -1.13453  -1.13451  -1.13410  -1.13391  -1.13376
 Alpha  occ. eigenvalues --   -1.13294  -1.13291  -1.13259  -1.13204  -1.13115
 Alpha  occ. eigenvalues --   -1.13049  -1.12991  -1.12962  -1.12928  -1.12918
 Alpha  occ. eigenvalues --   -1.12907  -1.12905  -1.12832  -1.12790  -1.12756
 Alpha  occ. eigenvalues --   -0.18601  -0.12955  -0.12379  -0.11016
 Alpha virt. eigenvalues --   -0.05441  -0.05109  -0.04710  -0.03327  -0.02888
 Alpha virt. eigenvalues --   -0.02752  -0.01483  -0.01104  -0.00338  -0.00181
 Alpha virt. eigenvalues --   -0.00011   0.00356   0.00811   0.00887   0.00901

  Beta  occ. eigenvalues --  -38.43902 -38.43858 -38.43778 -38.43544 -38.43447
  Beta  occ. eigenvalues --  -38.43415 -38.43095  -2.19731  -2.19639  -2.19614
  Beta  occ. eigenvalues --   -2.19440  -2.19261  -2.19257  -2.19059  -1.13411
  Beta  occ. eigenvalues --   -1.13384  -1.13371  -1.13365  -1.13326  -1.13319
  Beta  occ. eigenvalues --   -1.13284  -1.13264  -1.13253  -1.13189  -1.13084
  Beta  occ. eigenvalues --   -1.13043  -1.12962  -1.12946  -1.12909  -1.12904
  Beta  occ. eigenvalues --   -1.12902  -1.12890  -1.12763  -1.12722  -1.12682
  Beta  occ. eigenvalues --   -0.17872  -0.12746  -0.12129
  Beta virt. eigenvalues --   -0.07068  -0.05393  -0.05069  -0.04632  -0.02518
  Beta virt. eigenvalues --   -0.02208  -0.01691  -0.01410  -0.01024  -0.00329
  Beta virt. eigenvalues --   -0.00205   0.00119   0.00382   0.00866   0.00882

 Mulliken charges and spin densities:
               1          2
     1  Na  -0.212772   0.305500
     2  Na   0.086315  -0.002633
     3  Na   0.083286  -0.060644
     4  Na   0.082314  -0.023406
     5  Na   0.276445   0.098022
     6  Na   0.117678   0.064040
     7  Na  -0.433265   0.619121
 Sum of Mulliken charges =  -0.00000   1.00000

 Dipole moment (field-independent basis, Debye):
    X=              0.1420    Y=              0.1185    Z=              0.2679  Tot=              0.3255
 Quadrupole moment (field-independent basis, Debye-Ang):
   XX=            -57.4439   YY=            -63.2652   ZZ=            -73.1261
   XY=              0.7989   XZ=             -0.1961   YZ=             -1.1312

 Normal termination of Gaussian 16 at Thu Dec  7 22:46:17 2023.
