 Gaussian 16, Revision B.01,
 Gaussian 16:  ES64L-G16RevB.01 20-Dec-2017

 -------------------------
 #P B3LYP/6-311+g(d) force
 -------------------------

 -----
 DPGEN
 -----
 Symbolic Z-matrix:
 Charge =  0 Multiplicity = 2

                         Standard orientation:
 ---------------------------------------------------------------------
 Center     Atomic      Atomic             Coordinates (Angstroms)
 Number     Number       Type             X           Y           Z
 ---------------------------------------------------------------------
      1         11           0       -3.023259   -2.474775   -0.574027
      2         11           0        4.565401    1.356548   -0.069276
      3         11           0        0.534845   -3.062651   -0.617305
      4         11           0        3.828764   -1.882512    0.713934
      5         11           0        0.585073    3.215719   -0.053443
      6         11           0       -2.289966    2.748401   -0.664720
      7         11           0       -4.200858    0.099271    1.264837
 ---------------------------------------------------------------------

 SCF Done:  E(UB3LYP) =  -1136.10646700     A.U. after   20 cycles

 The electronic state is 2-A.
 Alpha  occ. eigenvalues --  -38.44967 -38.44869 -38.44701 -38.44628 -38.44191
 Alpha  occ. eigenvalues --  -38.44165 -38.44161  -2.20720  -2.20643  -2.20500
 Alpha  occ. eigenvalues --   -2.20390  -2.20001  -2.19976  -2.19944  -1.14404
 Alpha  occ. eigenvalues --   -1.14392  -1.14378  -1.14298  -1.14284  -1.14259
 Alpha  occ. eigenvalues --   -1.14154  -1.14150  -1.14132  -1.14074  -1.14062
 Alpha  occ. eigenvalues --   -1.14026  -1.13817  -1.13658  -1.13643  -1.13622
 Alpha  occ. eigenvalues --   -1.13606  -1.13603  -1.13595  -1.13556  -1.13532
 Alpha  occ. eigenvalues --   -0.15442  -0.13935  -0.13101  -0.10940
 Alpha virt. eigenvalues --   -0.07479  -0.05029  -0.04510  -0.03522  -0.03391
 Alpha virt. eigenvalues --   -0.02513  -0.02190  -0.01782  -0.01224  -0.00983
 Alpha virt. eigenvalues --   -0.00546  -0.00244  -0.00062   0.00333   0.00621

  Beta  occ. eigenvalues --  -38.44976 -38.44811 -38.44638 -38.44631 -38.44162
  Beta  occ. eigenvalues --  -38.44148 -38.44092  -2.20740  -2.20535  -2.20416
  Beta  occ. eigenvalues --   -2.20370  -2.19964  -2.19944  -2.19807  -1.14422
  Beta  occ. eigenvalues --   -1.14408  -1.14357  -1.14225  -1.14210  -1.14190
  Beta  occ. eigenvalues --   -1.14105  -1.14096  -1.14062  -1.14060  -1.14044
  Beta  occ. eigenvalues --   -1.13992  -1.13776  -1.13637  -1.13616  -1.13599
  Beta  occ. eigenvalues --   -1.13589  -1.13509  -1.13502  -1.13491  -1.13470
  Beta  occ. eigenvalues --   -0.14894  -0.13264  -0.12410
  Beta virt. eigenvalues --   -0.07845  -0.07473  -0.04620  -0.04067  -0.03274
  Beta virt. eigenvalues --   -0.03063  -0.02248  -0.01993  -0.01704  -0.00912
  Beta virt. eigenvalues --   -0.00837  -0.00253  -0.00066   0.00175   0.00343

 Mulliken charges and spin densities:
               1          2
     1  Na   0.010268  -0.025142
     2  Na   0.100335   0.295885
     3  Na  -0.124207   0.344807
     4  Na   0.062241  -0.053446
     5  Na  -0.045915   0.112899
     6  Na  -0.103214   0.002101
     7  Na   0.100492   0.322896
 Sum of Mulliken charges =  -0.00000   1.00000

 Dipole moment (field-independent basis, Debye):
    X=              0.1267    Y=              0.1054    Z=              0.2621  Tot=              0.3096
 Quadrupole moment (field-independent basis, Debye-Ang):
   XX=            -60.1554   YY=            -69.7874   ZZ=            -70.2391
   XY=              0.6257   XZ=              0.6036   YZ=             -0.0521

 Normal termination of Gaussian 16 at Sun Dec  3 12:28:04 2023.
