 Gaussian 16, Revision B.01,
 Gaussian 16:  ES64L-G16RevB.01 20-Dec-2017

 -------------------------
 #P B3LYP/6-311+g(d) force
 -------------------------

 -----
 DPGEN
 -----
 Symbolic Z-matrix:
 Charge =  0 Multiplicity = 2

                         Standard orientation:
 ---------------------------------------------------------------------
 Center     Atomic      Atomic             Coordinates (Angstroms)
 Number     Number       Type             X           Y           Z
 ---------------------------------------------------------------------
      1         11           0       -3.051852   -0.922367   -1.094531
      2         11           0        2.236319    1.668863   -0.704840
      3         11           0        3.816120   -0.256666    1.283208
      4         11           0        1.971438   -1.383280   -1.065387
      5         11           0       -0.311420    0.334952   -0.686591
      6         11           0       -1.815097   -1.113146    1.629998
      7         11           0       -2.845509    1.671644    0.638144
 ---------------------------------------------------------------------

 SCF Done:  E(UB3LYP) =  -1136.08520144     A.U. after   63 cycles

 The electronic state is 2-A.
 Alpha  occ. eigenvalues --  -38.45822 -38.45060 -38.44702 -38.44167 -38.43766
 Alpha  occ. eigenvalues --  -38.43545 -38.43095  -2.21755  -2.20999  -2.20577
 Alpha  occ. eigenvalues --   -2.20129  -2.19734  -2.19485  -2.19302  -1.15479
 Alpha  occ. eigenvalues --   -1.15437  -1.15368  -1.14702  -1.14643  -1.14605
 Alpha  occ. eigenvalues --   -1.14233  -1.14222  -1.14204  -1.13935  -1.13757
 Alpha  occ. eigenvalues --   -1.13754  -1.13520  -1.13369  -1.13328  -1.13190
 Alpha  occ. eigenvalues --   -1.13163  -1.13099  -1.12969  -1.12949  -1.12849
 Alpha  occ. eigenvalues --   -0.19141  -0.15897  -0.11091  -0.10141
 Alpha virt. eigenvalues --   -0.07247  -0.05642  -0.05371  -0.03006  -0.02814
 Alpha virt. eigenvalues --   -0.01973  -0.01819  -0.01081  -0.00817  -0.00442
 Alpha virt. eigenvalues --   -0.00017   0.00107   0.00234   0.00541   0.00595

  Beta  occ. eigenvalues --  -38.45831 -38.45041 -38.44622 -38.44136 -38.43737
  Beta  occ. eigenvalues --  -38.43534 -38.43034  -2.21776  -2.20965  -2.20426
  Beta  occ. eigenvalues --   -2.20082  -2.19686  -2.19465  -2.19199  -1.15496
  Beta  occ. eigenvalues --   -1.15438  -1.15373  -1.14684  -1.14628  -1.14560
  Beta  occ. eigenvalues --   -1.14141  -1.14113  -1.14098  -1.13879  -1.13721
  Beta  occ. eigenvalues --   -1.13691  -1.13465  -1.13321  -1.13294  -1.13177
  Beta  occ. eigenvalues --   -1.13148  -1.13077  -1.12914  -1.12851  -1.12765
  Beta  occ. eigenvalues --   -0.18556  -0.15329  -0.09998
  Beta virt. eigenvalues --   -0.07389  -0.06929  -0.05473  -0.04730  -0.02793
  Beta virt. eigenvalues --   -0.02537  -0.01508  -0.01239  -0.00897  -0.00578
  Beta virt. eigenvalues --   -0.00217   0.00079   0.00210   0.00361   0.00588

 Mulliken charges and spin densities:
               1          2
     1  Na   0.241495  -0.093173
     2  Na   0.407029   0.096867
     3  Na  -0.192148   0.455660
     4  Na   0.700669   0.024752
     5  Na  -1.345331   0.237333
     6  Na   0.048934  -0.003725
     7  Na   0.139353   0.282286
 Sum of Mulliken charges =  -0.00000   1.00000

 Dipole moment (field-independent basis, Debye):
    X=             -0.6965    Y=             -0.4013    Z=              0.1957  Tot=              0.8273
 Quadrupole moment (field-independent basis, Debye-Ang):
   XX=            -53.5148   YY=            -81.4536   ZZ=            -62.8548
   XY=              1.1474   XZ=              3.1216   YZ=              2.0288

 Normal termination of Gaussian 16 at Thu Dec  7 13:29:36 2023.
