 Gaussian 16, Revision B.01,
 Gaussian 16:  ES64L-G16RevB.01 20-Dec-2017

 -------------------------
 #P B3LYP/6-311+g(d) force
 -------------------------

 -----
 DPGEN
 -----
 Symbolic Z-matrix:
 Charge =  0 Multiplicity = 2

                         Standard orientation:
 ---------------------------------------------------------------------
 Center     Atomic      Atomic             Coordinates (Angstroms)
 Number     Number       Type             X           Y           Z
 ---------------------------------------------------------------------
      1         11           0        0.058442    3.123401    0.193050
      2         11           0        5.396866   -0.742891   -1.271812
      3         11           0        2.803411    1.306816    0.222664
      4         11           0        2.811845   -2.146671    1.614208
      5         11           0       -0.542169   -0.092108   -0.089956
      6         11           0       -4.159127   -1.392135   -1.183197
      7         11           0       -6.369268   -0.056412    0.515043
 ---------------------------------------------------------------------

 SCF Done:  E(UB3LYP) =  -1136.11087072     A.U. after   20 cycles

 The electronic state is 2-A.
 Alpha  occ. eigenvalues --  -38.44874 -38.44545 -38.44352 -38.44328 -38.44175
 Alpha  occ. eigenvalues --  -38.43844 -38.43483  -2.20659  -2.20308  -2.20145
 Alpha  occ. eigenvalues --   -2.20136  -2.19936  -2.19695  -2.19324  -1.14333
 Alpha  occ. eigenvalues --   -1.14311  -1.14308  -1.13987  -1.13959  -1.13913
 Alpha  occ. eigenvalues --   -1.13826  -1.13805  -1.13799  -1.13795  -1.13785
 Alpha  occ. eigenvalues --   -1.13769  -1.13605  -1.13598  -1.13546  -1.13404
 Alpha  occ. eigenvalues --   -1.13383  -1.13296  -1.12983  -1.12973  -1.12954
 Alpha  occ. eigenvalues --   -0.16120  -0.13791  -0.12106  -0.10463
 Alpha virt. eigenvalues --   -0.07204  -0.05109  -0.04865  -0.03373  -0.02989
 Alpha virt. eigenvalues --   -0.02450  -0.01964  -0.01593  -0.01490  -0.01047
 Alpha virt. eigenvalues --   -0.00570  -0.00168   0.00225   0.00410   0.00523

  Beta  occ. eigenvalues --  -38.44858 -38.44489 -38.44355 -38.44298 -38.44137
  Beta  occ. eigenvalues --  -38.43821 -38.43464  -2.20628  -2.20203  -2.20153
  Beta  occ. eigenvalues --   -2.20082  -2.19865  -2.19655  -2.19289  -1.14314
  Beta  occ. eigenvalues --   -1.14289  -1.14286  -1.13917  -1.13884  -1.13837
  Beta  occ. eigenvalues --   -1.13812  -1.13804  -1.13791  -1.13788  -1.13743
  Beta  occ. eigenvalues --   -1.13727  -1.13557  -1.13543  -1.13504  -1.13379
  Beta  occ. eigenvalues --   -1.13335  -1.13266  -1.12954  -1.12947  -1.12936
  Beta  occ. eigenvalues --   -0.15571  -0.13600  -0.11798
  Beta virt. eigenvalues --   -0.07264  -0.06414  -0.04914  -0.04507  -0.03199
  Beta virt. eigenvalues --   -0.02778  -0.02133  -0.01615  -0.01429  -0.01270
  Beta virt. eigenvalues --   -0.00764  -0.00279   0.00051   0.00330   0.00531

 Mulliken charges and spin densities:
               1          2
     1  Na   0.400929   0.113775
     2  Na   0.380230   0.156370
     3  Na   0.191113   0.287914
     4  Na   0.270973   0.226652
     5  Na  -1.080829   0.191662
     6  Na  -0.217822  -0.045717
     7  Na   0.055406   0.069343
 Sum of Mulliken charges =  -0.00000   1.00000

 Dipole moment (field-independent basis, Debye):
    X=             -1.2516    Y=              0.1368    Z=              0.1653  Tot=              1.2699
 Quadrupole moment (field-independent basis, Debye-Ang):
   XX=            -59.9735   YY=            -66.9675   ZZ=            -67.3133
   XY=             -6.8756   XZ=             -5.0502   YZ=              3.4069

 Normal termination of Gaussian 16 at Wed Nov 29 03:00:53 2023.
