 Gaussian 16, Revision B.01,
 Gaussian 16:  ES64L-G16RevB.01 20-Dec-2017

 -------------------------
 #P B3LYP/6-311+g(d) force
 -------------------------

 -----
 DPGEN
 -----
 Symbolic Z-matrix:
 Charge =  0 Multiplicity = 2

                         Standard orientation:
 ---------------------------------------------------------------------
 Center     Atomic      Atomic             Coordinates (Angstroms)
 Number     Number       Type             X           Y           Z
 ---------------------------------------------------------------------
      1         11           0        1.258667    1.231747   -1.734772
      2         11           0       -0.037604    0.485150    2.369513
      3         11           0        3.347458   -0.750959    0.516481
      4         11           0        0.781325   -1.986316   -1.017418
      5         11           0       -0.667617    2.994274    0.574972
      6         11           0       -2.310934   -2.452123    0.692236
      7         11           0       -2.371294    0.478227   -1.401012
 ---------------------------------------------------------------------

 SCF Done:  E(UB3LYP) =  -1136.13083923     A.U. after   20 cycles

 The electronic state is 2-A.
 Alpha  occ. eigenvalues --  -38.44791 -38.44327 -38.44131 -38.43909 -38.43463
 Alpha  occ. eigenvalues --  -38.43262 -38.43202  -2.20625  -2.20134  -2.19993
 Alpha  occ. eigenvalues --   -2.19719  -2.19332  -2.19053  -2.19052  -1.14289
 Alpha  occ. eigenvalues --   -1.14252  -1.14244  -1.13822  -1.13794  -1.13745
 Alpha  occ. eigenvalues --   -1.13696  -1.13645  -1.13591  -1.13401  -1.13374
 Alpha  occ. eigenvalues --   -1.13359  -1.13038  -1.13010  -1.12928  -1.12747
 Alpha  occ. eigenvalues --   -1.12718  -1.12716  -1.12703  -1.12694  -1.12688
 Alpha  occ. eigenvalues --   -0.17941  -0.12630  -0.12119  -0.11856
 Alpha virt. eigenvalues --   -0.05469  -0.04904  -0.04679  -0.03676  -0.03377
 Alpha virt. eigenvalues --   -0.03344  -0.01331  -0.00908  -0.00542   0.00118
 Alpha virt. eigenvalues --    0.00157   0.00385   0.00581   0.00717   0.00810

  Beta  occ. eigenvalues --  -38.44693 -38.44296 -38.44081 -38.43906 -38.43454
  Beta  occ. eigenvalues --  -38.43258 -38.43199  -2.20444  -2.20079  -2.19904
  Beta  occ. eigenvalues --   -2.19715  -2.19317  -2.19051  -2.19046  -1.14168
  Beta  occ. eigenvalues --   -1.14125  -1.14115  -1.13772  -1.13759  -1.13706
  Beta  occ. eigenvalues --   -1.13630  -1.13585  -1.13526  -1.13399  -1.13364
  Beta  occ. eigenvalues --   -1.13354  -1.13018  -1.12988  -1.12923  -1.12734
  Beta  occ. eigenvalues --   -1.12712  -1.12705  -1.12705  -1.12690  -1.12671
  Beta  occ. eigenvalues --   -0.17146  -0.12461  -0.11953
  Beta virt. eigenvalues --   -0.07943  -0.05226  -0.04680  -0.04429  -0.03037
  Beta virt. eigenvalues --   -0.02844  -0.02561  -0.01224  -0.00810  -0.00284
  Beta virt. eigenvalues --    0.00094   0.00299   0.00435   0.00692   0.00805

 Mulliken charges and spin densities:
               1          2
     1  Na   0.278186   0.339071
     2  Na  -0.218548   0.735252
     3  Na   0.150568  -0.194781
     4  Na  -0.407311   0.231984
     5  Na   0.082756  -0.123392
     6  Na   0.292542  -0.109775
     7  Na  -0.178194   0.121641
 Sum of Mulliken charges =  -0.00000   1.00000

 Dipole moment (field-independent basis, Debye):
    X=              0.2884    Y=              0.2333    Z=              0.1127  Tot=              0.3878
 Quadrupole moment (field-independent basis, Debye-Ang):
   XX=            -63.0340   YY=            -68.6712   ZZ=            -65.6027
   XY=             -0.6496   XZ=              1.9704   YZ=             -2.6356

 Normal termination of Gaussian 16 at Sun Dec  3 21:03:35 2023.
