 Gaussian 16, Revision B.01,
 Gaussian 16:  ES64L-G16RevB.01 20-Dec-2017

 -------------------------
 #P B3LYP/6-311+g(d) force
 -------------------------

 -----
 DPGEN
 -----
 Symbolic Z-matrix:
 Charge =  0 Multiplicity = 2

                         Standard orientation:
 ---------------------------------------------------------------------
 Center     Atomic      Atomic             Coordinates (Angstroms)
 Number     Number       Type             X           Y           Z
 ---------------------------------------------------------------------
      1         11           0       -3.459554    0.797591   -0.219508
      2         11           0       -1.574859    3.392296    0.186967
      3         11           0        3.411274   -1.076479   -0.655461
      4         11           0        2.992514    2.632334    0.294732
      5         11           0        0.277489    0.204963   -0.167928
      6         11           0       -2.593842   -2.675898   -0.114146
      7         11           0        0.946978   -3.274806    0.675343
 ---------------------------------------------------------------------

 SCF Done:  E(UB3LYP) =  -1136.12636313     A.U. after   21 cycles

 The electronic state is 2-A.
 Alpha  occ. eigenvalues --  -38.44696 -38.44341 -38.44305 -38.44052 -38.43871
 Alpha  occ. eigenvalues --  -38.43722 -38.43256  -2.20499  -2.20177  -2.20129
 Alpha  occ. eigenvalues --   -2.19858  -2.19695  -2.19519  -2.19069  -1.14193
 Alpha  occ. eigenvalues --   -1.14167  -1.14117  -1.13924  -1.13820  -1.13813
 Alpha  occ. eigenvalues --   -1.13811  -1.13787  -1.13778  -1.13541  -1.13515
 Alpha  occ. eigenvalues --   -1.13485  -1.13351  -1.13335  -1.13326  -1.13176
 Alpha  occ. eigenvalues --   -1.13160  -1.13134  -1.12731  -1.12714  -1.12696
 Alpha  occ. eigenvalues --   -0.16802  -0.13861  -0.13022  -0.09900
 Alpha virt. eigenvalues --   -0.06561  -0.05810  -0.04292  -0.03355  -0.02600
 Alpha virt. eigenvalues --   -0.02310  -0.02223  -0.01804  -0.01484  -0.00181
 Alpha virt. eigenvalues --   -0.00058   0.00139   0.00375   0.00463   0.00713

  Beta  occ. eigenvalues --  -38.44683 -38.44356 -38.44291 -38.44033 -38.43829
  Beta  occ. eigenvalues --  -38.43649 -38.43201  -2.20480  -2.20202  -2.20111
  Beta  occ. eigenvalues --   -2.19825  -2.19619  -2.19381  -2.18966  -1.14186
  Beta  occ. eigenvalues --   -1.14158  -1.14069  -1.13939  -1.13839  -1.13831
  Beta  occ. eigenvalues --   -1.13806  -1.13788  -1.13715  -1.13522  -1.13497
  Beta  occ. eigenvalues --   -1.13443  -1.13300  -1.13282  -1.13268  -1.13082
  Beta  occ. eigenvalues --   -1.13066  -1.13045  -1.12661  -1.12642  -1.12631
  Beta  occ. eigenvalues --   -0.16555  -0.13132  -0.12352
  Beta virt. eigenvalues --   -0.06703  -0.06602  -0.05481  -0.04115  -0.02885
  Beta virt. eigenvalues --   -0.02171  -0.02043  -0.01994  -0.01582  -0.01236
  Beta virt. eigenvalues --   -0.00075   0.00267   0.00349   0.00478   0.00541

 Mulliken charges and spin densities:
               1          2
     1  Na   0.568847   0.118135
     2  Na   0.353759   0.215280
     3  Na   1.377251   0.089603
     4  Na   0.846895   0.411119
     5  Na  -4.029667  -0.243422
     6  Na   0.272039   0.307031
     7  Na   0.610876   0.102254
 Sum of Mulliken charges =  -0.00000   1.00000

 Dipole moment (field-independent basis, Debye):
    X=              0.5464    Y=             -0.0218    Z=              0.0189  Tot=              0.5471
 Quadrupole moment (field-independent basis, Debye-Ang):
   XX=            -62.4688   YY=            -63.5071   ZZ=            -71.3813
   XY=             -3.2150   XZ=             -0.9076   YZ=              0.2097

 Normal termination of Gaussian 16 at Sat Dec  9 07:06:06 2023.
