 Gaussian 16, Revision B.01,
 Gaussian 16:  ES64L-G16RevB.01 20-Dec-2017

 -------------------------
 #P B3LYP/6-311+g(d) force
 -------------------------

 -----
 DPGEN
 -----
 Symbolic Z-matrix:
 Charge =  0 Multiplicity = 2

                         Standard orientation:
 ---------------------------------------------------------------------
 Center     Atomic      Atomic             Coordinates (Angstroms)
 Number     Number       Type             X           Y           Z
 ---------------------------------------------------------------------
      1         11           0       -2.484864    2.056932   -0.187572
      2         11           0        3.217836   -0.532806   -0.279074
      3         11           0        0.579017   -2.756610   -0.104212
      4         11           0       -2.859476   -1.403323   -0.056144
      5         11           0       -0.097125   -0.134374    2.037713
      6         11           0        1.745649    2.532035    0.209619
      7         11           0       -0.101037    0.238146   -1.620330
 ---------------------------------------------------------------------

 SCF Done:  E(UB3LYP) =  -1136.13773448     A.U. after   19 cycles

 The electronic state is 2-A.
 Alpha  occ. eigenvalues --  -38.44239 -38.44188 -38.43963 -38.43600 -38.43494
 Alpha  occ. eigenvalues --  -38.43274 -38.42958  -2.20061  -2.20011  -2.19778
 Alpha  occ. eigenvalues --   -2.19419  -2.19376  -2.19223  -2.18820  -1.13731
 Alpha  occ. eigenvalues --   -1.13716  -1.13711  -1.13687  -1.13675  -1.13650
 Alpha  occ. eigenvalues --   -1.13464  -1.13433  -1.13412  -1.13097  -1.13088
 Alpha  occ. eigenvalues --   -1.13056  -1.13047  -1.13003  -1.12989  -1.12912
 Alpha  occ. eigenvalues --   -1.12864  -1.12841  -1.12501  -1.12489  -1.12448
 Alpha  occ. eigenvalues --   -0.18442  -0.13237  -0.12131  -0.10568
 Alpha virt. eigenvalues --   -0.05841  -0.05586  -0.04425  -0.03213  -0.02721
 Alpha virt. eigenvalues --   -0.02463  -0.01768  -0.01260  -0.00574  -0.00346
 Alpha virt. eigenvalues --   -0.00024   0.00335   0.00720   0.00820   0.00880

  Beta  occ. eigenvalues --  -38.44234 -38.44184 -38.43958 -38.43596 -38.43396
  Beta  occ. eigenvalues --  -38.43217 -38.42952  -2.20054  -2.20008  -2.19773
  Beta  occ. eigenvalues --   -2.19413  -2.19196  -2.19118  -2.18812  -1.13714
  Beta  occ. eigenvalues --   -1.13712  -1.13704  -1.13676  -1.13668  -1.13644
  Beta  occ. eigenvalues --   -1.13452  -1.13423  -1.13408  -1.13091  -1.13063
  Beta  occ. eigenvalues --   -1.13054  -1.12930  -1.12877  -1.12859  -1.12837
  Beta  occ. eigenvalues --   -1.12788  -1.12763  -1.12498  -1.12463  -1.12439
  Beta  occ. eigenvalues --   -0.17724  -0.13016  -0.11898
  Beta virt. eigenvalues --   -0.06680  -0.05769  -0.05588  -0.04392  -0.02463
  Beta virt. eigenvalues --   -0.01966  -0.01666  -0.01413  -0.01186  -0.00621
  Beta virt. eigenvalues --   -0.00388   0.00126   0.00369   0.00793   0.00815

 Mulliken charges and spin densities:
               1          2
     1  Na   0.141638  -0.076591
     2  Na   0.122771  -0.012766
     3  Na   0.111802  -0.054367
     4  Na   0.187905  -0.047022
     5  Na  -0.425279   0.785321
     6  Na   0.067125  -0.057644
     7  Na  -0.205962   0.463070
 Sum of Mulliken charges =  -0.00000   1.00000

 Dipole moment (field-independent basis, Debye):
    X=             -0.1625    Y=              0.1145    Z=              0.0654  Tot=              0.2093
 Quadrupole moment (field-independent basis, Debye-Ang):
   XX=            -53.4464   YY=            -63.9035   ZZ=            -75.3993
   XY=              0.1235   XZ=             -0.2669   YZ=              0.9161

 Normal termination of Gaussian 16 at Fri Dec  8 04:52:00 2023.
