 Gaussian 16, Revision B.01,
 Gaussian 16:  ES64L-G16RevB.01 20-Dec-2017

 -------------------------
 #P B3LYP/6-311+g(d) force
 -------------------------

 -----
 DPGEN
 -----
 Symbolic Z-matrix:
 Charge =  0 Multiplicity = 2

                         Standard orientation:
 ---------------------------------------------------------------------
 Center     Atomic      Atomic             Coordinates (Angstroms)
 Number     Number       Type             X           Y           Z
 ---------------------------------------------------------------------
      1         11           0       -0.518445    0.255824   -1.410457
      2         11           0        1.702861   -0.393455    1.440643
      3         11           0       -3.256043    0.014498   -0.405657
      4         11           0       -1.102842   -0.135082    1.573343
      5         11           0        0.398178   -2.151968   -0.293257
      6         11           0        0.505936    2.218433    0.339743
      7         11           0        2.270355    0.191750   -1.244357
 ---------------------------------------------------------------------

 SCF Done:  E(UB3LYP) =  -1136.08524988     A.U. after   25 cycles

 The electronic state is 2-A.
 Alpha  occ. eigenvalues --  -38.44660 -38.44311 -38.44270 -38.43963 -38.43942
 Alpha  occ. eigenvalues --  -38.42679 -38.42515  -2.20570  -2.20481  -2.20419
 Alpha  occ. eigenvalues --   -2.20273  -2.20117  -2.18782  -2.18580  -1.14439
 Alpha  occ. eigenvalues --   -1.14394  -1.14339  -1.14293  -1.14234  -1.14149
 Alpha  occ. eigenvalues --   -1.14084  -1.13986  -1.13981  -1.13911  -1.13899
 Alpha  occ. eigenvalues --   -1.13783  -1.13746  -1.13697  -1.13671  -1.12504
 Alpha  occ. eigenvalues --   -1.12440  -1.12334  -1.12307  -1.12233  -1.12156
 Alpha  occ. eigenvalues --   -0.21218  -0.13879  -0.12808  -0.11884
 Alpha virt. eigenvalues --   -0.05881  -0.04192  -0.03715  -0.03393  -0.02972
 Alpha virt. eigenvalues --   -0.02847  -0.01581  -0.00476  -0.00248   0.00296
 Alpha virt. eigenvalues --    0.00580   0.00714   0.01001   0.01011   0.01055

  Beta  occ. eigenvalues --  -38.44654 -38.44270 -38.44210 -38.43895 -38.43876
  Beta  occ. eigenvalues --  -38.42663 -38.42499  -2.20558  -2.20386  -2.20338
  Beta  occ. eigenvalues --   -2.20155  -2.20001  -2.18760  -2.18558  -1.14384
  Beta  occ. eigenvalues --   -1.14335  -1.14285  -1.14237  -1.14174  -1.14143
  Beta  occ. eigenvalues --   -1.14010  -1.13919  -1.13910  -1.13838  -1.13834
  Beta  occ. eigenvalues --   -1.13708  -1.13660  -1.13595  -1.13588  -1.12494
  Beta  occ. eigenvalues --   -1.12382  -1.12314  -1.12298  -1.12171  -1.12146
  Beta  occ. eigenvalues --   -0.20364  -0.13709  -0.11574
  Beta virt. eigenvalues --   -0.08336  -0.05806  -0.03572  -0.03355  -0.03319
  Beta virt. eigenvalues --   -0.02165  -0.01928  -0.01495  -0.00232  -0.00168
  Beta virt. eigenvalues --    0.00321   0.00651   0.00863   0.00991   0.01037

 Mulliken charges and spin densities:
               1          2
     1  Na   0.242784   0.192696
     2  Na   0.907244   0.101386
     3  Na  -0.246882   0.109643
     4  Na   0.160322   0.088765
     5  Na  -1.032046   0.238945
     6  Na  -0.992095   0.354335
     7  Na   0.960673  -0.085770
 Sum of Mulliken charges =  -0.00000   1.00000

 Dipole moment (field-independent basis, Debye):
    X=             -0.4952    Y=              0.0402    Z=             -0.0561  Tot=              0.4999
 Quadrupole moment (field-independent basis, Debye-Ang):
   XX=            -54.8971   YY=            -75.1775   ZZ=            -64.9874
   XY=              0.2353   XZ=              0.0974   YZ=              1.3532

 Normal termination of Gaussian 16 at Thu Dec  7 11:42:42 2023.
