 Gaussian 16, Revision B.01,
 Gaussian 16:  ES64L-G16RevB.01 20-Dec-2017

 -------------------------
 #P B3LYP/6-311+g(d) force
 -------------------------

 -----
 DPGEN
 -----
 Symbolic Z-matrix:
 Charge =  0 Multiplicity = 2

                         Standard orientation:
 ---------------------------------------------------------------------
 Center     Atomic      Atomic             Coordinates (Angstroms)
 Number     Number       Type             X           Y           Z
 ---------------------------------------------------------------------
      1         11           0       -3.401302    1.117922   -1.043067
      2         11           0       -3.776976   -1.982612   -0.257073
      3         11           0        4.030880    0.368559   -0.679662
      4         11           0        2.189183    3.167869    0.022790
      5         11           0        2.717022   -2.875011    0.000635
      6         11           0       -1.476011    3.551412    1.070612
      7         11           0       -0.282796   -3.348139    0.885765
 ---------------------------------------------------------------------

 SCF Done:  E(UB3LYP) =  -1136.10807351     A.U. after   22 cycles

 The electronic state is 2-A.
 Alpha  occ. eigenvalues --  -38.45139 -38.45016 -38.44780 -38.44381 -38.44278
 Alpha  occ. eigenvalues --  -38.44197 -38.44194  -2.20911  -2.20760  -2.20568
 Alpha  occ. eigenvalues --   -2.20183  -2.20079  -2.19994  -2.19974  -1.14589
 Alpha  occ. eigenvalues --   -1.14584  -1.14556  -1.14450  -1.14439  -1.14396
 Alpha  occ. eigenvalues --   -1.14250  -1.14230  -1.14203  -1.13846  -1.13846
 Alpha  occ. eigenvalues --   -1.13826  -1.13734  -1.13730  -1.13713  -1.13653
 Alpha  occ. eigenvalues --   -1.13642  -1.13627  -1.13622  -1.13611  -1.13600
 Alpha  occ. eigenvalues --   -0.15470  -0.13914  -0.13455  -0.10935
 Alpha virt. eigenvalues --   -0.07625  -0.04953  -0.04430  -0.03566  -0.03491
 Alpha virt. eigenvalues --   -0.02218  -0.02132  -0.01857  -0.01452  -0.01121
 Alpha virt. eigenvalues --   -0.00666  -0.00162  -0.00041   0.00374   0.00702

  Beta  occ. eigenvalues --  -38.45128 -38.45015 -38.44746 -38.44367 -38.44233
  Beta  occ. eigenvalues --  -38.44145 -38.44120  -2.20897  -2.20764  -2.20508
  Beta  occ. eigenvalues --   -2.20162  -2.19999  -2.19899  -2.19835  -1.14584
  Beta  occ. eigenvalues --   -1.14577  -1.14511  -1.14458  -1.14446  -1.14362
  Beta  occ. eigenvalues --   -1.14204  -1.14192  -1.14153  -1.13836  -1.13831
  Beta  occ. eigenvalues --   -1.13789  -1.13678  -1.13676  -1.13657  -1.13588
  Beta  occ. eigenvalues --   -1.13579  -1.13557  -1.13532  -1.13518  -1.13508
  Beta  occ. eigenvalues --   -0.14941  -0.13202  -0.12628
  Beta virt. eigenvalues --   -0.07871  -0.07799  -0.04445  -0.03958  -0.03344
  Beta virt. eigenvalues --   -0.03231  -0.02010  -0.01864  -0.01716  -0.01274
  Beta virt. eigenvalues --   -0.00759  -0.00498   0.00102   0.00156   0.00337

 Mulliken charges and spin densities:
               1          2
     1  Na  -0.311801   0.052646
     2  Na   0.376886   0.194836
     3  Na   0.223955   0.240933
     4  Na  -0.197934   0.018050
     5  Na   0.064646  -0.003839
     6  Na  -0.097692   0.342722
     7  Na  -0.058060   0.154652
 Sum of Mulliken charges =  -0.00000   1.00000

 Dipole moment (field-independent basis, Debye):
    X=             -0.2691    Y=             -0.2702    Z=             -0.0503  Tot=              0.3846
 Quadrupole moment (field-independent basis, Debye-Ang):
   XX=            -64.0741   YY=            -66.1990   ZZ=            -70.8286
   XY=              0.1069   XZ=             -1.2658   YZ=             -0.8602

 Normal termination of Gaussian 16 at Sun Dec  3 23:01:14 2023.
