 Gaussian 16, Revision B.01,
 Gaussian 16:  ES64L-G16RevB.01 20-Dec-2017

 -------------------------
 #P B3LYP/6-311+g(d) force
 -------------------------

 -----
 DPGEN
 -----
 Symbolic Z-matrix:
 Charge =  0 Multiplicity = 2

                         Standard orientation:
 ---------------------------------------------------------------------
 Center     Atomic      Atomic             Coordinates (Angstroms)
 Number     Number       Type             X           Y           Z
 ---------------------------------------------------------------------
      1         11           0       -0.223178    2.381413    0.284594
      2         11           0        5.901062   -0.895171   -1.544921
      3         11           0        3.757488    0.313836    0.278020
      4         11           0       -4.915518   -1.613056   -0.706399
      5         11           0        0.587203   -0.383502    2.674728
      6         11           0       -3.137339    2.297063   -0.985271
      7         11           0       -1.969719   -2.100584   -0.000750
 ---------------------------------------------------------------------

 SCF Done:  E(UB3LYP) =  -1136.10839666     A.U. after   20 cycles

 The electronic state is 2-A.
 Alpha  occ. eigenvalues --  -38.45474 -38.45435 -38.44779 -38.44081 -38.43840
 Alpha  occ. eigenvalues --  -38.43673 -38.43594  -2.21278  -2.21215  -2.20579
 Alpha  occ. eigenvalues --   -2.19877  -2.19639  -2.19479  -2.19393  -1.14938
 Alpha  occ. eigenvalues --   -1.14926  -1.14877  -1.14866  -1.14855  -1.14827
 Alpha  occ. eigenvalues --   -1.14252  -1.14238  -1.14217  -1.13565  -1.13554
 Alpha  occ. eigenvalues --   -1.13511  -1.13310  -1.13296  -1.13282  -1.13212
 Alpha  occ. eigenvalues --   -1.13124  -1.13123  -1.13069  -1.13062  -1.12971
 Alpha  occ. eigenvalues --   -0.16216  -0.13617  -0.12344  -0.11839
 Alpha virt. eigenvalues --   -0.06183  -0.05902  -0.04742  -0.03593  -0.03016
 Alpha virt. eigenvalues --   -0.02485  -0.02222  -0.01704  -0.01336  -0.00902
 Alpha virt. eigenvalues --   -0.00494  -0.00390  -0.00161   0.00233   0.00583

  Beta  occ. eigenvalues --  -38.45386 -38.45355 -38.44753 -38.44078 -38.43844
  Beta  occ. eigenvalues --  -38.43643 -38.43597  -2.21116  -2.21065  -2.20530
  Beta  occ. eigenvalues --   -2.19877  -2.19649  -2.19425  -2.19401  -1.14828
  Beta  occ. eigenvalues --   -1.14818  -1.14762  -1.14760  -1.14753  -1.14731
  Beta  occ. eigenvalues --   -1.14220  -1.14200  -1.14182  -1.13563  -1.13559
  Beta  occ. eigenvalues --   -1.13481  -1.13312  -1.13303  -1.13287  -1.13184
  Beta  occ. eigenvalues --   -1.13095  -1.13091  -1.13069  -1.13063  -1.12953
  Beta  occ. eigenvalues --   -0.15471  -0.13271  -0.11564
  Beta virt. eigenvalues --   -0.08724  -0.05823  -0.05286  -0.04503  -0.03164
  Beta virt. eigenvalues --   -0.02805  -0.02340  -0.01978  -0.01336  -0.01040
  Beta virt. eigenvalues --   -0.00797  -0.00314  -0.00067   0.00007   0.00304

 Mulliken charges and spin densities:
               1          2
     1  Na  -0.131585   0.136002
     2  Na   0.198779   0.154077
     3  Na  -0.460631  -0.044657
     4  Na   0.392814  -0.032851
     5  Na   0.207815   0.345076
     6  Na   0.205287   0.252911
     7  Na  -0.412480   0.189442
 Sum of Mulliken charges =  -0.00000   1.00000

 Dipole moment (field-independent basis, Debye):
    X=             -1.5856    Y=              0.1281    Z=              0.3558  Tot=              1.6301
 Quadrupole moment (field-independent basis, Debye-Ang):
   XX=            -64.6207   YY=            -71.1114   ZZ=            -65.8441
   XY=             -5.6788   XZ=              1.0717   YZ=             -1.4586

 Normal termination of Gaussian 16 at Mon Dec  4 00:15:30 2023.
