 Gaussian 16, Revision B.01,
 Gaussian 16:  ES64L-G16RevB.01 20-Dec-2017

 -------------------------
 #P B3LYP/6-311+g(d) force
 -------------------------

 -----
 DPGEN
 -----
 Symbolic Z-matrix:
 Charge =  0 Multiplicity = 2

                         Standard orientation:
 ---------------------------------------------------------------------
 Center     Atomic      Atomic             Coordinates (Angstroms)
 Number     Number       Type             X           Y           Z
 ---------------------------------------------------------------------
      1         11           0       -4.047523   -1.232995   -0.112986
      2         11           0        3.346853    2.564103    0.685146
      3         11           0        4.474954   -0.624857   -0.670574
      4         11           0       -0.914879   -1.701207    1.434668
      5         11           0        1.594463   -2.120313   -0.652162
      6         11           0        0.154531    1.134746   -0.115430
      7         11           0       -4.608399    1.980523   -0.568662
 ---------------------------------------------------------------------

 SCF Done:  E(UB3LYP) =  -1136.11311809     A.U. after   23 cycles

 The electronic state is 2-A.
 Alpha  occ. eigenvalues --  -38.45131 -38.44718 -38.44272 -38.44048 -38.44012
 Alpha  occ. eigenvalues --  -38.43959 -38.43625  -2.20951  -2.20508  -2.20096
 Alpha  occ. eigenvalues --   -2.19825  -2.19823  -2.19786  -2.19482  -1.14650
 Alpha  occ. eigenvalues --   -1.14595  -1.14547  -1.14189  -1.14161  -1.14148
 Alpha  occ. eigenvalues --   -1.13782  -1.13753  -1.13699  -1.13506  -1.13496
 Alpha  occ. eigenvalues --   -1.13483  -1.13480  -1.13459  -1.13452  -1.13447
 Alpha  occ. eigenvalues --   -1.13443  -1.13422  -1.13154  -1.13132  -1.13112
 Alpha  occ. eigenvalues --   -0.16908  -0.14094  -0.11726  -0.11132
 Alpha virt. eigenvalues --   -0.07074  -0.05035  -0.04756  -0.03490  -0.03289
 Alpha virt. eigenvalues --   -0.02697  -0.02091  -0.01182  -0.00988  -0.00760
 Alpha virt. eigenvalues --   -0.00335  -0.00259   0.00253   0.00444   0.00589

  Beta  occ. eigenvalues --  -38.45070 -38.44711 -38.44202 -38.44028 -38.43996
  Beta  occ. eigenvalues --  -38.43925 -38.43614  -2.20839  -2.20497  -2.19969
  Beta  occ. eigenvalues --   -2.19789  -2.19764  -2.19757  -2.19461  -1.14570
  Beta  occ. eigenvalues --   -1.14527  -1.14458  -1.14181  -1.14156  -1.14131
  Beta  occ. eigenvalues --   -1.13687  -1.13669  -1.13610  -1.13473  -1.13471
  Beta  occ. eigenvalues --   -1.13450  -1.13443  -1.13436  -1.13428  -1.13422
  Beta  occ. eigenvalues --   -1.13402  -1.13376  -1.13133  -1.13118  -1.13102
  Beta  occ. eigenvalues --   -0.16312  -0.13602  -0.11357
  Beta virt. eigenvalues --   -0.07491  -0.07000  -0.04894  -0.04240  -0.03304
  Beta virt. eigenvalues --   -0.02717  -0.02335  -0.01865  -0.01030  -0.00799
  Beta virt. eigenvalues --   -0.00459  -0.00209  -0.00070   0.00357   0.00529

 Mulliken charges and spin densities:
               1          2
     1  Na   0.005878   0.078206
     2  Na   0.652328  -0.016712
     3  Na  -0.029345   0.099699
     4  Na   0.130241   0.106330
     5  Na   0.365644   0.345657
     6  Na  -1.301586   0.320598
     7  Na   0.176840   0.066221
 Sum of Mulliken charges =  -0.00000   1.00000

 Dipole moment (field-independent basis, Debye):
    X=             -0.0168    Y=             -0.1948    Z=              0.3453  Tot=              0.3968
 Quadrupole moment (field-independent basis, Debye-Ang):
   XX=            -69.1279   YY=            -64.8863   ZZ=            -69.6896
   XY=              3.6209   XZ=              0.1305   YZ=             -0.2638

 Normal termination of Gaussian 16 at Mon Dec  4 04:04:14 2023.
