 Gaussian 16, Revision B.01,
 Gaussian 16:  ES64L-G16RevB.01 20-Dec-2017

 -------------------------
 #P B3LYP/6-311+g(d) force
 -------------------------

 -----
 DPGEN
 -----
 Symbolic Z-matrix:
 Charge =  0 Multiplicity = 2

                         Standard orientation:
 ---------------------------------------------------------------------
 Center     Atomic      Atomic             Coordinates (Angstroms)
 Number     Number       Type             X           Y           Z
 ---------------------------------------------------------------------
      1         11           0        1.234973    2.513040    0.382517
      2         11           0       -2.290384    2.239119   -0.235149
      3         11           0        0.003965    0.058308   -1.636434
      4         11           0        0.027750   -0.306143    2.057642
      5         11           0       -3.073676   -1.577467   -0.122458
      6         11           0        0.823758   -2.761772   -0.009156
      7         11           0        3.273613   -0.165085   -0.436963
 ---------------------------------------------------------------------

 SCF Done:  E(UB3LYP) =  -1136.13619989     A.U. after   21 cycles

 The electronic state is 2-A.
 Alpha  occ. eigenvalues --  -38.44470 -38.44079 -38.43853 -38.43574 -38.43484
 Alpha  occ. eigenvalues --  -38.43357 -38.43185  -2.20224  -2.19905  -2.19653
 Alpha  occ. eigenvalues --   -2.19460  -2.19333  -2.19300  -2.19050  -1.13907
 Alpha  occ. eigenvalues --   -1.13874  -1.13866  -1.13577  -1.13560  -1.13547
 Alpha  occ. eigenvalues --   -1.13339  -1.13313  -1.13287  -1.13145  -1.13106
 Alpha  occ. eigenvalues --   -1.13072  -1.13040  -1.12998  -1.12987  -1.12944
 Alpha  occ. eigenvalues --   -1.12931  -1.12912  -1.12729  -1.12715  -1.12676
 Alpha  occ. eigenvalues --   -0.18346  -0.12825  -0.12323  -0.10681
 Alpha virt. eigenvalues --   -0.05961  -0.05338  -0.04504  -0.03045  -0.02939
 Alpha virt. eigenvalues --   -0.02527  -0.01809  -0.01247  -0.00514  -0.00348
 Alpha virt. eigenvalues --   -0.00031   0.00318   0.00728   0.00810   0.00882

  Beta  occ. eigenvalues --  -38.44471 -38.44068 -38.43851 -38.43476 -38.43475
  Beta  occ. eigenvalues --  -38.43301 -38.43174  -2.20228  -2.19887  -2.19651
  Beta  occ. eigenvalues --   -2.19324  -2.19278  -2.19197  -2.19033  -1.13900
  Beta  occ. eigenvalues --   -1.13877  -1.13869  -1.13558  -1.13541  -1.13535
  Beta  occ. eigenvalues --   -1.13329  -1.13308  -1.13287  -1.13063  -1.13002
  Beta  occ. eigenvalues --   -1.12992  -1.12948  -1.12943  -1.12923  -1.12918
  Beta  occ. eigenvalues --   -1.12867  -1.12833  -1.12717  -1.12675  -1.12670
  Beta  occ. eigenvalues --   -0.17621  -0.12595  -0.12097
  Beta virt. eigenvalues --   -0.06783  -0.05937  -0.05290  -0.04446  -0.02362
  Beta virt. eigenvalues --   -0.02148  -0.01728  -0.01463  -0.01190  -0.00560
  Beta virt. eigenvalues --   -0.00358   0.00108   0.00355   0.00772   0.00836

 Mulliken charges and spin densities:
               1          2
     1  Na   0.131537   0.052068
     2  Na   0.004720  -0.079473
     3  Na  -0.145735   0.510095
     4  Na  -0.267861   0.685171
     5  Na  -0.044464  -0.118224
     6  Na   0.138318  -0.086870
     7  Na   0.183486   0.037233
 Sum of Mulliken charges =  -0.00000   1.00000

 Dipole moment (field-independent basis, Debye):
    X=             -0.2345    Y=             -0.1889    Z=              0.0195  Tot=              0.3017
 Quadrupole moment (field-independent basis, Debye-Ang):
   XX=            -54.1687   YY=            -63.6378   ZZ=            -74.7985
   XY=              0.1863   XZ=             -0.3769   YZ=              0.7698

 Normal termination of Gaussian 16 at Fri Dec  8 01:22:13 2023.
