 Gaussian 16, Revision B.01,
 Gaussian 16:  ES64L-G16RevB.01 20-Dec-2017

 -------------------------
 #P B3LYP/6-311+g(d) force
 -------------------------

 -----
 DPGEN
 -----
 Symbolic Z-matrix:
 Charge =  0 Multiplicity = 2

                         Standard orientation:
 ---------------------------------------------------------------------
 Center     Atomic      Atomic             Coordinates (Angstroms)
 Number     Number       Type             X           Y           Z
 ---------------------------------------------------------------------
      1         11           0       -1.257997   -1.201404    1.170263
      2         11           0        0.742463    2.593174   -0.367492
      3         11           0       -3.949217   -0.805829   -0.230244
      4         11           0       -1.612893    0.648757   -1.368548
      5         11           0        0.985578    0.798524    2.114382
      6         11           0        1.206699   -0.574946   -0.622271
      7         11           0        3.885367   -1.458276   -0.696090
 ---------------------------------------------------------------------

 SCF Done:  E(UB3LYP) =  -1136.10258812     A.U. after   23 cycles

 The electronic state is 2-A.
 Alpha  occ. eigenvalues --  -38.44863 -38.44568 -38.44423 -38.44113 -38.43578
 Alpha  occ. eigenvalues --  -38.43152 -38.43150  -2.20748  -2.20531  -2.20427
 Alpha  occ. eigenvalues --   -2.20129  -2.19422  -2.19264  -2.19079  -1.14475
 Alpha  occ. eigenvalues --   -1.14435  -1.14370  -1.14269  -1.14195  -1.14145
 Alpha  occ. eigenvalues --   -1.14123  -1.14041  -1.14010  -1.13844  -1.13757
 Alpha  occ. eigenvalues --   -1.13717  -1.13298  -1.13045  -1.13040  -1.12927
 Alpha  occ. eigenvalues --   -1.12903  -1.12833  -1.12745  -1.12713  -1.12707
 Alpha  occ. eigenvalues --   -0.19518  -0.14132  -0.12039  -0.11449
 Alpha virt. eigenvalues --   -0.06963  -0.04627  -0.04372  -0.03396  -0.02842
 Alpha virt. eigenvalues --   -0.02426  -0.02020  -0.01107  -0.00771  -0.00100
 Alpha virt. eigenvalues --    0.00230   0.00441   0.00490   0.00865   0.00929

  Beta  occ. eigenvalues --  -38.44858 -38.44496 -38.44366 -38.44066 -38.43555
  Beta  occ. eigenvalues --  -38.43142 -38.43131  -2.20739  -2.20401  -2.20327
  Beta  occ. eigenvalues --   -2.20044  -2.19379  -2.19231  -2.19068  -1.14466
  Beta  occ. eigenvalues --   -1.14415  -1.14365  -1.14175  -1.14099  -1.14076
  Beta  occ. eigenvalues --   -1.14043  -1.13982  -1.13911  -1.13786  -1.13696
  Beta  occ. eigenvalues --   -1.13651  -1.13267  -1.13018  -1.13008  -1.12892
  Beta  occ. eigenvalues --   -1.12856  -1.12811  -1.12723  -1.12707  -1.12690
  Beta  occ. eigenvalues --   -0.18759  -0.13933  -0.11240
  Beta virt. eigenvalues --   -0.07883  -0.06784  -0.04199  -0.03976  -0.03022
  Beta virt. eigenvalues --   -0.02452  -0.01850  -0.01738  -0.01000  -0.00356
  Beta virt. eigenvalues --   -0.00058   0.00295   0.00546   0.00663   0.00930

 Mulliken charges and spin densities:
               1          2
     1  Na   0.165204   0.249812
     2  Na  -0.126105   0.048993
     3  Na   0.178647   0.065009
     4  Na   0.235741  -0.003108
     5  Na   0.153296   0.156677
     6  Na  -0.750509   0.476723
     7  Na   0.143726   0.005895
 Sum of Mulliken charges =  -0.00000   1.00000

 Dipole moment (field-independent basis, Debye):
    X=             -1.4401    Y=              0.8197    Z=              0.6909  Tot=              1.7953
 Quadrupole moment (field-independent basis, Debye-Ang):
   XX=            -54.0750   YY=            -72.9377   ZZ=            -68.0597
   XY=              5.1506   XZ=              2.8484   YZ=             -0.6257

 Normal termination of Gaussian 16 at Thu Dec  7 13:46:50 2023.
