 Gaussian 16, Revision B.01,
 Gaussian 16:  ES64L-G16RevB.01 20-Dec-2017

 -------------------------
 #P B3LYP/6-311+g(d) force
 -------------------------

 -----
 DPGEN
 -----
 Symbolic Z-matrix:
 Charge =  0 Multiplicity = 2

                         Standard orientation:
 ---------------------------------------------------------------------
 Center     Atomic      Atomic             Coordinates (Angstroms)
 Number     Number       Type             X           Y           Z
 ---------------------------------------------------------------------
      1         11           0        0.049534   -0.002427    2.113954
      2         11           0       -2.279926   -1.683954    0.187775
      3         11           0        3.267590   -0.100117   -0.072636
      4         11           0        1.145524    2.811370   -0.118798
      5         11           0        1.011145   -2.583677   -0.511479
      6         11           0       -0.216083    0.188918   -1.284324
      7         11           0       -2.977785    1.369886   -0.314491
 ---------------------------------------------------------------------

 SCF Done:  E(UB3LYP) =  -1136.13201031     A.U. after   20 cycles

 The electronic state is 2-A.
 Alpha  occ. eigenvalues --  -38.44536 -38.44227 -38.43557 -38.43550 -38.43491
 Alpha  occ. eigenvalues --  -38.42923 -38.42895  -2.20350  -2.20080  -2.19483
 Alpha  occ. eigenvalues --   -2.19443  -2.19320  -2.18982  -2.18813  -1.14024
 Alpha  occ. eigenvalues --   -1.14011  -1.13988  -1.13781  -1.13739  -1.13708
 Alpha  occ. eigenvalues --   -1.13199  -1.13151  -1.13113  -1.13108  -1.13056
 Alpha  occ. eigenvalues --   -1.13050  -1.13034  -1.12974  -1.12942  -1.12693
 Alpha  occ. eigenvalues --   -1.12654  -1.12604  -1.12474  -1.12453  -1.12440
 Alpha  occ. eigenvalues --   -0.18873  -0.13424  -0.12193  -0.10638
 Alpha virt. eigenvalues --   -0.06116  -0.05112  -0.04356  -0.03230  -0.02562
 Alpha virt. eigenvalues --   -0.02416  -0.01898  -0.01076  -0.00470  -0.00201
 Alpha virt. eigenvalues --    0.00002   0.00319   0.00776   0.00828   0.00911

  Beta  occ. eigenvalues --  -38.44533 -38.44219 -38.43548 -38.43489 -38.43443
  Beta  occ. eigenvalues --  -38.42911 -38.42850  -2.20348  -2.20068  -2.19471
  Beta  occ. eigenvalues --   -2.19319  -2.19245  -2.18902  -2.18794  -1.14013
  Beta  occ. eigenvalues --   -1.14006  -1.13987  -1.13771  -1.13723  -1.13694
  Beta  occ. eigenvalues --   -1.13189  -1.13110  -1.13095  -1.13033  -1.12987
  Beta  occ. eigenvalues --   -1.12962  -1.12944  -1.12920  -1.12905  -1.12641
  Beta  occ. eigenvalues --   -1.12587  -1.12547  -1.12447  -1.12436  -1.12416
  Beta  occ. eigenvalues --   -0.18155  -0.13191  -0.11948
  Beta virt. eigenvalues --   -0.06687  -0.06067  -0.05074  -0.04328  -0.02457
  Beta virt. eigenvalues --   -0.01853  -0.01811  -0.01326  -0.01005  -0.00501
  Beta virt. eigenvalues --   -0.00208   0.00153   0.00365   0.00820   0.00850

 Mulliken charges and spin densities:
               1          2
     1  Na  -0.495915   0.663488
     2  Na   0.528739   0.202275
     3  Na   0.140324   0.005584
     4  Na   0.097955   0.011591
     5  Na   0.226694   0.093850
     6  Na  -0.748549  -0.024269
     7  Na   0.250751   0.047482
 Sum of Mulliken charges =  -0.00000   1.00000

 Dipole moment (field-independent basis, Debye):
    X=              0.1323    Y=              0.2837    Z=              0.3112  Tot=              0.4415
 Quadrupole moment (field-independent basis, Debye-Ang):
   XX=            -52.5010   YY=            -64.3361   ZZ=            -75.3186
   XY=             -0.4690   XZ=             -0.1632   YZ=              0.1162

 Normal termination of Gaussian 16 at Thu Dec  7 09:18:39 2023.
