 Gaussian 16, Revision B.01,
 Gaussian 16:  ES64L-G16RevB.01 20-Dec-2017

 -------------------------
 #P B3LYP/6-311+g(d) force
 -------------------------

 -----
 DPGEN
 -----
 Symbolic Z-matrix:
 Charge =  0 Multiplicity = 2

                         Standard orientation:
 ---------------------------------------------------------------------
 Center     Atomic      Atomic             Coordinates (Angstroms)
 Number     Number       Type             X           Y           Z
 ---------------------------------------------------------------------
      1         11           0       -0.457479   -2.517150   -0.584237
      2         11           0        2.113291    2.194137    0.364130
      3         11           0       -3.242866   -0.391922   -0.068557
      4         11           0        2.720230   -1.403074   -0.099260
      5         11           0       -0.264469   -0.674468    2.248201
      6         11           0       -1.323853    2.637450   -0.254175
      7         11           0        0.455145    0.155026   -1.606103
 ---------------------------------------------------------------------

 SCF Done:  E(UB3LYP) =  -1136.13496745     A.U. after   19 cycles

 The electronic state is 2-A.
 Alpha  occ. eigenvalues --  -38.44045 -38.43983 -38.43798 -38.43654 -38.43478
 Alpha  occ. eigenvalues --  -38.43280 -38.43271  -2.19892  -2.19783  -2.19665
 Alpha  occ. eigenvalues --   -2.19486  -2.19305  -2.19304  -2.19199  -1.13550
 Alpha  occ. eigenvalues --   -1.13529  -1.13506  -1.13455  -1.13437  -1.13433
 Alpha  occ. eigenvalues --   -1.13385  -1.13315  -1.13300  -1.13183  -1.13150
 Alpha  occ. eigenvalues --   -1.13119  -1.13084  -1.13018  -1.12969  -1.12942
 Alpha  occ. eigenvalues --   -1.12925  -1.12903  -1.12850  -1.12825  -1.12790
 Alpha  occ. eigenvalues --   -0.18607  -0.12831  -0.12565  -0.11011
 Alpha virt. eigenvalues --   -0.05544  -0.05208  -0.04540  -0.03310  -0.03007
 Alpha virt. eigenvalues --   -0.02801  -0.01466  -0.01025  -0.00324  -0.00167
 Alpha virt. eigenvalues --   -0.00046   0.00350   0.00789   0.00887   0.00904

  Beta  occ. eigenvalues --  -38.43984 -38.43946 -38.43793 -38.43649 -38.43475
  Beta  occ. eigenvalues --  -38.43252 -38.43222  -2.19787  -2.19708  -2.19660
  Beta  occ. eigenvalues --   -2.19478  -2.19301  -2.19200  -2.19168  -1.13451
  Beta  occ. eigenvalues --   -1.13445  -1.13434  -1.13425  -1.13399  -1.13375
  Beta  occ. eigenvalues --   -1.13368  -1.13304  -1.13287  -1.13172  -1.13134
  Beta  occ. eigenvalues --   -1.13114  -1.13031  -1.13000  -1.12957  -1.12926
  Beta  occ. eigenvalues --   -1.12870  -1.12836  -1.12815  -1.12783  -1.12755
  Beta  occ. eigenvalues --   -0.17877  -0.12643  -0.12338
  Beta virt. eigenvalues --   -0.07033  -0.05480  -0.05199  -0.04452  -0.02540
  Beta virt. eigenvalues --   -0.02284  -0.01723  -0.01384  -0.00967  -0.00340
  Beta virt. eigenvalues --   -0.00204   0.00122   0.00387   0.00864   0.00886

 Mulliken charges and spin densities:
               1          2
     1  Na   0.436512   0.002128
     2  Na  -0.038314   0.067899
     3  Na   0.045349  -0.042188
     4  Na   0.288271   0.056906
     5  Na  -0.760053   0.756614
     6  Na   0.071051  -0.059206
     7  Na  -0.042817   0.217848
 Sum of Mulliken charges =  -0.00000   1.00000

 Dipole moment (field-independent basis, Debye):
    X=              0.0301    Y=              0.0014    Z=              0.3488  Tot=              0.3501
 Quadrupole moment (field-independent basis, Debye-Ang):
   XX=            -56.8854   YY=            -64.9120   ZZ=            -72.6286
   XY=             -0.3036   XZ=              1.4874   YZ=              1.3705

 Normal termination of Gaussian 16 at Thu Dec  7 14:07:51 2023.
