 Gaussian 16, Revision B.01,
 Gaussian 16:  ES64L-G16RevB.01 20-Dec-2017

 -------------------------
 #P B3LYP/6-311+g(d) force
 -------------------------

 -----
 DPGEN
 -----
 Symbolic Z-matrix:
 Charge =  0 Multiplicity = 2

                         Standard orientation:
 ---------------------------------------------------------------------
 Center     Atomic      Atomic             Coordinates (Angstroms)
 Number     Number       Type             X           Y           Z
 ---------------------------------------------------------------------
      1         11           0       -0.177791   -0.054606   -1.810985
      2         11           0       -0.368390    0.050265    2.023203
      3         11           0        1.563666    2.382023   -0.019717
      4         11           0        2.974345   -0.412903   -0.022612
      5         11           0        0.786276   -2.661074    0.036093
      6         11           0       -2.033109    2.129411   -0.101643
      7         11           0       -2.744996   -1.433116   -0.104338
 ---------------------------------------------------------------------

 SCF Done:  E(UB3LYP) =  -1136.13920873     A.U. after   19 cycles

 The electronic state is 2-A.
 Alpha  occ. eigenvalues --  -38.43943 -38.43670 -38.43632 -38.43631 -38.43369
 Alpha  occ. eigenvalues --  -38.43288 -38.43210  -2.19783  -2.19559  -2.19542
 Alpha  occ. eigenvalues --   -2.19493  -2.19337  -2.19162  -2.19096  -1.13465
 Alpha  occ. eigenvalues --   -1.13452  -1.13416  -1.13259  -1.13241  -1.13223
 Alpha  occ. eigenvalues --   -1.13207  -1.13190  -1.13184  -1.13161  -1.13133
 Alpha  occ. eigenvalues --   -1.13115  -1.13013  -1.12975  -1.12958  -1.12830
 Alpha  occ. eigenvalues --   -1.12820  -1.12794  -1.12769  -1.12755  -1.12721
 Alpha  occ. eigenvalues --   -0.18958  -0.13172  -0.12459  -0.11004
 Alpha virt. eigenvalues --   -0.05513  -0.05210  -0.04430  -0.03320  -0.02956
 Alpha virt. eigenvalues --   -0.02761  -0.01402  -0.01056  -0.00165  -0.00133
 Alpha virt. eigenvalues --   -0.00036   0.00376   0.00830   0.00902   0.00956

  Beta  occ. eigenvalues --  -38.43938 -38.43669 -38.43625 -38.43541 -38.43293
  Beta  occ. eigenvalues --  -38.43284 -38.43204  -2.19778  -2.19559  -2.19485
  Beta  occ. eigenvalues --   -2.19374  -2.19198  -2.19159  -2.19089  -1.13455
  Beta  occ. eigenvalues --   -1.13427  -1.13416  -1.13265  -1.13239  -1.13186
  Beta  occ. eigenvalues --   -1.13183  -1.13143  -1.13115  -1.13091  -1.13041
  Beta  occ. eigenvalues --   -1.13040  -1.12924  -1.12883  -1.12862  -1.12825
  Beta  occ. eigenvalues --   -1.12795  -1.12789  -1.12763  -1.12722  -1.12719
  Beta  occ. eigenvalues --   -0.18201  -0.12934  -0.12210
  Beta virt. eigenvalues --   -0.07060  -0.05507  -0.05173  -0.04417  -0.02496
  Beta virt. eigenvalues --   -0.02143  -0.01679  -0.01323  -0.00995  -0.00226
  Beta virt. eigenvalues --   -0.00194   0.00105   0.00392   0.00882   0.00901

 Mulliken charges and spin densities:
               1          2
     1  Na  -0.371956   0.613721
     2  Na  -0.555313   0.754840
     3  Na   0.180144  -0.053822
     4  Na  -0.012256  -0.042855
     5  Na   0.243698  -0.055224
     6  Na   0.250418  -0.103189
     7  Na   0.265264  -0.113471
 Sum of Mulliken charges =  -0.00000   1.00000

 Dipole moment (field-independent basis, Debye):
    X=             -0.3967    Y=             -0.0113    Z=              0.0845  Tot=              0.4057
 Quadrupole moment (field-independent basis, Debye-Ang):
   XX=            -57.6351   YY=            -64.0195   ZZ=            -72.8942
   XY=              0.2916   XZ=              0.3777   YZ=             -0.2149

 Normal termination of Gaussian 16 at Tue Dec  5 12:30:45 2023.
