 Gaussian 16, Revision B.01,
 Gaussian 16:  ES64L-G16RevB.01 20-Dec-2017

 -------------------------
 #P B3LYP/6-311+g(d) force
 -------------------------

 -----
 DPGEN
 -----
 Symbolic Z-matrix:
 Charge =  0 Multiplicity = 2

                         Standard orientation:
 ---------------------------------------------------------------------
 Center     Atomic      Atomic             Coordinates (Angstroms)
 Number     Number       Type             X           Y           Z
 ---------------------------------------------------------------------
      1         11           0       -3.361739    1.741416   -0.422982
      2         11           0        0.981574   -2.793012   -0.031789
      3         11           0       -2.681848   -1.591124   -0.258875
      4         11           0        0.256185   -0.724012    2.228513
      5         11           0        3.526775    0.273332   -1.091890
      6         11           0       -0.001572    0.320860   -1.354393
      7         11           0        1.280625    2.772541    0.931415
 ---------------------------------------------------------------------

 SCF Done:  E(UB3LYP) =  -1136.12805247     A.U. after   20 cycles

 The electronic state is 2-A.
 Alpha  occ. eigenvalues --  -38.44539 -38.44082 -38.44020 -38.43986 -38.43844
 Alpha  occ. eigenvalues --  -38.43739 -38.43183  -2.20319  -2.19902  -2.19848
 Alpha  occ. eigenvalues --   -2.19793  -2.19632  -2.19625  -2.19031  -1.13990
 Alpha  occ. eigenvalues --   -1.13960  -1.13940  -1.13601  -1.13584  -1.13521
 Alpha  occ. eigenvalues --   -1.13515  -1.13497  -1.13467  -1.13453  -1.13444
 Alpha  occ. eigenvalues --   -1.13424  -1.13344  -1.13307  -1.13286  -1.13277
 Alpha  occ. eigenvalues --   -1.13254  -1.13239  -1.12721  -1.12698  -1.12650
 Alpha  occ. eigenvalues --   -0.17696  -0.13008  -0.11858  -0.10955
 Alpha virt. eigenvalues --   -0.06025  -0.05389  -0.04658  -0.03219  -0.02879
 Alpha virt. eigenvalues --   -0.02616  -0.02023  -0.01277  -0.00713  -0.00336
 Alpha virt. eigenvalues --   -0.00143   0.00232   0.00664   0.00747   0.00762

  Beta  occ. eigenvalues --  -38.44496 -38.44078 -38.44025 -38.43901 -38.43812
  Beta  occ. eigenvalues --  -38.43715 -38.43181  -2.20238  -2.19896  -2.19803
  Beta  occ. eigenvalues --   -2.19691  -2.19589  -2.19567  -2.19029  -1.13928
  Beta  occ. eigenvalues --   -1.13905  -1.13888  -1.13591  -1.13580  -1.13517
  Beta  occ. eigenvalues --   -1.13472  -1.13450  -1.13428  -1.13416  -1.13391
  Beta  occ. eigenvalues --   -1.13337  -1.13303  -1.13279  -1.13239  -1.13235
  Beta  occ. eigenvalues --   -1.13214  -1.13205  -1.12713  -1.12690  -1.12640
  Beta  occ. eigenvalues --   -0.17076  -0.12689  -0.11683
  Beta virt. eigenvalues --   -0.07197  -0.05727  -0.05374  -0.04362  -0.02737
  Beta virt. eigenvalues --   -0.02352  -0.01950  -0.01622  -0.01265  -0.00553
  Beta virt. eigenvalues --   -0.00260   0.00008   0.00301   0.00755   0.00781

 Mulliken charges and spin densities:
               1          2
     1  Na   0.082630  -0.004162
     2  Na   0.047552   0.071576
     3  Na   0.004396  -0.032587
     4  Na  -0.139453   0.426168
     5  Na   0.201042   0.141957
     6  Na  -0.014913   0.153539
     7  Na  -0.181254   0.243510
 Sum of Mulliken charges =  -0.00000   1.00000

 Dipole moment (field-independent basis, Debye):
    X=              0.0170    Y=             -0.0452    Z=              0.1731  Tot=              0.1797
 Quadrupole moment (field-independent basis, Debye-Ang):
   XX=            -56.9759   YY=            -64.7759   ZZ=            -72.4570
   XY=             -0.7723   XZ=             -1.6071   YZ=              2.3487

 Normal termination of Gaussian 16 at Tue Dec  5 22:44:23 2023.
