 Gaussian 16, Revision B.01,
 Gaussian 16:  ES64L-G16RevB.01 20-Dec-2017

 -------------------------
 #P B3LYP/6-311+g(d) force
 -------------------------

 -----
 DPGEN
 -----
 Symbolic Z-matrix:
 Charge =  0 Multiplicity = 2

                         Standard orientation:
 ---------------------------------------------------------------------
 Center     Atomic      Atomic             Coordinates (Angstroms)
 Number     Number       Type             X           Y           Z
 ---------------------------------------------------------------------
      1         11           0       -1.162505   -2.374298   -0.630892
      2         11           0        0.421815    0.028220   -1.639895
      3         11           0       -0.741816    2.680146   -0.276608
      4         11           0       -0.220289   -0.590852    1.953170
      5         11           0        2.437392   -1.592524    0.065662
      6         11           0        2.212902    1.631350    0.306426
      7         11           0       -2.947498    0.217958    0.222137
 ---------------------------------------------------------------------

 SCF Done:  E(UB3LYP) =  -1136.13387033     A.U. after   19 cycles

 The electronic state is 2-A.
 Alpha  occ. eigenvalues --  -38.43724 -38.43604 -38.43573 -38.43479 -38.43419
 Alpha  occ. eigenvalues --  -38.43224 -38.43069  -2.19607  -2.19550  -2.19486
 Alpha  occ. eigenvalues --   -2.19416  -2.19353  -2.19305  -2.18968  -1.13314
 Alpha  occ. eigenvalues --   -1.13278  -1.13264  -1.13257  -1.13218  -1.13190
 Alpha  occ. eigenvalues --   -1.13179  -1.13172  -1.13137  -1.13116  -1.13103
 Alpha  occ. eigenvalues --   -1.13066  -1.13024  -1.12991  -1.12957  -1.12943
 Alpha  occ. eigenvalues --   -1.12907  -1.12879  -1.12641  -1.12618  -1.12598
 Alpha  occ. eigenvalues --   -0.19470  -0.13288  -0.12667  -0.11192
 Alpha virt. eigenvalues --   -0.05302  -0.04945  -0.04481  -0.03438  -0.02998
 Alpha virt. eigenvalues --   -0.02679  -0.01266  -0.00901  -0.00113   0.00093
 Alpha virt. eigenvalues --    0.00141   0.00376   0.00894   0.00949   0.00973

  Beta  occ. eigenvalues --  -38.43720 -38.43565 -38.43521 -38.43471 -38.43399
  Beta  occ. eigenvalues --  -38.43151 -38.43065  -2.19601  -2.19477  -2.19406
  Beta  occ. eigenvalues --   -2.19396  -2.19319  -2.19175  -2.18963  -1.13296
  Beta  occ. eigenvalues --   -1.13267  -1.13243  -1.13240  -1.13158  -1.13140
  Beta  occ. eigenvalues --   -1.13121  -1.13108  -1.13082  -1.13066  -1.13044
  Beta  occ. eigenvalues --   -1.13037  -1.13009  -1.12942  -1.12936  -1.12863
  Beta  occ. eigenvalues --   -1.12828  -1.12798  -1.12629  -1.12609  -1.12587
  Beta  occ. eigenvalues --   -0.18721  -0.13033  -0.12400
  Beta virt. eigenvalues --   -0.07191  -0.05267  -0.04933  -0.04446  -0.02606
  Beta virt. eigenvalues --   -0.02231  -0.01582  -0.01188  -0.00838  -0.00055
  Beta virt. eigenvalues --    0.00094   0.00157   0.00405   0.00932   0.00948

 Mulliken charges and spin densities:
               1          2
     1  Na   0.336336  -0.034012
     2  Na  -0.412690   0.374543
     3  Na   0.092245  -0.044514
     4  Na  -0.590770   0.586290
     5  Na   0.357049  -0.013349
     6  Na   0.119586   0.098838
     7  Na   0.098243   0.032203
 Sum of Mulliken charges =  -0.00000   1.00000

 Dipole moment (field-independent basis, Debye):
    X=             -0.0241    Y=             -0.1938    Z=              0.2901  Tot=              0.3497
 Quadrupole moment (field-independent basis, Debye-Ang):
   XX=            -58.5107   YY=            -64.3342   ZZ=            -72.0102
   XY=             -0.6147   XZ=              1.1269   YZ=              1.1211

 Normal termination of Gaussian 16 at Thu Dec  7 05:29:08 2023.
