 Gaussian 16, Revision B.01,
 Gaussian 16:  ES64L-G16RevB.01 20-Dec-2017

 -------------------------
 #P B3LYP/6-311+g(d) force
 -------------------------

 -----
 DPGEN
 -----
 Symbolic Z-matrix:
 Charge =  0 Multiplicity = 2

                         Standard orientation:
 ---------------------------------------------------------------------
 Center     Atomic      Atomic             Coordinates (Angstroms)
 Number     Number       Type             X           Y           Z
 ---------------------------------------------------------------------
      1         11           0        1.321310   -1.942571   -0.276535
      2         11           0        1.827929    2.091055    0.107442
      3         11           0       -1.566853    0.713566   -1.164239
      4         11           0       -1.556390   -3.159719   -0.561882
      5         11           0       -3.044220   -0.993046    1.452706
      6         11           0       -1.328746    3.943635    0.005448
      7         11           0        4.346971   -0.652920    0.437061
 ---------------------------------------------------------------------

 SCF Done:  E(UB3LYP) =  -1136.12489340     A.U. after   20 cycles

 The electronic state is 2-A.
 Alpha  occ. eigenvalues --  -38.44880 -38.44873 -38.44444 -38.43875 -38.43450
 Alpha  occ. eigenvalues --  -38.43432 -38.43418  -2.20694  -2.20640  -2.20228
 Alpha  occ. eigenvalues --   -2.19748  -2.19300  -2.19275  -2.19255  -1.14400
 Alpha  occ. eigenvalues --   -1.14397  -1.14352  -1.14343  -1.14285  -1.14216
 Alpha  occ. eigenvalues --   -1.13898  -1.13890  -1.13852  -1.13451  -1.13411
 Alpha  occ. eigenvalues --   -1.13376  -1.12982  -1.12975  -1.12954  -1.12919
 Alpha  occ. eigenvalues --   -1.12913  -1.12911  -1.12896  -1.12887  -1.12857
 Alpha  occ. eigenvalues --   -0.17053  -0.13612  -0.13127  -0.09878
 Alpha virt. eigenvalues --   -0.06308  -0.05946  -0.04948  -0.03179  -0.02654
 Alpha virt. eigenvalues --   -0.02203  -0.01917  -0.01537  -0.01337  -0.00999
 Alpha virt. eigenvalues --    0.00001   0.00160   0.00353   0.00527   0.00620

  Beta  occ. eigenvalues --  -38.44876 -38.44869 -38.44443 -38.43846 -38.43422
  Beta  occ. eigenvalues --  -38.43394 -38.43324  -2.20689  -2.20634  -2.20226
  Beta  occ. eigenvalues --   -2.19701  -2.19237  -2.19203  -2.19099  -1.14399
  Beta  occ. eigenvalues --   -1.14370  -1.14349  -1.14341  -1.14287  -1.14201
  Beta  occ. eigenvalues --   -1.13898  -1.13887  -1.13850  -1.13410  -1.13366
  Beta  occ. eigenvalues --   -1.13326  -1.12942  -1.12941  -1.12905  -1.12876
  Beta  occ. eigenvalues --   -1.12850  -1.12806  -1.12797  -1.12789  -1.12775
  Beta  occ. eigenvalues --   -0.16612  -0.13159  -0.12724
  Beta virt. eigenvalues --   -0.06250  -0.06130  -0.05923  -0.04699  -0.02741
  Beta virt. eigenvalues --   -0.02367  -0.01934  -0.01803  -0.01300  -0.01074
  Beta virt. eigenvalues --   -0.00577   0.00305   0.00342   0.00466   0.00622

 Mulliken charges and spin densities:
               1          2
     1  Na  -1.441323   0.199700
     2  Na  -0.470178   0.007528
     3  Na  -0.478165   0.243501
     4  Na   0.657777  -0.187920
     5  Na   0.090824   0.396456
     6  Na   0.461679  -0.061855
     7  Na   1.179385   0.402590
 Sum of Mulliken charges =  -0.00000   1.00000

 Dipole moment (field-independent basis, Debye):
    X=             -0.1651    Y=              1.1228    Z=             -0.1244  Tot=              1.1417
 Quadrupole moment (field-independent basis, Debye-Ang):
   XX=            -69.1537   YY=            -57.7039   ZZ=            -71.3220
   XY=             -1.4037   XZ=              3.3407   YZ=              1.4497

 Normal termination of Gaussian 16 at Wed Nov 29 02:22:00 2023.
