 Gaussian 16, Revision B.01,
 Gaussian 16:  ES64L-G16RevB.01 20-Dec-2017

 -------------------------
 #P B3LYP/6-311+g(d) force
 -------------------------

 -----
 DPGEN
 -----
 Symbolic Z-matrix:
 Charge =  0 Multiplicity = 2

                         Standard orientation:
 ---------------------------------------------------------------------
 Center     Atomic      Atomic             Coordinates (Angstroms)
 Number     Number       Type             X           Y           Z
 ---------------------------------------------------------------------
      1         11           0        0.114428   -0.100959   -1.725812
      2         11           0        3.006056   -1.410376   -0.269620
      3         11           0       -0.134405   -2.919441    0.081293
      4         11           0       -3.350234   -0.947132    0.193992
      5         11           0       -0.077259    0.248199    1.925670
      6         11           0        2.394199    2.466564    0.325801
      7         11           0       -1.952785    2.663146   -0.531324
 ---------------------------------------------------------------------

 SCF Done:  E(UB3LYP) =  -1136.13201168     A.U. after   20 cycles

 The electronic state is 2-A.
 Alpha  occ. eigenvalues --  -38.44467 -38.44156 -38.44146 -38.44138 -38.43713
 Alpha  occ. eigenvalues --  -38.43553 -38.43329  -2.20228  -2.19958  -2.19907
 Alpha  occ. eigenvalues --   -2.19903  -2.19561  -2.19443  -2.19172  -1.13907
 Alpha  occ. eigenvalues --   -1.13878  -1.13872  -1.13638  -1.13617  -1.13594
 Alpha  occ. eigenvalues --   -1.13583  -1.13579  -1.13559  -1.13553  -1.13550
 Alpha  occ. eigenvalues --   -1.13539  -1.13248  -1.13199  -1.13168  -1.13137
 Alpha  occ. eigenvalues --   -1.13085  -1.13057  -1.12855  -1.12847  -1.12790
 Alpha  occ. eigenvalues --   -0.17814  -0.12708  -0.12214  -0.10386
 Alpha virt. eigenvalues --   -0.05981  -0.05689  -0.04846  -0.03001  -0.02842
 Alpha virt. eigenvalues --   -0.02338  -0.01829  -0.01525  -0.00885  -0.00570
 Alpha virt. eigenvalues --   -0.00059   0.00303   0.00677   0.00729   0.00799

  Beta  occ. eigenvalues --  -38.44466 -38.44151 -38.44140 -38.44119 -38.43634
  Beta  occ. eigenvalues --  -38.43489 -38.43324  -2.20228  -2.19951  -2.19894
  Beta  occ. eigenvalues --   -2.19874  -2.19416  -2.19326  -2.19167  -1.13900
  Beta  occ. eigenvalues --   -1.13877  -1.13869  -1.13621  -1.13615  -1.13586
  Beta  occ. eigenvalues --   -1.13557  -1.13549  -1.13547  -1.13545  -1.13538
  Beta  occ. eigenvalues --   -1.13519  -1.13150  -1.13100  -1.13059  -1.13055
  Beta  occ. eigenvalues --   -1.13008  -1.12968  -1.12849  -1.12831  -1.12778
  Beta  occ. eigenvalues --   -0.17136  -0.12478  -0.11952
  Beta virt. eigenvalues --   -0.06688  -0.05868  -0.05600  -0.04764  -0.02355
  Beta virt. eigenvalues --   -0.02155  -0.01710  -0.01434  -0.01350  -0.00902
  Beta virt. eigenvalues --   -0.00605   0.00085   0.00343   0.00720   0.00772

 Mulliken charges and spin densities:
               1          2
     1  Na   0.041641   0.516934
     2  Na   0.156760  -0.037608
     3  Na   0.024243  -0.063741
     4  Na   0.031767  -0.052758
     5  Na  -0.168976   0.701674
     6  Na  -0.036356  -0.060213
     7  Na  -0.049078  -0.004288
 Sum of Mulliken charges =  -0.00000   1.00000

 Dipole moment (field-independent basis, Debye):
    X=             -0.0461    Y=              0.0744    Z=              0.0300  Tot=              0.0925
 Quadrupole moment (field-independent basis, Debye-Ang):
   XX=            -54.1548   YY=            -62.0290   ZZ=            -76.1697
   XY=              0.2082   XZ=             -0.1030   YZ=             -0.8155

 Normal termination of Gaussian 16 at Sun Dec  3 20:05:12 2023.
