 Gaussian 16, Revision B.01,
 Gaussian 16:  ES64L-G16RevB.01 20-Dec-2017

 -------------------------
 #P B3LYP/6-311+g(d) force
 -------------------------

 -----
 DPGEN
 -----
 Symbolic Z-matrix:
 Charge =  0 Multiplicity = 2

                         Standard orientation:
 ---------------------------------------------------------------------
 Center     Atomic      Atomic             Coordinates (Angstroms)
 Number     Number       Type             X           Y           Z
 ---------------------------------------------------------------------
      1         11           0        0.993819   -1.013648    1.576457
      2         11           0        1.591815   -1.281357   -1.379743
      3         11           0       -1.521219    3.073220   -0.007343
      4         11           0        0.681155    1.369257   -0.252243
      5         11           0        2.953237    0.185822    0.312957
      6         11           0       -1.007479   -0.883918   -0.393743
      7         11           0       -3.691328   -1.449377    0.143657
 ---------------------------------------------------------------------

 SCF Done:  E(UB3LYP) =  -1136.05335911     A.U. after   22 cycles

 The electronic state is 2-A.
 Alpha  occ. eigenvalues --  -38.46253 -38.45566 -38.44921 -38.44591 -38.43875
 Alpha  occ. eigenvalues --  -38.43755 -38.43397  -2.22447  -2.21366  -2.21090
 Alpha  occ. eigenvalues --   -2.20778  -2.19943  -2.19721  -2.19664  -1.16366
 Alpha  occ. eigenvalues --   -1.16154  -1.16109  -1.15146  -1.14997  -1.14986
 Alpha  occ. eigenvalues --   -1.14868  -1.14708  -1.14648  -1.14515  -1.14414
 Alpha  occ. eigenvalues --   -1.14294  -1.13755  -1.13653  -1.13554  -1.13515
 Alpha  occ. eigenvalues --   -1.13350  -1.13326  -1.13243  -1.13225  -1.13164
 Alpha  occ. eigenvalues --   -0.20864  -0.13858  -0.12119  -0.11401
 Alpha virt. eigenvalues --   -0.07277  -0.05637  -0.03353  -0.03312  -0.02610
 Alpha virt. eigenvalues --   -0.02098  -0.02026  -0.00992  -0.00315   0.00013
 Alpha virt. eigenvalues --    0.00103   0.00317   0.00403   0.00661   0.00965

  Beta  occ. eigenvalues --  -38.46211 -38.45587 -38.44838 -38.44512 -38.43886
  Beta  occ. eigenvalues --  -38.43724 -38.43365  -2.22383  -2.21404  -2.20942
  Beta  occ. eigenvalues --   -2.20638  -2.19893  -2.19735  -2.19623  -1.16334
  Beta  occ. eigenvalues --   -1.16068  -1.16015  -1.15169  -1.15020  -1.15013
  Beta  occ. eigenvalues --   -1.14776  -1.14599  -1.14532  -1.14409  -1.14324
  Beta  occ. eigenvalues --   -1.14169  -1.13733  -1.13654  -1.13491  -1.13449
  Beta  occ. eigenvalues --   -1.13356  -1.13339  -1.13210  -1.13189  -1.13089
  Beta  occ. eigenvalues --   -0.19903  -0.13739  -0.12004
  Beta virt. eigenvalues --   -0.07103  -0.06900  -0.05414  -0.03330  -0.02751
  Beta virt. eigenvalues --   -0.02472  -0.01499  -0.01266  -0.00791   0.00010
  Beta virt. eigenvalues --    0.00088   0.00132   0.00416   0.00643   0.00704

 Mulliken charges and spin densities:
               1          2
     1  Na  -0.681831   0.252209
     2  Na   0.253692   0.017651
     3  Na   0.021134  -0.237215
     4  Na   0.512601   0.596425
     5  Na   0.104509   0.238979
     6  Na  -0.331680   0.244645
     7  Na   0.121574  -0.112693
 Sum of Mulliken charges =  -0.00000   1.00000

 Dipole moment (field-independent basis, Debye):
    X=             -0.6426    Y=             -0.3488    Z=              0.1925  Tot=              0.7561
 Quadrupole moment (field-independent basis, Debye-Ang):
   XX=            -47.8056   YY=            -70.5345   ZZ=            -73.5402
   XY=             -1.1708   XZ=             -1.8397   YZ=              0.5799

 Normal termination of Gaussian 16 at Thu Dec  7 12:35:11 2023.
