 Gaussian 16, Revision B.01,
 Gaussian 16:  ES64L-G16RevB.01 20-Dec-2017

 -------------------------
 #P B3LYP/6-311+g(d) force
 -------------------------

 -----
 DPGEN
 -----
 Symbolic Z-matrix:
 Charge =  0 Multiplicity = 2

                         Standard orientation:
 ---------------------------------------------------------------------
 Center     Atomic      Atomic             Coordinates (Angstroms)
 Number     Number       Type             X           Y           Z
 ---------------------------------------------------------------------
      1         11           0       -0.185508   -0.084304   -1.568303
      2         11           0        2.780783   -1.598170   -0.360384
      3         11           0       -0.149969   -2.504860    0.728828
      4         11           0       -0.728601    0.607751    2.004282
      5         11           0       -3.221960   -1.063387   -0.586545
      6         11           0       -1.001941    3.012520   -0.267096
      7         11           0        2.507196    1.630449    0.049218
 ---------------------------------------------------------------------

 SCF Done:  E(UB3LYP) =  -1136.13512459     A.U. after   20 cycles

 The electronic state is 2-A.
 Alpha  occ. eigenvalues --  -38.44261 -38.44089 -38.43755 -38.43532 -38.43418
 Alpha  occ. eigenvalues --  -38.43346 -38.43253  -2.20065  -2.19911  -2.19577
 Alpha  occ. eigenvalues --   -2.19421  -2.19278  -2.19240  -2.19217  -1.13744
 Alpha  occ. eigenvalues --   -1.13710  -1.13700  -1.13593  -1.13589  -1.13540
 Alpha  occ. eigenvalues --   -1.13266  -1.13252  -1.13205  -1.13099  -1.13051
 Alpha  occ. eigenvalues --   -1.13032  -1.12999  -1.12945  -1.12936  -1.12926
 Alpha  occ. eigenvalues --   -1.12901  -1.12884  -1.12842  -1.12835  -1.12829
 Alpha  occ. eigenvalues --   -0.18442  -0.12869  -0.12561  -0.10771
 Alpha virt. eigenvalues --   -0.05908  -0.05145  -0.04549  -0.03106  -0.03067
 Alpha virt. eigenvalues --   -0.02495  -0.01728  -0.01223  -0.00357  -0.00248
 Alpha virt. eigenvalues --    0.00019   0.00330   0.00761   0.00820   0.00901

  Beta  occ. eigenvalues --  -38.44243 -38.44088 -38.43752 -38.43446 -38.43417
  Beta  occ. eigenvalues --  -38.43324 -38.43197  -2.20034  -2.19910  -2.19575
  Beta  occ. eigenvalues --   -2.19278  -2.19263  -2.19203  -2.19115  -1.13709
  Beta  occ. eigenvalues --   -1.13691  -1.13677  -1.13593  -1.13573  -1.13541
  Beta  occ. eigenvalues --   -1.13257  -1.13234  -1.13205  -1.13001  -1.12983
  Beta  occ. eigenvalues --   -1.12943  -1.12937  -1.12926  -1.12924  -1.12898
  Beta  occ. eigenvalues --   -1.12843  -1.12821  -1.12815  -1.12775  -1.12756
  Beta  occ. eigenvalues --   -0.17755  -0.12617  -0.12357
  Beta virt. eigenvalues --   -0.06880  -0.05845  -0.05048  -0.04469  -0.02440
  Beta virt. eigenvalues --   -0.02384  -0.01594  -0.01485  -0.01186  -0.00330
  Beta virt. eigenvalues --   -0.00199   0.00133   0.00381   0.00772   0.00868

 Mulliken charges and spin densities:
               1          2
     1  Na  -0.177305   0.418623
     2  Na   0.109282  -0.046322
     3  Na   0.092530   0.237796
     4  Na  -0.112574   0.418365
     5  Na   0.084254   0.006947
     6  Na   0.056611  -0.061116
     7  Na  -0.052799   0.025706
 Sum of Mulliken charges =  -0.00000   1.00000

 Dipole moment (field-independent basis, Debye):
    X=             -0.3057    Y=              0.3080    Z=              0.0191  Tot=              0.4344
 Quadrupole moment (field-independent basis, Debye-Ang):
   XX=            -56.8503   YY=            -62.6378   ZZ=            -73.8450
   XY=              0.1027   XZ=              0.9058   YZ=             -0.8494

 Normal termination of Gaussian 16 at Thu Dec  7 13:41:55 2023.
