 Gaussian 16, Revision B.01,
 Gaussian 16:  ES64L-G16RevB.01 20-Dec-2017

 -------------------------
 #P B3LYP/6-311+g(d) force
 -------------------------

 -----
 DPGEN
 -----
 Symbolic Z-matrix:
 Charge =  0 Multiplicity = 2

                         Standard orientation:
 ---------------------------------------------------------------------
 Center     Atomic      Atomic             Coordinates (Angstroms)
 Number     Number       Type             X           Y           Z
 ---------------------------------------------------------------------
      1         11           0        3.671818   -1.929564   -0.135319
      2         11           0       -2.858634   -2.655593    0.134106
      3         11           0       -1.027438    2.887832   -0.773995
      4         11           0        0.261283   -0.901990   -1.404707
      5         11           0       -3.001752    0.734026    0.093537
      6         11           0       -0.149771    0.273805    1.765176
      7         11           0        3.104493    1.591484    0.321201
 ---------------------------------------------------------------------

 SCF Done:  E(UB3LYP) =  -1136.11760670     A.U. after   24 cycles

 The electronic state is 2-A.
 Alpha  occ. eigenvalues --  -38.45063 -38.44932 -38.44581 -38.44198 -38.44148
 Alpha  occ. eigenvalues --  -38.43714 -38.42888  -2.20830  -2.20688  -2.20389
 Alpha  occ. eigenvalues --   -2.20107  -2.20009  -2.19493  -2.18743  -1.14506
 Alpha  occ. eigenvalues --   -1.14481  -1.14464  -1.14361  -1.14348  -1.14316
 Alpha  occ. eigenvalues --   -1.14117  -1.14038  -1.13983  -1.13811  -1.13790
 Alpha  occ. eigenvalues --   -1.13739  -1.13706  -1.13637  -1.13602  -1.13173
 Alpha  occ. eigenvalues --   -1.13156  -1.13128  -1.12435  -1.12388  -1.12362
 Alpha  occ. eigenvalues --   -0.17721  -0.13719  -0.11708  -0.09979
 Alpha virt. eigenvalues --   -0.06776  -0.06478  -0.04262  -0.03285  -0.02565
 Alpha virt. eigenvalues --   -0.02465  -0.02052  -0.01738  -0.01158  -0.00495
 Alpha virt. eigenvalues --   -0.00142   0.00159   0.00397   0.00487   0.00603

  Beta  occ. eigenvalues --  -38.45042 -38.44923 -38.44538 -38.44187 -38.44081
  Beta  occ. eigenvalues --  -38.43720 -38.42860  -2.20792  -2.20674  -2.20312
  Beta  occ. eigenvalues --   -2.20091  -2.19885  -2.19506  -2.18693  -1.14473
  Beta  occ. eigenvalues --   -1.14454  -1.14438  -1.14351  -1.14328  -1.14308
  Beta  occ. eigenvalues --   -1.14055  -1.13982  -1.13929  -1.13803  -1.13748
  Beta  occ. eigenvalues --   -1.13724  -1.13620  -1.13560  -1.13506  -1.13184
  Beta  occ. eigenvalues --   -1.13158  -1.13135  -1.12401  -1.12351  -1.12319
  Beta  occ. eigenvalues --   -0.17139  -0.13484  -0.11439
  Beta virt. eigenvalues --   -0.06587  -0.06578  -0.06070  -0.04170  -0.02731
  Beta virt. eigenvalues --   -0.02354  -0.02040  -0.01741  -0.01218  -0.00974
  Beta virt. eigenvalues --   -0.00426   0.00054   0.00228   0.00542   0.00553

 Mulliken charges and spin densities:
               1          2
     1  Na   0.018673  -0.000080
     2  Na   0.013765  -0.063246
     3  Na  -0.247032   0.099242
     4  Na  -0.346531   0.328403
     5  Na   0.465164   0.131678
     6  Na  -0.028295   0.399868
     7  Na   0.124256   0.104136
 Sum of Mulliken charges =  -0.00000   1.00000

 Dipole moment (field-independent basis, Debye):
    X=              1.1321    Y=             -0.2682    Z=              0.1613  Tot=              1.1745
 Quadrupole moment (field-independent basis, Debye-Ang):
   XX=            -52.4408   YY=            -65.5504   ZZ=            -76.5354
   XY=              1.1918   XZ=             -0.1300   YZ=             -2.0569

 Normal termination of Gaussian 16 at Tue Dec  5 16:53:08 2023.
