 Gaussian 16, Revision B.01,
 Gaussian 16:  ES64L-G16RevB.01 20-Dec-2017

 -------------------------
 #P B3LYP/6-311+g(d) force
 -------------------------

 -----
 DPGEN
 -----
 Symbolic Z-matrix:
 Charge =  0 Multiplicity = 2

                         Standard orientation:
 ---------------------------------------------------------------------
 Center     Atomic      Atomic             Coordinates (Angstroms)
 Number     Number       Type             X           Y           Z
 ---------------------------------------------------------------------
      1         11           0       -0.760181    2.930931   -0.120475
      2         11           0       -3.096337    0.279021   -0.091930
      3         11           0       -0.071286    0.170240    1.649316
      4         11           0       -1.364759   -2.647211    0.108753
      5         11           0        0.028398   -0.212941   -1.517098
      6         11           0        2.381369   -1.987389   -0.030315
      7         11           0        2.882796    1.467348    0.001749
 ---------------------------------------------------------------------

 SCF Done:  E(UB3LYP) =  -1136.13799566     A.U. after   20 cycles

 The electronic state is 2-A.
 Alpha  occ. eigenvalues --  -38.44201 -38.44035 -38.43888 -38.43491 -38.43433
 Alpha  occ. eigenvalues --  -38.42751 -38.42740  -2.20010  -2.19895  -2.19729
 Alpha  occ. eigenvalues --   -2.19332  -2.19305  -2.18762  -2.18739  -1.13684
 Alpha  occ. eigenvalues --   -1.13671  -1.13652  -1.13567  -1.13562  -1.13536
 Alpha  occ. eigenvalues --   -1.13415  -1.13390  -1.13358  -1.13015  -1.13001
 Alpha  occ. eigenvalues --   -1.13000  -1.12969  -1.12962  -1.12934  -1.12538
 Alpha  occ. eigenvalues --   -1.12395  -1.12379  -1.12375  -1.12353  -1.12344
 Alpha  occ. eigenvalues --   -0.18854  -0.13214  -0.12546  -0.10018
 Alpha virt. eigenvalues --   -0.05746  -0.05432  -0.04859  -0.02929  -0.02590
 Alpha virt. eigenvalues --   -0.01819  -0.01700  -0.01332  -0.00574  -0.00515
 Alpha virt. eigenvalues --    0.00053   0.00351   0.00778   0.00838   0.00862

  Beta  occ. eigenvalues --  -38.44199 -38.44028 -38.43884 -38.43485 -38.43425
  Beta  occ. eigenvalues --  -38.42675 -38.42673  -2.20009  -2.19887  -2.19724
  Beta  occ. eigenvalues --   -2.19326  -2.19296  -2.18643  -2.18597  -1.13673
  Beta  occ. eigenvalues --   -1.13663  -1.13654  -1.13564  -1.13536  -1.13526
  Beta  occ. eigenvalues --   -1.13407  -1.13367  -1.13359  -1.13011  -1.12994
  Beta  occ. eigenvalues --   -1.12973  -1.12961  -1.12933  -1.12931  -1.12446
  Beta  occ. eigenvalues --   -1.12301  -1.12289  -1.12287  -1.12250  -1.12241
  Beta  occ. eigenvalues --   -0.18147  -0.12967  -0.12291
  Beta virt. eigenvalues --   -0.06148  -0.05729  -0.05427  -0.04845  -0.02153
  Beta virt. eigenvalues --   -0.01838  -0.01619  -0.01264  -0.00845  -0.00623
  Beta virt. eigenvalues --   -0.00572   0.00194   0.00389   0.00813   0.00843

 Mulliken charges and spin densities:
               1          2
     1  Na   0.051161  -0.113442
     2  Na   0.267963  -0.014780
     3  Na  -0.361554   0.743136
     4  Na   0.231608  -0.061579
     5  Na  -0.419825   0.640745
     6  Na   0.181763  -0.085492
     7  Na   0.048884  -0.108588
 Sum of Mulliken charges =  -0.00000   1.00000

 Dipole moment (field-independent basis, Debye):
    X=              0.1770    Y=              0.0751    Z=              0.0389  Tot=              0.1962
 Quadrupole moment (field-independent basis, Debye-Ang):
   XX=            -52.9159   YY=            -58.9465   ZZ=            -78.2568
   XY=              0.2744   XZ=              0.2506   YZ=             -0.9302

 Normal termination of Gaussian 16 at Sun Dec  3 15:35:42 2023.
