 Gaussian 16, Revision B.01,
 Gaussian 16:  ES64L-G16RevB.01 20-Dec-2017

 -------------------------
 #P B3LYP/6-311+g(d) force
 -------------------------

 -----
 DPGEN
 -----
 Symbolic Z-matrix:
 Charge =  0 Multiplicity = 2

                         Standard orientation:
 ---------------------------------------------------------------------
 Center     Atomic      Atomic             Coordinates (Angstroms)
 Number     Number       Type             X           Y           Z
 ---------------------------------------------------------------------
      1         11           0        3.110127    0.726694    0.139850
      2         11           0       -2.367598   -1.912920    0.281028
      3         11           0       -0.119406    0.011216   -1.638952
      4         11           0        1.297231   -2.719521   -0.464537
      5         11           0        0.450422   -0.455678    1.676966
      6         11           0        0.246064    2.909318   -0.036064
      7         11           0       -2.616840    1.440891    0.041710
 ---------------------------------------------------------------------

 SCF Done:  E(UB3LYP) =  -1136.13790124     A.U. after   19 cycles

 The electronic state is 2-A.
 Alpha  occ. eigenvalues --  -38.44047 -38.43833 -38.43737 -38.43536 -38.43457
 Alpha  occ. eigenvalues --  -38.43060 -38.42920  -2.19872  -2.19692  -2.19586
 Alpha  occ. eigenvalues --   -2.19416  -2.19326  -2.19029  -2.18919  -1.13558
 Alpha  occ. eigenvalues --   -1.13528  -1.13507  -1.13382  -1.13369  -1.13306
 Alpha  occ. eigenvalues --   -1.13267  -1.13254  -1.13221  -1.13128  -1.13085
 Alpha  occ. eigenvalues --   -1.13055  -1.13005  -1.12981  -1.12940  -1.12730
 Alpha  occ. eigenvalues --   -1.12662  -1.12643  -1.12597  -1.12544  -1.12536
 Alpha  occ. eigenvalues --   -0.18865  -0.13022  -0.12798  -0.10374
 Alpha virt. eigenvalues --   -0.05673  -0.05158  -0.04903  -0.03013  -0.02855
 Alpha virt. eigenvalues --   -0.02078  -0.01532  -0.01298  -0.00443  -0.00329
 Alpha virt. eigenvalues --    0.00036   0.00353   0.00827   0.00850   0.00917

  Beta  occ. eigenvalues --  -38.44041 -38.43816 -38.43727 -38.43533 -38.43453
  Beta  occ. eigenvalues --  -38.42994 -38.42846  -2.19864  -2.19665  -2.19571
  Beta  occ. eigenvalues --   -2.19413  -2.19322  -2.18908  -2.18785  -1.13543
  Beta  occ. eigenvalues --   -1.13515  -1.13501  -1.13367  -1.13319  -1.13292
  Beta  occ. eigenvalues --   -1.13260  -1.13226  -1.13208  -1.13128  -1.13077
  Beta  occ. eigenvalues --   -1.13038  -1.12996  -1.12967  -1.12935  -1.12645
  Beta  occ. eigenvalues --   -1.12578  -1.12550  -1.12504  -1.12445  -1.12440
  Beta  occ. eigenvalues --   -0.18176  -0.12762  -0.12532
  Beta virt. eigenvalues --   -0.06521  -0.05638  -0.05099  -0.04885  -0.02252
  Beta virt. eigenvalues --   -0.02115  -0.01434  -0.01219  -0.01068  -0.00490
  Beta virt. eigenvalues --   -0.00369   0.00169   0.00394   0.00841   0.00871

 Mulliken charges and spin densities:
               1          2
     1  Na   0.182851  -0.066340
     2  Na   0.215054   0.013529
     3  Na  -0.216199   0.563156
     4  Na   0.090802  -0.065851
     5  Na  -0.368958   0.658082
     6  Na   0.075529  -0.069000
     7  Na   0.020921  -0.033576
 Sum of Mulliken charges =  -0.00000   1.00000

 Dipole moment (field-independent basis, Debye):
    X=              0.2411    Y=             -0.1760    Z=              0.0188  Tot=              0.2991
 Quadrupole moment (field-independent basis, Debye-Ang):
   XX=            -56.5143   YY=            -59.4586   ZZ=            -76.1963
   XY=              0.3702   XZ=             -1.2227   YZ=              0.8669

 Normal termination of Gaussian 16 at Thu Dec  7 08:39:17 2023.
