 Gaussian 16, Revision B.01,
 Gaussian 16:  ES64L-G16RevB.01 20-Dec-2017

 -------------------------
 #P B3LYP/6-311+g(d) force
 -------------------------

 -----
 DPGEN
 -----
 Symbolic Z-matrix:
 Charge =  0 Multiplicity = 2

                         Standard orientation:
 ---------------------------------------------------------------------
 Center     Atomic      Atomic             Coordinates (Angstroms)
 Number     Number       Type             X           Y           Z
 ---------------------------------------------------------------------
      1         11           0       -0.231563    0.189282   -2.428035
      2         11           0       -3.192582   -0.927482    0.569816
      3         11           0        1.614832    2.919070    0.442705
      4         11           0        0.735423   -0.616030    2.609030
      5         11           0        2.820253   -0.909806   -0.562512
      6         11           0        0.356891   -2.434741   -0.454213
      7         11           0       -2.103255    1.779707   -0.176791
 ---------------------------------------------------------------------

 SCF Done:  E(UB3LYP) =  -1136.11976267     A.U. after   22 cycles

 The electronic state is 2-A.
 Alpha  occ. eigenvalues --  -38.45546 -38.45200 -38.44362 -38.43885 -38.43475
 Alpha  occ. eigenvalues --  -38.43244 -38.43226  -2.21332  -2.21046  -2.20216
 Alpha  occ. eigenvalues --   -2.19701  -2.19332  -2.19139  -2.18988  -1.14977
 Alpha  occ. eigenvalues --   -1.14960  -1.14951  -1.14715  -1.14683  -1.14659
 Alpha  occ. eigenvalues --   -1.13965  -1.13862  -1.13838  -1.13441  -1.13347
 Alpha  occ. eigenvalues --   -1.13330  -1.13021  -1.12994  -1.12937  -1.12832
 Alpha  occ. eigenvalues --   -1.12790  -1.12767  -1.12666  -1.12646  -1.12634
 Alpha  occ. eigenvalues --   -0.17942  -0.12998  -0.12132  -0.11463
 Alpha virt. eigenvalues --   -0.05887  -0.05071  -0.04490  -0.03793  -0.03613
 Alpha virt. eigenvalues --   -0.03186  -0.01295  -0.00812  -0.00576  -0.00055
 Alpha virt. eigenvalues --    0.00029   0.00211   0.00474   0.00532   0.00743

  Beta  occ. eigenvalues --  -38.45450 -38.45119 -38.44360 -38.43880 -38.43473
  Beta  occ. eigenvalues --  -38.43244 -38.43214  -2.21153  -2.20898  -2.20216
  Beta  occ. eigenvalues --   -2.19693  -2.19330  -2.19123  -2.18990  -1.14857
  Beta  occ. eigenvalues --   -1.14839  -1.14822  -1.14618  -1.14569  -1.14559
  Beta  occ. eigenvalues --   -1.13968  -1.13846  -1.13830  -1.13438  -1.13333
  Beta  occ. eigenvalues --   -1.13326  -1.13008  -1.12989  -1.12940  -1.12822
  Beta  occ. eigenvalues --   -1.12771  -1.12731  -1.12662  -1.12647  -1.12636
  Beta  occ. eigenvalues --   -0.17117  -0.12836  -0.11319
  Beta virt. eigenvalues --   -0.08214  -0.05440  -0.04952  -0.04167  -0.03363
  Beta virt. eigenvalues --   -0.02871  -0.02483  -0.01197  -0.00742  -0.00205
  Beta virt. eigenvalues --   -0.00061   0.00040   0.00382   0.00514   0.00714

 Mulliken charges and spin densities:
               1          2
     1  Na   0.014396   0.283125
     2  Na   0.133417  -0.013952
     3  Na  -0.173921  -0.025812
     4  Na  -0.434071   0.628455
     5  Na   0.265520  -0.022262
     6  Na   0.299271   0.076559
     7  Na  -0.104611   0.073888
 Sum of Mulliken charges =  -0.00000   1.00000

 Dipole moment (field-independent basis, Debye):
    X=              0.2069    Y=             -0.5424    Z=              0.1909  Tot=              0.6111
 Quadrupole moment (field-independent basis, Debye-Ang):
   XX=            -63.4477   YY=            -73.0995   ZZ=            -62.6943
   XY=              0.1167   XZ=             -0.8637   YZ=             -0.2870

 Normal termination of Gaussian 16 at Mon Dec  4 01:00:03 2023.
