 Gaussian 16, Revision B.01,
 Gaussian 16:  ES64L-G16RevB.01 20-Dec-2017

 -------------------------
 #P B3LYP/6-311+g(d) force
 -------------------------

 -----
 DPGEN
 -----
 Symbolic Z-matrix:
 Charge =  0 Multiplicity = 2

                         Standard orientation:
 ---------------------------------------------------------------------
 Center     Atomic      Atomic             Coordinates (Angstroms)
 Number     Number       Type             X           Y           Z
 ---------------------------------------------------------------------
      1         11           0       -0.279660    2.103905    0.291161
      2         11           0        4.519054   -1.279165   -1.015773
      3         11           0       -3.304055    1.840617    0.073860
      4         11           0       -4.796400   -1.076380   -0.712925
      5         11           0        1.761562   -1.143114    1.789988
      6         11           0       -1.564854   -2.091180    0.018110
      7         11           0        3.664353    1.645317   -0.444420
 ---------------------------------------------------------------------

 SCF Done:  E(UB3LYP) =  -1136.11050144     A.U. after   25 cycles

 The electronic state is 2-A.
 Alpha  occ. eigenvalues --  -38.45475 -38.45329 -38.44906 -38.44631 -38.44104
 Alpha  occ. eigenvalues --  -38.43788 -38.42219  -2.21252  -2.21139  -2.20721
 Alpha  occ. eigenvalues --   -2.20389  -2.19942  -2.19599  -2.18042  -1.14914
 Alpha  occ. eigenvalues --   -1.14902  -1.14866  -1.14831  -1.14796  -1.14769
 Alpha  occ. eigenvalues --   -1.14379  -1.14366  -1.14338  -1.14087  -1.14061
 Alpha  occ. eigenvalues --   -1.14008  -1.13638  -1.13612  -1.13571  -1.13259
 Alpha  occ. eigenvalues --   -1.13256  -1.13229  -1.11722  -1.11708  -1.11688
 Alpha  occ. eigenvalues --   -0.16600  -0.14593  -0.11791  -0.10929
 Alpha virt. eigenvalues --   -0.06821  -0.06048  -0.04086  -0.03462  -0.03121
 Alpha virt. eigenvalues --   -0.02921  -0.02205  -0.01402  -0.01210  -0.00863
 Alpha virt. eigenvalues --   -0.00113  -0.00001   0.00140   0.00334   0.00599

  Beta  occ. eigenvalues --  -38.45398 -38.45291 -38.44865 -38.44616 -38.44099
  Beta  occ. eigenvalues --  -38.43768 -38.42216  -2.21113  -2.21072  -2.20647
  Beta  occ. eigenvalues --   -2.20363  -2.19933  -2.19562  -2.18035  -1.14818
  Beta  occ. eigenvalues --   -1.14801  -1.14779  -1.14764  -1.14751  -1.14706
  Beta  occ. eigenvalues --   -1.14325  -1.14308  -1.14292  -1.14073  -1.14047
  Beta  occ. eigenvalues --   -1.13967  -1.13633  -1.13606  -1.13563  -1.13234
  Beta  occ. eigenvalues --   -1.13224  -1.13213  -1.11722  -1.11703  -1.11676
  Beta  occ. eigenvalues --   -0.15851  -0.14188  -0.10961
  Beta virt. eigenvalues --   -0.07975  -0.06637  -0.05523  -0.03671  -0.03105
  Beta virt. eigenvalues --   -0.02787  -0.02648  -0.01839  -0.01157  -0.00943
  Beta virt. eigenvalues --   -0.00519  -0.00036   0.00031   0.00286   0.00416

 Mulliken charges and spin densities:
               1          2
     1  Na  -0.122402  -0.092788
     2  Na   0.197139   0.152941
     3  Na  -0.045649   0.150659
     4  Na   0.487646   0.158734
     5  Na  -0.231547   0.236221
     6  Na  -0.435418   0.115235
     7  Na   0.150230   0.278999
 Sum of Mulliken charges =  -0.00000   1.00000

 Dipole moment (field-independent basis, Debye):
    X=              1.4979    Y=             -0.7151    Z=             -0.1464  Tot=              1.6663
 Quadrupole moment (field-independent basis, Debye-Ang):
   XX=            -54.8610   YY=            -72.9398   ZZ=            -69.0562
   XY=             -2.4536   XZ=              0.9853   YZ=              0.3020

 Normal termination of Gaussian 16 at Sun Dec  3 15:12:12 2023.
