 Gaussian 16, Revision B.01,
 Gaussian 16:  ES64L-G16RevB.01 20-Dec-2017

 -------------------------
 #P B3LYP/6-311+g(d) force
 -------------------------

 -----
 DPGEN
 -----
 Symbolic Z-matrix:
 Charge =  0 Multiplicity = 2

                         Standard orientation:
 ---------------------------------------------------------------------
 Center     Atomic      Atomic             Coordinates (Angstroms)
 Number     Number       Type             X           Y           Z
 ---------------------------------------------------------------------
      1         11           0        1.689901    3.501081   -0.019385
      2         11           0       -4.434657    0.349478   -0.058489
      3         11           0       -2.099563    3.500737    0.204911
      4         11           0        4.001731    0.999115   -0.410493
      5         11           0        0.643415   -3.774763   -0.189107
      6         11           0        3.577997   -2.019085    0.512398
      7         11           0       -3.378824   -2.556563   -0.039835
 ---------------------------------------------------------------------

 SCF Done:  E(UB3LYP) =  -1136.10400588     A.U. after   21 cycles

 The electronic state is 2-A.
 Alpha  occ. eigenvalues --  -38.45106 -38.44894 -38.44797 -38.44756 -38.44735
 Alpha  occ. eigenvalues --  -38.44552 -38.44084  -2.20842  -2.20680  -2.20591
 Alpha  occ. eigenvalues --   -2.20551  -2.20506  -2.20317  -2.19913  -1.14534
 Alpha  occ. eigenvalues --   -1.14526  -1.14485  -1.14372  -1.14353  -1.14346
 Alpha  occ. eigenvalues --   -1.14337  -1.14256  -1.14237  -1.14203  -1.14188
 Alpha  occ. eigenvalues --   -1.14162  -1.14152  -1.14137  -1.14124  -1.13976
 Alpha  occ. eigenvalues --   -1.13962  -1.13934  -1.13565  -1.13556  -1.13546
 Alpha  occ. eigenvalues --   -0.15403  -0.14184  -0.13357  -0.11021
 Alpha virt. eigenvalues --   -0.08032  -0.04767  -0.04631  -0.03580  -0.03496
 Alpha virt. eigenvalues --   -0.02624  -0.02208  -0.02018  -0.01525  -0.00712
 Alpha virt. eigenvalues --   -0.00466  -0.00249  -0.00001   0.00139   0.00282

  Beta  occ. eigenvalues --  -38.45123 -38.44900 -38.44778 -38.44724 -38.44668
  Beta  occ. eigenvalues --  -38.44477 -38.44032  -2.20878  -2.20698  -2.20562
  Beta  occ. eigenvalues --   -2.20495  -2.20382  -2.20178  -2.19815  -1.14564
  Beta  occ. eigenvalues --   -1.14555  -1.14475  -1.14380  -1.14370  -1.14317
  Beta  occ. eigenvalues --   -1.14302  -1.14239  -1.14210  -1.14168  -1.14153
  Beta  occ. eigenvalues --   -1.14085  -1.14078  -1.14070  -1.14038  -1.13881
  Beta  occ. eigenvalues --   -1.13869  -1.13841  -1.13505  -1.13488  -1.13485
  Beta  occ. eigenvalues --   -0.14888  -0.13535  -0.12508
  Beta virt. eigenvalues --   -0.08152  -0.07941  -0.04259  -0.04089  -0.03381
  Beta virt. eigenvalues --   -0.03247  -0.02455  -0.02016  -0.01884  -0.01354
  Beta virt. eigenvalues --   -0.00314  -0.00145  -0.00002   0.00207   0.00220

 Mulliken charges and spin densities:
               1          2
     1  Na   0.248404  -0.075294
     2  Na   0.223343   0.072465
     3  Na   0.151967   0.374482
     4  Na  -0.218771   0.216891
     5  Na  -0.007475   0.355892
     6  Na  -0.296769  -0.052640
     7  Na  -0.100700   0.108204
 Sum of Mulliken charges =  -0.00000   1.00000

 Dipole moment (field-independent basis, Debye):
    X=             -0.1688    Y=             -0.2940    Z=              0.0110  Tot=              0.3392
 Quadrupole moment (field-independent basis, Debye-Ang):
   XX=            -61.6749   YY=            -65.0232   ZZ=            -74.0574
   XY=             -0.5711   XZ=              0.6305   YZ=             -0.0465

 Normal termination of Gaussian 16 at Sun Dec  3 13:33:30 2023.
