 Gaussian 16, Revision B.01,
 Gaussian 16:  ES64L-G16RevB.01 20-Dec-2017

 -------------------------
 #P B3LYP/6-311+g(d) force
 -------------------------

 -----
 DPGEN
 -----
 Symbolic Z-matrix:
 Charge =  0 Multiplicity = 2

                         Standard orientation:
 ---------------------------------------------------------------------
 Center     Atomic      Atomic             Coordinates (Angstroms)
 Number     Number       Type             X           Y           Z
 ---------------------------------------------------------------------
      1         11           0        2.466255    1.528603   -0.993940
      2         11           0        3.954032   -1.081428   -0.084475
      3         11           0       -1.550493    2.127327    0.082258
      4         11           0        1.086123    0.094061    1.804169
      5         11           0       -2.299179   -0.739288    1.492876
      6         11           0        0.217959   -1.337222   -1.106747
      7         11           0       -3.874698   -0.592052   -1.194140
 ---------------------------------------------------------------------

 SCF Done:  E(UB3LYP) =  -1136.11606738     A.U. after   28 cycles

 The electronic state is 2-A.
 Alpha  occ. eigenvalues --  -38.45706 -38.44682 -38.44511 -38.44170 -38.43526
 Alpha  occ. eigenvalues --  -38.43411 -38.42873  -2.21508  -2.20507  -2.20389
 Alpha  occ. eigenvalues --   -2.20091  -2.19362  -2.19238  -2.18798  -1.15224
 Alpha  occ. eigenvalues --   -1.15194  -1.15092  -1.14229  -1.14173  -1.14142
 Alpha  occ. eigenvalues --   -1.14069  -1.14028  -1.13968  -1.13784  -1.13764
 Alpha  occ. eigenvalues --   -1.13711  -1.13045  -1.13031  -1.12968  -1.12922
 Alpha  occ. eigenvalues --   -1.12887  -1.12871  -1.12506  -1.12453  -1.12397
 Alpha  occ. eigenvalues --   -0.18438  -0.14687  -0.10968  -0.10534
 Alpha virt. eigenvalues --   -0.07310  -0.05557  -0.04953  -0.03094  -0.02968
 Alpha virt. eigenvalues --   -0.02270  -0.02032  -0.01354  -0.01079  -0.00409
 Alpha virt. eigenvalues --   -0.00021   0.00200   0.00269   0.00466   0.00612

  Beta  occ. eigenvalues --  -38.45679 -38.44688 -38.44461 -38.44145 -38.43499
  Beta  occ. eigenvalues --  -38.43404 -38.42829  -2.21464  -2.20519  -2.20296
  Beta  occ. eigenvalues --   -2.20047  -2.19312  -2.19227  -2.18721  -1.15172
  Beta  occ. eigenvalues --   -1.15154  -1.15066  -1.14224  -1.14177  -1.14145
  Beta  occ. eigenvalues --   -1.14003  -1.13973  -1.13907  -1.13745  -1.13726
  Beta  occ. eigenvalues --   -1.13677  -1.13006  -1.12995  -1.12931  -1.12917
  Beta  occ. eigenvalues --   -1.12871  -1.12863  -1.12452  -1.12377  -1.12343
  Beta  occ. eigenvalues --   -0.17759  -0.14503  -0.10333
  Beta virt. eigenvalues --   -0.07237  -0.07124  -0.05065  -0.04614  -0.02990
  Beta virt. eigenvalues --   -0.02664  -0.01801  -0.01401  -0.01178  -0.00613
  Beta virt. eigenvalues --   -0.00253   0.00008   0.00244   0.00351   0.00558

 Mulliken charges and spin densities:
               1          2
     1  Na   0.004941   0.199842
     2  Na   0.890007  -0.007629
     3  Na  -0.503462   0.267827
     4  Na  -0.296124   0.281942
     5  Na   0.347531  -0.004482
     6  Na  -0.741629   0.208090
     7  Na   0.298735   0.054410
 Sum of Mulliken charges =  -0.00000   1.00000

 Dipole moment (field-independent basis, Debye):
    X=              1.0217    Y=              0.1139    Z=              0.2116  Tot=              1.0496
 Quadrupole moment (field-independent basis, Debye-Ang):
   XX=            -55.7394   YY=            -73.9405   ZZ=            -69.8847
   XY=             -2.5282   XZ=              0.0392   YZ=             -4.3357

 Normal termination of Gaussian 16 at Tue Dec  5 15:41:01 2023.
