 Gaussian 16, Revision B.01,
 Gaussian 16:  ES64L-G16RevB.01 20-Dec-2017

 -------------------------
 #P B3LYP/6-311+g(d) force
 -------------------------

 -----
 DPGEN
 -----
 Symbolic Z-matrix:
 Charge =  0 Multiplicity = 2

                         Standard orientation:
 ---------------------------------------------------------------------
 Center     Atomic      Atomic             Coordinates (Angstroms)
 Number     Number       Type             X           Y           Z
 ---------------------------------------------------------------------
      1         11           0        3.305151   -0.993342   -0.212933
      2         11           0        0.706187    0.063248   -1.416032
      3         11           0       -0.583095   -2.856253   -0.260507
      4         11           0        0.294705   -0.474837    1.857737
      5         11           0       -1.789961    1.599446   -0.955507
      6         11           0       -2.928427   -0.490918    0.430363
      7         11           0        0.995440    3.152657    0.556879
 ---------------------------------------------------------------------

 SCF Done:  E(UB3LYP) =  -1136.12188550     A.U. after   20 cycles

 The electronic state is 2-A.
 Alpha  occ. eigenvalues --  -38.44514 -38.44135 -38.44088 -38.44031 -38.43508
 Alpha  occ. eigenvalues --  -38.43463 -38.43025  -2.20326  -2.19983  -2.19948
 Alpha  occ. eigenvalues --   -2.19872  -2.19479  -2.19385  -2.19062  -1.14039
 Alpha  occ. eigenvalues --   -1.13970  -1.13947  -1.13819  -1.13678  -1.13661
 Alpha  occ. eigenvalues --   -1.13614  -1.13578  -1.13537  -1.13535  -1.13523
 Alpha  occ. eigenvalues --   -1.13516  -1.13221  -1.13091  -1.13081  -1.13039
 Alpha  occ. eigenvalues --   -1.13007  -1.12997  -1.12730  -1.12714  -1.12651
 Alpha  occ. eigenvalues --   -0.18812  -0.12989  -0.12491  -0.10698
 Alpha virt. eigenvalues --   -0.06175  -0.05300  -0.04105  -0.03161  -0.03001
 Alpha virt. eigenvalues --   -0.02320  -0.01757  -0.01507  -0.00220  -0.00048
 Alpha virt. eigenvalues --    0.00083   0.00333   0.00656   0.00754   0.00897

  Beta  occ. eigenvalues --  -38.44508 -38.44130 -38.44073 -38.44026 -38.43481
  Beta  occ. eigenvalues --  -38.43385 -38.42970  -2.20318  -2.19977  -2.19942
  Beta  occ. eigenvalues --   -2.19846  -2.19434  -2.19242  -2.18964  -1.14026
  Beta  occ. eigenvalues --   -1.13956  -1.13943  -1.13810  -1.13676  -1.13632
  Beta  occ. eigenvalues --   -1.13612  -1.13549  -1.13535  -1.13512  -1.13502
  Beta  occ. eigenvalues --   -1.13500  -1.13179  -1.13061  -1.12996  -1.12988
  Beta  occ. eigenvalues --   -1.12905  -1.12890  -1.12663  -1.12633  -1.12581
  Beta  occ. eigenvalues --   -0.18105  -0.12742  -0.12247
  Beta virt. eigenvalues --   -0.06864  -0.06102  -0.05150  -0.04047  -0.02471
  Beta virt. eigenvalues --   -0.02347  -0.01706  -0.01365  -0.01308  -0.00145
  Beta virt. eigenvalues --   -0.00054   0.00161   0.00387   0.00694   0.00815

 Mulliken charges and spin densities:
               1          2
     1  Na   0.072666   0.015401
     2  Na  -0.315367   0.061627
     3  Na   0.210852   0.041178
     4  Na  -0.299148   0.635171
     5  Na   0.833235   0.165776
     6  Na  -0.277134   0.027516
     7  Na  -0.225103   0.053330
 Sum of Mulliken charges =  -0.00000   1.00000

 Dipole moment (field-independent basis, Debye):
    X=              0.6757    Y=             -0.3608    Z=              0.3884  Tot=              0.8588
 Quadrupole moment (field-independent basis, Debye-Ang):
   XX=            -57.4121   YY=            -60.7940   ZZ=            -74.1909
   XY=              0.8018   XZ=              0.5627   YZ=              1.9206

 Normal termination of Gaussian 16 at Tue Dec  5 17:39:40 2023.
