 Gaussian 16, Revision B.01,
 Gaussian 16:  ES64L-G16RevB.01 20-Dec-2017

 -------------------------
 #P B3LYP/6-311+g(d) force
 -------------------------

 -----
 DPGEN
 -----
 Symbolic Z-matrix:
 Charge =  0 Multiplicity = 2

                         Standard orientation:
 ---------------------------------------------------------------------
 Center     Atomic      Atomic             Coordinates (Angstroms)
 Number     Number       Type             X           Y           Z
 ---------------------------------------------------------------------
      1         11           0       -0.826106    3.605871   -0.093842
      2         11           0       -4.397075   -1.974149   -0.166042
      3         11           0       -0.613979   -2.798630   -0.305343
      4         11           0        2.796252   -1.843649    0.711119
      5         11           0        1.495365    0.524788   -0.474311
      6         11           0        5.290498    0.692793   -0.115587
      7         11           0       -3.744955    1.792975    0.444006
 ---------------------------------------------------------------------

 SCF Done:  E(UB3LYP) =  -1136.11366217     A.U. after   20 cycles

 The electronic state is 2-A.
 Alpha  occ. eigenvalues --  -38.45050 -38.45017 -38.44846 -38.44836 -38.44122
 Alpha  occ. eigenvalues --  -38.43919 -38.43390  -2.20910  -2.20848  -2.20637
 Alpha  occ. eigenvalues --   -2.20583  -2.19883  -2.19678  -2.19169  -1.14750
 Alpha  occ. eigenvalues --   -1.14580  -1.14530  -1.14511  -1.14474  -1.14420
 Alpha  occ. eigenvalues --   -1.14285  -1.14283  -1.14279  -1.14255  -1.14232
 Alpha  occ. eigenvalues --   -1.14208  -1.13550  -1.13527  -1.13510  -1.13375
 Alpha  occ. eigenvalues --   -1.13360  -1.13294  -1.12835  -1.12823  -1.12808
 Alpha  occ. eigenvalues --   -0.16548  -0.13812  -0.12201  -0.11232
 Alpha virt. eigenvalues --   -0.06682  -0.05640  -0.04683  -0.03822  -0.02840
 Alpha virt. eigenvalues --   -0.02280  -0.02191  -0.01540  -0.01239  -0.01000
 Alpha virt. eigenvalues --   -0.00760  -0.00200   0.00106   0.00444   0.00606

  Beta  occ. eigenvalues --  -38.45037 -38.45003 -38.44845 -38.44740 -38.44073
  Beta  occ. eigenvalues --  -38.43914 -38.43370  -2.20891  -2.20825  -2.20583
  Beta  occ. eigenvalues --   -2.20457  -2.19791  -2.19673  -2.19131  -1.14740
  Beta  occ. eigenvalues --   -1.14572  -1.14517  -1.14463  -1.14424  -1.14406
  Beta  occ. eigenvalues --   -1.14281  -1.14257  -1.14192  -1.14161  -1.14159
  Beta  occ. eigenvalues --   -1.14117  -1.13488  -1.13464  -1.13450  -1.13375
  Beta  occ. eigenvalues --   -1.13359  -1.13271  -1.12809  -1.12793  -1.12789
  Beta  occ. eigenvalues --   -0.15928  -0.13232  -0.11830
  Beta virt. eigenvalues --   -0.07881  -0.06543  -0.05128  -0.04278  -0.03556
  Beta virt. eigenvalues --   -0.02583  -0.02000  -0.01917  -0.01210  -0.01100
  Beta virt. eigenvalues --   -0.00777  -0.00346  -0.00040   0.00306   0.00520

 Mulliken charges and spin densities:
               1          2
     1  Na   0.310180   0.043629
     2  Na   0.129439   0.287309
     3  Na  -0.021342   0.012784
     4  Na   0.930824   0.014985
     5  Na  -1.393828   0.119076
     6  Na   0.319056   0.473881
     7  Na  -0.274329   0.048337
 Sum of Mulliken charges =  -0.00000   1.00000

 Dipole moment (field-independent basis, Debye):
    X=              1.5664    Y=             -0.3466    Z=              0.2224  Tot=              1.6197
 Quadrupole moment (field-independent basis, Debye-Ang):
   XX=            -57.9381   YY=            -67.0410   ZZ=            -72.3632
   XY=             -1.2157   XZ=              0.1124   YZ=             -1.4213

 Normal termination of Gaussian 16 at Sun Dec  3 17:11:16 2023.
