 Gaussian 16, Revision B.01,
 Gaussian 16:  ES64L-G16RevB.01 20-Dec-2017

 -------------------------
 #P B3LYP/6-311+g(d) force
 -------------------------

 -----
 DPGEN
 -----
 Symbolic Z-matrix:
 Charge =  0 Multiplicity = 2

                         Standard orientation:
 ---------------------------------------------------------------------
 Center     Atomic      Atomic             Coordinates (Angstroms)
 Number     Number       Type             X           Y           Z
 ---------------------------------------------------------------------
      1         11           0        1.366393    1.437640    1.475956
      2         11           0        3.721220   -0.739465   -0.707694
      3         11           0       -2.445345   -2.356380   -0.459192
      4         11           0        0.034337    3.284216   -0.870607
      5         11           0       -0.799066   -0.796352    2.254409
      6         11           0        1.014214   -2.079667   -0.914032
      7         11           0       -2.891751    1.250008   -0.778839
 ---------------------------------------------------------------------

 SCF Done:  E(UB3LYP) =  -1136.12339077     A.U. after   20 cycles

 The electronic state is 2-A.
 Alpha  occ. eigenvalues --  -38.44703 -38.44611 -38.44021 -38.43909 -38.43871
 Alpha  occ. eigenvalues --  -38.43837 -38.43760  -2.20475  -2.20468  -2.19839
 Alpha  occ. eigenvalues --   -2.19763  -2.19665  -2.19653  -2.19606  -1.14157
 Alpha  occ. eigenvalues --   -1.14154  -1.14127  -1.14104  -1.14094  -1.14070
 Alpha  occ. eigenvalues --   -1.13578  -1.13484  -1.13464  -1.13462  -1.13444
 Alpha  occ. eigenvalues --   -1.13378  -1.13331  -1.13326  -1.13310  -1.13303
 Alpha  occ. eigenvalues --   -1.13301  -1.13296  -1.13275  -1.13259  -1.13211
 Alpha  occ. eigenvalues --   -0.17387  -0.12972  -0.12623  -0.11433
 Alpha virt. eigenvalues --   -0.06262  -0.05384  -0.04554  -0.03638  -0.03247
 Alpha virt. eigenvalues --   -0.02518  -0.01618  -0.01152  -0.00831  -0.00469
 Alpha virt. eigenvalues --   -0.00161   0.00315   0.00508   0.00520   0.00701

  Beta  occ. eigenvalues --  -38.44673 -38.44513 -38.44001 -38.43868 -38.43863
  Beta  occ. eigenvalues --  -38.43832 -38.43745  -2.20417  -2.20290  -2.19804
  Beta  occ. eigenvalues --   -2.19693  -2.19651  -2.19645  -2.19579  -1.14115
  Beta  occ. eigenvalues --   -1.14092  -1.14052  -1.14026  -1.13987  -1.13935
  Beta  occ. eigenvalues --   -1.13550  -1.13459  -1.13440  -1.13410  -1.13393
  Beta  occ. eigenvalues --   -1.13333  -1.13323  -1.13313  -1.13297  -1.13293
  Beta  occ. eigenvalues --   -1.13290  -1.13280  -1.13256  -1.13238  -1.13187
  Beta  occ. eigenvalues --   -0.16715  -0.12758  -0.12299
  Beta virt. eigenvalues --   -0.07652  -0.06061  -0.05182  -0.04107  -0.03242
  Beta virt. eigenvalues --   -0.02771  -0.01812  -0.01487  -0.01101  -0.00681
  Beta virt. eigenvalues --   -0.00290   0.00034   0.00384   0.00543   0.00680

 Mulliken charges and spin densities:
               1          2
     1  Na  -0.144515   0.207556
     2  Na   0.627713  -0.115188
     3  Na   0.278770   0.222169
     4  Na   0.076938   0.050802
     5  Na   0.130246   0.291241
     6  Na  -0.747082   0.206662
     7  Na  -0.222070   0.136758
 Sum of Mulliken charges =  -0.00000   1.00000

 Dipole moment (field-independent basis, Debye):
    X=             -0.3176    Y=             -0.0562    Z=             -0.1290  Tot=              0.3474
 Quadrupole moment (field-independent basis, Debye-Ang):
   XX=            -59.6774   YY=            -68.2217   ZZ=            -70.0789
   XY=              4.6790   XZ=              0.2418   YZ=             -1.2206

 Normal termination of Gaussian 16 at Sun Dec  3 18:48:50 2023.
