 Gaussian 16, Revision B.01,
 Gaussian 16:  ES64L-G16RevB.01 20-Dec-2017

 -------------------------
 #P B3LYP/6-311+g(d) force
 -------------------------

 -----
 DPGEN
 -----
 Symbolic Z-matrix:
 Charge =  0 Multiplicity = 2

                         Standard orientation:
 ---------------------------------------------------------------------
 Center     Atomic      Atomic             Coordinates (Angstroms)
 Number     Number       Type             X           Y           Z
 ---------------------------------------------------------------------
      1         11           0       -1.655006    2.940638   -0.324895
      2         11           0       -0.186189    0.358343   -1.548332
      3         11           0        0.027295   -0.260495    2.108772
      4         11           0       -0.578573   -3.052294   -0.316044
      5         11           0        2.558759    1.994373    0.315938
      6         11           0        2.842390   -1.348023   -0.441486
      7         11           0       -3.008676   -0.632543    0.206048
 ---------------------------------------------------------------------

 SCF Done:  E(UB3LYP) =  -1136.13606072     A.U. after   19 cycles

 The electronic state is 2-A.
 Alpha  occ. eigenvalues --  -38.44162 -38.44092 -38.43876 -38.43772 -38.43754
 Alpha  occ. eigenvalues --  -38.43499 -38.43186  -2.19955  -2.19922  -2.19687
 Alpha  occ. eigenvalues --   -2.19623  -2.19551  -2.19319  -2.19122  -1.13626
 Alpha  occ. eigenvalues --   -1.13616  -1.13603  -1.13598  -1.13597  -1.13545
 Alpha  occ. eigenvalues --   -1.13363  -1.13344  -1.13321  -1.13289  -1.13255
 Alpha  occ. eigenvalues --   -1.13250  -1.13233  -1.13202  -1.13186  -1.12994
 Alpha  occ. eigenvalues --   -1.12978  -1.12961  -1.12813  -1.12756  -1.12748
 Alpha  occ. eigenvalues --   -0.18095  -0.12910  -0.12293  -0.10555
 Alpha virt. eigenvalues --   -0.05710  -0.05308  -0.05053  -0.03168  -0.02791
 Alpha virt. eigenvalues --   -0.02467  -0.01527  -0.01387  -0.00704  -0.00559
 Alpha virt. eigenvalues --   -0.00029   0.00335   0.00786   0.00791   0.00822

  Beta  occ. eigenvalues --  -38.44157 -38.44086 -38.43867 -38.43750 -38.43675
  Beta  occ. eigenvalues --  -38.43493 -38.43135  -2.19947  -2.19914  -2.19672
  Beta  occ. eigenvalues --   -2.19546  -2.19445  -2.19311  -2.19030  -1.13614
  Beta  occ. eigenvalues --   -1.13603  -1.13597  -1.13595  -1.13573  -1.13541
  Beta  occ. eigenvalues --   -1.13343  -1.13334  -1.13307  -1.13237  -1.13193
  Beta  occ. eigenvalues --   -1.13184  -1.13170  -1.13133  -1.13103  -1.12982
  Beta  occ. eigenvalues --   -1.12972  -1.12945  -1.12746  -1.12692  -1.12677
  Beta  occ. eigenvalues --   -0.17401  -0.12717  -0.12050
  Beta virt. eigenvalues --   -0.06722  -0.05623  -0.05254  -0.04965  -0.02435
  Beta virt. eigenvalues --   -0.02132  -0.01483  -0.01420  -0.01258  -0.00717
  Beta virt. eigenvalues --   -0.00595   0.00125   0.00379   0.00794   0.00835

 Mulliken charges and spin densities:
               1          2
     1  Na   0.085646  -0.061331
     2  Na  -0.074917   0.391268
     3  Na  -0.334395   0.680668
     4  Na   0.003121  -0.025366
     5  Na   0.042172   0.013169
     6  Na   0.056549  -0.009851
     7  Na   0.221825   0.011443
 Sum of Mulliken charges =  -0.00000   1.00000

 Dipole moment (field-independent basis, Debye):
    X=              0.0218    Y=              0.1290    Z=              0.1779  Tot=              0.2208
 Quadrupole moment (field-independent basis, Debye-Ang):
   XX=            -57.5462   YY=            -60.0215   ZZ=            -75.5280
   XY=              0.5422   XZ=             -0.6559   YZ=              1.7301

 Normal termination of Gaussian 16 at Thu Dec  7 05:33:18 2023.
