 Gaussian 16, Revision B.01,
 Gaussian 16:  ES64L-G16RevB.01 20-Dec-2017

 -------------------------
 #P B3LYP/6-311+g(d) force
 -------------------------

 -----
 DPGEN
 -----
 Symbolic Z-matrix:
 Charge =  0 Multiplicity = 2

                         Standard orientation:
 ---------------------------------------------------------------------
 Center     Atomic      Atomic             Coordinates (Angstroms)
 Number     Number       Type             X           Y           Z
 ---------------------------------------------------------------------
      1         11           0        3.807682    0.223619    0.725187
      2         11           0        1.754809   -1.842345   -1.116809
      3         11           0        1.360426    1.541126   -0.942153
      4         11           0       -4.016258   -0.884658    0.494789
      5         11           0       -1.417531   -0.863419   -1.104320
      6         11           0        0.352424   -0.515024    2.042286
      7         11           0       -1.841553    2.340702   -0.098980
 ---------------------------------------------------------------------

 SCF Done:  E(UB3LYP) =  -1136.11702066     A.U. after   27 cycles

 The electronic state is 2-A.
 Alpha  occ. eigenvalues --  -38.45992 -38.45314 -38.45056 -38.43505 -38.43194
 Alpha  occ. eigenvalues --  -38.42735 -38.42616  -2.21773  -2.21147  -2.20863
 Alpha  occ. eigenvalues --   -2.19403  -2.19156  -2.18568  -2.18530  -1.15465
 Alpha  occ. eigenvalues --   -1.15422  -1.15386  -1.14819  -1.14800  -1.14770
 Alpha  occ. eigenvalues --   -1.14562  -1.14495  -1.14488  -1.13101  -1.13045
 Alpha  occ. eigenvalues --   -1.13025  -1.12853  -1.12821  -1.12770  -1.12260
 Alpha  occ. eigenvalues --   -1.12243  -1.12215  -1.12204  -1.12201  -1.12143
 Alpha  occ. eigenvalues --   -0.18500  -0.14246  -0.11209  -0.10746
 Alpha virt. eigenvalues --   -0.07668  -0.04988  -0.04520  -0.03153  -0.03087
 Alpha virt. eigenvalues --   -0.02319  -0.02168  -0.01293  -0.01019  -0.00245
 Alpha virt. eigenvalues --   -0.00088   0.00157   0.00218   0.00652   0.00712

  Beta  occ. eigenvalues --  -38.45953 -38.45288 -38.45030 -38.43453 -38.43158
  Beta  occ. eigenvalues --  -38.42735 -38.42600  -2.21702  -2.21098  -2.20814
  Beta  occ. eigenvalues --   -2.19309  -2.19094  -2.18569  -2.18506  -1.15412
  Beta  occ. eigenvalues --   -1.15374  -1.15330  -1.14789  -1.14757  -1.14736
  Beta  occ. eigenvalues --   -1.14530  -1.14463  -1.14453  -1.13026  -1.12988
  Beta  occ. eigenvalues --   -1.12945  -1.12812  -1.12743  -1.12730  -1.12253
  Beta  occ. eigenvalues --   -1.12240  -1.12209  -1.12195  -1.12153  -1.12130
  Beta  occ. eigenvalues --   -0.17793  -0.13992  -0.10590
  Beta virt. eigenvalues --   -0.07468  -0.07234  -0.04968  -0.03927  -0.02899
  Beta virt. eigenvalues --   -0.02841  -0.01763  -0.01556  -0.01008  -0.00772
  Beta virt. eigenvalues --   -0.00194  -0.00015   0.00214   0.00377   0.00718

 Mulliken charges and spin densities:
               1          2
     1  Na   0.910188   0.187971
     2  Na   0.133861   0.099341
     3  Na  -0.678449   0.092223
     4  Na   0.676762   0.242117
     5  Na  -0.575263   0.051573
     6  Na  -0.516135   0.363367
     7  Na   0.049038  -0.036592
 Sum of Mulliken charges =  -0.00000   1.00000

 Dipole moment (field-independent basis, Debye):
    X=              0.3978    Y=             -0.2673    Z=              0.9997  Tot=              1.1086
 Quadrupole moment (field-independent basis, Debye-Ang):
   XX=            -45.1407   YY=            -79.5226   ZZ=            -69.0607
   XY=             -0.6288   XZ=             -2.0774   YZ=              1.4403

 Normal termination of Gaussian 16 at Thu Dec  7 19:44:43 2023.
