 Gaussian 16, Revision B.01,
 Gaussian 16:  ES64L-G16RevB.01 20-Dec-2017

 -------------------------
 #P B3LYP/6-311+g(d) force
 -------------------------

 -----
 DPGEN
 -----
 Symbolic Z-matrix:
 Charge =  0 Multiplicity = 2

                         Standard orientation:
 ---------------------------------------------------------------------
 Center     Atomic      Atomic             Coordinates (Angstroms)
 Number     Number       Type             X           Y           Z
 ---------------------------------------------------------------------
      1         11           0       -0.708359    2.722687    0.034233
      2         11           0        2.572017    1.853494   -0.112182
      3         11           0       -3.308856    0.274603   -0.278181
      4         11           0        2.498430   -1.829739    0.141860
      5         11           0       -1.027277   -2.630448    0.012602
      6         11           0        0.230902   -0.330106   -1.839755
      7         11           0       -0.256857   -0.060490    2.041423
 ---------------------------------------------------------------------

 SCF Done:  E(UB3LYP) =  -1136.13918799     A.U. after   19 cycles

 The electronic state is 2-A.
 Alpha  occ. eigenvalues --  -38.44117 -38.43859 -38.43690 -38.43661 -38.43514
 Alpha  occ. eigenvalues --  -38.43449 -38.43270  -2.19909  -2.19687  -2.19550
 Alpha  occ. eigenvalues --   -2.19505  -2.19440  -2.19323  -2.19118  -1.13581
 Alpha  occ. eigenvalues --   -1.13565  -1.13556  -1.13373  -1.13354  -1.13323
 Alpha  occ. eigenvalues --   -1.13223  -1.13196  -1.13182  -1.13168  -1.13160
 Alpha  occ. eigenvalues --   -1.13151  -1.13145  -1.13086  -1.13054  -1.12992
 Alpha  occ. eigenvalues --   -1.12978  -1.12928  -1.12799  -1.12789  -1.12743
 Alpha  occ. eigenvalues --   -0.18473  -0.12755  -0.12544  -0.10821
 Alpha virt. eigenvalues --   -0.05660  -0.05244  -0.04646  -0.03144  -0.03028
 Alpha virt. eigenvalues --   -0.02678  -0.01584  -0.01124  -0.00367  -0.00300
 Alpha virt. eigenvalues --   -0.00045   0.00360   0.00781   0.00860   0.00906

  Beta  occ. eigenvalues --  -38.44114 -38.43855 -38.43689 -38.43569 -38.43443
  Beta  occ. eigenvalues --  -38.43440 -38.43266  -2.19906  -2.19684  -2.19507
  Beta  occ. eigenvalues --   -2.19381  -2.19313  -2.19308  -2.19113  -1.13569
  Beta  occ. eigenvalues --   -1.13558  -1.13556  -1.13365  -1.13335  -1.13322
  Beta  occ. eigenvalues --   -1.13177  -1.13158  -1.13154  -1.13120  -1.13079
  Beta  occ. eigenvalues --   -1.13070  -1.13042  -1.13002  -1.12965  -1.12958
  Beta  occ. eigenvalues --   -1.12926  -1.12923  -1.12794  -1.12763  -1.12745
  Beta  occ. eigenvalues --   -0.17725  -0.12556  -0.12309
  Beta virt. eigenvalues --   -0.06915  -0.05611  -0.05250  -0.04569  -0.02396
  Beta virt. eigenvalues --   -0.02222  -0.01635  -0.01493  -0.01066  -0.00433
  Beta virt. eigenvalues --   -0.00338   0.00099   0.00379   0.00842   0.00857

 Mulliken charges and spin densities:
               1          2
     1  Na   0.057393  -0.083265
     2  Na   0.006287  -0.101944
     3  Na   0.041437  -0.073429
     4  Na   0.194064  -0.089125
     5  Na   0.301071  -0.077772
     6  Na  -0.244825   0.685149
     7  Na  -0.355428   0.740388
 Sum of Mulliken charges =  -0.00000   1.00000

 Dipole moment (field-independent basis, Debye):
    X=             -0.0148    Y=             -0.1499    Z=              0.0304  Tot=              0.1536
 Quadrupole moment (field-independent basis, Debye-Ang):
   XX=            -56.0729   YY=            -64.1055   ZZ=            -73.6310
   XY=             -0.2885   XZ=              1.2199   YZ=             -0.6545

 Normal termination of Gaussian 16 at Tue Dec  5 16:08:20 2023.
