 Gaussian 16, Revision B.01,
 Gaussian 16:  ES64L-G16RevB.01 20-Dec-2017

 -------------------------
 #P B3LYP/6-311+g(d) force
 -------------------------

 -----
 DPGEN
 -----
 Symbolic Z-matrix:
 Charge =  0 Multiplicity = 2

                         Standard orientation:
 ---------------------------------------------------------------------
 Center     Atomic      Atomic             Coordinates (Angstroms)
 Number     Number       Type             X           Y           Z
 ---------------------------------------------------------------------
      1         11           0        0.119828    2.805649   -0.017867
      2         11           0       -2.426880   -2.108212   -0.540209
      3         11           0       -0.199373   -0.832558    2.024326
      4         11           0        2.093653   -2.163938   -0.094194
      5         11           0        3.017690    0.897545   -0.035186
      6         11           0        0.000044   -0.055912   -1.567901
      7         11           0       -2.604961    1.457426    0.231032
 ---------------------------------------------------------------------

 SCF Done:  E(UB3LYP) =  -1136.13428281     A.U. after   19 cycles

 The electronic state is 2-A.
 Alpha  occ. eigenvalues --  -38.44100 -38.43956 -38.43919 -38.43916 -38.43555
 Alpha  occ. eigenvalues --  -38.43127 -38.42999  -2.19948  -2.19828  -2.19788
 Alpha  occ. eigenvalues --   -2.19737  -2.19427  -2.19121  -2.18893  -1.13641
 Alpha  occ. eigenvalues --   -1.13608  -1.13605  -1.13536  -1.13486  -1.13464
 Alpha  occ. eigenvalues --   -1.13463  -1.13453  -1.13417  -1.13407  -1.13383
 Alpha  occ. eigenvalues --   -1.13375  -1.13091  -1.13057  -1.13043  -1.12814
 Alpha  occ. eigenvalues --   -1.12778  -1.12740  -1.12567  -1.12540  -1.12533
 Alpha  occ. eigenvalues --   -0.18675  -0.13335  -0.12441  -0.10630
 Alpha virt. eigenvalues --   -0.05743  -0.05543  -0.04444  -0.03277  -0.02909
 Alpha virt. eigenvalues --   -0.02367  -0.01619  -0.01243  -0.00449  -0.00194
 Alpha virt. eigenvalues --   -0.00009   0.00342   0.00754   0.00825   0.00895

  Beta  occ. eigenvalues --  -38.44098 -38.43950 -38.43913 -38.43901 -38.43468
  Beta  occ. eigenvalues --  -38.43065 -38.42996  -2.19948  -2.19819  -2.19781
  Beta  occ. eigenvalues --   -2.19712  -2.19266  -2.19009  -2.18890  -1.13644
  Beta  occ. eigenvalues --   -1.13608  -1.13588  -1.13533  -1.13462  -1.13460
  Beta  occ. eigenvalues --   -1.13454  -1.13417  -1.13408  -1.13387  -1.13362
  Beta  occ. eigenvalues --   -1.13358  -1.12985  -1.12941  -1.12930  -1.12734
  Beta  occ. eigenvalues --   -1.12705  -1.12656  -1.12562  -1.12534  -1.12513
  Beta  occ. eigenvalues --   -0.17986  -0.13107  -0.12193
  Beta virt. eigenvalues --   -0.06751  -0.05715  -0.05474  -0.04382  -0.02514
  Beta virt. eigenvalues --   -0.02171  -0.01514  -0.01364  -0.01151  -0.00506
  Beta virt. eigenvalues --   -0.00209   0.00158   0.00385   0.00806   0.00851

 Mulliken charges and spin densities:
               1          2
     1  Na   0.019585  -0.000414
     2  Na   0.201684  -0.016123
     3  Na  -0.523837   0.575975
     4  Na   0.429861  -0.002143
     5  Na   0.017671   0.024088
     6  Na  -0.316472   0.325229
     7  Na   0.171508   0.093389
 Sum of Mulliken charges =  -0.00000   1.00000

 Dipole moment (field-independent basis, Debye):
    X=              0.0565    Y=             -0.3471    Z=              0.1498  Tot=              0.3822
 Quadrupole moment (field-independent basis, Debye-Ang):
   XX=            -55.1075   YY=            -63.9039   ZZ=            -74.8858
   XY=              0.6562   XZ=              0.1518   YZ=              1.5997

 Normal termination of Gaussian 16 at Thu Dec  7 23:22:26 2023.
