 Gaussian 16, Revision B.01,
 Gaussian 16:  ES64L-G16RevB.01 20-Dec-2017

 -------------------------
 #P B3LYP/6-311+g(d) force
 -------------------------

 -----
 DPGEN
 -----
 Symbolic Z-matrix:
 Charge =  0 Multiplicity = 2

                         Standard orientation:
 ---------------------------------------------------------------------
 Center     Atomic      Atomic             Coordinates (Angstroms)
 Number     Number       Type             X           Y           Z
 ---------------------------------------------------------------------
      1         11           0        1.461730   -2.562296   -0.178331
      2         11           0       -2.559033   -1.919272   -0.175969
      3         11           0       -0.025188    0.308667   -1.443524
      4         11           0        0.323906   -0.035357    2.223846
      5         11           0       -3.452631    1.072313   -0.072771
      6         11           0        3.719307    0.278405   -0.316769
      7         11           0        0.531910    2.857540   -0.036482
 ---------------------------------------------------------------------

 SCF Done:  E(UB3LYP) =  -1136.12421164     A.U. after   23 cycles

 The electronic state is 2-A.
 Alpha  occ. eigenvalues --  -38.45490 -38.44860 -38.43848 -38.43829 -38.43561
 Alpha  occ. eigenvalues --  -38.43262 -38.43063  -2.21244  -2.20656  -2.19784
 Alpha  occ. eigenvalues --   -2.19655  -2.19410  -2.19077  -2.18907  -1.14921
 Alpha  occ. eigenvalues --   -1.14889  -1.14873  -1.14345  -1.14321  -1.14282
 Alpha  occ. eigenvalues --   -1.13522  -1.13467  -1.13386  -1.13326  -1.13321
 Alpha  occ. eigenvalues --   -1.13288  -1.13063  -1.13036  -1.13021  -1.12767
 Alpha  occ. eigenvalues --   -1.12744  -1.12704  -1.12623  -1.12552  -1.12512
 Alpha  occ. eigenvalues --   -0.17938  -0.13379  -0.11730  -0.10443
 Alpha virt. eigenvalues --   -0.06960  -0.05210  -0.04245  -0.03151  -0.02672
 Alpha virt. eigenvalues --   -0.02551  -0.02436  -0.01346  -0.00568  -0.00478
 Alpha virt. eigenvalues --   -0.00160   0.00171   0.00654   0.00679   0.00778

  Beta  occ. eigenvalues --  -38.45471 -38.44859 -38.43827 -38.43819 -38.43444
  Beta  occ. eigenvalues --  -38.43259 -38.43059  -2.21211  -2.20656  -2.19733
  Beta  occ. eigenvalues --   -2.19653  -2.19194  -2.19073  -2.18903  -1.14886
  Beta  occ. eigenvalues --   -1.14867  -1.14853  -1.14347  -1.14310  -1.14282
  Beta  occ. eigenvalues --   -1.13483  -1.13426  -1.13350  -1.13326  -1.13310
  Beta  occ. eigenvalues --   -1.13279  -1.12918  -1.12890  -1.12865  -1.12764
  Beta  occ. eigenvalues --   -1.12728  -1.12697  -1.12619  -1.12529  -1.12512
  Beta  occ. eigenvalues --   -0.17295  -0.13135  -0.11552
  Beta virt. eigenvalues --   -0.06870  -0.06482  -0.05212  -0.04210  -0.02546
  Beta virt. eigenvalues --   -0.02495  -0.01804  -0.01450  -0.01277  -0.00577
  Beta virt. eigenvalues --   -0.00481   0.00035   0.00258   0.00744   0.00760

 Mulliken charges and spin densities:
               1          2
     1  Na   0.050029   0.030192
     2  Na   0.097461   0.008960
     3  Na  -0.146322   0.243936
     4  Na  -0.393583   0.708476
     5  Na   0.206226  -0.000979
     6  Na   0.135771   0.072887
     7  Na   0.050419  -0.063473
 Sum of Mulliken charges =  -0.00000   1.00000

 Dipole moment (field-independent basis, Debye):
    X=              0.1917    Y=              0.2578    Z=              0.1716  Tot=              0.3643
 Quadrupole moment (field-independent basis, Debye-Ang):
   XX=            -49.4580   YY=            -67.6903   ZZ=            -75.7139
   XY=             -0.2909   XZ=             -0.4927   YZ=              1.0585

 Normal termination of Gaussian 16 at Fri Dec  8 01:30:32 2023.
