 Gaussian 16, Revision B.01,
 Gaussian 16:  ES64L-G16RevB.01 20-Dec-2017

 -------------------------
 #P B3LYP/6-311+g(d) force
 -------------------------

 -----
 DPGEN
 -----
 Symbolic Z-matrix:
 Charge =  0 Multiplicity = 2

                         Standard orientation:
 ---------------------------------------------------------------------
 Center     Atomic      Atomic             Coordinates (Angstroms)
 Number     Number       Type             X           Y           Z
 ---------------------------------------------------------------------
      1         11           0        0.115171   -0.463121    1.446055
      2         11           0        2.161556   -1.493773   -1.077834
      3         11           0       -1.407057   -1.544012   -1.354953
      4         11           0       -2.474722    1.746939   -0.931365
      5         11           0       -3.460835   -0.479203    1.570234
      6         11           0        1.028347    1.742019   -0.658550
      7         11           0        4.037539    0.491151    1.006412
 ---------------------------------------------------------------------

 SCF Done:  E(UB3LYP) =  -1136.12044412     A.U. after   33 cycles

 The electronic state is 2-A.
 Alpha  occ. eigenvalues --  -38.45098 -38.44827 -38.44742 -38.43796 -38.43632
 Alpha  occ. eigenvalues --  -38.43304 -38.42949  -2.20991  -2.20630  -2.20571
 Alpha  occ. eigenvalues --   -2.19675  -2.19475  -2.19183  -2.18819  -1.14730
 Alpha  occ. eigenvalues --   -1.14622  -1.14607  -1.14301  -1.14285  -1.14243
 Alpha  occ. eigenvalues --   -1.14233  -1.14202  -1.14192  -1.13410  -1.13334
 Alpha  occ. eigenvalues --   -1.13270  -1.13152  -1.13123  -1.13110  -1.12877
 Alpha  occ. eigenvalues --   -1.12857  -1.12795  -1.12505  -1.12490  -1.12439
 Alpha  occ. eigenvalues --   -0.18485  -0.14470  -0.11388  -0.10578
 Alpha virt. eigenvalues --   -0.07134  -0.05378  -0.04782  -0.03182  -0.02936
 Alpha virt. eigenvalues --   -0.02294  -0.02074  -0.01444  -0.00959  -0.00193
 Alpha virt. eigenvalues --   -0.00009   0.00221   0.00339   0.00540   0.00627

  Beta  occ. eigenvalues --  -38.45075 -38.44798 -38.44675 -38.43768 -38.43601
  Beta  occ. eigenvalues --  -38.43300 -38.42936  -2.20950  -2.20574  -2.20446
  Beta  occ. eigenvalues --   -2.19627  -2.19423  -2.19178  -2.18799  -1.14687
  Beta  occ. eigenvalues --   -1.14600  -1.14574  -1.14263  -1.14245  -1.14209
  Beta  occ. eigenvalues --   -1.14142  -1.14116  -1.14112  -1.13384  -1.13297
  Beta  occ. eigenvalues --   -1.13214  -1.13113  -1.13087  -1.13059  -1.12865
  Beta  occ. eigenvalues --   -1.12855  -1.12783  -1.12493  -1.12456  -1.12423
  Beta  occ. eigenvalues --   -0.17870  -0.14087  -0.10358
  Beta virt. eigenvalues --   -0.07666  -0.06882  -0.04916  -0.04533  -0.02809
  Beta virt. eigenvalues --   -0.02730  -0.01827  -0.01445  -0.01032  -0.00816
  Beta virt. eigenvalues --   -0.00094   0.00050   0.00356   0.00394   0.00627

 Mulliken charges and spin densities:
               1          2
     1  Na  -0.975888   0.137698
     2  Na   0.058939  -0.065293
     3  Na  -0.174727   0.262981
     4  Na  -0.050711   0.010582
     5  Na   0.567938   0.249208
     6  Na  -0.388175   0.220390
     7  Na   0.962625   0.184434
 Sum of Mulliken charges =  -0.00000   1.00000

 Dipole moment (field-independent basis, Debye):
    X=              0.3778    Y=             -0.4318    Z=              0.3877  Tot=              0.6925
 Quadrupole moment (field-independent basis, Debye-Ang):
   XX=            -47.7200   YY=            -80.8352   ZZ=            -66.7494
   XY=              0.0284   XZ=              1.0347   YZ=             -2.0851

 Normal termination of Gaussian 16 at Tue Dec  5 17:57:58 2023.
