 Gaussian 16, Revision B.01,
 Gaussian 16:  ES64L-G16RevB.01 20-Dec-2017

 -------------------------
 #P B3LYP/6-311+g(d) force
 -------------------------

 -----
 DPGEN
 -----
 Symbolic Z-matrix:
 Charge =  0 Multiplicity = 2

                         Standard orientation:
 ---------------------------------------------------------------------
 Center     Atomic      Atomic             Coordinates (Angstroms)
 Number     Number       Type             X           Y           Z
 ---------------------------------------------------------------------
      1         11           0        2.553565   -0.208720    1.928080
      2         11           0       -0.712892   -0.165754    2.257730
      3         11           0        0.225638   -0.965634   -1.323885
      4         11           0        3.560500   -0.614854   -1.175000
      5         11           0       -2.887327    1.337194    0.308535
      6         11           0       -2.946720   -2.078274   -0.784005
      7         11           0        0.207235    2.696042   -1.211456
 ---------------------------------------------------------------------

 SCF Done:  E(UB3LYP) =  -1136.11846584     A.U. after   27 cycles

 The electronic state is 2-A.
 Alpha  occ. eigenvalues --  -38.45709 -38.44963 -38.44617 -38.44411 -38.43492
 Alpha  occ. eigenvalues --  -38.43267 -38.42556  -2.21503  -2.20784  -2.20431
 Alpha  occ. eigenvalues --   -2.20217  -2.19343  -2.19095  -2.18402  -1.15142
 Alpha  occ. eigenvalues --   -1.15133  -1.15109  -1.14461  -1.14447  -1.14419
 Alpha  occ. eigenvalues --   -1.14097  -1.14069  -1.14047  -1.13890  -1.13884
 Alpha  occ. eigenvalues --   -1.13861  -1.13044  -1.13024  -1.12963  -1.12774
 Alpha  occ. eigenvalues --   -1.12763  -1.12736  -1.12090  -1.12077  -1.12029
 Alpha  occ. eigenvalues --   -0.17763  -0.13677  -0.12279  -0.10914
 Alpha virt. eigenvalues --   -0.06598  -0.05659  -0.04426  -0.03587  -0.02783
 Alpha virt. eigenvalues --   -0.02683  -0.02265  -0.01311  -0.00678  -0.00327
 Alpha virt. eigenvalues --   -0.00022   0.00125   0.00222   0.00518   0.00766

  Beta  occ. eigenvalues --  -38.45587 -38.44943 -38.44556 -38.44420 -38.43480
  Beta  occ. eigenvalues --  -38.43271 -38.42555  -2.21276  -2.20753  -2.20319
  Beta  occ. eigenvalues --   -2.20233  -2.19326  -2.19103  -2.18400  -1.14991
  Beta  occ. eigenvalues --   -1.14979  -1.14945  -1.14441  -1.14407  -1.14386
  Beta  occ. eigenvalues --   -1.14015  -1.13994  -1.13972  -1.13901  -1.13893
  Beta  occ. eigenvalues --   -1.13871  -1.13021  -1.13006  -1.12950  -1.12780
  Beta  occ. eigenvalues --   -1.12768  -1.12745  -1.12089  -1.12064  -1.12035
  Beta  occ. eigenvalues --   -0.17081  -0.13482  -0.10766
  Beta virt. eigenvalues --   -0.08161  -0.06433  -0.05209  -0.03962  -0.03094
  Beta virt. eigenvalues --   -0.02386  -0.02223  -0.02077  -0.00995  -0.00457
  Beta virt. eigenvalues --   -0.00092   0.00107   0.00191   0.00266   0.00699

 Mulliken charges and spin densities:
               1          2
     1  Na  -0.141949  -0.060604
     2  Na  -0.319031   0.126776
     3  Na  -1.360663   0.188600
     4  Na   0.493552   0.026342
     5  Na   0.501818   0.021026
     6  Na   0.796055   0.129656
     7  Na   0.030219   0.568204
 Sum of Mulliken charges =  -0.00000   1.00000

 Dipole moment (field-independent basis, Debye):
    X=             -0.3591    Y=              0.6438    Z=             -0.7238  Tot=              1.0331
 Quadrupole moment (field-independent basis, Debye-Ang):
   XX=            -50.2608   YY=            -64.2239   ZZ=            -81.1474
   XY=              0.9334   XZ=             -1.8261   YZ=             -2.1003

 Normal termination of Gaussian 16 at Mon Dec  4 03:12:14 2023.
