 Gaussian 16, Revision B.01,
 Gaussian 16:  ES64L-G16RevB.01 20-Dec-2017

 -------------------------
 #P B3LYP/6-311+g(d) force
 -------------------------

 -----
 DPGEN
 -----
 Symbolic Z-matrix:
 Charge =  0 Multiplicity = 2

                         Standard orientation:
 ---------------------------------------------------------------------
 Center     Atomic      Atomic             Coordinates (Angstroms)
 Number     Number       Type             X           Y           Z
 ---------------------------------------------------------------------
      1         11           0       -0.088959   -0.626089   -1.219080
      2         11           0       -0.498884    2.546622   -0.677479
      3         11           0        0.444433   -0.135779    2.044236
      4         11           0        3.282134   -1.714337   -0.054345
      5         11           0       -3.318207    0.796380    0.546553
      6         11           0       -2.685272   -2.167110   -0.445061
      7         11           0        2.864755    1.300312   -0.194824
 ---------------------------------------------------------------------

 SCF Done:  E(UB3LYP) =  -1136.12044031     A.U. after   24 cycles

 The electronic state is 2-A.
 Alpha  occ. eigenvalues --  -38.45347 -38.44601 -38.44532 -38.44161 -38.43707
 Alpha  occ. eigenvalues --  -38.43592 -38.42279  -2.21162  -2.20477  -2.20357
 Alpha  occ. eigenvalues --   -2.20014  -2.19669  -2.19447  -2.18140  -1.14831
 Alpha  occ. eigenvalues --   -1.14826  -1.14801  -1.14224  -1.14145  -1.14120
 Alpha  occ. eigenvalues --   -1.14005  -1.14001  -1.13968  -1.13714  -1.13642
 Alpha  occ. eigenvalues --   -1.13604  -1.13379  -1.13351  -1.13300  -1.13104
 Alpha  occ. eigenvalues --   -1.13093  -1.13077  -1.11841  -1.11782  -1.11780
 Alpha  occ. eigenvalues --   -0.18432  -0.14231  -0.11419  -0.10411
 Alpha virt. eigenvalues --   -0.07081  -0.05813  -0.03995  -0.03427  -0.02693
 Alpha virt. eigenvalues --   -0.02303  -0.02193  -0.01493  -0.00717  -0.00254
 Alpha virt. eigenvalues --   -0.00036   0.00187   0.00509   0.00594   0.00688

  Beta  occ. eigenvalues --  -38.45342 -38.44593 -38.44535 -38.44065 -38.43657
  Beta  occ. eigenvalues --  -38.43585 -38.42268  -2.21153  -2.20464  -2.20365
  Beta  occ. eigenvalues --   -2.19836  -2.19583  -2.19436  -2.18122  -1.14825
  Beta  occ. eigenvalues --   -1.14810  -1.14796  -1.14225  -1.14122  -1.14102
  Beta  occ. eigenvalues --   -1.14010  -1.13992  -1.13971  -1.13593  -1.13521
  Beta  occ. eigenvalues --   -1.13475  -1.13303  -1.13291  -1.13241  -1.13097
  Beta  occ. eigenvalues --   -1.13072  -1.13062  -1.11826  -1.11771  -1.11753
  Beta  occ. eigenvalues --   -0.17747  -0.14084  -0.11178
  Beta virt. eigenvalues --   -0.06940  -0.06550  -0.05776  -0.03682  -0.02980
  Beta virt. eigenvalues --   -0.02527  -0.01722  -0.01437  -0.01135  -0.00721
  Beta virt. eigenvalues --   -0.00115   0.00066   0.00220   0.00630   0.00678

 Mulliken charges and spin densities:
               1          2
     1  Na  -0.583045   0.237432
     2  Na  -0.034209  -0.023794
     3  Na  -0.490088   0.584569
     4  Na   0.227051   0.012198
     5  Na   0.146889   0.096210
     6  Na   0.243364   0.015787
     7  Na   0.490037   0.077597
 Sum of Mulliken charges =  -0.00000   1.00000

 Dipole moment (field-independent basis, Debye):
    X=              0.1649    Y=              0.0163    Z=              0.3816  Tot=              0.4160
 Quadrupole moment (field-independent basis, Debye-Ang):
   XX=            -47.3308   YY=            -69.5644   ZZ=            -76.3759
   XY=             -2.1262   XZ=             -2.1609   YZ=              0.3551

 Normal termination of Gaussian 16 at Wed Dec  6 00:48:42 2023.
