 Gaussian 16, Revision B.01,
 Gaussian 16:  ES64L-G16RevB.01 20-Dec-2017

 -------------------------
 #P B3LYP/6-311+g(d) force
 -------------------------

 -----
 DPGEN
 -----
 Symbolic Z-matrix:
 Charge =  0 Multiplicity = 2

                         Standard orientation:
 ---------------------------------------------------------------------
 Center     Atomic      Atomic             Coordinates (Angstroms)
 Number     Number       Type             X           Y           Z
 ---------------------------------------------------------------------
      1         11           0        0.907453    2.210371   -0.461614
      2         11           0        4.312258    2.353804   -0.254069
      3         11           0       -6.015176    1.237889    0.510559
      4         11           0       -0.744731   -0.786574    0.888299
      5         11           0        1.167242   -2.517723   -0.904644
      6         11           0        4.515158   -1.467324    0.834025
      7         11           0       -4.142204   -1.030444   -0.612557
 ---------------------------------------------------------------------

 SCF Done:  E(UB3LYP) =  -1136.10742307     A.U. after   20 cycles

 The electronic state is 2-A.
 Alpha  occ. eigenvalues --  -38.45518 -38.44743 -38.44353 -38.44239 -38.44194
 Alpha  occ. eigenvalues --  -38.44148 -38.43615  -2.21283  -2.20536  -2.20143
 Alpha  occ. eigenvalues --   -2.20034  -2.19982  -2.19980  -2.19372  -1.14940
 Alpha  occ. eigenvalues --   -1.14908  -1.14889  -1.14205  -1.14175  -1.14147
 Alpha  occ. eigenvalues --   -1.13850  -1.13809  -1.13788  -1.13745  -1.13708
 Alpha  occ. eigenvalues --   -1.13696  -1.13644  -1.13633  -1.13632  -1.13628
 Alpha  occ. eigenvalues --   -1.13594  -1.13567  -1.13053  -1.13035  -1.13027
 Alpha  occ. eigenvalues --   -0.16096  -0.13693  -0.11842  -0.11534
 Alpha virt. eigenvalues --   -0.06265  -0.05980  -0.04744  -0.03522  -0.03168
 Alpha virt. eigenvalues --   -0.02602  -0.01945  -0.01730  -0.01174  -0.00799
 Alpha virt. eigenvalues --   -0.00380  -0.00267  -0.00069   0.00279   0.00464

  Beta  occ. eigenvalues --  -38.45408 -38.44673 -38.44352 -38.44242 -38.44173
  Beta  occ. eigenvalues --  -38.44128 -38.43631  -2.21079  -2.20404  -2.20141
  Beta  occ. eigenvalues --   -2.20040  -2.19946  -2.19943  -2.19403  -1.14801
  Beta  occ. eigenvalues --   -1.14771  -1.14749  -1.14115  -1.14089  -1.14055
  Beta  occ. eigenvalues --   -1.13848  -1.13808  -1.13773  -1.13738  -1.13713
  Beta  occ. eigenvalues --   -1.13695  -1.13610  -1.13606  -1.13606  -1.13603
  Beta  occ. eigenvalues --   -1.13580  -1.13550  -1.13076  -1.13056  -1.13033
  Beta  occ. eigenvalues --   -0.15438  -0.13250  -0.11523
  Beta virt. eigenvalues --   -0.08091  -0.05975  -0.05421  -0.04364  -0.03100
  Beta virt. eigenvalues --   -0.02880  -0.02434  -0.01638  -0.01602  -0.00842
  Beta virt. eigenvalues --   -0.00649  -0.00174  -0.00138   0.00205   0.00424

 Mulliken charges and spin densities:
               1          2
     1  Na  -0.016165   0.198572
     2  Na   0.234311  -0.051685
     3  Na   0.081648   0.070775
     4  Na  -0.817204   0.255344
     5  Na   0.442200  -0.003878
     6  Na   0.008819   0.530432
     7  Na   0.066390   0.000439
 Sum of Mulliken charges =  -0.00000   1.00000

 Dipole moment (field-independent basis, Debye):
    X=              0.0247    Y=             -0.3252    Z=              0.0658  Tot=              0.3327
 Quadrupole moment (field-independent basis, Debye-Ang):
   XX=            -66.4103   YY=            -68.2332   ZZ=            -68.1160
   XY=             -6.9923   XZ=             -0.4710   YZ=              3.2062

 Normal termination of Gaussian 16 at Sun Dec  3 23:27:07 2023.
