 Gaussian 16, Revision B.01,
 Gaussian 16:  ES64L-G16RevB.01 20-Dec-2017

 -------------------------
 #P B3LYP/6-311+g(d) force
 -------------------------

 -----
 DPGEN
 -----
 Symbolic Z-matrix:
 Charge =  0 Multiplicity = 2

                         Standard orientation:
 ---------------------------------------------------------------------
 Center     Atomic      Atomic             Coordinates (Angstroms)
 Number     Number       Type             X           Y           Z
 ---------------------------------------------------------------------
      1         11           0       -2.965222   -1.232677   -0.142464
      2         11           0        0.467279   -2.685689   -0.046373
      3         11           0        3.274457   -0.229832   -0.273814
      4         11           0        0.148699   -0.308912    2.025661
      5         11           0       -2.243414    1.948717   -0.127759
      6         11           0        1.113280    2.483675    0.222496
      7         11           0        0.204922    0.024718   -1.657748
 ---------------------------------------------------------------------

 SCF Done:  E(UB3LYP) =  -1136.13703269     A.U. after   19 cycles

 The electronic state is 2-A.
 Alpha  occ. eigenvalues --  -38.44413 -38.44081 -38.43527 -38.43416 -38.43294
 Alpha  occ. eigenvalues --  -38.43163 -38.43043  -2.20239  -2.19902  -2.19446
 Alpha  occ. eigenvalues --   -2.19290  -2.19278  -2.19054  -2.18937  -1.13917
 Alpha  occ. eigenvalues --   -1.13892  -1.13876  -1.13581  -1.13570  -1.13537
 Alpha  occ. eigenvalues --   -1.13133  -1.13091  -1.13052  -1.12992  -1.12989
 Alpha  occ. eigenvalues --   -1.12946  -1.12936  -1.12925  -1.12888  -1.12733
 Alpha  occ. eigenvalues --   -1.12724  -1.12649  -1.12619  -1.12601  -1.12556
 Alpha  occ. eigenvalues --   -0.18873  -0.13174  -0.12364  -0.10838
 Alpha virt. eigenvalues --   -0.05988  -0.04951  -0.04375  -0.03175  -0.02898
 Alpha virt. eigenvalues --   -0.02579  -0.01850  -0.00952  -0.00264  -0.00156
 Alpha virt. eigenvalues --   -0.00023   0.00336   0.00810   0.00887   0.00929

  Beta  occ. eigenvalues --  -38.44406 -38.44080 -38.43430 -38.43414 -38.43230
  Beta  occ. eigenvalues --  -38.43154 -38.43035  -2.20228  -2.19902  -2.19277
  Beta  occ. eigenvalues --   -2.19265  -2.19175  -2.19043  -2.18925  -1.13897
  Beta  occ. eigenvalues --   -1.13878  -1.13871  -1.13584  -1.13554  -1.13537
  Beta  occ. eigenvalues --   -1.13020  -1.12969  -1.12953  -1.12935  -1.12927
  Beta  occ. eigenvalues --   -1.12916  -1.12911  -1.12885  -1.12807  -1.12717
  Beta  occ. eigenvalues --   -1.12677  -1.12645  -1.12611  -1.12561  -1.12551
  Beta  occ. eigenvalues --   -0.18138  -0.12939  -0.12105
  Beta virt. eigenvalues --   -0.06900  -0.05936  -0.04963  -0.04346  -0.02431
  Beta virt. eigenvalues --   -0.02070  -0.01752  -0.01499  -0.00902  -0.00313
  Beta virt. eigenvalues --   -0.00187   0.00113   0.00365   0.00859   0.00879

 Mulliken charges and spin densities:
               1          2
     1  Na   0.094069  -0.069583
     2  Na   0.238296  -0.120518
     3  Na   0.292889  -0.043430
     4  Na  -0.484540   0.714904
     5  Na   0.071397  -0.049241
     6  Na   0.182041   0.010508
     7  Na  -0.394153   0.557361
 Sum of Mulliken charges =  -0.00000   1.00000

 Dipole moment (field-independent basis, Debye):
    X=              0.2025    Y=             -0.1910    Z=              0.0823  Tot=              0.2903
 Quadrupole moment (field-independent basis, Debye-Ang):
   XX=            -53.4553   YY=            -65.8282   ZZ=            -73.9117
   XY=              0.2958   XZ=             -0.0408   YZ=              0.7646

 Normal termination of Gaussian 16 at Thu Dec  7 22:46:58 2023.
