 Gaussian 16, Revision B.01,
 Gaussian 16:  ES64L-G16RevB.01 20-Dec-2017

 -------------------------
 #P B3LYP/6-311+g(d) force
 -------------------------

 -----
 DPGEN
 -----
 Symbolic Z-matrix:
 Charge =  0 Multiplicity = 2

                         Standard orientation:
 ---------------------------------------------------------------------
 Center     Atomic      Atomic             Coordinates (Angstroms)
 Number     Number       Type             X           Y           Z
 ---------------------------------------------------------------------
      1         11           0       -0.380482   -2.353610   -0.898251
      2         11           0       -3.402126   -0.755382    0.349684
      3         11           0        0.422265    0.510657   -1.426767
      4         11           0        3.068815   -1.271558   -0.096356
      5         11           0       -1.950645    2.150881   -0.367063
      6         11           0        2.033025    2.224497    0.285108
      7         11           0        0.209148   -0.505484    2.153646
 ---------------------------------------------------------------------

 SCF Done:  E(UB3LYP) =  -1136.12717651     A.U. after   19 cycles

 The electronic state is 2-A.
 Alpha  occ. eigenvalues --  -38.44527 -38.44504 -38.44091 -38.43668 -38.43596
 Alpha  occ. eigenvalues --  -38.43178 -38.43089  -2.20341  -2.20298  -2.19936
 Alpha  occ. eigenvalues --   -2.19534  -2.19444  -2.19163  -2.19061  -1.14018
 Alpha  occ. eigenvalues --   -1.13996  -1.13981  -1.13970  -1.13962  -1.13936
 Alpha  occ. eigenvalues --   -1.13603  -1.13568  -1.13547  -1.13332  -1.13191
 Alpha  occ. eigenvalues --   -1.13180  -1.13136  -1.13097  -1.13059  -1.12929
 Alpha  occ. eigenvalues --   -1.12800  -1.12765  -1.12701  -1.12687  -1.12647
 Alpha  occ. eigenvalues --   -0.18601  -0.13319  -0.11931  -0.10920
 Alpha virt. eigenvalues --   -0.06261  -0.05370  -0.03888  -0.03377  -0.02850
 Alpha virt. eigenvalues --   -0.02595  -0.01990  -0.01173  -0.00378  -0.00066
 Alpha virt. eigenvalues --   -0.00002   0.00312   0.00712   0.00746   0.00830

  Beta  occ. eigenvalues --  -38.44525 -38.44503 -38.44000 -38.43662 -38.43591
  Beta  occ. eigenvalues --  -38.43149 -38.43031  -2.20341  -2.20298  -2.19767
  Beta  occ. eigenvalues --   -2.19526  -2.19437  -2.19061  -2.19011  -1.14008
  Beta  occ. eigenvalues --   -1.13993  -1.13976  -1.13972  -1.13950  -1.13937
  Beta  occ. eigenvalues --   -1.13491  -1.13451  -1.13424  -1.13317  -1.13175
  Beta  occ. eigenvalues --   -1.13160  -1.13130  -1.13081  -1.13058  -1.12870
  Beta  occ. eigenvalues --   -1.12723  -1.12699  -1.12656  -1.12633  -1.12606
  Beta  occ. eigenvalues --   -0.17875  -0.13144  -0.11685
  Beta virt. eigenvalues --   -0.06973  -0.06125  -0.05373  -0.03810  -0.02696
  Beta virt. eigenvalues --   -0.02113  -0.01878  -0.01549  -0.01120  -0.00349
  Beta virt. eigenvalues --   -0.00042   0.00103   0.00340   0.00768   0.00841

 Mulliken charges and spin densities:
               1          2
     1  Na   0.178132   0.127398
     2  Na  -0.031443   0.056154
     3  Na   0.137945  -0.049066
     4  Na   0.259876   0.010262
     5  Na   0.111299   0.013071
     6  Na  -0.068688   0.090012
     7  Na  -0.587122   0.752170
 Sum of Mulliken charges =  -0.00000   1.00000

 Dipole moment (field-independent basis, Debye):
    X=              0.1720    Y=             -0.2744    Z=              0.5057  Tot=              0.6005
 Quadrupole moment (field-independent basis, Debye-Ang):
   XX=            -50.5649   YY=            -68.5596   ZZ=            -73.5794
   XY=             -0.1692   XZ=             -0.1305   YZ=              1.4773

 Normal termination of Gaussian 16 at Fri Dec  8 04:25:31 2023.
