 Gaussian 16, Revision B.01,
 Gaussian 16:  ES64L-G16RevB.01 20-Dec-2017

 -------------------------
 #P B3LYP/6-311+g(d) force
 -------------------------

 -----
 DPGEN
 -----
 Symbolic Z-matrix:
 Charge =  0 Multiplicity = 2

                         Standard orientation:
 ---------------------------------------------------------------------
 Center     Atomic      Atomic             Coordinates (Angstroms)
 Number     Number       Type             X           Y           Z
 ---------------------------------------------------------------------
      1         11           0        2.305084    3.096006   -0.467570
      2         11           0       -1.007360    3.171191   -0.392816
      3         11           0       -3.469272   -1.992999    0.775196
      4         11           0       -3.779882    1.164416    0.038431
      5         11           0       -0.470219   -2.856459   -0.775756
      6         11           0        3.007305   -2.501686   -0.844112
      7         11           0        3.414344   -0.080469    1.666627
 ---------------------------------------------------------------------

 SCF Done:  E(UB3LYP) =  -1136.10825633     A.U. after   26 cycles

 The electronic state is 2-A.
 Alpha  occ. eigenvalues --  -38.45071 -38.44970 -38.44857 -38.44579 -38.44166
 Alpha  occ. eigenvalues --  -38.43969 -38.43843  -2.20837  -2.20733  -2.20649
 Alpha  occ. eigenvalues --   -2.20386  -2.19957  -2.19761  -2.19640  -1.14508
 Alpha  occ. eigenvalues --   -1.14500  -1.14470  -1.14415  -1.14402  -1.14379
 Alpha  occ. eigenvalues --   -1.14325  -1.14318  -1.14308  -1.14046  -1.14040
 Alpha  occ. eigenvalues --   -1.14019  -1.13607  -1.13591  -1.13584  -1.13430
 Alpha  occ. eigenvalues --   -1.13423  -1.13407  -1.13303  -1.13292  -1.13261
 Alpha  occ. eigenvalues --   -0.15721  -0.13885  -0.13288  -0.10313
 Alpha virt. eigenvalues --   -0.07817  -0.05297  -0.04214  -0.03487  -0.03428
 Alpha virt. eigenvalues --   -0.02277  -0.02082  -0.01868  -0.01289  -0.01069
 Alpha virt. eigenvalues --   -0.00442  -0.00031   0.00150   0.00207   0.00654

  Beta  occ. eigenvalues --  -38.45047 -38.44969 -38.44857 -38.44549 -38.44085
  Beta  occ. eigenvalues --  -38.43953 -38.43783  -2.20799  -2.20739  -2.20654
  Beta  occ. eigenvalues --   -2.20331  -2.19806  -2.19735  -2.19529  -1.14485
  Beta  occ. eigenvalues --   -1.14476  -1.14423  -1.14420  -1.14410  -1.14343
  Beta  occ. eigenvalues --   -1.14325  -1.14324  -1.14290  -1.14009  -1.14002
  Beta  occ. eigenvalues --   -1.13980  -1.13502  -1.13488  -1.13485  -1.13413
  Beta  occ. eigenvalues --   -1.13408  -1.13374  -1.13228  -1.13217  -1.13187
  Beta  occ. eigenvalues --   -0.15289  -0.13201  -0.12658
  Beta virt. eigenvalues --   -0.07989  -0.07088  -0.04815  -0.03932  -0.03200
  Beta virt. eigenvalues --   -0.03007  -0.02053  -0.01871  -0.01823  -0.00979
  Beta virt. eigenvalues --   -0.00880  -0.00206   0.00112   0.00311   0.00362

 Mulliken charges and spin densities:
               1          2
     1  Na  -0.050804   0.047907
     2  Na   0.130930   0.061757
     3  Na   0.474739   0.007616
     4  Na  -0.033018   0.216546
     5  Na  -0.601946   0.243227
     6  Na   0.264248  -0.011418
     7  Na  -0.184149   0.434365
 Sum of Mulliken charges =  -0.00000   1.00000

 Dipole moment (field-independent basis, Debye):
    X=             -0.0551    Y=             -0.0275    Z=             -0.0029  Tot=              0.0616
 Quadrupole moment (field-independent basis, Debye-Ang):
   XX=            -61.6633   YY=            -68.8450   ZZ=            -70.2213
   XY=              1.5979   XZ=             -4.5367   YZ=             -0.9835

 Normal termination of Gaussian 16 at Sun Dec  3 19:48:03 2023.
