 Gaussian 16, Revision B.01,
 Gaussian 16:  ES64L-G16RevB.01 20-Dec-2017

 -------------------------
 #P B3LYP/6-311+g(d) force
 -------------------------

 -----
 DPGEN
 -----
 Symbolic Z-matrix:
 Charge =  0 Multiplicity = 2

                         Standard orientation:
 ---------------------------------------------------------------------
 Center     Atomic      Atomic             Coordinates (Angstroms)
 Number     Number       Type             X           Y           Z
 ---------------------------------------------------------------------
      1         11           0        0.662123   -2.852753   -0.582245
      2         11           0       -2.331534    1.735168   -0.201667
      3         11           0        0.184461   -0.185099    2.111667
      4         11           0       -3.260756   -1.400318    0.232388
      5         11           0        3.468648   -0.286716    0.334203
      6         11           0        0.451637    0.189233   -1.840541
      7         11           0        0.825421    2.800486   -0.053805
 ---------------------------------------------------------------------

 SCF Done:  E(UB3LYP) =  -1136.13136553     A.U. after   20 cycles

 The electronic state is 2-A.
 Alpha  occ. eigenvalues --  -38.44940 -38.44280 -38.44070 -38.43729 -38.43547
 Alpha  occ. eigenvalues --  -38.43489 -38.43071  -2.20706  -2.20109  -2.19843
 Alpha  occ. eigenvalues --   -2.19533  -2.19470  -2.19347  -2.18936  -1.14382
 Alpha  occ. eigenvalues --   -1.14357  -1.14345  -1.13776  -1.13749  -1.13721
 Alpha  occ. eigenvalues --   -1.13527  -1.13509  -1.13479  -1.13254  -1.13191
 Alpha  occ. eigenvalues --   -1.13149  -1.13147  -1.13114  -1.13084  -1.13022
 Alpha  occ. eigenvalues --   -1.13015  -1.12983  -1.12620  -1.12597  -1.12560
 Alpha  occ. eigenvalues --   -0.18060  -0.12906  -0.12089  -0.10929
 Alpha virt. eigenvalues --   -0.06327  -0.04932  -0.04603  -0.03291  -0.02939
 Alpha virt. eigenvalues --   -0.02790  -0.01980  -0.01044  -0.00594  -0.00282
 Alpha virt. eigenvalues --   -0.00101   0.00321   0.00613   0.00767   0.00812

  Beta  occ. eigenvalues --  -38.44933 -38.44196 -38.44074 -38.43709 -38.43487
  Beta  occ. eigenvalues --  -38.43473 -38.43067  -2.20696  -2.19952  -2.19851
  Beta  occ. eigenvalues --   -2.19500  -2.19345  -2.19334  -2.18933  -1.14360
  Beta  occ. eigenvalues --   -1.14349  -1.14339  -1.13671  -1.13641  -1.13604
  Beta  occ. eigenvalues --   -1.13534  -1.13504  -1.13485  -1.13214  -1.13158
  Beta  occ. eigenvalues --   -1.13130  -1.13062  -1.13027  -1.13016  -1.13011
  Beta  occ. eigenvalues --   -1.12986  -1.12966  -1.12612  -1.12585  -1.12550
  Beta  occ. eigenvalues --   -0.17330  -0.12721  -0.11850
  Beta virt. eigenvalues --   -0.07069  -0.06184  -0.04950  -0.04492  -0.02596
  Beta virt. eigenvalues --   -0.02220  -0.01852  -0.01770  -0.00996  -0.00575
  Beta virt. eigenvalues --   -0.00329   0.00047   0.00353   0.00761   0.00813

 Mulliken charges and spin densities:
               1          2
     1  Na  -0.047470  -0.067910
     2  Na  -0.019278  -0.044044
     3  Na  -0.410573   0.777784
     4  Na  -0.026807  -0.057007
     5  Na   0.138329  -0.027715
     6  Na   0.134582   0.458406
     7  Na   0.231218  -0.039515
 Sum of Mulliken charges =  -0.00000   1.00000

 Dipole moment (field-independent basis, Debye):
    X=              0.6340    Y=             -0.2348    Z=              0.2388  Tot=              0.7170
 Quadrupole moment (field-independent basis, Debye-Ang):
   XX=            -55.0183   YY=            -65.8181   ZZ=            -73.4503
   XY=              0.8942   XZ=              0.6379   YZ=              0.5065

 Normal termination of Gaussian 16 at Thu Dec  7 03:59:05 2023.
