 Gaussian 16, Revision B.01,
 Gaussian 16:  ES64L-G16RevB.01 20-Dec-2017

 -------------------------
 #P B3LYP/6-311+g(d) force
 -------------------------

 -----
 DPGEN
 -----
 Symbolic Z-matrix:
 Charge =  0 Multiplicity = 2

                         Standard orientation:
 ---------------------------------------------------------------------
 Center     Atomic      Atomic             Coordinates (Angstroms)
 Number     Number       Type             X           Y           Z
 ---------------------------------------------------------------------
      1         11           0        2.921049    0.827588   -0.490476
      2         11           0       -0.090650    0.005326   -1.728348
      3         11           0       -2.984126    1.202094   -0.498019
      4         11           0       -2.030938   -2.201045    0.167709
      5         11           0        0.273555    2.878768    0.679912
      6         11           0        0.117613   -0.464141    2.033528
      7         11           0        1.793498   -2.248590   -0.164305
 ---------------------------------------------------------------------

 SCF Done:  E(UB3LYP) =  -1136.13810056     A.U. after   19 cycles

 The electronic state is 2-A.
 Alpha  occ. eigenvalues --  -38.43925 -38.43745 -38.43731 -38.43632 -38.43474
 Alpha  occ. eigenvalues --  -38.43396 -38.43334  -2.19734  -2.19655  -2.19590
 Alpha  occ. eigenvalues --   -2.19476  -2.19430  -2.19286  -2.19150  -1.13425
 Alpha  occ. eigenvalues --   -1.13386  -1.13368  -1.13331  -1.13302  -1.13287
 Alpha  occ. eigenvalues --   -1.13279  -1.13252  -1.13229  -1.13159  -1.13149
 Alpha  occ. eigenvalues --   -1.13107  -1.13095  -1.13072  -1.13047  -1.12958
 Alpha  occ. eigenvalues --   -1.12947  -1.12900  -1.12828  -1.12805  -1.12785
 Alpha  occ. eigenvalues --   -0.18620  -0.13010  -0.12311  -0.11121
 Alpha virt. eigenvalues --   -0.05395  -0.05212  -0.04551  -0.03289  -0.03114
 Alpha virt. eigenvalues --   -0.02762  -0.01441  -0.01081  -0.00310  -0.00153
 Alpha virt. eigenvalues --    0.00009   0.00362   0.00801   0.00871   0.00920

  Beta  occ. eigenvalues --  -38.43917 -38.43722 -38.43655 -38.43628 -38.43411
  Beta  occ. eigenvalues --  -38.43388 -38.43317  -2.19721  -2.19577  -2.19488
  Beta  occ. eigenvalues --   -2.19471  -2.19315  -2.19277  -2.19122  -1.13404
  Beta  occ. eigenvalues --   -1.13378  -1.13359  -1.13271  -1.13247  -1.13229
  Beta  occ. eigenvalues --   -1.13208  -1.13194  -1.13164  -1.13140  -1.13118
  Beta  occ. eigenvalues --   -1.13082  -1.13041  -1.12997  -1.12967  -1.12943
  Beta  occ. eigenvalues --   -1.12917  -1.12883  -1.12799  -1.12781  -1.12766
  Beta  occ. eigenvalues --   -0.17894  -0.12723  -0.12059
  Beta virt. eigenvalues --   -0.07240  -0.05324  -0.05198  -0.04442  -0.02549
  Beta virt. eigenvalues --   -0.02380  -0.01740  -0.01325  -0.01035  -0.00260
  Beta virt. eigenvalues --   -0.00195   0.00109   0.00395   0.00861   0.00888

 Mulliken charges and spin densities:
               1          2
     1  Na   0.131771   0.014092
     2  Na  -0.117141   0.419618
     3  Na  -0.002758  -0.024230
     4  Na   0.080303  -0.078664
     5  Na  -0.061201   0.065114
     6  Na  -0.232198   0.665747
     7  Na   0.201223  -0.061678
 Sum of Mulliken charges =  -0.00000   1.00000

 Dipole moment (field-independent basis, Debye):
    X=             -0.1395    Y=             -0.1041    Z=              0.0364  Tot=              0.1778
 Quadrupole moment (field-independent basis, Debye-Ang):
   XX=            -57.9278   YY=            -64.0371   ZZ=            -72.3210
   XY=             -0.0243   XZ=             -0.4754   YZ=              0.7455

 Normal termination of Gaussian 16 at Thu Dec  7 06:26:19 2023.
