 Gaussian 16, Revision B.01,
 Gaussian 16:  ES64L-G16RevB.01 20-Dec-2017

 -------------------------
 #P B3LYP/6-311+g(d) force
 -------------------------

 -----
 DPGEN
 -----
 Symbolic Z-matrix:
 Charge =  0 Multiplicity = 2

                         Standard orientation:
 ---------------------------------------------------------------------
 Center     Atomic      Atomic             Coordinates (Angstroms)
 Number     Number       Type             X           Y           Z
 ---------------------------------------------------------------------
      1         11           0        3.306080    0.973385    0.214391
      2         11           0       -4.811847    0.697001   -0.261634
      3         11           0        0.991279    3.773985   -0.274207
      4         11           0       -2.474185   -2.585105   -0.580667
      5         11           0        3.667972   -1.980755   -0.806473
      6         11           0       -1.017651    1.798466    0.555000
      7         11           0        0.338353   -2.676976    1.153589
 ---------------------------------------------------------------------

 SCF Done:  E(UB3LYP) =  -1136.11397692     A.U. after   19 cycles

 The electronic state is 2-A.
 Alpha  occ. eigenvalues --  -38.44708 -38.44629 -38.44513 -38.44397 -38.44322
 Alpha  occ. eigenvalues --  -38.43870 -38.43846  -2.20513  -2.20393  -2.20317
 Alpha  occ. eigenvalues --   -2.20188  -2.20103  -2.19719  -2.19657  -1.14233
 Alpha  occ. eigenvalues --   -1.14179  -1.14158  -1.14076  -1.14074  -1.14028
 Alpha  occ. eigenvalues --   -1.14011  -1.13991  -1.13945  -1.13859  -1.13845
 Alpha  occ. eigenvalues --   -1.13795  -1.13749  -1.13740  -1.13709  -1.13394
 Alpha  occ. eigenvalues --   -1.13355  -1.13338  -1.13322  -1.13307  -1.13283
 Alpha  occ. eigenvalues --   -0.16025  -0.13595  -0.13187  -0.10820
 Alpha virt. eigenvalues --   -0.06439  -0.05285  -0.04840  -0.03500  -0.02902
 Alpha virt. eigenvalues --   -0.02297  -0.02224  -0.01701  -0.01352  -0.00899
 Alpha virt. eigenvalues --   -0.00359  -0.00192   0.00448   0.00528   0.00640

  Beta  occ. eigenvalues --  -38.44707 -38.44619 -38.44494 -38.44350 -38.44217
  Beta  occ. eigenvalues --  -38.43855 -38.43816  -2.20512  -2.20381  -2.20286
  Beta  occ. eigenvalues --   -2.20104  -2.19907  -2.19692  -2.19604  -1.14232
  Beta  occ. eigenvalues --   -1.14182  -1.14142  -1.14071  -1.14057  -1.13998
  Beta  occ. eigenvalues --   -1.13989  -1.13976  -1.13903  -1.13803  -1.13789
  Beta  occ. eigenvalues --   -1.13729  -1.13615  -1.13606  -1.13581  -1.13376
  Beta  occ. eigenvalues --   -1.13337  -1.13321  -1.13282  -1.13268  -1.13248
  Beta  occ. eigenvalues --   -0.15684  -0.12857  -0.12532
  Beta virt. eigenvalues --   -0.07441  -0.06513  -0.05172  -0.04292  -0.03229
  Beta virt. eigenvalues --   -0.02621  -0.02008  -0.01757  -0.01578  -0.01215
  Beta virt. eigenvalues --   -0.00542  -0.00119   0.00115   0.00502   0.00601

 Mulliken charges and spin densities:
               1          2
     1  Na  -0.273361   0.123810
     2  Na   0.245901   0.489092
     3  Na   0.679159   0.058100
     4  Na   0.047394   0.016372
     5  Na   0.253449   0.095439
     6  Na  -0.840323   0.005172
     7  Na  -0.112219   0.212015
 Sum of Mulliken charges =  -0.00000   1.00000

 Dipole moment (field-independent basis, Debye):
    X=              0.4180    Y=              0.0593    Z=             -0.2482  Tot=              0.4897
 Quadrupole moment (field-independent basis, Debye-Ang):
   XX=            -68.6820   YY=            -62.7141   ZZ=            -69.2678
   XY=              3.2486   XZ=              0.7636   YZ=              1.2724

 Normal termination of Gaussian 16 at Sun Dec  3 23:58:25 2023.
