 Gaussian 16, Revision B.01,
 Gaussian 16:  ES64L-G16RevB.01 20-Dec-2017

 -------------------------
 #P B3LYP/6-311+g(d) force
 -------------------------

 -----
 DPGEN
 -----
 Symbolic Z-matrix:
 Charge =  0 Multiplicity = 2

                         Standard orientation:
 ---------------------------------------------------------------------
 Center     Atomic      Atomic             Coordinates (Angstroms)
 Number     Number       Type             X           Y           Z
 ---------------------------------------------------------------------
      1         11           0        0.088186   -0.228139    1.721232
      2         11           0        2.778525    0.194740    0.145404
      3         11           0        0.028313   -0.285873   -1.614266
      4         11           0       -2.602605   -1.462486    0.093767
      5         11           0        0.979794    2.743734   -0.143091
      6         11           0        1.066936   -2.717974   -0.176392
      7         11           0       -2.339149    1.755997   -0.026653
 ---------------------------------------------------------------------

 SCF Done:  E(UB3LYP) =  -1136.13589550     A.U. after   22 cycles

 The electronic state is 2-A.
 Alpha  occ. eigenvalues --  -38.43767 -38.43618 -38.43570 -38.43511 -38.43287
 Alpha  occ. eigenvalues --  -38.43024 -38.42927  -2.19646  -2.19521  -2.19491
 Alpha  occ. eigenvalues --   -2.19428  -2.19172  -2.19049  -2.18986  -1.13347
 Alpha  occ. eigenvalues --   -1.13315  -1.13289  -1.13251  -1.13194  -1.13190
 Alpha  occ. eigenvalues --   -1.13160  -1.13154  -1.13146  -1.13121  -1.13087
 Alpha  occ. eigenvalues --   -1.13032  -1.12840  -1.12824  -1.12816  -1.12750
 Alpha  occ. eigenvalues --   -1.12671  -1.12653  -1.12644  -1.12601  -1.12595
 Alpha  occ. eigenvalues --   -0.19450  -0.13292  -0.12812  -0.10643
 Alpha virt. eigenvalues --   -0.05332  -0.05114  -0.04828  -0.03112  -0.02828
 Alpha virt. eigenvalues --   -0.02194  -0.01316  -0.01186  -0.00191  -0.00124
 Alpha virt. eigenvalues --    0.00052   0.00365   0.00893   0.00921   0.00924

  Beta  occ. eigenvalues --  -38.43761 -38.43615 -38.43559 -38.43500 -38.43283
  Beta  occ. eigenvalues --  -38.42943 -38.42853  -2.19639  -2.19507  -2.19488
  Beta  occ. eigenvalues --   -2.19413  -2.19168  -2.18900  -2.18851  -1.13345
  Beta  occ. eigenvalues --   -1.13290  -1.13279  -1.13241  -1.13188  -1.13158
  Beta  occ. eigenvalues --   -1.13144  -1.13132  -1.13126  -1.13119  -1.13048
  Beta  occ. eigenvalues --   -1.13027  -1.12837  -1.12817  -1.12796  -1.12656
  Beta  occ. eigenvalues --   -1.12563  -1.12550  -1.12547  -1.12501  -1.12498
  Beta  occ. eigenvalues --   -0.18720  -0.13012  -0.12538
  Beta virt. eigenvalues --   -0.06691  -0.05331  -0.05098  -0.04812  -0.02270
  Beta virt. eigenvalues --   -0.02040  -0.01246  -0.01160  -0.01106  -0.00245
  Beta virt. eigenvalues --   -0.00170   0.00173   0.00394   0.00907   0.00929

 Mulliken charges and spin densities:
               1          2
     1  Na  -0.444558   0.647502
     2  Na   0.447059   0.039239
     3  Na  -0.538317   0.641900
     4  Na   0.189754  -0.104862
     5  Na  -0.043434  -0.068506
     6  Na   0.392489  -0.097323
     7  Na  -0.002993  -0.057950
 Sum of Mulliken charges =  -0.00000   1.00000

 Dipole moment (field-independent basis, Debye):
    X=             -0.2100    Y=             -0.1359    Z=              0.0593  Tot=              0.2571
 Quadrupole moment (field-independent basis, Debye-Ang):
   XX=            -58.0270   YY=            -59.6221   ZZ=            -75.3081
   XY=             -0.0591   XZ=             -0.1027   YZ=             -0.2172

 Normal termination of Gaussian 16 at Thu Dec  7 08:03:18 2023.
