 Gaussian 16, Revision B.01,
 Gaussian 16:  ES64L-G16RevB.01 20-Dec-2017

 -------------------------
 #P B3LYP/6-311+g(d) force
 -------------------------

 -----
 DPGEN
 -----
 Symbolic Z-matrix:
 Charge =  0 Multiplicity = 2

                         Standard orientation:
 ---------------------------------------------------------------------
 Center     Atomic      Atomic             Coordinates (Angstroms)
 Number     Number       Type             X           Y           Z
 ---------------------------------------------------------------------
      1         11           0        2.621964   -1.404019    0.100561
      2         11           0        0.285489   -0.026732   -1.855483
      3         11           0        2.131210    2.097071   -0.106390
      4         11           0       -1.686557    2.342532   -0.038084
      5         11           0       -0.326951   -2.510738    0.051276
      6         11           0        0.101329    0.245429    1.928067
      7         11           0       -3.126484   -0.743543   -0.079948
 ---------------------------------------------------------------------

 SCF Done:  E(UB3LYP) =  -1136.13822264     A.U. after   19 cycles

 The electronic state is 2-A.
 Alpha  occ. eigenvalues --  -38.43956 -38.43691 -38.43581 -38.43550 -38.43490
 Alpha  occ. eigenvalues --  -38.43450 -38.42843  -2.19786  -2.19591  -2.19439
 Alpha  occ. eigenvalues --   -2.19434  -2.19420  -2.19396  -2.18790  -1.13456
 Alpha  occ. eigenvalues --   -1.13447  -1.13440  -1.13294  -1.13255  -1.13239
 Alpha  occ. eigenvalues --   -1.13155  -1.13135  -1.13110  -1.13100  -1.13091
 Alpha  occ. eigenvalues --   -1.13078  -1.13063  -1.13040  -1.13030  -1.13027
 Alpha  occ. eigenvalues --   -1.13020  -1.13013  -1.12478  -1.12447  -1.12417
 Alpha  occ. eigenvalues --   -0.19078  -0.13148  -0.12463  -0.11002
 Alpha virt. eigenvalues --   -0.05525  -0.05293  -0.04277  -0.03252  -0.02974
 Alpha virt. eigenvalues --   -0.02690  -0.01485  -0.01065  -0.00209  -0.00034
 Alpha virt. eigenvalues --    0.00003   0.00364   0.00805   0.00911   0.00960

  Beta  occ. eigenvalues --  -38.43957 -38.43685 -38.43575 -38.43546 -38.43403
  Beta  occ. eigenvalues --  -38.43369 -38.42833  -2.19789  -2.19583  -2.19432
  Beta  occ. eigenvalues --   -2.19392  -2.19276  -2.19271  -2.18777  -1.13461
  Beta  occ. eigenvalues --   -1.13444  -1.13432  -1.13288  -1.13239  -1.13213
  Beta  occ. eigenvalues --   -1.13131  -1.13090  -1.13084  -1.13063  -1.13050
  Beta  occ. eigenvalues --   -1.13019  -1.13010  -1.12990  -1.12939  -1.12937
  Beta  occ. eigenvalues --   -1.12928  -1.12919  -1.12471  -1.12415  -1.12398
  Beta  occ. eigenvalues --   -0.18309  -0.12920  -0.12194
  Beta virt. eigenvalues --   -0.07044  -0.05488  -0.05288  -0.04273  -0.02452
  Beta virt. eigenvalues --   -0.02139  -0.01615  -0.01406  -0.01006  -0.00272
  Beta virt. eigenvalues --   -0.00046   0.00105   0.00379   0.00857   0.00902

 Mulliken charges and spin densities:
               1          2
     1  Na   0.407372  -0.023631
     2  Na  -0.470761   0.692309
     3  Na   0.220322  -0.136804
     4  Na   0.142848  -0.129922
     5  Na   0.238785  -0.015003
     6  Na  -0.480047   0.695303
     7  Na  -0.058520  -0.082252
 Sum of Mulliken charges =  -0.00000   1.00000

 Dipole moment (field-independent basis, Debye):
    X=             -0.0031    Y=              0.2531    Z=              0.0262  Tot=              0.2545
 Quadrupole moment (field-independent basis, Debye-Ang):
   XX=            -55.7578   YY=            -65.3348   ZZ=            -72.9179
   XY=              0.1008   XZ=              0.4870   YZ=             -0.5872

 Normal termination of Gaussian 16 at Thu Dec  7 07:37:29 2023.
