 Gaussian 16, Revision B.01,
 Gaussian 16:  ES64L-G16RevB.01 20-Dec-2017

 -------------------------
 #P B3LYP/6-311+g(d) force
 -------------------------

 -----
 DPGEN
 -----
 Symbolic Z-matrix:
 Charge =  0 Multiplicity = 2

                         Standard orientation:
 ---------------------------------------------------------------------
 Center     Atomic      Atomic             Coordinates (Angstroms)
 Number     Number       Type             X           Y           Z
 ---------------------------------------------------------------------
      1         11           0        0.046628    1.417422    0.331480
      2         11           0       -0.754089   -1.592826    2.127588
      3         11           0       -0.006341   -3.020864   -0.695613
      4         11           0        2.415954   -0.865151   -1.011748
      5         11           0        3.299516    1.890309    0.370530
      6         11           0       -2.499844   -0.801419   -0.683060
      7         11           0       -2.501824    2.972529   -0.439178
 ---------------------------------------------------------------------

 SCF Done:  E(UB3LYP) =  -1136.12660633     A.U. after   20 cycles

 The electronic state is 2-A.
 Alpha  occ. eigenvalues --  -38.44673 -38.44187 -38.43816 -38.43782 -38.43762
 Alpha  occ. eigenvalues --  -38.43532 -38.43037  -2.20518  -2.20017  -2.19704
 Alpha  occ. eigenvalues --   -2.19652  -2.19576  -2.19429  -2.18981  -1.14214
 Alpha  occ. eigenvalues --   -1.14205  -1.14121  -1.13686  -1.13681  -1.13663
 Alpha  occ. eigenvalues --   -1.13351  -1.13348  -1.13336  -1.13328  -1.13317
 Alpha  occ. eigenvalues --   -1.13283  -1.13278  -1.13226  -1.13199  -1.13093
 Alpha  occ. eigenvalues --   -1.13081  -1.13051  -1.12679  -1.12666  -1.12591
 Alpha  occ. eigenvalues --   -0.18063  -0.13334  -0.12883  -0.10459
 Alpha virt. eigenvalues --   -0.06329  -0.05361  -0.04828  -0.03093  -0.02850
 Alpha virt. eigenvalues --   -0.02170  -0.01699  -0.01516  -0.00698  -0.00320
 Alpha virt. eigenvalues --   -0.00188   0.00280   0.00406   0.00631   0.00834

  Beta  occ. eigenvalues --  -38.44665 -38.44184 -38.43755 -38.43750 -38.43724
  Beta  occ. eigenvalues --  -38.43503 -38.43025  -2.20504  -2.20012  -2.19595
  Beta  occ. eigenvalues --   -2.19563  -2.19533  -2.19381  -2.18962  -1.14208
  Beta  occ. eigenvalues --   -1.14170  -1.14116  -1.13682  -1.13677  -1.13657
  Beta  occ. eigenvalues --   -1.13302  -1.13281  -1.13276  -1.13238  -1.13230
  Beta  occ. eigenvalues --   -1.13221  -1.13215  -1.13212  -1.13188  -1.13060
  Beta  occ. eigenvalues --   -1.13047  -1.12988  -1.12671  -1.12625  -1.12581
  Beta  occ. eigenvalues --   -0.17464  -0.13207  -0.12532
  Beta virt. eigenvalues --   -0.06761  -0.06039  -0.05160  -0.04557  -0.02676
  Beta virt. eigenvalues --   -0.02340  -0.01745  -0.01535  -0.01138  -0.00613
  Beta virt. eigenvalues --   -0.00181   0.00101   0.00374   0.00600   0.00695

 Mulliken charges and spin densities:
               1          2
     1  Na  -2.162061   0.236858
     2  Na   0.316509   0.276768
     3  Na   0.023857   0.301384
     4  Na  -0.073072   0.062394
     5  Na   0.916430   0.072655
     6  Na   0.250435   0.114600
     7  Na   0.727900  -0.064660
 Sum of Mulliken charges =  -0.00000   1.00000

 Dipole moment (field-independent basis, Debye):
    X=              0.0128    Y=              0.2199    Z=              0.1380  Tot=              0.2600
 Quadrupole moment (field-independent basis, Debye-Ang):
   XX=            -58.8994   YY=            -61.6168   ZZ=            -73.2799
   XY=              3.0169   XZ=              2.7641   YZ=              0.8670

 Normal termination of Gaussian 16 at Tue Nov 28 23:56:48 2023.
