 Gaussian 16, Revision B.01,
 Gaussian 16:  ES64L-G16RevB.01 20-Dec-2017

 -------------------------
 #P B3LYP/6-311+g(d) force
 -------------------------

 -----
 DPGEN
 -----
 Symbolic Z-matrix:
 Charge =  0 Multiplicity = 2

                         Standard orientation:
 ---------------------------------------------------------------------
 Center     Atomic      Atomic             Coordinates (Angstroms)
 Number     Number       Type             X           Y           Z
 ---------------------------------------------------------------------
      1         11           0        3.776075    1.881752   -0.489373
      2         11           0       -4.688266   -0.226952   -0.270151
      3         11           0       -2.696406    2.595006    0.123179
      4         11           0        0.993714   -3.349734    1.439071
      5         11           0       -2.363621   -2.526204   -0.655613
      6         11           0        1.167239    3.786799    0.569376
      7         11           0        3.811265   -2.160667   -0.716489
 ---------------------------------------------------------------------

 SCF Done:  E(UB3LYP) =  -1136.10054681     A.U. after   27 cycles

 The electronic state is 2-A.
 Alpha  occ. eigenvalues --  -38.45540 -38.45179 -38.44724 -38.44645 -38.44447
 Alpha  occ. eigenvalues --  -38.44325 -38.44075  -2.21252  -2.20923  -2.20510
 Alpha  occ. eigenvalues --   -2.20395  -2.20215  -2.20118  -2.19861  -1.14939
 Alpha  occ. eigenvalues --   -1.14923  -1.14888  -1.14592  -1.14575  -1.14543
 Alpha  occ. eigenvalues --   -1.14189  -1.14185  -1.14168  -1.14075  -1.14067
 Alpha  occ. eigenvalues --   -1.14041  -1.13882  -1.13867  -1.13839  -1.13774
 Alpha  occ. eigenvalues --   -1.13763  -1.13737  -1.13517  -1.13504  -1.13476
 Alpha  occ. eigenvalues --   -0.15169  -0.13770  -0.13093  -0.10446
 Alpha virt. eigenvalues --   -0.08097  -0.05334  -0.04682  -0.03368  -0.03250
 Alpha virt. eigenvalues --   -0.02576  -0.02277  -0.02097  -0.01276  -0.01015
 Alpha virt. eigenvalues --   -0.00779  -0.00166  -0.00051   0.00220   0.00438

  Beta  occ. eigenvalues --  -38.45553 -38.45139 -38.44732 -38.44641 -38.44410
  Beta  occ. eigenvalues --  -38.44259 -38.43991  -2.21279  -2.20849  -2.20530
  Beta  occ. eigenvalues --   -2.20393  -2.20149  -2.19995  -2.19704  -1.14960
  Beta  occ. eigenvalues --   -1.14942  -1.14892  -1.14542  -1.14525  -1.14492
  Beta  occ. eigenvalues --   -1.14206  -1.14200  -1.14143  -1.14078  -1.14069
  Beta  occ. eigenvalues --   -1.14010  -1.13839  -1.13825  -1.13785  -1.13689
  Beta  occ. eigenvalues --   -1.13680  -1.13657  -1.13410  -1.13397  -1.13374
  Beta  occ. eigenvalues --   -0.14631  -0.13144  -0.12477
  Beta virt. eigenvalues --   -0.08184  -0.07307  -0.04915  -0.04287  -0.03155
  Beta virt. eigenvalues --   -0.02964  -0.02330  -0.02018  -0.01884  -0.01208
  Beta virt. eigenvalues --   -0.00860  -0.00422  -0.00071  -0.00037   0.00413

 Mulliken charges and spin densities:
               1          2
     1  Na  -0.098220   0.155886
     2  Na   0.414640  -0.018370
     3  Na  -0.110410   0.398989
     4  Na  -0.003212  -0.062645
     5  Na  -0.382490   0.321135
     6  Na   0.117792  -0.006875
     7  Na   0.061901   0.211881
 Sum of Mulliken charges =  -0.00000   1.00000

 Dipole moment (field-independent basis, Debye):
    X=              0.3956    Y=             -0.8657    Z=              0.1745  Tot=              0.9676
 Quadrupole moment (field-independent basis, Debye-Ang):
   XX=            -60.4951   YY=            -71.6790   ZZ=            -69.3253
   XY=             -1.5509   XZ=             -3.4475   YZ=             -0.2775

 Normal termination of Gaussian 16 at Sun Dec  3 15:25:57 2023.
