 Gaussian 16, Revision B.01,
 Gaussian 16:  ES64L-G16RevB.01 20-Dec-2017

 -------------------------
 #P B3LYP/6-311+g(d) force
 -------------------------

 -----
 DPGEN
 -----
 Symbolic Z-matrix:
 Charge =  0 Multiplicity = 2

                         Standard orientation:
 ---------------------------------------------------------------------
 Center     Atomic      Atomic             Coordinates (Angstroms)
 Number     Number       Type             X           Y           Z
 ---------------------------------------------------------------------
      1         11           0        1.980416   -0.677544   -1.519922
      2         11           0       -3.720495    0.991480   -0.395497
      3         11           0        1.025977    1.296846    2.227780
      4         11           0       -1.689213   -0.173049    1.248467
      5         11           0        1.604065   -2.521255    1.069944
      6         11           0       -1.335854   -1.480453   -1.516187
      7         11           0        2.135104    2.563975   -1.114586
 ---------------------------------------------------------------------

 SCF Done:  E(UB3LYP) =  -1136.11786901     A.U. after   23 cycles

 The electronic state is 2-A.
 Alpha  occ. eigenvalues --  -38.44590 -38.44276 -38.44136 -38.43823 -38.43780
 Alpha  occ. eigenvalues --  -38.43743 -38.43613  -2.20437  -2.20092  -2.19998
 Alpha  occ. eigenvalues --   -2.19799  -2.19586  -2.19558  -2.19506  -1.14209
 Alpha  occ. eigenvalues --   -1.14074  -1.14052  -1.13784  -1.13754  -1.13737
 Alpha  occ. eigenvalues --   -1.13709  -1.13687  -1.13572  -1.13456  -1.13437
 Alpha  occ. eigenvalues --   -1.13429  -1.13288  -1.13239  -1.13236  -1.13205
 Alpha  occ. eigenvalues --   -1.13200  -1.13196  -1.13163  -1.13156  -1.13099
 Alpha  occ. eigenvalues --   -0.17889  -0.13548  -0.11943  -0.11552
 Alpha virt. eigenvalues --   -0.06068  -0.04696  -0.04615  -0.03539  -0.03288
 Alpha virt. eigenvalues --   -0.02976  -0.01776  -0.00812  -0.00517  -0.00042
 Alpha virt. eigenvalues --    0.00175   0.00318   0.00437   0.00694   0.00788

  Beta  occ. eigenvalues --  -38.44587 -38.44242 -38.44117 -38.43795 -38.43734
  Beta  occ. eigenvalues --  -38.43702 -38.43577  -2.20431  -2.20030  -2.19964
  Beta  occ. eigenvalues --   -2.19751  -2.19501  -2.19486  -2.19443  -1.14204
  Beta  occ. eigenvalues --   -1.14069  -1.14044  -1.13746  -1.13731  -1.13687
  Beta  occ. eigenvalues --   -1.13664  -1.13656  -1.13546  -1.13426  -1.13400
  Beta  occ. eigenvalues --   -1.13376  -1.13220  -1.13187  -1.13181  -1.13153
  Beta  occ. eigenvalues --   -1.13147  -1.13146  -1.13116  -1.13105  -1.13042
  Beta  occ. eigenvalues --   -0.17181  -0.13219  -0.11371
  Beta virt. eigenvalues --   -0.08070  -0.05852  -0.04315  -0.04102  -0.03199
  Beta virt. eigenvalues --   -0.03146  -0.02178  -0.01630  -0.00669  -0.00260
  Beta virt. eigenvalues --    0.00097   0.00292   0.00363   0.00554   0.00821

 Mulliken charges and spin densities:
               1          2
     1  Na  -0.130647   0.129004
     2  Na   0.492769   0.140634
     3  Na  -0.594517   0.188723
     4  Na   0.111144  -0.107575
     5  Na   0.292099   0.211856
     6  Na  -0.299732   0.195193
     7  Na   0.128884   0.242165
 Sum of Mulliken charges =  -0.00000   1.00000

 Dipole moment (field-independent basis, Debye):
    X=             -0.7668    Y=             -0.0679    Z=             -0.2622  Tot=              0.8132
 Quadrupole moment (field-independent basis, Debye-Ang):
   XX=            -61.5223   YY=            -68.7874   ZZ=            -65.9932
   XY=             -4.2472   XZ=              3.7261   YZ=             -4.9233

 Normal termination of Gaussian 16 at Mon Dec  4 05:07:47 2023.
