 Gaussian 16, Revision B.01,
 Gaussian 16:  ES64L-G16RevB.01 20-Dec-2017

 -------------------------
 #P B3LYP/6-311+g(d) force
 -------------------------

 -----
 DPGEN
 -----
 Symbolic Z-matrix:
 Charge =  0 Multiplicity = 2

                         Standard orientation:
 ---------------------------------------------------------------------
 Center     Atomic      Atomic             Coordinates (Angstroms)
 Number     Number       Type             X           Y           Z
 ---------------------------------------------------------------------
      1         11           0       -3.601697   -0.484602    0.013214
      2         11           0        2.571888    2.456757    0.301607
      3         11           0       -1.972901    2.444181   -0.127152
      4         11           0        0.485184    0.097455   -1.707965
      5         11           0       -0.487841   -2.437865   -0.374040
      6         11           0       -0.143583   -0.625248    1.912790
      7         11           0        3.148950   -1.450678   -0.018454
 ---------------------------------------------------------------------

 SCF Done:  E(UB3LYP) =  -1136.12195987     A.U. after   22 cycles

 The electronic state is 2-A.
 Alpha  occ. eigenvalues --  -38.45178 -38.44897 -38.44126 -38.43952 -38.43787
 Alpha  occ. eigenvalues --  -38.43398 -38.43036  -2.20953  -2.20682  -2.19871
 Alpha  occ. eigenvalues --   -2.19734  -2.19681  -2.19325  -2.18981  -1.14635
 Alpha  occ. eigenvalues --   -1.14604  -1.14587  -1.14354  -1.14345  -1.14320
 Alpha  occ. eigenvalues --   -1.13547  -1.13522  -1.13519  -1.13427  -1.13410
 Alpha  occ. eigenvalues --   -1.13401  -1.13372  -1.13315  -1.13266  -1.13065
 Alpha  occ. eigenvalues --   -1.12961  -1.12934  -1.12673  -1.12642  -1.12552
 Alpha  occ. eigenvalues --   -0.18094  -0.13262  -0.11797  -0.10338
 Alpha virt. eigenvalues --   -0.06527  -0.05964  -0.04147  -0.03207  -0.02612
 Alpha virt. eigenvalues --   -0.02371  -0.02244  -0.01493  -0.00798  -0.00279
 Alpha virt. eigenvalues --   -0.00101   0.00245   0.00617   0.00701   0.00733

  Beta  occ. eigenvalues --  -38.45176 -38.44899 -38.44122 -38.43950 -38.43707
  Beta  occ. eigenvalues --  -38.43324 -38.43016  -2.20952  -2.20688  -2.19865
  Beta  occ. eigenvalues --   -2.19731  -2.19533  -2.19192  -2.18952  -1.14615
  Beta  occ. eigenvalues --   -1.14604  -1.14589  -1.14356  -1.14340  -1.14325
  Beta  occ. eigenvalues --   -1.13534  -1.13519  -1.13516  -1.13401  -1.13393
  Beta  occ. eigenvalues --   -1.13374  -1.13331  -1.13209  -1.13159  -1.12980
  Beta  occ. eigenvalues --   -1.12855  -1.12840  -1.12652  -1.12569  -1.12537
  Beta  occ. eigenvalues --   -0.17371  -0.13099  -0.11581
  Beta virt. eigenvalues --   -0.06486  -0.06427  -0.05928  -0.04075  -0.02547
  Beta virt. eigenvalues --   -0.02240  -0.01950  -0.01439  -0.01247  -0.00823
  Beta virt. eigenvalues --   -0.00298   0.00082   0.00279   0.00685   0.00725

 Mulliken charges and spin densities:
               1          2
     1  Na   0.112712  -0.025185
     2  Na  -0.255472  -0.064511
     3  Na  -0.117745  -0.136139
     4  Na   0.103743   0.547859
     5  Na   0.383381  -0.105593
     6  Na  -0.446128   0.829163
     7  Na   0.219510  -0.045594
 Sum of Mulliken charges =  -0.00000   1.00000

 Dipole moment (field-independent basis, Debye):
    X=              0.1642    Y=             -0.3001    Z=              0.1353  Tot=              0.3678
 Quadrupole moment (field-independent basis, Debye-Ang):
   XX=            -48.6948   YY=            -66.6683   ZZ=            -76.6892
   XY=             -1.0267   XZ=              1.0157   YZ=              1.5528

 Normal termination of Gaussian 16 at Thu Dec  7 01:53:07 2023.
