 Gaussian 16, Revision B.01,
 Gaussian 16:  ES64L-G16RevB.01 20-Dec-2017

 -------------------------
 #P B3LYP/6-311+g(d) force
 -------------------------

 -----
 DPGEN
 -----
 Symbolic Z-matrix:
 Charge =  0 Multiplicity = 2

                         Standard orientation:
 ---------------------------------------------------------------------
 Center     Atomic      Atomic             Coordinates (Angstroms)
 Number     Number       Type             X           Y           Z
 ---------------------------------------------------------------------
      1         11           0       -3.024999    0.601861   -0.178154
      2         11           0       -1.238654   -2.472460   -0.414560
      3         11           0       -0.695174   -0.290350    2.119385
      4         11           0        2.793994    1.249588    0.345023
      5         11           0       -0.175459    2.938152   -0.291529
      6         11           0        0.237865    0.084938   -1.463059
      7         11           0        2.102428   -2.111730   -0.117105
 ---------------------------------------------------------------------

 SCF Done:  E(UB3LYP) =  -1136.13710539     A.U. after   18 cycles

 The electronic state is 2-A.
 Alpha  occ. eigenvalues --  -38.43864 -38.43751 -38.43658 -38.43512 -38.43505
 Alpha  occ. eigenvalues --  -38.43411 -38.42898  -2.19708  -2.19593  -2.19542
 Alpha  occ. eigenvalues --   -2.19377  -2.19367  -2.19321  -2.18961  -1.13390
 Alpha  occ. eigenvalues --   -1.13377  -1.13346  -1.13276  -1.13254  -1.13239
 Alpha  occ. eigenvalues --   -1.13204  -1.13173  -1.13156  -1.13109  -1.13085
 Alpha  occ. eigenvalues --   -1.13042  -1.13026  -1.13019  -1.13014  -1.12981
 Alpha  occ. eigenvalues --   -1.12970  -1.12920  -1.12630  -1.12597  -1.12576
 Alpha  occ. eigenvalues --   -0.18848  -0.12997  -0.12714  -0.10740
 Alpha virt. eigenvalues --   -0.05458  -0.05094  -0.04792  -0.03227  -0.02892
 Alpha virt. eigenvalues --   -0.02504  -0.01380  -0.01095  -0.00324  -0.00239
 Alpha virt. eigenvalues --   -0.00006   0.00357   0.00849   0.00899   0.00909

  Beta  occ. eigenvalues --  -38.43859 -38.43746 -38.43563 -38.43506 -38.43501
  Beta  occ. eigenvalues --  -38.43397 -38.42842  -2.19703  -2.19585  -2.19375
  Beta  occ. eigenvalues --   -2.19366  -2.19358  -2.19300  -2.18859  -1.13381
  Beta  occ. eigenvalues --   -1.13356  -1.13340  -1.13271  -1.13240  -1.13231
  Beta  occ. eigenvalues --   -1.13105  -1.13087  -1.13071  -1.13052  -1.13033
  Beta  occ. eigenvalues --   -1.13030  -1.13006  -1.13000  -1.12997  -1.12979
  Beta  occ. eigenvalues --   -1.12931  -1.12908  -1.12560  -1.12520  -1.12503
  Beta  occ. eigenvalues --   -0.18136  -0.12779  -0.12455
  Beta virt. eigenvalues --   -0.06817  -0.05405  -0.05073  -0.04733  -0.02458
  Beta virt. eigenvalues --   -0.02141  -0.01437  -0.01301  -0.01026  -0.00350
  Beta virt. eigenvalues --   -0.00283   0.00158   0.00393   0.00877   0.00898

 Mulliken charges and spin densities:
               1          2
     1  Na   0.303284  -0.034690
     2  Na   0.407394  -0.007142
     3  Na  -0.726730   0.770180
     4  Na   0.011036   0.063349
     5  Na   0.164715  -0.029843
     6  Na  -0.322640   0.222184
     7  Na   0.162942   0.015962
 Sum of Mulliken charges =  -0.00000   1.00000

 Dipole moment (field-independent basis, Debye):
    X=             -0.0851    Y=              0.0883    Z=              0.2667  Tot=              0.2935
 Quadrupole moment (field-independent basis, Debye-Ang):
   XX=            -57.5353   YY=            -61.7725   ZZ=            -74.1438
   XY=             -0.5138   XZ=              2.2169   YZ=              0.7519

 Normal termination of Gaussian 16 at Fri Dec  8 03:11:46 2023.
