 Gaussian 16, Revision B.01,
 Gaussian 16:  ES64L-G16RevB.01 20-Dec-2017

 -------------------------
 #P B3LYP/6-311+g(d) force
 -------------------------

 -----
 DPGEN
 -----
 Symbolic Z-matrix:
 Charge =  0 Multiplicity = 2

                         Standard orientation:
 ---------------------------------------------------------------------
 Center     Atomic      Atomic             Coordinates (Angstroms)
 Number     Number       Type             X           Y           Z
 ---------------------------------------------------------------------
      1         11           0       -2.689267    1.624354   -0.079824
      2         11           0        0.000028   -0.015919    2.180854
      3         11           0        0.215418   -0.111514   -1.670242
      4         11           0       -2.275427   -2.018050   -0.101809
      5         11           0        0.577911    2.980435   -0.227801
      6         11           0        0.965352   -2.661072   -0.164881
      7         11           0        3.205986    0.201767    0.063702
 ---------------------------------------------------------------------

 SCF Done:  E(UB3LYP) =  -1136.13869727     A.U. after   19 cycles

 The electronic state is 2-A.
 Alpha  occ. eigenvalues --  -38.43874 -38.43830 -38.43755 -38.43725 -38.43546
 Alpha  occ. eigenvalues --  -38.43458 -38.43290  -2.19687  -2.19681  -2.19560
 Alpha  occ. eigenvalues --   -2.19541  -2.19391  -2.19358  -2.19263  -1.13358
 Alpha  occ. eigenvalues --   -1.13354  -1.13338  -1.13328  -1.13314  -1.13301
 Alpha  occ. eigenvalues --   -1.13242  -1.13232  -1.13221  -1.13213  -1.13197
 Alpha  occ. eigenvalues --   -1.13158  -1.13150  -1.13073  -1.13059  -1.13038
 Alpha  occ. eigenvalues --   -1.13005  -1.12950  -1.12925  -1.12874  -1.12868
 Alpha  occ. eigenvalues --   -0.18493  -0.12709  -0.12606  -0.10830
 Alpha virt. eigenvalues --   -0.05483  -0.05140  -0.04932  -0.03063  -0.03015
 Alpha virt. eigenvalues --   -0.02739  -0.01413  -0.01174  -0.00469  -0.00350
 Alpha virt. eigenvalues --   -0.00033   0.00359   0.00812   0.00862   0.00892

  Beta  occ. eigenvalues --  -38.43872 -38.43755 -38.43728 -38.43721 -38.43543
  Beta  occ. eigenvalues --  -38.43449 -38.43228  -2.19682  -2.19561  -2.19536
  Beta  occ. eigenvalues --   -2.19495  -2.19388  -2.19346  -2.19150  -1.13350
  Beta  occ. eigenvalues --   -1.13332  -1.13331  -1.13241  -1.13222  -1.13221
  Beta  occ. eigenvalues --   -1.13214  -1.13207  -1.13192  -1.13175  -1.13165
  Beta  occ. eigenvalues --   -1.13158  -1.13127  -1.13065  -1.13046  -1.13026
  Beta  occ. eigenvalues --   -1.12974  -1.12947  -1.12852  -1.12799  -1.12788
  Beta  occ. eigenvalues --   -0.17755  -0.12477  -0.12411
  Beta virt. eigenvalues --   -0.06875  -0.05486  -0.05148  -0.04835  -0.02266
  Beta virt. eigenvalues --   -0.02253  -0.01655  -0.01331  -0.01096  -0.00527
  Beta virt. eigenvalues --   -0.00412   0.00119   0.00382   0.00849   0.00869

 Mulliken charges and spin densities:
               1          2
     1  Na   0.027631  -0.068145
     2  Na  -0.594639   0.818144
     3  Na  -0.165570   0.414867
     4  Na   0.115986  -0.039037
     5  Na   0.063773  -0.089008
     6  Na   0.414460   0.018913
     7  Na   0.138359  -0.055735
 Sum of Mulliken charges =  -0.00000   1.00000

 Dipole moment (field-independent basis, Debye):
    X=              0.0938    Y=              0.1449    Z=              0.1633  Tot=              0.2376
 Quadrupole moment (field-independent basis, Debye-Ang):
   XX=            -58.1089   YY=            -61.6472   ZZ=            -74.0933
   XY=              0.4665   XZ=              0.4918   YZ=             -0.1701

 Normal termination of Gaussian 16 at Thu Dec  7 16:41:05 2023.
