 Gaussian 16, Revision B.01,
 Gaussian 16:  ES64L-G16RevB.01 20-Dec-2017

 -------------------------
 #P B3LYP/6-311+g(d) force
 -------------------------

 -----
 DPGEN
 -----
 Symbolic Z-matrix:
 Charge =  0 Multiplicity = 2

                         Standard orientation:
 ---------------------------------------------------------------------
 Center     Atomic      Atomic             Coordinates (Angstroms)
 Number     Number       Type             X           Y           Z
 ---------------------------------------------------------------------
      1         11           0        0.853960    2.644932    0.088283
      2         11           0        1.714167   -2.422133    0.306802
      3         11           0       -2.880145   -1.421738    0.099362
      4         11           0        3.395930    0.565256   -0.487953
      5         11           0       -0.288078   -0.788568   -1.651415
      6         11           0        0.156885   -0.047843    1.840486
      7         11           0       -2.952719    1.470093   -0.195566
 ---------------------------------------------------------------------

 SCF Done:  E(UB3LYP) =  -1136.12578856     A.U. after   21 cycles

 The electronic state is 2-A.
 Alpha  occ. eigenvalues --  -38.44794 -38.44562 -38.44559 -38.43910 -38.43295
 Alpha  occ. eigenvalues --  -38.43221 -38.42855  -2.20605  -2.20455  -2.20405
 Alpha  occ. eigenvalues --   -2.19818  -2.19168  -2.19159  -2.18695  -1.14308
 Alpha  occ. eigenvalues --   -1.14275  -1.14256  -1.14242  -1.14127  -1.14085
 Alpha  occ. eigenvalues --   -1.14052  -1.14022  -1.13963  -1.13509  -1.13463
 Alpha  occ. eigenvalues --   -1.13444  -1.12900  -1.12837  -1.12824  -1.12800
 Alpha  occ. eigenvalues --   -1.12778  -1.12749  -1.12381  -1.12360  -1.12328
 Alpha  occ. eigenvalues --   -0.18554  -0.13959  -0.11818  -0.10500
 Alpha virt. eigenvalues --   -0.06595  -0.05560  -0.03988  -0.03601  -0.02555
 Alpha virt. eigenvalues --   -0.02392  -0.02174  -0.01282  -0.00515  -0.00196
 Alpha virt. eigenvalues --   -0.00040   0.00277   0.00670   0.00710   0.00775

  Beta  occ. eigenvalues --  -38.44775 -38.44560 -38.44555 -38.43865 -38.43284
  Beta  occ. eigenvalues --  -38.43125 -38.42851  -2.20570  -2.20451  -2.20403
  Beta  occ. eigenvalues --   -2.19735  -2.19154  -2.18984  -2.18691  -1.14310
  Beta  occ. eigenvalues --   -1.14243  -1.14230  -1.14220  -1.14121  -1.14062
  Beta  occ. eigenvalues --   -1.14043  -1.14011  -1.13962  -1.13447  -1.13406
  Beta  occ. eigenvalues --   -1.13382  -1.12860  -1.12809  -1.12781  -1.12714
  Beta  occ. eigenvalues --   -1.12660  -1.12641  -1.12376  -1.12344  -1.12322
  Beta  occ. eigenvalues --   -0.17873  -0.13686  -0.11588
  Beta virt. eigenvalues --   -0.06759  -0.06395  -0.05537  -0.03940  -0.02875
  Beta virt. eigenvalues --   -0.02153  -0.01841  -0.01351  -0.01185  -0.00534
  Beta virt. eigenvalues --   -0.00188   0.00123   0.00339   0.00751   0.00781

 Mulliken charges and spin densities:
               1          2
     1  Na  -0.018080   0.016655
     2  Na   0.299501   0.095943
     3  Na   0.726731   0.107123
     4  Na  -0.118462   0.079416
     5  Na  -0.302794   0.255185
     6  Na  -0.310429   0.486133
     7  Na  -0.276466  -0.040454
 Sum of Mulliken charges =  -0.00000   1.00000

 Dipole moment (field-independent basis, Debye):
    X=             -0.2700    Y=             -0.2267    Z=             -0.1111  Tot=              0.3696
 Quadrupole moment (field-independent basis, Debye-Ang):
   XX=            -50.7323   YY=            -68.6423   ZZ=            -74.9593
   XY=             -1.3740   XZ=             -1.2022   YZ=             -1.9154

 Normal termination of Gaussian 16 at Tue Dec  5 13:04:14 2023.
