 Gaussian 16, Revision B.01,
 Gaussian 16:  ES64L-G16RevB.01 20-Dec-2017

 -------------------------
 #P B3LYP/6-311+g(d) force
 -------------------------

 -----
 DPGEN
 -----
 Symbolic Z-matrix:
 Charge =  0 Multiplicity = 2

                         Standard orientation:
 ---------------------------------------------------------------------
 Center     Atomic      Atomic             Coordinates (Angstroms)
 Number     Number       Type             X           Y           Z
 ---------------------------------------------------------------------
      1         11           0        1.555568    2.428207   -0.022091
      2         11           0        0.145495   -0.146633   -1.681767
      3         11           0        0.330097   -2.655398    0.398209
      4         11           0        3.103710   -0.632872   -0.164580
      5         11           0       -1.998704    1.879835   -0.092960
      6         11           0       -0.414263    0.201730    2.048613
      7         11           0       -2.721902   -1.074869   -0.485424
 ---------------------------------------------------------------------

 SCF Done:  E(UB3LYP) =  -1136.13705464     A.U. after   19 cycles

 The electronic state is 2-A.
 Alpha  occ. eigenvalues --  -38.44018 -38.43710 -38.43707 -38.43342 -38.43297
 Alpha  occ. eigenvalues --  -38.43246 -38.42997  -2.19857  -2.19644  -2.19623
 Alpha  occ. eigenvalues --   -2.19314  -2.19283  -2.19103  -2.18886  -1.13539
 Alpha  occ. eigenvalues --   -1.13515  -1.13498  -1.13361  -1.13320  -1.13292
 Alpha  occ. eigenvalues --   -1.13287  -1.13261  -1.13238  -1.13011  -1.12980
 Alpha  occ. eigenvalues --   -1.12947  -1.12945  -1.12910  -1.12894  -1.12776
 Alpha  occ. eigenvalues --   -1.12771  -1.12730  -1.12571  -1.12552  -1.12505
 Alpha  occ. eigenvalues --   -0.19196  -0.13302  -0.12369  -0.11186
 Alpha virt. eigenvalues --   -0.05573  -0.04940  -0.04327  -0.03360  -0.02982
 Alpha virt. eigenvalues --   -0.02769  -0.01479  -0.00894  -0.00135  -0.00028
 Alpha virt. eigenvalues --    0.00056   0.00367   0.00830   0.00942   0.00964

  Beta  occ. eigenvalues --  -38.44017 -38.43695 -38.43610 -38.43332 -38.43243
  Beta  occ. eigenvalues --  -38.43232 -38.42985  -2.19858  -2.19600  -2.19466
  Beta  occ. eigenvalues --   -2.19270  -2.19196  -2.19102  -2.18869  -1.13531
  Beta  occ. eigenvalues --   -1.13511  -1.13498  -1.13338  -1.13267  -1.13228
  Beta  occ. eigenvalues --   -1.13202  -1.13163  -1.13123  -1.12964  -1.12917
  Beta  occ. eigenvalues --   -1.12907  -1.12882  -1.12870  -1.12840  -1.12767
  Beta  occ. eigenvalues --   -1.12756  -1.12726  -1.12559  -1.12510  -1.12498
  Beta  occ. eigenvalues --   -0.18440  -0.13042  -0.12112
  Beta virt. eigenvalues --   -0.07196  -0.05521  -0.04944  -0.04298  -0.02580
  Beta virt. eigenvalues --   -0.02171  -0.01683  -0.01376  -0.00846  -0.00095
  Beta virt. eigenvalues --   -0.00064   0.00124   0.00395   0.00895   0.00937

 Mulliken charges and spin densities:
               1          2
     1  Na   0.046841  -0.093921
     2  Na  -0.381076   0.426764
     3  Na   0.133205   0.016766
     4  Na   0.051496  -0.076631
     5  Na   0.359441   0.009621
     6  Na  -0.541988   0.669771
     7  Na   0.332081   0.047630
 Sum of Mulliken charges =  -0.00000   1.00000

 Dipole moment (field-independent basis, Debye):
    X=              0.2058    Y=             -0.0381    Z=              0.1227  Tot=              0.2426
 Quadrupole moment (field-independent basis, Debye-Ang):
   XX=            -56.7104   YY=            -65.7001   ZZ=            -72.0320
   XY=              0.2410   XZ=              1.0662   YZ=             -0.4337

 Normal termination of Gaussian 16 at Fri Dec  8 06:00:43 2023.
