 Gaussian 16, Revision B.01,
 Gaussian 16:  ES64L-G16RevB.01 20-Dec-2017

 -------------------------
 #P B3LYP/6-311+g(d) force
 -------------------------

 -----
 DPGEN
 -----
 Symbolic Z-matrix:
 Charge =  0 Multiplicity = 2

                         Standard orientation:
 ---------------------------------------------------------------------
 Center     Atomic      Atomic             Coordinates (Angstroms)
 Number     Number       Type             X           Y           Z
 ---------------------------------------------------------------------
      1         11           0        0.057782    0.729221   -1.373702
      2         11           0        0.225982    3.116933    0.191696
      3         11           0        0.453065   -0.540403    1.767573
      4         11           0       -2.152401   -2.197732   -0.242365
      5         11           0        3.458772    0.509702   -0.161284
      6         11           0       -3.299743    1.089105    0.109739
      7         11           0        1.256544   -2.706826   -0.291657
 ---------------------------------------------------------------------

 SCF Done:  E(UB3LYP) =  -1136.12709525     A.U. after   21 cycles

 The electronic state is 2-A.
 Alpha  occ. eigenvalues --  -38.44942 -38.44596 -38.44257 -38.43723 -38.43694
 Alpha  occ. eigenvalues --  -38.43143 -38.42851  -2.20712  -2.20366  -2.20094
 Alpha  occ. eigenvalues --   -2.19583  -2.19520  -2.19115  -2.18783  -1.14388
 Alpha  occ. eigenvalues --   -1.14360  -1.14355  -1.14041  -1.14027  -1.14006
 Alpha  occ. eigenvalues --   -1.13883  -1.13732  -1.13688  -1.13302  -1.13247
 Alpha  occ. eigenvalues --   -1.13217  -1.13189  -1.13182  -1.13148  -1.12817
 Alpha  occ. eigenvalues --   -1.12779  -1.12697  -1.12463  -1.12414  -1.12383
 Alpha  occ. eigenvalues --   -0.18232  -0.12896  -0.12749  -0.09694
 Alpha virt. eigenvalues --   -0.06475  -0.05295  -0.05084  -0.02834  -0.02764
 Alpha virt. eigenvalues --   -0.02141  -0.01699  -0.01303  -0.00947  -0.00641
 Alpha virt. eigenvalues --    0.00008   0.00294   0.00707   0.00767   0.00810

  Beta  occ. eigenvalues --  -38.44935 -38.44597 -38.44253 -38.43714 -38.43687
  Beta  occ. eigenvalues --  -38.43099 -38.42766  -2.20701  -2.20370  -2.20088
  Beta  occ. eigenvalues --   -2.19570  -2.19510  -2.19036  -2.18627  -1.14361
  Beta  occ. eigenvalues --   -1.14353  -1.14351  -1.14032  -1.14031  -1.14009
  Beta  occ. eigenvalues --   -1.13875  -1.13709  -1.13687  -1.13288  -1.13222
  Beta  occ. eigenvalues --   -1.13203  -1.13177  -1.13160  -1.13144  -1.12747
  Beta  occ. eigenvalues --   -1.12726  -1.12639  -1.12356  -1.12302  -1.12274
  Beta  occ. eigenvalues --   -0.17567  -0.12700  -0.12519
  Beta virt. eigenvalues --   -0.06446  -0.05940  -0.05266  -0.04972  -0.02150
  Beta virt. eigenvalues --   -0.02076  -0.02037  -0.01236  -0.00965  -0.00784
  Beta virt. eigenvalues --   -0.00669   0.00177   0.00357   0.00727   0.00803

 Mulliken charges and spin densities:
               1          2
     1  Na  -0.163116   0.535457
     2  Na   0.117534  -0.150283
     3  Na  -0.250220   0.712019
     4  Na  -0.014621  -0.019424
     5  Na   0.085077  -0.070451
     6  Na   0.005149  -0.044700
     7  Na   0.220197   0.037381
 Sum of Mulliken charges =  -0.00000   1.00000

 Dipole moment (field-independent basis, Debye):
    X=              0.2269    Y=              0.4005    Z=              0.1023  Tot=              0.4716
 Quadrupole moment (field-independent basis, Debye-Ang):
   XX=            -50.9239   YY=            -59.9637   ZZ=            -79.4005
   XY=             -0.3745   XZ=             -0.9141   YZ=              2.7554

 Normal termination of Gaussian 16 at Tue Dec  5 10:52:00 2023.
