 Gaussian 16, Revision B.01,
 Gaussian 16:  ES64L-G16RevB.01 20-Dec-2017

 -------------------------
 #P B3LYP/6-311+g(d) force
 -------------------------

 -----
 DPGEN
 -----
 Symbolic Z-matrix:
 Charge =  0 Multiplicity = 2

                         Standard orientation:
 ---------------------------------------------------------------------
 Center     Atomic      Atomic             Coordinates (Angstroms)
 Number     Number       Type             X           Y           Z
 ---------------------------------------------------------------------
      1         11           0       -1.745883   -1.072493   -1.143853
      2         11           0        2.833454    1.251199    1.462986
      3         11           0        4.776037   -0.499982   -0.027211
      4         11           0        0.148312    1.762434   -1.087748
      5         11           0       -4.317164   -1.197155    1.353590
      6         11           0        1.436867   -2.018951   -0.383953
      7         11           0       -3.131623    1.774949   -0.173811
 ---------------------------------------------------------------------

 SCF Done:  E(UB3LYP) =  -1136.11565886     A.U. after   27 cycles

 The electronic state is 2-A.
 Alpha  occ. eigenvalues --  -38.45358 -38.44977 -38.44635 -38.44453 -38.44034
 Alpha  occ. eigenvalues --  -38.42700 -38.42106  -2.21194  -2.20807  -2.20481
 Alpha  occ. eigenvalues --   -2.20284  -2.19929  -2.18490  -2.17960  -1.14888
 Alpha  occ. eigenvalues --   -1.14840  -1.14817  -1.14481  -1.14445  -1.14412
 Alpha  occ. eigenvalues --   -1.14174  -1.14155  -1.14066  -1.13963  -1.13930
 Alpha  occ. eigenvalues --   -1.13913  -1.13631  -1.13596  -1.13535  -1.12162
 Alpha  occ. eigenvalues --   -1.12159  -1.12127  -1.11635  -1.11624  -1.11610
 Alpha  occ. eigenvalues --   -0.17291  -0.14610  -0.11826  -0.10647
 Alpha virt. eigenvalues --   -0.06663  -0.05420  -0.04666  -0.03382  -0.03096
 Alpha virt. eigenvalues --   -0.02592  -0.01891  -0.01457  -0.00643  -0.00444
 Alpha virt. eigenvalues --   -0.00240  -0.00006   0.00082   0.00478   0.00560

  Beta  occ. eigenvalues --  -38.45320 -38.44881 -38.44602 -38.44446 -38.43999
  Beta  occ. eigenvalues --  -38.42703 -38.42100  -2.21124  -2.20633  -2.20419
  Beta  occ. eigenvalues --   -2.20271  -2.19869  -2.18497  -2.17950  -1.14837
  Beta  occ. eigenvalues --   -1.14794  -1.14765  -1.14367  -1.14325  -1.14276
  Beta  occ. eigenvalues --   -1.14135  -1.14115  -1.14018  -1.13941  -1.13923
  Beta  occ. eigenvalues --   -1.13906  -1.13586  -1.13546  -1.13476  -1.12168
  Beta  occ. eigenvalues --   -1.12162  -1.12130  -1.11629  -1.11612  -1.11597
  Beta  occ. eigenvalues --   -0.16546  -0.14324  -0.10541
  Beta virt. eigenvalues --   -0.07870  -0.06376  -0.04932  -0.04485  -0.02917
  Beta virt. eigenvalues --   -0.02716  -0.02257  -0.01586  -0.01086  -0.00481
  Beta virt. eigenvalues --   -0.00286  -0.00079   0.00085   0.00229   0.00561

 Mulliken charges and spin densities:
               1          2
     1  Na  -0.112977  -0.006256
     2  Na   0.047452   0.221169
     3  Na   0.311072   0.027201
     4  Na  -0.531106   0.154233
     5  Na   0.111217  -0.006951
     6  Na  -0.161959   0.438844
     7  Na   0.336301   0.171760
 Sum of Mulliken charges =  -0.00000   1.00000

 Dipole moment (field-independent basis, Debye):
    X=              1.7309    Y=              0.4445    Z=              0.3148  Tot=              1.8146
 Quadrupole moment (field-independent basis, Debye-Ang):
   XX=            -66.6482   YY=            -68.2833   ZZ=            -67.2519
   XY=             -4.5753   XZ=             -0.5045   YZ=              3.6911

 Normal termination of Gaussian 16 at Sun Dec  3 20:20:39 2023.
