 Gaussian 16, Revision B.01,
 Gaussian 16:  ES64L-G16RevB.01 20-Dec-2017

 -------------------------
 #P B3LYP/6-311+g(d) force
 -------------------------

 -----
 DPGEN
 -----
 Symbolic Z-matrix:
 Charge =  0 Multiplicity = 2

                         Standard orientation:
 ---------------------------------------------------------------------
 Center     Atomic      Atomic             Coordinates (Angstroms)
 Number     Number       Type             X           Y           Z
 ---------------------------------------------------------------------
      1         11           0        1.072807   -2.683061    0.081110
      2         11           0       -0.227188   -0.133176    2.065749
      3         11           0        0.380123    0.188261   -1.491827
      4         11           0        3.322706    0.100755   -0.169138
      5         11           0       -2.773531    1.521116   -0.141187
      6         11           0       -2.502261   -1.835792   -0.424357
      7         11           0        0.727344    2.841898    0.079650
 ---------------------------------------------------------------------

 SCF Done:  E(UB3LYP) =  -1136.13752627     A.U. after   20 cycles

 The electronic state is 2-A.
 Alpha  occ. eigenvalues --  -38.44369 -38.43965 -38.43723 -38.43429 -38.43405
 Alpha  occ. eigenvalues --  -38.43338 -38.43124  -2.20189  -2.19786  -2.19550
 Alpha  occ. eigenvalues --   -2.19292  -2.19278  -2.19190  -2.19122  -1.13880
 Alpha  occ. eigenvalues --   -1.13842  -1.13821  -1.13460  -1.13455  -1.13427
 Alpha  occ. eigenvalues --   -1.13221  -1.13206  -1.13188  -1.13032  -1.12971
 Alpha  occ. eigenvalues --   -1.12943  -1.12917  -1.12908  -1.12891  -1.12889
 Alpha  occ. eigenvalues --   -1.12851  -1.12812  -1.12795  -1.12739  -1.12737
 Alpha  occ. eigenvalues --   -0.18537  -0.13103  -0.12374  -0.10527
 Alpha virt. eigenvalues --   -0.05868  -0.05219  -0.04677  -0.03091  -0.02808
 Alpha virt. eigenvalues --   -0.02380  -0.01759  -0.01129  -0.00484  -0.00433
 Alpha virt. eigenvalues --   -0.00013   0.00329   0.00771   0.00845   0.00873

  Beta  occ. eigenvalues --  -38.44365 -38.43961 -38.43712 -38.43424 -38.43332
  Beta  occ. eigenvalues --  -38.43304 -38.43075  -2.20185  -2.19781  -2.19533
  Beta  occ. eigenvalues --   -2.19273  -2.19183  -2.19105  -2.19034  -1.13868
  Beta  occ. eigenvalues --   -1.13830  -1.13822  -1.13456  -1.13439  -1.13420
  Beta  occ. eigenvalues --   -1.13200  -1.13193  -1.13173  -1.13018  -1.12918
  Beta  occ. eigenvalues --   -1.12895  -1.12889  -1.12843  -1.12823  -1.12812
  Beta  occ. eigenvalues --   -1.12782  -1.12763  -1.12731  -1.12685  -1.12671
  Beta  occ. eigenvalues --   -0.17837  -0.12855  -0.12150
  Beta virt. eigenvalues --   -0.06641  -0.05803  -0.05217  -0.04625  -0.02365
  Beta virt. eigenvalues --   -0.02029  -0.01668  -0.01333  -0.01066  -0.00521
  Beta virt. eigenvalues --   -0.00466   0.00140   0.00374   0.00836   0.00846

 Mulliken charges and spin densities:
               1          2
     1  Na   0.187272  -0.016269
     2  Na  -0.443256   0.748886
     3  Na  -0.333625   0.373448
     4  Na   0.271729  -0.047150
     5  Na   0.128650  -0.015413
     6  Na   0.057255   0.022603
     7  Na   0.131975  -0.066106
 Sum of Mulliken charges =  -0.00000   1.00000

 Dipole moment (field-independent basis, Debye):
    X=              0.2005    Y=              0.0843    Z=              0.1368  Tot=              0.2570
 Quadrupole moment (field-independent basis, Debye-Ang):
   XX=            -54.2969   YY=            -62.7569   ZZ=            -75.4718
   XY=             -0.2252   XZ=              1.1400   YZ=              0.8402

 Normal termination of Gaussian 16 at Thu Dec  7 04:28:33 2023.
