 Gaussian 16, Revision B.01,
 Gaussian 16:  ES64L-G16RevB.01 20-Dec-2017

 -------------------------
 #P B3LYP/6-311+g(d) force
 -------------------------

 -----
 DPGEN
 -----
 Symbolic Z-matrix:
 Charge =  0 Multiplicity = 2

                         Standard orientation:
 ---------------------------------------------------------------------
 Center     Atomic      Atomic             Coordinates (Angstroms)
 Number     Number       Type             X           Y           Z
 ---------------------------------------------------------------------
      1         11           0        3.193048    0.077632    0.055676
      2         11           0        1.364030   -2.217597   -0.379654
      3         11           0       -0.398641   -0.040099   -1.760045
      4         11           0       -0.289450   -0.120503    1.881553
      5         11           0       -2.912340    1.403757   -0.274687
      6         11           0       -2.126077   -1.749528    0.356519
      7         11           0        1.169429    2.646338    0.120638
 ---------------------------------------------------------------------

 SCF Done:  E(UB3LYP) =  -1136.12791342     A.U. after   20 cycles

 The electronic state is 2-A.
 Alpha  occ. eigenvalues --  -38.44389 -38.44295 -38.43745 -38.43651 -38.43538
 Alpha  occ. eigenvalues --  -38.43220 -38.42943  -2.20261  -2.20140  -2.19721
 Alpha  occ. eigenvalues --   -2.19615  -2.19533  -2.19050  -2.18888  -1.13977
 Alpha  occ. eigenvalues --   -1.13908  -1.13901  -1.13830  -1.13799  -1.13774
 Alpha  occ. eigenvalues --   -1.13574  -1.13367  -1.13317  -1.13298  -1.13211
 Alpha  occ. eigenvalues --   -1.13204  -1.13196  -1.13166  -1.13134  -1.12725
 Alpha  occ. eigenvalues --   -1.12721  -1.12686  -1.12572  -1.12548  -1.12507
 Alpha  occ. eigenvalues --   -0.19207  -0.13743  -0.12036  -0.11101
 Alpha virt. eigenvalues --   -0.06107  -0.05122  -0.03975  -0.03593  -0.02754
 Alpha virt. eigenvalues --   -0.02625  -0.01800  -0.00964  -0.00206  -0.00080
 Alpha virt. eigenvalues --    0.00072   0.00335   0.00798   0.00894   0.00920

  Beta  occ. eigenvalues --  -38.44390 -38.44285 -38.43656 -38.43632 -38.43462
  Beta  occ. eigenvalues --  -38.43219 -38.42932  -2.20266  -2.20126  -2.19595
  Beta  occ. eigenvalues --   -2.19550  -2.19394  -2.19050  -2.18872  -1.13983
  Beta  occ. eigenvalues --   -1.13909  -1.13892  -1.13814  -1.13777  -1.13762
  Beta  occ. eigenvalues --   -1.13494  -1.13270  -1.13233  -1.13219  -1.13176
  Beta  occ. eigenvalues --   -1.13121  -1.13115  -1.13064  -1.13044  -1.12726
  Beta  occ. eigenvalues --   -1.12705  -1.12686  -1.12562  -1.12530  -1.12477
  Beta  occ. eigenvalues --   -0.18469  -0.13487  -0.11765
  Beta virt. eigenvalues --   -0.07128  -0.06057  -0.05083  -0.03985  -0.02773
  Beta virt. eigenvalues --   -0.01955  -0.01705  -0.01588  -0.00900  -0.00236
  Beta virt. eigenvalues --   -0.00024   0.00124   0.00364   0.00857   0.00910

 Mulliken charges and spin densities:
               1          2
     1  Na  -0.234719  -0.078379
     2  Na   0.448299   0.046095
     3  Na  -0.364372   0.556753
     4  Na  -0.457000   0.546142
     5  Na  -0.011663  -0.099058
     6  Na   0.606345   0.113544
     7  Na   0.013110  -0.085098
 Sum of Mulliken charges =  -0.00000   1.00000

 Dipole moment (field-independent basis, Debye):
    X=             -0.2732    Y=              0.2520    Z=              0.0524  Tot=              0.3753
 Quadrupole moment (field-independent basis, Debye-Ang):
   XX=            -53.7000   YY=            -67.8399   ZZ=            -73.1500
   XY=             -1.0915   XZ=              0.1247   YZ=             -0.1007

 Normal termination of Gaussian 16 at Sun Dec  3 19:43:52 2023.
