 Gaussian 16, Revision B.01,
 Gaussian 16:  ES64L-G16RevB.01 20-Dec-2017

 -------------------------
 #P B3LYP/6-311+g(d) force
 -------------------------

 -----
 DPGEN
 -----
 Symbolic Z-matrix:
 Charge =  0 Multiplicity = 2

                         Standard orientation:
 ---------------------------------------------------------------------
 Center     Atomic      Atomic             Coordinates (Angstroms)
 Number     Number       Type             X           Y           Z
 ---------------------------------------------------------------------
      1         11           0        0.443451    1.741209   -0.275259
      2         11           0        3.985446    1.763042    0.414484
      3         11           0       -1.260547   -1.631743   -1.215374
      4         11           0        2.875972   -1.481586   -0.933270
      5         11           0        0.435818   -1.692308    1.253797
      6         11           0       -3.735619    1.296858   -1.159905
      7         11           0       -2.744523    0.004529    1.915527
 ---------------------------------------------------------------------

 SCF Done:  E(UB3LYP) =  -1136.11935540     A.U. after   23 cycles

 The electronic state is 2-A.
 Alpha  occ. eigenvalues --  -38.45246 -38.44911 -38.44248 -38.44135 -38.43983
 Alpha  occ. eigenvalues --  -38.43825 -38.43052  -2.21002  -2.20714  -2.20076
 Alpha  occ. eigenvalues --   -2.19929  -2.19849  -2.19597  -2.18975  -1.14714
 Alpha  occ. eigenvalues --   -1.14695  -1.14589  -1.14416  -1.14374  -1.14316
 Alpha  occ. eigenvalues --   -1.13744  -1.13720  -1.13708  -1.13590  -1.13584
 Alpha  occ. eigenvalues --   -1.13576  -1.13553  -1.13530  -1.13435  -1.13268
 Alpha  occ. eigenvalues --   -1.13263  -1.13231  -1.12671  -1.12630  -1.12588
 Alpha  occ. eigenvalues --   -0.17743  -0.13895  -0.11456  -0.10579
 Alpha virt. eigenvalues --   -0.06965  -0.05775  -0.04692  -0.03198  -0.02699
 Alpha virt. eigenvalues --   -0.02556  -0.02156  -0.01630  -0.00989  -0.00403
 Alpha virt. eigenvalues --   -0.00003   0.00108   0.00202   0.00345   0.00555

  Beta  occ. eigenvalues --  -38.45238 -38.44898 -38.44186 -38.44100 -38.43955
  Beta  occ. eigenvalues --  -38.43825 -38.43030  -2.20991  -2.20690  -2.19963
  Beta  occ. eigenvalues --   -2.19864  -2.19798  -2.19599  -2.18938  -1.14693
  Beta  occ. eigenvalues --   -1.14685  -1.14584  -1.14400  -1.14357  -1.14298
  Beta  occ. eigenvalues --   -1.13665  -1.13646  -1.13620  -1.13545  -1.13537
  Beta  occ. eigenvalues --   -1.13528  -1.13511  -1.13483  -1.13398  -1.13268
  Beta  occ. eigenvalues --   -1.13264  -1.13232  -1.12652  -1.12608  -1.12524
  Beta  occ. eigenvalues --   -0.17162  -0.13637  -0.11257
  Beta virt. eigenvalues --   -0.06946  -0.06745  -0.05566  -0.04169  -0.03063
  Beta virt. eigenvalues --   -0.02613  -0.01987  -0.01586  -0.01346  -0.00522
  Beta virt. eigenvalues --   -0.00347   0.00040   0.00165   0.00349   0.00487

 Mulliken charges and spin densities:
               1          2
     1  Na  -0.876060   0.042276
     2  Na   0.262411  -0.066165
     3  Na  -0.300800   0.283931
     4  Na   0.290131   0.047406
     5  Na   0.098091   0.276022
     6  Na   0.401979   0.231937
     7  Na   0.124248   0.184593
 Sum of Mulliken charges =  -0.00000   1.00000

 Dipole moment (field-independent basis, Debye):
    X=              0.3557    Y=             -0.2795    Z=             -0.1795  Tot=              0.4867
 Quadrupole moment (field-independent basis, Debye-Ang):
   XX=            -52.5087   YY=            -73.6617   ZZ=            -70.6600
   XY=             -3.7724   XZ=             -0.6031   YZ=              1.0501

 Normal termination of Gaussian 16 at Thu Dec  7 10:07:17 2023.
