 Gaussian 16, Revision B.01,
 Gaussian 16:  ES64L-G16RevB.01 20-Dec-2017

 -------------------------
 #P B3LYP/6-311+g(d) force
 -------------------------

 -----
 DPGEN
 -----
 Symbolic Z-matrix:
 Charge =  0 Multiplicity = 2

                         Standard orientation:
 ---------------------------------------------------------------------
 Center     Atomic      Atomic             Coordinates (Angstroms)
 Number     Number       Type             X           Y           Z
 ---------------------------------------------------------------------
      1         11           0        2.831550   -0.871076   -0.512070
      2         11           0       -2.059354    2.398674   -0.125494
      3         11           0       -0.145361    0.007335   -1.742739
      4         11           0        0.330667   -2.841503    0.402388
      5         11           0        1.906815    2.358997    0.122369
      6         11           0        0.059594    0.258589    2.010136
      7         11           0       -2.923911   -1.311015   -0.154590
 ---------------------------------------------------------------------

 SCF Done:  E(UB3LYP) =  -1136.13943161     A.U. after   18 cycles

 The electronic state is 2-A.
 Alpha  occ. eigenvalues --  -38.44016 -38.43938 -38.43650 -38.43602 -38.43517
 Alpha  occ. eigenvalues --  -38.43349 -38.43242  -2.19818  -2.19738  -2.19497
 Alpha  occ. eigenvalues --   -2.19488  -2.19391  -2.19292  -2.19101  -1.13502
 Alpha  occ. eigenvalues --   -1.13477  -1.13455  -1.13424  -1.13402  -1.13365
 Alpha  occ. eigenvalues --   -1.13206  -1.13164  -1.13153  -1.13132  -1.13117
 Alpha  occ. eigenvalues --   -1.13101  -1.13089  -1.13048  -1.13021  -1.12968
 Alpha  occ. eigenvalues --   -1.12920  -1.12911  -1.12775  -1.12759  -1.12735
 Alpha  occ. eigenvalues --   -0.18534  -0.12842  -0.12464  -0.10859
 Alpha virt. eigenvalues --   -0.05624  -0.05164  -0.04661  -0.03156  -0.03046
 Alpha virt. eigenvalues --   -0.02643  -0.01426  -0.01240  -0.00381  -0.00305
 Alpha virt. eigenvalues --    0.00001   0.00368   0.00817   0.00836   0.00916

  Beta  occ. eigenvalues --  -38.44015 -38.43935 -38.43645 -38.43511 -38.43504
  Beta  occ. eigenvalues --  -38.43282 -38.43232  -2.19818  -2.19736  -2.19482
  Beta  occ. eigenvalues --   -2.19371  -2.19329  -2.19169  -2.19087  -1.13493
  Beta  occ. eigenvalues --   -1.13473  -1.13454  -1.13410  -1.13398  -1.13364
  Beta  occ. eigenvalues --   -1.13180  -1.13133  -1.13127  -1.13070  -1.13049
  Beta  occ. eigenvalues --   -1.13022  -1.13009  -1.12999  -1.12992  -1.12887
  Beta  occ. eigenvalues --   -1.12837  -1.12820  -1.12762  -1.12730  -1.12726
  Beta  occ. eigenvalues --   -0.17798  -0.12598  -0.12229
  Beta virt. eigenvalues --   -0.06955  -0.05648  -0.05080  -0.04612  -0.02402
  Beta virt. eigenvalues --   -0.02260  -0.01607  -0.01334  -0.01170  -0.00427
  Beta virt. eigenvalues --   -0.00320   0.00119   0.00390   0.00822   0.00887

 Mulliken charges and spin densities:
               1          2
     1  Na   0.170997   0.046337
     2  Na  -0.025411  -0.146546
     3  Na  -0.071512   0.531672
     4  Na   0.072305   0.023946
     5  Na   0.125633  -0.074243
     6  Na  -0.278463   0.716817
     7  Na   0.006450  -0.097983
 Sum of Mulliken charges =  -0.00000   1.00000

 Dipole moment (field-independent basis, Debye):
    X=             -0.3157    Y=              0.2341    Z=              0.0457  Tot=              0.3956
 Quadrupole moment (field-independent basis, Debye-Ang):
   XX=            -58.0250   YY=            -61.7109   ZZ=            -73.7918
   XY=              0.2195   XZ=             -0.6073   YZ=             -0.4754

 Normal termination of Gaussian 16 at Fri Dec  8 04:01:21 2023.
