 Gaussian 16, Revision B.01,
 Gaussian 16:  ES64L-G16RevB.01 20-Dec-2017

 -------------------------
 #P B3LYP/6-311+g(d) force
 -------------------------

 -----
 DPGEN
 -----
 Symbolic Z-matrix:
 Charge =  0 Multiplicity = 2

                         Standard orientation:
 ---------------------------------------------------------------------
 Center     Atomic      Atomic             Coordinates (Angstroms)
 Number     Number       Type             X           Y           Z
 ---------------------------------------------------------------------
      1         11           0       -0.157499    0.007465    2.140039
      2         11           0       -2.891678   -1.399802    0.081546
      3         11           0       -1.913517    2.613344   -0.093603
      4         11           0        2.019044    2.310793   -0.387863
      5         11           0       -0.383161    0.317244   -1.351068
      6         11           0        0.249504   -2.919135   -0.656485
      7         11           0        3.077308   -0.929910    0.267434
 ---------------------------------------------------------------------

 SCF Done:  E(UB3LYP) =  -1136.13439768     A.U. after   19 cycles

 The electronic state is 2-A.
 Alpha  occ. eigenvalues --  -38.44152 -38.44064 -38.43955 -38.43767 -38.43654
 Alpha  occ. eigenvalues --  -38.43515 -38.42896  -2.19968  -2.19890  -2.19777
 Alpha  occ. eigenvalues --   -2.19572  -2.19513  -2.19348  -2.18920  -1.13647
 Alpha  occ. eigenvalues --   -1.13633  -1.13617  -1.13600  -1.13540  -1.13506
 Alpha  occ. eigenvalues --   -1.13478  -1.13436  -1.13402  -1.13241  -1.13230
 Alpha  occ. eigenvalues --   -1.13221  -1.13181  -1.13136  -1.13122  -1.13041
 Alpha  occ. eigenvalues --   -1.13000  -1.12972  -1.12605  -1.12568  -1.12545
 Alpha  occ. eigenvalues --   -0.18329  -0.12777  -0.12571  -0.10537
 Alpha virt. eigenvalues --   -0.05781  -0.05353  -0.04784  -0.03009  -0.02856
 Alpha virt. eigenvalues --   -0.02457  -0.01535  -0.01424  -0.00556  -0.00448
 Alpha virt. eigenvalues --   -0.00003   0.00333   0.00786   0.00809   0.00867

  Beta  occ. eigenvalues --  -38.44149 -38.44061 -38.43949 -38.43765 -38.43549
  Beta  occ. eigenvalues --  -38.43499 -38.42851  -2.19965  -2.19887  -2.19768
  Beta  occ. eigenvalues --   -2.19571  -2.19323  -2.19318  -2.18839  -1.13642
  Beta  occ. eigenvalues --   -1.13621  -1.13610  -1.13594  -1.13528  -1.13502
  Beta  occ. eigenvalues --   -1.13467  -1.13419  -1.13398  -1.13232  -1.13223
  Beta  occ. eigenvalues --   -1.13221  -1.13053  -1.13016  -1.13004  -1.12983
  Beta  occ. eigenvalues --   -1.12973  -1.12956  -1.12537  -1.12511  -1.12484
  Beta  occ. eigenvalues --   -0.17637  -0.12588  -0.12313
  Beta virt. eigenvalues --   -0.06637  -0.05787  -0.05266  -0.04709  -0.02278
  Beta virt. eigenvalues --   -0.02159  -0.01466  -0.01390  -0.01349  -0.00569
  Beta virt. eigenvalues --   -0.00465   0.00148   0.00377   0.00782   0.00860

 Mulliken charges and spin densities:
               1          2
     1  Na  -0.439558   0.780565
     2  Na   0.219504   0.048280
     3  Na   0.165765   0.006772
     4  Na   0.119374   0.005736
     5  Na  -0.193468   0.046464
     6  Na   0.083096   0.074698
     7  Na   0.045286   0.037485
 Sum of Mulliken charges =  -0.00000   1.00000

 Dipole moment (field-independent basis, Debye):
    X=             -0.2864    Y=              0.1947    Z=              0.2156  Tot=              0.4079
 Quadrupole moment (field-independent basis, Debye-Ang):
   XX=            -56.2511   YY=            -60.2492   ZZ=            -75.8502
   XY=             -0.1295   XZ=             -0.5105   YZ=              0.5177

 Normal termination of Gaussian 16 at Thu Dec  7 07:47:54 2023.
