 Gaussian 16, Revision B.01,
 Gaussian 16:  ES64L-G16RevB.01 20-Dec-2017

 -------------------------
 #P B3LYP/6-311+g(d) force
 -------------------------

 -----
 DPGEN
 -----
 Symbolic Z-matrix:
 Charge =  0 Multiplicity = 2

                         Standard orientation:
 ---------------------------------------------------------------------
 Center     Atomic      Atomic             Coordinates (Angstroms)
 Number     Number       Type             X           Y           Z
 ---------------------------------------------------------------------
      1         11           0        2.220316    1.782500   -0.537697
      2         11           0       -0.818129    3.006114    0.210483
      3         11           0       -0.475577   -0.521678   -1.583817
      4         11           0       -0.862209   -2.946738    0.279603
      5         11           0        2.895990   -1.401424   -0.230875
      6         11           0       -3.229245    0.071597   -0.292111
      7         11           0        0.268854    0.009628    2.154413
 ---------------------------------------------------------------------

 SCF Done:  E(UB3LYP) =  -1136.13443127     A.U. after   19 cycles

 The electronic state is 2-A.
 Alpha  occ. eigenvalues --  -38.44237 -38.44005 -38.43882 -38.43802 -38.43499
 Alpha  occ. eigenvalues --  -38.43459 -38.43376  -2.20055  -2.19838  -2.19698
 Alpha  occ. eigenvalues --   -2.19656  -2.19336  -2.19321  -2.19309  -1.13775
 Alpha  occ. eigenvalues --   -1.13706  -1.13672  -1.13563  -1.13500  -1.13450
 Alpha  occ. eigenvalues --   -1.13380  -1.13365  -1.13336  -1.13315  -1.13286
 Alpha  occ. eigenvalues --   -1.13270  -1.13026  -1.13010  -1.12993  -1.12983
 Alpha  occ. eigenvalues --   -1.12972  -1.12971  -1.12953  -1.12951  -1.12924
 Alpha  occ. eigenvalues --   -0.18279  -0.12954  -0.12422  -0.10761
 Alpha virt. eigenvalues --   -0.05816  -0.05029  -0.04902  -0.03238  -0.02961
 Alpha virt. eigenvalues --   -0.02619  -0.01545  -0.01220  -0.00530  -0.00352
 Alpha virt. eigenvalues --   -0.00033   0.00345   0.00783   0.00839   0.00891

  Beta  occ. eigenvalues --  -38.44230 -38.43998 -38.43876 -38.43702 -38.43497
  Beta  occ. eigenvalues --  -38.43447 -38.43328  -2.20045  -2.19827  -2.19691
  Beta  occ. eigenvalues --   -2.19471  -2.19309  -2.19301  -2.19248  -1.13758
  Beta  occ. eigenvalues --   -1.13690  -1.13668  -1.13553  -1.13474  -1.13444
  Beta  occ. eigenvalues --   -1.13376  -1.13345  -1.13327  -1.13193  -1.13160
  Beta  occ. eigenvalues --   -1.13135  -1.13020  -1.12973  -1.12963  -1.12955
  Beta  occ. eigenvalues --   -1.12951  -1.12947  -1.12913  -1.12911  -1.12890
  Beta  occ. eigenvalues --   -0.17584  -0.12697  -0.12227
  Beta virt. eigenvalues --   -0.06882  -0.05785  -0.04913  -0.04860  -0.02493
  Beta virt. eigenvalues --   -0.02244  -0.01586  -0.01462  -0.01134  -0.00563
  Beta virt. eigenvalues --   -0.00367   0.00120   0.00391   0.00785   0.00893

 Mulliken charges and spin densities:
               1          2
     1  Na   0.012244   0.059241
     2  Na   0.011978   0.006154
     3  Na   0.000703   0.301978
     4  Na   0.087209  -0.037314
     5  Na   0.151715  -0.022060
     6  Na   0.159891  -0.050370
     7  Na  -0.423740   0.742371
 Sum of Mulliken charges =  -0.00000   1.00000

 Dipole moment (field-independent basis, Debye):
    X=             -0.2792    Y=             -0.3519    Z=              0.1757  Tot=              0.4824
 Quadrupole moment (field-independent basis, Debye-Ang):
   XX=            -58.7272   YY=            -61.2482   ZZ=            -74.1897
   XY=             -1.0468   XZ=             -1.3462   YZ=             -1.0024

 Normal termination of Gaussian 16 at Fri Dec  8 00:22:49 2023.
