 Gaussian 16, Revision B.01,
 Gaussian 16:  ES64L-G16RevB.01 20-Dec-2017

 -------------------------
 #P B3LYP/6-311+g(d) force
 -------------------------

 -----
 DPGEN
 -----
 Symbolic Z-matrix:
 Charge =  0 Multiplicity = 2

                         Standard orientation:
 ---------------------------------------------------------------------
 Center     Atomic      Atomic             Coordinates (Angstroms)
 Number     Number       Type             X           Y           Z
 ---------------------------------------------------------------------
      1         11           0       -0.202297    3.195510   -0.898349
      2         11           0       -2.722166   -1.921001   -0.719943
      3         11           0       -0.224259   -0.802972   -1.583463
      4         11           0        3.610000   -1.231441   -0.465867
      5         11           0        1.912053    1.306191    0.950509
      6         11           0       -0.092884   -1.856267    1.629185
      7         11           0       -2.280447    1.309979    1.087929
 ---------------------------------------------------------------------

 SCF Done:  E(UB3LYP) =  -1136.12848635     A.U. after   19 cycles

 The electronic state is 2-A.
 Alpha  occ. eigenvalues --  -38.44262 -38.44234 -38.44010 -38.43888 -38.43773
 Alpha  occ. eigenvalues --  -38.43686 -38.43286  -2.20042  -2.20033  -2.19856
 Alpha  occ. eigenvalues --   -2.19775  -2.19617  -2.19611  -2.19104  -1.13719
 Alpha  occ. eigenvalues --   -1.13709  -1.13708  -1.13698  -1.13668  -1.13666
 Alpha  occ. eigenvalues --   -1.13628  -1.13546  -1.13513  -1.13461  -1.13402
 Alpha  occ. eigenvalues --   -1.13382  -1.13300  -1.13298  -1.13266  -1.13228
 Alpha  occ. eigenvalues --   -1.13226  -1.13187  -1.12767  -1.12760  -1.12744
 Alpha  occ. eigenvalues --   -0.17992  -0.13052  -0.12272  -0.10668
 Alpha virt. eigenvalues --   -0.06051  -0.05216  -0.04707  -0.03385  -0.03045
 Alpha virt. eigenvalues --   -0.02419  -0.01790  -0.01203  -0.00649  -0.00216
 Alpha virt. eigenvalues --    0.00157   0.00309   0.00419   0.00676   0.00745

  Beta  occ. eigenvalues --  -38.44263 -38.44210 -38.43951 -38.43870 -38.43764
  Beta  occ. eigenvalues --  -38.43625 -38.43277  -2.20037  -2.19999  -2.19750
  Beta  occ. eigenvalues --   -2.19746  -2.19599  -2.19506  -2.19087  -1.13712
  Beta  occ. eigenvalues --   -1.13694  -1.13683  -1.13674  -1.13670  -1.13636
  Beta  occ. eigenvalues --   -1.13583  -1.13478  -1.13427  -1.13392  -1.13382
  Beta  occ. eigenvalues --   -1.13340  -1.13293  -1.13266  -1.13223  -1.13185
  Beta  occ. eigenvalues --   -1.13152  -1.13118  -1.12757  -1.12743  -1.12732
  Beta  occ. eigenvalues --   -0.17293  -0.12852  -0.12137
  Beta virt. eigenvalues --   -0.06844  -0.05906  -0.05098  -0.04489  -0.02775
  Beta virt. eigenvalues --   -0.02571  -0.01766  -0.01430  -0.01142  -0.00396
  Beta virt. eigenvalues --   -0.00146   0.00240   0.00366   0.00589   0.00727

 Mulliken charges and spin densities:
               1          2
     1  Na   0.241977  -0.131336
     2  Na   0.744377   0.010335
     3  Na  -0.550362   0.495661
     4  Na   0.135098  -0.140082
     5  Na  -0.034957   0.196887
     6  Na  -0.308262   0.410053
     7  Na  -0.227871   0.158482
 Sum of Mulliken charges =  -0.00000   1.00000

 Dipole moment (field-independent basis, Debye):
    X=             -0.0253    Y=             -0.3416    Z=              0.1517  Tot=              0.3746
 Quadrupole moment (field-independent basis, Debye-Ang):
   XX=            -56.3533   YY=            -66.0408   ZZ=            -71.6456
   XY=             -0.3919   XZ=             -1.6856   YZ=             -1.0165

 Normal termination of Gaussian 16 at Tue Dec  5 20:03:01 2023.
