 Gaussian 16, Revision B.01,
 Gaussian 16:  ES64L-G16RevB.01 20-Dec-2017

 -------------------------
 #P B3LYP/6-311+g(d) force
 -------------------------

 -----
 DPGEN
 -----
 Symbolic Z-matrix:
 Charge =  0 Multiplicity = 2

                         Standard orientation:
 ---------------------------------------------------------------------
 Center     Atomic      Atomic             Coordinates (Angstroms)
 Number     Number       Type             X           Y           Z
 ---------------------------------------------------------------------
      1         11           0       -0.108602    0.029542   -1.637807
      2         11           0       -0.087767   -0.296272    1.667968
      3         11           0       -2.445360   -1.677696   -0.123287
      4         11           0       -2.498303    1.519417    0.106048
      5         11           0        1.383595   -2.639504   -0.030004
      6         11           0        0.863439    2.731147    0.037408
      7         11           0        2.892999    0.333366   -0.020326
 ---------------------------------------------------------------------

 SCF Done:  E(UB3LYP) =  -1136.13734410     A.U. after   19 cycles

 The electronic state is 2-A.
 Alpha  occ. eigenvalues --  -38.43818 -38.43763 -38.43703 -38.43439 -38.43159
 Alpha  occ. eigenvalues --  -38.42890 -38.42864  -2.19717  -2.19671  -2.19604
 Alpha  occ. eigenvalues --   -2.19313  -2.19055  -2.18916  -2.18903  -1.13433
 Alpha  occ. eigenvalues --   -1.13385  -1.13362  -1.13360  -1.13333  -1.13323
 Alpha  occ. eigenvalues --   -1.13275  -1.13266  -1.13217  -1.13003  -1.12976
 Alpha  occ. eigenvalues --   -1.12943  -1.12748  -1.12712  -1.12697  -1.12643
 Alpha  occ. eigenvalues --   -1.12553  -1.12535  -1.12528  -1.12522  -1.12512
 Alpha  occ. eigenvalues --   -0.19386  -0.13457  -0.12627  -0.10517
 Alpha virt. eigenvalues --   -0.05450  -0.05270  -0.04657  -0.03176  -0.02697
 Alpha virt. eigenvalues --   -0.02100  -0.01451  -0.01167  -0.00245  -0.00162
 Alpha virt. eigenvalues --    0.00047   0.00368   0.00842   0.00899   0.00928

  Beta  occ. eigenvalues --  -38.43809 -38.43757 -38.43695 -38.43434 -38.43154
  Beta  occ. eigenvalues --  -38.42813 -38.42787  -2.19706  -2.19665  -2.19594
  Beta  occ. eigenvalues --   -2.19307  -2.19050  -2.18776  -2.18764  -1.13430
  Beta  occ. eigenvalues --   -1.13361  -1.13358  -1.13342  -1.13329  -1.13293
  Beta  occ. eigenvalues --   -1.13272  -1.13225  -1.13216  -1.12997  -1.12949
  Beta  occ. eigenvalues --   -1.12941  -1.12740  -1.12700  -1.12676  -1.12553
  Beta  occ. eigenvalues --   -1.12456  -1.12435  -1.12427  -1.12420  -1.12413
  Beta  occ. eigenvalues --   -0.18654  -0.13176  -0.12363
  Beta virt. eigenvalues --   -0.06581  -0.05437  -0.05263  -0.04655  -0.02321
  Beta virt. eigenvalues --   -0.01924  -0.01366  -0.01106  -0.01070  -0.00307
  Beta virt. eigenvalues --   -0.00211   0.00177   0.00397   0.00889   0.00907

 Mulliken charges and spin densities:
               1          2
     1  Na  -0.489943   0.641105
     2  Na  -0.497136   0.669735
     3  Na   0.283897  -0.094526
     4  Na   0.220990  -0.022401
     5  Na   0.215161  -0.111450
     6  Na   0.109622  -0.056696
     7  Na   0.157408  -0.025768
 Sum of Mulliken charges =  -0.00000   1.00000

 Dipole moment (field-independent basis, Debye):
    X=             -0.1388    Y=             -0.1563    Z=              0.0141  Tot=              0.2095
 Quadrupole moment (field-independent basis, Debye-Ang):
   XX=            -55.9893   YY=            -60.5843   ZZ=            -75.8376
   XY=             -0.2005   XZ=             -0.0820   YZ=              0.8305

 Normal termination of Gaussian 16 at Tue Dec  5 10:12:56 2023.
