 Gaussian 16, Revision B.01,
 Gaussian 16:  ES64L-G16RevB.01 20-Dec-2017

 -------------------------
 #P B3LYP/6-311+g(d) force
 -------------------------

 -----
 DPGEN
 -----
 Symbolic Z-matrix:
 Charge =  0 Multiplicity = 2

                         Standard orientation:
 ---------------------------------------------------------------------
 Center     Atomic      Atomic             Coordinates (Angstroms)
 Number     Number       Type             X           Y           Z
 ---------------------------------------------------------------------
      1         11           0        1.931948   -2.202885   -0.436463
      2         11           0        0.107309   -0.242908    1.776156
      3         11           0       -2.415455   -1.860516    0.357617
      4         11           0       -2.840444    1.149724   -0.211453
      5         11           0       -0.268367   -0.111576   -1.667741
      6         11           0        0.354303    2.596141    0.036442
      7         11           0        3.130706    0.672020    0.145442
 ---------------------------------------------------------------------

 SCF Done:  E(UB3LYP) =  -1136.13272753     A.U. after   21 cycles

 The electronic state is 2-A.
 Alpha  occ. eigenvalues --  -38.44481 -38.44162 -38.43779 -38.43415 -38.43377
 Alpha  occ. eigenvalues --  -38.43252 -38.42538  -2.20343  -2.20063  -2.19664
 Alpha  occ. eigenvalues --   -2.19343  -2.19295  -2.19261  -2.18443  -1.14015
 Alpha  occ. eigenvalues --   -1.14006  -1.13992  -1.13769  -1.13730  -1.13698
 Alpha  occ. eigenvalues --   -1.13340  -1.13317  -1.13299  -1.13053  -1.13004
 Alpha  occ. eigenvalues --   -1.12981  -1.12962  -1.12940  -1.12936  -1.12920
 Alpha  occ. eigenvalues --   -1.12880  -1.12864  -1.12137  -1.12108  -1.12067
 Alpha  occ. eigenvalues --   -0.19180  -0.13877  -0.12007  -0.10773
 Alpha virt. eigenvalues --   -0.06151  -0.05259  -0.04027  -0.03488  -0.02581
 Alpha virt. eigenvalues --   -0.02328  -0.01938  -0.01071  -0.00251  -0.00051
 Alpha virt. eigenvalues --    0.00004   0.00336   0.00727   0.00882   0.00924

  Beta  occ. eigenvalues --  -38.44478 -38.44154 -38.43768 -38.43403 -38.43298
  Beta  occ. eigenvalues --  -38.43178 -38.42533  -2.20341  -2.20052  -2.19648
  Beta  occ. eigenvalues --   -2.19275  -2.19199  -2.19127  -2.18436  -1.14018
  Beta  occ. eigenvalues --   -1.13994  -1.13979  -1.13765  -1.13705  -1.13684
  Beta  occ. eigenvalues --   -1.13326  -1.13295  -1.13277  -1.12989  -1.12941
  Beta  occ. eigenvalues --   -1.12933  -1.12914  -1.12859  -1.12846  -1.12844
  Beta  occ. eigenvalues --   -1.12790  -1.12773  -1.12136  -1.12086  -1.12052
  Beta  occ. eigenvalues --   -0.18461  -0.13619  -0.11717
  Beta virt. eigenvalues --   -0.06866  -0.06093  -0.05245  -0.03961  -0.02727
  Beta virt. eigenvalues --   -0.01864  -0.01801  -0.01303  -0.00987  -0.00284
  Beta virt. eigenvalues --   -0.00077   0.00132   0.00367   0.00792   0.00878

 Mulliken charges and spin densities:
               1          2
     1  Na   0.218182  -0.012066
     2  Na  -0.437333   0.577491
     3  Na   0.250985   0.002494
     4  Na   0.249134   0.017906
     5  Na  -0.377152   0.479344
     6  Na   0.031942  -0.040666
     7  Na   0.064241  -0.024503
 Sum of Mulliken charges =  -0.00000   1.00000

 Dipole moment (field-independent basis, Debye):
    X=              0.0293    Y=             -0.0885    Z=              0.0861  Tot=              0.1269
 Quadrupole moment (field-independent basis, Debye-Ang):
   XX=            -51.3649   YY=            -67.3121   ZZ=            -74.5507
   XY=              0.2973   XZ=             -0.1602   YZ=              0.1597

 Normal termination of Gaussian 16 at Fri Dec  8 06:04:47 2023.
