 Gaussian 16, Revision B.01,
 Gaussian 16:  ES64L-G16RevB.01 20-Dec-2017

 -------------------------
 #P B3LYP/6-311+g(d) force
 -------------------------

 -----
 DPGEN
 -----
 Symbolic Z-matrix:
 Charge =  0 Multiplicity = 2

                         Standard orientation:
 ---------------------------------------------------------------------
 Center     Atomic      Atomic             Coordinates (Angstroms)
 Number     Number       Type             X           Y           Z
 ---------------------------------------------------------------------
      1         11           0        3.409722   -2.206805   -0.706565
      2         11           0       -2.097294    2.509729   -0.111548
      3         11           0       -4.558506   -0.452526   -0.055484
      4         11           0        0.690148    3.232533    0.011919
      5         11           0        3.973389    1.227812    0.036331
      6         11           0       -2.007481   -2.371248   -0.493844
      7         11           0        0.590022   -1.939496    1.319191
 ---------------------------------------------------------------------

 SCF Done:  E(UB3LYP) =  -1136.11084330     A.U. after   22 cycles

 The electronic state is 2-A.
 Alpha  occ. eigenvalues --  -38.45296 -38.44765 -38.44426 -38.44410 -38.44273
 Alpha  occ. eigenvalues --  -38.43872 -38.43456  -2.21057  -2.20539  -2.20248
 Alpha  occ. eigenvalues --   -2.20237  -2.20103  -2.19699  -2.19292  -1.14739
 Alpha  occ. eigenvalues --   -1.14718  -1.14701  -1.14206  -1.14182  -1.14159
 Alpha  occ. eigenvalues --   -1.13980  -1.13965  -1.13919  -1.13902  -1.13892
 Alpha  occ. eigenvalues --   -1.13859  -1.13749  -1.13739  -1.13718  -1.13344
 Alpha  occ. eigenvalues --   -1.13337  -1.13321  -1.12976  -1.12933  -1.12915
 Alpha  occ. eigenvalues --   -0.16157  -0.13941  -0.13112  -0.10593
 Alpha virt. eigenvalues --   -0.07155  -0.05264  -0.04223  -0.03604  -0.03043
 Alpha virt. eigenvalues --   -0.02717  -0.02141  -0.01729  -0.00849  -0.00739
 Alpha virt. eigenvalues --   -0.00338   0.00023   0.00171   0.00517   0.00585

  Beta  occ. eigenvalues --  -38.45301 -38.44709 -38.44418 -38.44389 -38.44214
  Beta  occ. eigenvalues --  -38.43798 -38.43441  -2.21069  -2.20436  -2.20241
  Beta  occ. eigenvalues --   -2.20203  -2.19994  -2.19561  -2.19267  -1.14752
  Beta  occ. eigenvalues --   -1.14729  -1.14681  -1.14136  -1.14114  -1.14087
  Beta  occ. eigenvalues --   -1.13939  -1.13934  -1.13918  -1.13873  -1.13871
  Beta  occ. eigenvalues --   -1.13834  -1.13677  -1.13666  -1.13647  -1.13252
  Beta  occ. eigenvalues --   -1.13244  -1.13231  -1.12946  -1.12918  -1.12897
  Beta  occ. eigenvalues --   -0.15623  -0.13215  -0.12565
  Beta virt. eigenvalues --   -0.07389  -0.07142  -0.05036  -0.03830  -0.03085
  Beta virt. eigenvalues --   -0.02717  -0.02377  -0.01919  -0.01640  -0.00755
  Beta virt. eigenvalues --   -0.00537   0.00014   0.00265   0.00303   0.00532

 Mulliken charges and spin densities:
               1          2
     1  Na   0.239487  -0.046167
     2  Na  -0.237401   0.102538
     3  Na   0.336636   0.343971
     4  Na   0.234578  -0.079744
     5  Na  -0.045275   0.356110
     6  Na  -0.136079   0.036726
     7  Na  -0.391946   0.286566
 Sum of Mulliken charges =  -0.00000   1.00000

 Dipole moment (field-independent basis, Debye):
    X=              0.8100    Y=             -0.9342    Z=             -0.1380  Tot=              1.2441
 Quadrupole moment (field-independent basis, Debye-Ang):
   XX=            -63.8040   YY=            -68.2271   ZZ=            -69.5591
   XY=             -2.9476   XZ=             -1.2478   YZ=              3.7070

 Normal termination of Gaussian 16 at Sun Dec  3 13:41:40 2023.
