 Gaussian 16, Revision B.01,
 Gaussian 16:  ES64L-G16RevB.01 20-Dec-2017

 -------------------------
 #P B3LYP/6-311+g(d) force
 -------------------------

 -----
 DPGEN
 -----
 Symbolic Z-matrix:
 Charge =  0 Multiplicity = 2

                         Standard orientation:
 ---------------------------------------------------------------------
 Center     Atomic      Atomic             Coordinates (Angstroms)
 Number     Number       Type             X           Y           Z
 ---------------------------------------------------------------------
      1         11           0        2.356871    2.730911   -0.503679
      2         11           0        0.329407   -2.213231    0.052367
      3         11           0        3.521094   -0.479902   -1.205667
      4         11           0        1.608839   -0.247424    2.010355
      5         11           0       -2.127213   -1.648344   -1.578219
      6         11           0       -1.889548   -0.034841    1.820672
      7         11           0       -3.799449    1.892831   -0.595829
 ---------------------------------------------------------------------

 SCF Done:  E(UB3LYP) =  -1136.11350935     A.U. after   23 cycles

 The electronic state is 2-A.
 Alpha  occ. eigenvalues --  -38.45031 -38.44739 -38.44509 -38.44322 -38.44222
 Alpha  occ. eigenvalues --  -38.43765 -38.42776  -2.20820  -2.20582  -2.20249
 Alpha  occ. eigenvalues --   -2.20207  -2.20059  -2.19521  -2.18712  -1.14495
 Alpha  occ. eigenvalues --   -1.14461  -1.14441  -1.14284  -1.14232  -1.14168
 Alpha  occ. eigenvalues --   -1.13933  -1.13922  -1.13906  -1.13887  -1.13872
 Alpha  occ. eigenvalues --   -1.13802  -1.13747  -1.13721  -1.13661  -1.13189
 Alpha  occ. eigenvalues --   -1.13185  -1.13151  -1.12420  -1.12375  -1.12337
 Alpha  occ. eigenvalues --   -0.17436  -0.13719  -0.11592  -0.11215
 Alpha virt. eigenvalues --   -0.06762  -0.05298  -0.04434  -0.03731  -0.03210
 Alpha virt. eigenvalues --   -0.02723  -0.01658  -0.01234  -0.00705  -0.00499
 Alpha virt. eigenvalues --   -0.00166  -0.00064   0.00158   0.00359   0.00612

  Beta  occ. eigenvalues --  -38.45000 -38.44670 -38.44532 -38.44265 -38.44175
  Beta  occ. eigenvalues --  -38.43753 -38.42759  -2.20761  -2.20455  -2.20293
  Beta  occ. eigenvalues --   -2.20105  -2.19976  -2.19498  -2.18689  -1.14451
  Beta  occ. eigenvalues --   -1.14426  -1.14405  -1.14196  -1.14147  -1.14072
  Beta  occ. eigenvalues --   -1.13960  -1.13951  -1.13914  -1.13847  -1.13798
  Beta  occ. eigenvalues --   -1.13715  -1.13688  -1.13666  -1.13581  -1.13173
  Beta  occ. eigenvalues --   -1.13167  -1.13138  -1.12382  -1.12356  -1.12303
  Beta  occ. eigenvalues --   -0.16709  -0.13444  -0.11064
  Beta virt. eigenvalues --   -0.07701  -0.06643  -0.04834  -0.04132  -0.03597
  Beta virt. eigenvalues --   -0.02424  -0.02217  -0.01573  -0.01082  -0.00421
  Beta virt. eigenvalues --   -0.00387  -0.00050   0.00095   0.00313   0.00454

 Mulliken charges and spin densities:
               1          2
     1  Na  -0.307576  -0.147792
     2  Na   0.242070   0.237020
     3  Na  -0.017902   0.104172
     4  Na   0.668127   0.388583
     5  Na   0.030432   0.175661
     6  Na  -0.691211   0.181364
     7  Na   0.076060   0.060992
 Sum of Mulliken charges =  -0.00000   1.00000

 Dipole moment (field-independent basis, Debye):
    X=              0.8654    Y=              0.0236    Z=             -0.3744  Tot=              0.9433
 Quadrupole moment (field-independent basis, Debye-Ang):
   XX=            -64.1094   YY=            -69.5287   ZZ=            -66.3266
   XY=             -2.6588   XZ=              0.9327   YZ=              2.1426

 Normal termination of Gaussian 16 at Sun Dec  3 12:16:41 2023.
