 Gaussian 16, Revision B.01,
 Gaussian 16:  ES64L-G16RevB.01 20-Dec-2017

 -------------------------
 #P B3LYP/6-311+g(d) force
 -------------------------

 -----
 DPGEN
 -----
 Symbolic Z-matrix:
 Charge =  0 Multiplicity = 2

                         Standard orientation:
 ---------------------------------------------------------------------
 Center     Atomic      Atomic             Coordinates (Angstroms)
 Number     Number       Type             X           Y           Z
 ---------------------------------------------------------------------
      1         11           0       -0.160964   -0.485970   -1.810510
      2         11           0       -0.555056    2.935328   -0.314748
      3         11           0        2.622464    1.458694   -0.193450
      4         11           0        2.961765   -1.463930    0.313169
      5         11           0       -1.282893   -2.913569   -0.236770
      6         11           0       -0.138267   -0.017559    1.976333
      7         11           0       -3.447049    0.487006    0.265977
 ---------------------------------------------------------------------

 SCF Done:  E(UB3LYP) =  -1136.13033607     A.U. after   20 cycles

 The electronic state is 2-A.
 Alpha  occ. eigenvalues --  -38.45066 -38.44236 -38.44019 -38.43664 -38.43620
 Alpha  occ. eigenvalues --  -38.43472 -38.43187  -2.20822  -2.20069  -2.19865
 Alpha  occ. eigenvalues --   -2.19539  -2.19437  -2.19372  -2.18999  -1.14502
 Alpha  occ. eigenvalues --   -1.14467  -1.14460  -1.13807  -1.13719  -1.13693
 Alpha  occ. eigenvalues --   -1.13543  -1.13504  -1.13479  -1.13205  -1.13199
 Alpha  occ. eigenvalues --   -1.13191  -1.13183  -1.13090  -1.13063  -1.13032
 Alpha  occ. eigenvalues --   -1.12989  -1.12971  -1.12672  -1.12669  -1.12635
 Alpha  occ. eigenvalues --   -0.18080  -0.13160  -0.12076  -0.10649
 Alpha virt. eigenvalues --   -0.06395  -0.05092  -0.04606  -0.03321  -0.02823
 Alpha virt. eigenvalues --   -0.02532  -0.02057  -0.01116  -0.00687  -0.00382
 Alpha virt. eigenvalues --   -0.00066   0.00322   0.00678   0.00725   0.00798

  Beta  occ. eigenvalues --  -38.45059 -38.44230 -38.43942 -38.43659 -38.43613
  Beta  occ. eigenvalues --  -38.43399 -38.43180  -2.20812  -2.20060  -2.19722
  Beta  occ. eigenvalues --   -2.19534  -2.19428  -2.19237  -2.18989  -1.14479
  Beta  occ. eigenvalues --   -1.14462  -1.14457  -1.13805  -1.13695  -1.13686
  Beta  occ. eigenvalues --   -1.13445  -1.13407  -1.13371  -1.13204  -1.13185
  Beta  occ. eigenvalues --   -1.13166  -1.13158  -1.13071  -1.13058  -1.12945
  Beta  occ. eigenvalues --   -1.12899  -1.12883  -1.12665  -1.12653  -1.12622
  Beta  occ. eigenvalues --   -0.17380  -0.12946  -0.11814
  Beta virt. eigenvalues --   -0.06895  -0.06255  -0.05037  -0.04542  -0.02614
  Beta virt. eigenvalues --   -0.02114  -0.01897  -0.01566  -0.01019  -0.00726
  Beta virt. eigenvalues --   -0.00420   0.00083   0.00361   0.00744   0.00847

 Mulliken charges and spin densities:
               1          2
     1  Na  -0.043750   0.552507
     2  Na  -0.055182  -0.030794
     3  Na  -0.003189  -0.007467
     4  Na   0.249560   0.013527
     5  Na   0.042633  -0.149566
     6  Na  -0.234848   0.660778
     7  Na   0.044777  -0.038986
 Sum of Mulliken charges =  -0.00000   1.00000

 Dipole moment (field-independent basis, Debye):
    X=             -0.5244    Y=             -0.2578    Z=              0.1938  Tot=              0.6157
 Quadrupole moment (field-independent basis, Debye-Ang):
   XX=            -54.1478   YY=            -65.0215   ZZ=            -74.8051
   XY=             -1.0088   XZ=             -0.2493   YZ=             -1.5794

 Normal termination of Gaussian 16 at Thu Dec  7 11:17:40 2023.
