 Gaussian 16, Revision B.01,
 Gaussian 16:  ES64L-G16RevB.01 20-Dec-2017

 -------------------------
 #P B3LYP/6-311+g(d) force
 -------------------------

 -----
 DPGEN
 -----
 Symbolic Z-matrix:
 Charge =  0 Multiplicity = 2

                         Standard orientation:
 ---------------------------------------------------------------------
 Center     Atomic      Atomic             Coordinates (Angstroms)
 Number     Number       Type             X           Y           Z
 ---------------------------------------------------------------------
      1         11           0       -2.310112    1.699034    0.238796
      2         11           0       -0.032304    0.168453   -1.834547
      3         11           0        0.910269    2.624332   -0.232076
      4         11           0        0.296821   -0.354721    2.023939
      5         11           0        2.982796   -0.167736    0.277168
      6         11           0       -2.540471   -1.514760    0.122427
      7         11           0        0.693001   -2.454603   -0.595708
 ---------------------------------------------------------------------

 SCF Done:  E(UB3LYP) =  -1136.13674725     A.U. after   18 cycles

 The electronic state is 2-A.
 Alpha  occ. eigenvalues --  -38.43891 -38.43731 -38.43582 -38.43458 -38.43452
 Alpha  occ. eigenvalues --  -38.43164 -38.43101  -2.19819  -2.19614  -2.19598
 Alpha  occ. eigenvalues --   -2.19333  -2.19328  -2.19108  -2.18993  -1.13507
 Alpha  occ. eigenvalues --   -1.13460  -1.13444  -1.13325  -1.13283  -1.13278
 Alpha  occ. eigenvalues --   -1.13261  -1.13247  -1.13203  -1.13064  -1.13000
 Alpha  occ. eigenvalues --   -1.12992  -1.12984  -1.12981  -1.12926  -1.12800
 Alpha  occ. eigenvalues --   -1.12750  -1.12706  -1.12687  -1.12643  -1.12608
 Alpha  occ. eigenvalues --   -0.19249  -0.13108  -0.12536  -0.11427
 Alpha virt. eigenvalues --   -0.05294  -0.04849  -0.04389  -0.03452  -0.03140
 Alpha virt. eigenvalues --   -0.02981  -0.01296  -0.00844  -0.00119   0.00085
 Alpha virt. eigenvalues --    0.00129   0.00379   0.00883   0.00971   0.00976

  Beta  occ. eigenvalues --  -38.43806 -38.43723 -38.43499 -38.43455 -38.43448
  Beta  occ. eigenvalues --  -38.43143 -38.43095  -2.19663  -2.19603  -2.19449
  Beta  occ. eigenvalues --   -2.19330  -2.19324  -2.19074  -2.18985  -1.13415
  Beta  occ. eigenvalues --   -1.13352  -1.13336  -1.13261  -1.13248  -1.13229
  Beta  occ. eigenvalues --   -1.13213  -1.13172  -1.13110  -1.13058  -1.12993
  Beta  occ. eigenvalues --   -1.12981  -1.12969  -1.12961  -1.12923  -1.12765
  Beta  occ. eigenvalues --   -1.12702  -1.12688  -1.12669  -1.12624  -1.12605
  Beta  occ. eigenvalues --   -0.18486  -0.12845  -0.12270
  Beta virt. eigenvalues --   -0.07440  -0.05230  -0.04863  -0.04359  -0.02630
  Beta virt. eigenvalues --   -0.02343  -0.01883  -0.01203  -0.00791  -0.00033
  Beta virt. eigenvalues --    0.00067   0.00128   0.00399   0.00936   0.00958

 Mulliken charges and spin densities:
               1          2
     1  Na   0.011982  -0.023741
     2  Na  -0.346127   0.450479
     3  Na   0.184942  -0.053390
     4  Na  -0.607641   0.653929
     5  Na   0.254357   0.006612
     6  Na   0.078907  -0.049589
     7  Na   0.423580   0.015700
 Sum of Mulliken charges =  -0.00000   1.00000

 Dipole moment (field-independent basis, Debye):
    X=              0.0658    Y=             -0.0242    Z=              0.2769  Tot=              0.2856
 Quadrupole moment (field-independent basis, Debye-Ang):
   XX=            -58.8807   YY=            -65.7189   ZZ=            -70.7687
   XY=              0.3724   XZ=             -0.5712   YZ=              0.9510

 Normal termination of Gaussian 16 at Tue Dec  5 21:28:02 2023.
