 Gaussian 16, Revision B.01,
 Gaussian 16:  ES64L-G16RevB.01 20-Dec-2017

 -------------------------
 #P B3LYP/6-311+g(d) force
 -------------------------

 -----
 DPGEN
 -----
 Symbolic Z-matrix:
 Charge =  0 Multiplicity = 2

                         Standard orientation:
 ---------------------------------------------------------------------
 Center     Atomic      Atomic             Coordinates (Angstroms)
 Number     Number       Type             X           Y           Z
 ---------------------------------------------------------------------
      1         11           0       -2.389087    2.984200    0.223404
      2         11           0       -0.426441   -2.971495   -0.358879
      3         11           0       -1.207862   -0.893936    1.878584
      4         11           0        4.296235    1.550366    0.065600
      5         11           0        2.600753   -1.189581   -0.141240
      6         11           0       -3.173865   -0.304936   -0.931441
      7         11           0        0.300268    0.825382   -0.736029
 ---------------------------------------------------------------------

 SCF Done:  E(UB3LYP) =  -1136.12014190     A.U. after   29 cycles

 The electronic state is 2-A.
 Alpha  occ. eigenvalues --  -38.44864 -38.44630 -38.44093 -38.44073 -38.43793
 Alpha  occ. eigenvalues --  -38.43680 -38.43347  -2.20640  -2.20506  -2.19971
 Alpha  occ. eigenvalues --   -2.19854  -2.19687  -2.19534  -2.19207  -1.14317
 Alpha  occ. eigenvalues --   -1.14301  -1.14271  -1.14223  -1.14195  -1.14126
 Alpha  occ. eigenvalues --   -1.13687  -1.13634  -1.13561  -1.13531  -1.13512
 Alpha  occ. eigenvalues --   -1.13486  -1.13362  -1.13350  -1.13306  -1.13214
 Alpha  occ. eigenvalues --   -1.13186  -1.13130  -1.12884  -1.12859  -1.12843
 Alpha  occ. eigenvalues --   -0.17988  -0.13815  -0.12155  -0.09603
 Alpha virt. eigenvalues --   -0.07111  -0.05764  -0.04667  -0.03019  -0.02737
 Alpha virt. eigenvalues --   -0.02363  -0.01790  -0.01575  -0.01356  -0.00462
 Alpha virt. eigenvalues --   -0.00207   0.00107   0.00386   0.00541   0.00634

  Beta  occ. eigenvalues --  -38.44865 -38.44620 -38.44090 -38.44068 -38.43726
  Beta  occ. eigenvalues --  -38.43614 -38.43338  -2.20641  -2.20490  -2.19969
  Beta  occ. eigenvalues --   -2.19846  -2.19564  -2.19414  -2.19194  -1.14319
  Beta  occ. eigenvalues --   -1.14300  -1.14272  -1.14208  -1.14159  -1.14121
  Beta  occ. eigenvalues --   -1.13686  -1.13625  -1.13558  -1.13527  -1.13493
  Beta  occ. eigenvalues --   -1.13483  -1.13278  -1.13254  -1.13220  -1.13125
  Beta  occ. eigenvalues --   -1.13106  -1.13039  -1.12873  -1.12853  -1.12807
  Beta  occ. eigenvalues --   -0.17409  -0.13597  -0.11993
  Beta virt. eigenvalues --   -0.06902  -0.05818  -0.05701  -0.04512  -0.02753
  Beta virt. eigenvalues --   -0.02373  -0.01957  -0.01606  -0.01298  -0.00867
  Beta virt. eigenvalues --   -0.00289   0.00119   0.00221   0.00536   0.00610

 Mulliken charges and spin densities:
               1          2
     1  Na   0.175631   0.016174
     2  Na   0.295340   0.209087
     3  Na  -0.128127   0.277419
     4  Na   0.569766  -0.021519
     5  Na   0.042048   0.023051
     6  Na   0.327186   0.447694
     7  Na  -1.281844   0.048093
 Sum of Mulliken charges =  -0.00000   1.00000

 Dipole moment (field-independent basis, Debye):
    X=              1.0677    Y=              0.7237    Z=              0.6514  Tot=              1.4450
 Quadrupole moment (field-independent basis, Debye-Ang):
   XX=            -57.1265   YY=            -60.5818   ZZ=            -76.0709
   XY=              0.4144   XZ=             -2.2743   YZ=              0.5638

 Normal termination of Gaussian 16 at Tue Dec  5 13:00:17 2023.
