 Gaussian 16, Revision B.01,
 Gaussian 16:  ES64L-G16RevB.01 20-Dec-2017

 -------------------------
 #P B3LYP/6-311+g(d) force
 -------------------------

 -----
 DPGEN
 -----
 Symbolic Z-matrix:
 Charge =  0 Multiplicity = 2

                         Standard orientation:
 ---------------------------------------------------------------------
 Center     Atomic      Atomic             Coordinates (Angstroms)
 Number     Number       Type             X           Y           Z
 ---------------------------------------------------------------------
      1         11           0       -1.232255   -0.724172    2.005751
      2         11           0       -1.390553    2.233603   -0.382177
      3         11           0       -3.306598   -0.056214   -0.025177
      4         11           0       -0.795035   -1.531155   -1.859953
      5         11           0        3.096692    2.099296   -0.084356
      6         11           0        0.955996    0.168975    0.165983
      7         11           0        2.671753   -2.190333    0.179930
 ---------------------------------------------------------------------

 SCF Done:  E(UB3LYP) =  -1136.10697133     A.U. after   23 cycles

 The electronic state is 2-A.
 Alpha  occ. eigenvalues --  -38.44781 -38.44659 -38.44281 -38.44249 -38.43952
 Alpha  occ. eigenvalues --  -38.43889 -38.42663  -2.20719  -2.20465  -2.20221
 Alpha  occ. eigenvalues --   -2.20051  -2.19832  -2.19754  -2.18838  -1.14446
 Alpha  occ. eigenvalues --   -1.14412  -1.14342  -1.14202  -1.14113  -1.14075
 Alpha  occ. eigenvalues --   -1.13936  -1.13838  -1.13797  -1.13782  -1.13701
 Alpha  occ. eigenvalues --   -1.13663  -1.13533  -1.13471  -1.13464  -1.13459
 Alpha  occ. eigenvalues --   -1.13389  -1.13343  -1.12542  -1.12512  -1.12435
 Alpha  occ. eigenvalues --   -0.18943  -0.13791  -0.11434  -0.11090
 Alpha virt. eigenvalues --   -0.06425  -0.06011  -0.03666  -0.03408  -0.02516
 Alpha virt. eigenvalues --   -0.02276  -0.02084  -0.01465  -0.00275  -0.00238
 Alpha virt. eigenvalues --    0.00099   0.00206   0.00642   0.00693   0.00735

  Beta  occ. eigenvalues --  -38.44767 -38.44667 -38.44261 -38.44186 -38.43935
  Beta  occ. eigenvalues --  -38.43815 -38.42644  -2.20700  -2.20482  -2.20075
  Beta  occ. eigenvalues --   -2.20046  -2.19803  -2.19617  -2.18809  -1.14416
  Beta  occ. eigenvalues --   -1.14395  -1.14300  -1.14213  -1.14117  -1.14088
  Beta  occ. eigenvalues --   -1.13827  -1.13799  -1.13726  -1.13715  -1.13680
  Beta  occ. eigenvalues --   -1.13657  -1.13516  -1.13449  -1.13424  -1.13368
  Beta  occ. eigenvalues --   -1.13297  -1.13239  -1.12526  -1.12439  -1.12425
  Beta  occ. eigenvalues --   -0.18157  -0.13639  -0.11270
  Beta virt. eigenvalues --   -0.07028  -0.06242  -0.05915  -0.03323  -0.02801
  Beta virt. eigenvalues --   -0.02164  -0.01807  -0.01439  -0.01416  -0.00192
  Beta virt. eigenvalues --    0.00025   0.00113   0.00262   0.00707   0.00731

 Mulliken charges and spin densities:
               1          2
     1  Na   0.543356   0.222909
     2  Na  -0.076614  -0.026499
     3  Na   0.889821   0.360833
     4  Na   0.098748   0.325924
     5  Na   0.572572  -0.321426
     6  Na  -2.776217   0.392588
     7  Na   0.748334   0.045671
 Sum of Mulliken charges =  -0.00000   1.00000

 Dipole moment (field-independent basis, Debye):
    X=             -0.0369    Y=             -0.4845    Z=             -0.1579  Tot=              0.5109
 Quadrupole moment (field-independent basis, Debye-Ang):
   XX=            -49.8079   YY=            -69.1876   ZZ=            -72.3727
   XY=             -2.1423   XZ=              0.9383   YZ=             -0.8774

 Normal termination of Gaussian 16 at Thu Dec  7 12:28:14 2023.
