 Gaussian 16, Revision B.01,
 Gaussian 16:  ES64L-G16RevB.01 20-Dec-2017

 -------------------------
 #P B3LYP/6-311+g(d) force
 -------------------------

 -----
 DPGEN
 -----
 Symbolic Z-matrix:
 Charge =  0 Multiplicity = 2

                         Standard orientation:
 ---------------------------------------------------------------------
 Center     Atomic      Atomic             Coordinates (Angstroms)
 Number     Number       Type             X           Y           Z
 ---------------------------------------------------------------------
      1         11           0       -1.956909    2.747770   -0.235726
      2         11           0       -3.024166   -1.478611   -0.211543
      3         11           0       -0.236522   -0.106185   -1.637554
      4         11           0       -0.170354    0.209788    1.801087
      5         11           0        0.452849   -2.860598    0.540334
      6         11           0        1.850417    1.926560    0.514231
      7         11           0        3.084685   -0.438724   -0.770829
 ---------------------------------------------------------------------

 SCF Done:  E(UB3LYP) =  -1136.12986713     A.U. after   20 cycles

 The electronic state is 2-A.
 Alpha  occ. eigenvalues --  -38.44545 -38.43924 -38.43690 -38.43664 -38.43634
 Alpha  occ. eigenvalues --  -38.43401 -38.43339  -2.20326  -2.19698  -2.19581
 Alpha  occ. eigenvalues --   -2.19561  -2.19490  -2.19369  -2.19282  -1.14014
 Alpha  occ. eigenvalues --   -1.13980  -1.13954  -1.13402  -1.13381  -1.13377
 Alpha  occ. eigenvalues --   -1.13350  -1.13340  -1.13230  -1.13195  -1.13183
 Alpha  occ. eigenvalues --   -1.13179  -1.13153  -1.13107  -1.13101  -1.13038
 Alpha  occ. eigenvalues --   -1.12982  -1.12963  -1.12951  -1.12910  -1.12898
 Alpha  occ. eigenvalues --   -0.18583  -0.12987  -0.12260  -0.10781
 Alpha virt. eigenvalues --   -0.05940  -0.05297  -0.04316  -0.03236  -0.02918
 Alpha virt. eigenvalues --   -0.02397  -0.01716  -0.01403  -0.00431  -0.00117
 Alpha virt. eigenvalues --    0.00042   0.00341   0.00736   0.00782   0.00838

  Beta  occ. eigenvalues --  -38.44543 -38.43925 -38.43670 -38.43648 -38.43618
  Beta  occ. eigenvalues --  -38.43316 -38.43280  -2.20324  -2.19702  -2.19554
  Beta  occ. eigenvalues --   -2.19529  -2.19465  -2.19214  -2.19174  -1.14001
  Beta  occ. eigenvalues --   -1.13980  -1.13951  -1.13386  -1.13376  -1.13354
  Beta  occ. eigenvalues --   -1.13341  -1.13321  -1.13193  -1.13169  -1.13156
  Beta  occ. eigenvalues --   -1.13144  -1.13122  -1.13094  -1.13082  -1.12950
  Beta  occ. eigenvalues --   -1.12893  -1.12864  -1.12840  -1.12835  -1.12816
  Beta  occ. eigenvalues --   -0.17866  -0.12719  -0.12017
  Beta virt. eigenvalues --   -0.06915  -0.05903  -0.05201  -0.04250  -0.02533
  Beta virt. eigenvalues --   -0.02205  -0.01633  -0.01429  -0.01287  -0.00383
  Beta virt. eigenvalues --   -0.00129   0.00134   0.00375   0.00766   0.00846

 Mulliken charges and spin densities:
               1          2
     1  Na  -0.199575  -0.079126
     2  Na  -0.095917  -0.096651
     3  Na  -0.166448   0.567249
     4  Na   0.167815   0.369598
     5  Na  -0.025639   0.068174
     6  Na   0.283872   0.091117
     7  Na   0.035892   0.079639
 Sum of Mulliken charges =  -0.00000   1.00000

 Dipole moment (field-independent basis, Debye):
    X=             -0.6650    Y=             -0.2345    Z=             -0.0851  Tot=              0.7103
 Quadrupole moment (field-independent basis, Debye-Ang):
   XX=            -55.9503   YY=            -62.1204   ZZ=            -74.3380
   XY=             -0.5868   XZ=             -0.3860   YZ=             -0.5672

 Normal termination of Gaussian 16 at Sun Dec  3 23:59:26 2023.
