 Gaussian 16, Revision B.01,
 Gaussian 16:  ES64L-G16RevB.01 20-Dec-2017

 -------------------------
 #P B3LYP/6-311+g(d) force
 -------------------------

 -----
 DPGEN
 -----
 Symbolic Z-matrix:
 Charge =  0 Multiplicity = 2

                         Standard orientation:
 ---------------------------------------------------------------------
 Center     Atomic      Atomic             Coordinates (Angstroms)
 Number     Number       Type             X           Y           Z
 ---------------------------------------------------------------------
      1         11           0       -1.677039    2.103721    0.286174
      2         11           0       -4.281784    0.065666   -1.022339
      3         11           0       -2.332375   -1.205595    1.907100
      4         11           0        1.740503   -1.289016    0.679273
      5         11           0        2.536354    2.156370    0.224274
      6         11           0        4.895781   -0.665118   -0.524315
      7         11           0       -0.881441   -1.166027   -1.550167
 ---------------------------------------------------------------------

 SCF Done:  E(UB3LYP) =  -1136.10744204     A.U. after   29 cycles

 The electronic state is 2-A.
 Alpha  occ. eigenvalues --  -38.46156 -38.45609 -38.44431 -38.44104 -38.43822
 Alpha  occ. eigenvalues --  -38.43498 -38.43129  -2.21906  -2.21412  -2.20235
 Alpha  occ. eigenvalues --   -2.19869  -2.19659  -2.19297  -2.18970  -1.15607
 Alpha  occ. eigenvalues --   -1.15553  -1.15533  -1.15102  -1.15050  -1.15039
 Alpha  occ. eigenvalues --   -1.13891  -1.13883  -1.13842  -1.13565  -1.13549
 Alpha  occ. eigenvalues --   -1.13479  -1.13331  -1.13296  -1.13274  -1.13004
 Alpha  occ. eigenvalues --   -1.12975  -1.12898  -1.12681  -1.12663  -1.12565
 Alpha  occ. eigenvalues --   -0.17294  -0.14408  -0.10748  -0.10473
 Alpha virt. eigenvalues --   -0.07776  -0.05718  -0.04841  -0.03256  -0.03037
 Alpha virt. eigenvalues --   -0.02215  -0.01884  -0.01807  -0.01586  -0.00648
 Alpha virt. eigenvalues --   -0.00508   0.00084   0.00131   0.00408   0.00539

  Beta  occ. eigenvalues --  -38.46165 -38.45594 -38.44362 -38.44090 -38.43761
  Beta  occ. eigenvalues --  -38.43480 -38.43120  -2.21925  -2.21386  -2.20104
  Beta  occ. eigenvalues --   -2.19845  -2.19544  -2.19265  -2.18958  -1.15611
  Beta  occ. eigenvalues --   -1.15569  -1.15541  -1.15073  -1.15034  -1.15017
  Beta  occ. eigenvalues --   -1.13800  -1.13792  -1.13759  -1.13551  -1.13533
  Beta  occ. eigenvalues --   -1.13440  -1.13250  -1.13215  -1.13204  -1.12986
  Beta  occ. eigenvalues --   -1.12953  -1.12856  -1.12675  -1.12640  -1.12546
  Beta  occ. eigenvalues --   -0.16778  -0.13881  -0.10269
  Beta virt. eigenvalues --   -0.07659  -0.07225  -0.05416  -0.04279  -0.03030
  Beta virt. eigenvalues --   -0.02797  -0.02014  -0.01724  -0.01256  -0.01166
  Beta virt. eigenvalues --   -0.00393  -0.00319   0.00124   0.00230   0.00519

 Mulliken charges and spin densities:
               1          2
     1  Na  -0.634876   0.097590
     2  Na   0.520640   0.374469
     3  Na   0.286055  -0.003800
     4  Na  -0.473254   0.169376
     5  Na  -0.074097   0.069078
     6  Na   0.405189   0.324800
     7  Na  -0.029656  -0.031514
 Sum of Mulliken charges =  -0.00000   1.00000

 Dipole moment (field-independent basis, Debye):
    X=             -0.5090    Y=             -1.0679    Z=              0.2027  Tot=              1.2002
 Quadrupole moment (field-independent basis, Debye-Ang):
   XX=            -61.1417   YY=            -80.7639   ZZ=            -60.2495
   XY=              3.6817   XZ=             -6.0694   YZ=              0.9318

 Normal termination of Gaussian 16 at Thu Dec  7 21:03:22 2023.
