 Gaussian 16, Revision B.01,
 Gaussian 16:  ES64L-G16RevB.01 20-Dec-2017

 -------------------------
 #P B3LYP/6-311+g(d) force
 -------------------------

 -----
 DPGEN
 -----
 Symbolic Z-matrix:
 Charge =  0 Multiplicity = 2

                         Standard orientation:
 ---------------------------------------------------------------------
 Center     Atomic      Atomic             Coordinates (Angstroms)
 Number     Number       Type             X           Y           Z
 ---------------------------------------------------------------------
      1         11           0        1.932267   -2.152976    0.003332
      2         11           0       -0.303793   -0.164134   -1.788383
      3         11           0        0.142033   -0.010881    1.902508
      4         11           0        0.000299    2.888306    0.156396
      5         11           0       -1.773418   -2.506809    0.132873
      6         11           0       -2.917954    1.031005   -0.103366
      7         11           0        2.920565    0.915489   -0.303360
 ---------------------------------------------------------------------

 SCF Done:  E(UB3LYP) =  -1136.14118758     A.U. after   19 cycles

 The electronic state is 2-A.
 Alpha  occ. eigenvalues --  -38.43920 -38.43681 -38.43627 -38.43517 -38.43353
 Alpha  occ. eigenvalues --  -38.43292 -38.43278  -2.19758  -2.19533  -2.19459
 Alpha  occ. eigenvalues --   -2.19393  -2.19284  -2.19239  -2.19135  -1.13447
 Alpha  occ. eigenvalues --   -1.13418  -1.13391  -1.13229  -1.13196  -1.13183
 Alpha  occ. eigenvalues --   -1.13145  -1.13130  -1.13095  -1.13076  -1.13061
 Alpha  occ. eigenvalues --   -1.13009  -1.12962  -1.12917  -1.12910  -1.12899
 Alpha  occ. eigenvalues --   -1.12868  -1.12859  -1.12803  -1.12794  -1.12766
 Alpha  occ. eigenvalues --   -0.18771  -0.13012  -0.12544  -0.10744
 Alpha virt. eigenvalues --   -0.05457  -0.05216  -0.04740  -0.03181  -0.02943
 Alpha virt. eigenvalues --   -0.02516  -0.01405  -0.01168  -0.00314  -0.00302
 Alpha virt. eigenvalues --   -0.00002   0.00374   0.00834   0.00884   0.00918

  Beta  occ. eigenvalues --  -38.43916 -38.43675 -38.43623 -38.43510 -38.43273
  Beta  occ. eigenvalues --  -38.43267 -38.43219  -2.19754  -2.19525  -2.19455
  Beta  occ. eigenvalues --   -2.19386  -2.19129  -2.19125  -2.19106  -1.13437
  Beta  occ. eigenvalues --   -1.13401  -1.13393  -1.13226  -1.13183  -1.13163
  Beta  occ. eigenvalues --   -1.13138  -1.13109  -1.13092  -1.13065  -1.13031
  Beta  occ. eigenvalues --   -1.13006  -1.12870  -1.12824  -1.12820  -1.12792
  Beta  occ. eigenvalues --   -1.12788  -1.12768  -1.12764  -1.12759  -1.12753
  Beta  occ. eigenvalues --   -0.18032  -0.12768  -0.12299
  Beta virt. eigenvalues --   -0.06844  -0.05446  -0.05188  -0.04703  -0.02385
  Beta virt. eigenvalues --   -0.02151  -0.01472  -0.01312  -0.01100  -0.00367
  Beta virt. eigenvalues --   -0.00359   0.00127   0.00390   0.00866   0.00887

 Mulliken charges and spin densities:
               1          2
     1  Na   0.210865  -0.068909
     2  Na  -0.263298   0.666738
     3  Na  -0.319925   0.746782
     4  Na   0.107381  -0.069391
     5  Na   0.099420  -0.136432
     6  Na   0.125302  -0.114657
     7  Na   0.040254  -0.024131
 Sum of Mulliken charges =  -0.00000   1.00000

 Dipole moment (field-independent basis, Debye):
    X=             -0.1884    Y=             -0.0677    Z=              0.0154  Tot=              0.2008
 Quadrupole moment (field-independent basis, Debye-Ang):
   XX=            -57.4254   YY=            -61.7704   ZZ=            -74.2453
   XY=              0.3907   XZ=             -1.0464   YZ=             -0.4901

 Normal termination of Gaussian 16 at Fri Dec  8 01:05:03 2023.
