 Gaussian 16, Revision B.01,
 Gaussian 16:  ES64L-G16RevB.01 20-Dec-2017

 -------------------------
 #P B3LYP/6-311+g(d) force
 -------------------------

 -----
 DPGEN
 -----
 Symbolic Z-matrix:
 Charge =  0 Multiplicity = 2

                         Standard orientation:
 ---------------------------------------------------------------------
 Center     Atomic      Atomic             Coordinates (Angstroms)
 Number     Number       Type             X           Y           Z
 ---------------------------------------------------------------------
      1         11           0       -2.365531   -2.152478   -0.618893
      2         11           0       -0.907886    2.867468   -0.244851
      3         11           0       -1.997900    0.094432    1.351766
      4         11           0       -0.330154    0.149915   -2.077549
      5         11           0        2.773062   -1.812507   -0.637976
      6         11           0        1.983000    1.806148    0.188532
      7         11           0        0.845408   -0.952978    2.038972
 ---------------------------------------------------------------------

 SCF Done:  E(UB3LYP) =  -1136.12864480     A.U. after   20 cycles

 The electronic state is 2-A.
 Alpha  occ. eigenvalues --  -38.44313 -38.43999 -38.43881 -38.43845 -38.43809
 Alpha  occ. eigenvalues --  -38.43592 -38.43027  -2.20200  -2.19882  -2.19726
 Alpha  occ. eigenvalues --   -2.19675  -2.19636  -2.19543  -2.18918  -1.13865
 Alpha  occ. eigenvalues --   -1.13839  -1.13832  -1.13600  -1.13518  -1.13510
 Alpha  occ. eigenvalues --   -1.13470  -1.13383  -1.13366  -1.13352  -1.13352
 Alpha  occ. eigenvalues --   -1.13306  -1.13298  -1.13294  -1.13266  -1.13211
 Alpha  occ. eigenvalues --   -1.13162  -1.13140  -1.12579  -1.12573  -1.12566
 Alpha  occ. eigenvalues --   -0.18534  -0.12758  -0.12256  -0.11910
 Alpha virt. eigenvalues --   -0.05386  -0.05132  -0.04152  -0.03649  -0.03436
 Alpha virt. eigenvalues --   -0.03262  -0.01159  -0.01086  -0.00326   0.00130
 Alpha virt. eigenvalues --    0.00289   0.00441   0.00753   0.00816   0.00858

  Beta  occ. eigenvalues --  -38.44235 -38.43938 -38.43871 -38.43838 -38.43805
  Beta  occ. eigenvalues --  -38.43552 -38.43024  -2.20057  -2.19771  -2.19710
  Beta  occ. eigenvalues --   -2.19669  -2.19623  -2.19472  -2.18915  -1.13774
  Beta  occ. eigenvalues --   -1.13734  -1.13725  -1.13516  -1.13460  -1.13442
  Beta  occ. eigenvalues --   -1.13432  -1.13362  -1.13355  -1.13339  -1.13328
  Beta  occ. eigenvalues --   -1.13303  -1.13286  -1.13279  -1.13259  -1.13154
  Beta  occ. eigenvalues --   -1.13110  -1.13090  -1.12579  -1.12568  -1.12550
  Beta  occ. eigenvalues --   -0.17730  -0.12606  -0.12081
  Beta virt. eigenvalues --   -0.07894  -0.05279  -0.04822  -0.03927  -0.03153
  Beta virt. eigenvalues --   -0.02828  -0.02303  -0.01093  -0.00967  -0.00113
  Beta virt. eigenvalues --    0.00146   0.00345   0.00487   0.00806   0.00932

 Mulliken charges and spin densities:
               1          2
     1  Na  -0.065239  -0.006969
     2  Na   0.477266  -0.062220
     3  Na  -0.080457   0.331720
     4  Na  -0.166180   0.531474
     5  Na  -0.050137  -0.023084
     6  Na  -0.466631   0.217228
     7  Na   0.351378   0.011851
 Sum of Mulliken charges =  -0.00000   1.00000

 Dipole moment (field-independent basis, Debye):
    X=              0.2124    Y=             -0.3176    Z=             -0.3364  Tot=              0.5091
 Quadrupole moment (field-independent basis, Debye-Ang):
   XX=            -64.6239   YY=            -65.2428   ZZ=            -67.1316
   XY=             -0.1363   XZ=             -0.8125   YZ=              3.0966

 Normal termination of Gaussian 16 at Wed Nov 29 16:45:04 2023.
