 Gaussian 16, Revision B.01,
 Gaussian 16:  ES64L-G16RevB.01 20-Dec-2017

 -------------------------
 #P B3LYP/6-311+g(d) force
 -------------------------

 -----
 DPGEN
 -----
 Symbolic Z-matrix:
 Charge =  0 Multiplicity = 2

                         Standard orientation:
 ---------------------------------------------------------------------
 Center     Atomic      Atomic             Coordinates (Angstroms)
 Number     Number       Type             X           Y           Z
 ---------------------------------------------------------------------
      1         11           0       -0.204035   -0.139887   -1.831654
      2         11           0        0.270408   -2.510128    0.277011
      3         11           0       -2.961183   -0.922122   -0.146602
      4         11           0       -1.583523    1.963604    0.177994
      5         11           0        1.475855    2.141404   -0.338216
      6         11           0        0.220087    0.253165    2.061058
      7         11           0        2.782392   -0.786037   -0.199591
 ---------------------------------------------------------------------

 SCF Done:  E(UB3LYP) =  -1136.13284699     A.U. after   19 cycles

 The electronic state is 2-A.
 Alpha  occ. eigenvalues --  -38.43926 -38.43736 -38.43636 -38.43579 -38.43085
 Alpha  occ. eigenvalues --  -38.43005 -38.42969  -2.19899  -2.19609  -2.19597
 Alpha  occ. eigenvalues --   -2.19558  -2.19072  -2.18942  -2.18941  -1.13582
 Alpha  occ. eigenvalues --   -1.13539  -1.13513  -1.13324  -1.13301  -1.13276
 Alpha  occ. eigenvalues --   -1.13263  -1.13244  -1.13235  -1.13220  -1.13205
 Alpha  occ. eigenvalues --   -1.13182  -1.12792  -1.12740  -1.12705  -1.12628
 Alpha  occ. eigenvalues --   -1.12610  -1.12607  -1.12586  -1.12552  -1.12544
 Alpha  occ. eigenvalues --   -0.19725  -0.13257  -0.12544  -0.11621
 Alpha virt. eigenvalues --   -0.05385  -0.04613  -0.04191  -0.03460  -0.03189
 Alpha virt. eigenvalues --   -0.03034  -0.01349  -0.00711  -0.00109   0.00237
 Alpha virt. eigenvalues --    0.00321   0.00387   0.00918   0.01017   0.01022

  Beta  occ. eigenvalues --  -38.43829 -38.43735 -38.43630 -38.43502 -38.43074
  Beta  occ. eigenvalues --  -38.42995 -38.42957  -2.19722  -2.19598  -2.19551
  Beta  occ. eigenvalues --   -2.19468  -2.19057  -2.18928  -2.18924  -1.13468
  Beta  occ. eigenvalues --   -1.13409  -1.13390  -1.13298  -1.13259  -1.13256
  Beta  occ. eigenvalues --   -1.13234  -1.13229  -1.13199  -1.13175  -1.13152
  Beta  occ. eigenvalues --   -1.13100  -1.12786  -1.12712  -1.12674  -1.12622
  Beta  occ. eigenvalues --   -1.12598  -1.12565  -1.12551  -1.12545  -1.12527
  Beta  occ. eigenvalues --   -0.18922  -0.12990  -0.12260
  Beta virt. eigenvalues --   -0.07579  -0.05349  -0.04619  -0.04187  -0.02617
  Beta virt. eigenvalues --   -0.02329  -0.01928  -0.01271  -0.00663   0.00049
  Beta virt. eigenvalues --    0.00199   0.00282   0.00389   0.00967   0.01002

 Mulliken charges and spin densities:
               1          2
     1  Na  -0.823581   0.502753
     2  Na   0.346295   0.021650
     3  Na   0.115036  -0.086055
     4  Na   0.551047   0.066468
     5  Na   0.445930   0.021539
     6  Na  -0.818603   0.523338
     7  Na   0.183876  -0.049692
 Sum of Mulliken charges =  -0.00000   1.00000

 Dipole moment (field-independent basis, Debye):
    X=             -0.0874    Y=             -0.1769    Z=              0.1153  Tot=              0.2286
 Quadrupole moment (field-independent basis, Debye-Ang):
   XX=            -58.1474   YY=            -67.8519   ZZ=            -69.6197
   XY=              0.7636   XZ=             -0.8171   YZ=             -0.6334

 Normal termination of Gaussian 16 at Thu Dec  7 15:12:17 2023.
