 Gaussian 16, Revision B.01,
 Gaussian 16:  ES64L-G16RevB.01 20-Dec-2017

 -------------------------
 #P B3LYP/6-311+g(d) force
 -------------------------

 -----
 DPGEN
 -----
 Symbolic Z-matrix:
 Charge =  0 Multiplicity = 2

                         Standard orientation:
 ---------------------------------------------------------------------
 Center     Atomic      Atomic             Coordinates (Angstroms)
 Number     Number       Type             X           Y           Z
 ---------------------------------------------------------------------
      1         11           0        0.912880   -2.943986    0.143154
      2         11           0       -1.546892    2.556460   -0.742784
      3         11           0        0.153254    0.187253    2.432616
      4         11           0        2.258779    2.480141   -0.371554
      5         11           0       -1.706877   -1.497656   -1.766690
      6         11           0        3.363818   -0.622449   -0.408928
      7         11           0       -3.434962   -0.159763    0.714186
 ---------------------------------------------------------------------

 SCF Done:  E(UB3LYP) =  -1136.12142143     A.U. after   21 cycles

 The electronic state is 2-A.
 Alpha  occ. eigenvalues --  -38.44987 -38.44552 -38.44534 -38.44488 -38.44292
 Alpha  occ. eigenvalues --  -38.43620 -38.43612  -2.20777  -2.20324  -2.20305
 Alpha  occ. eigenvalues --   -2.20283  -2.20099  -2.19406  -2.19404  -1.14454
 Alpha  occ. eigenvalues --   -1.14434  -1.14426  -1.13993  -1.13973  -1.13968
 Alpha  occ. eigenvalues --   -1.13958  -1.13953  -1.13945  -1.13940  -1.13931
 Alpha  occ. eigenvalues --   -1.13930  -1.13767  -1.13754  -1.13720  -1.13082
 Alpha  occ. eigenvalues --   -1.13077  -1.13067  -1.13066  -1.13054  -1.13047
 Alpha  occ. eigenvalues --   -0.17015  -0.13353  -0.12068  -0.10871
 Alpha virt. eigenvalues --   -0.06537  -0.05989  -0.04457  -0.03605  -0.03199
 Alpha virt. eigenvalues --   -0.02699  -0.01746  -0.01155  -0.01004  -0.00610
 Alpha virt. eigenvalues --   -0.00165   0.00132   0.00364   0.00489   0.00691

  Beta  occ. eigenvalues --  -38.44985 -38.44546 -38.44484 -38.44419 -38.44251
  Beta  occ. eigenvalues --  -38.43613 -38.43612  -2.20778  -2.20294  -2.20274
  Beta  occ. eigenvalues --   -2.20112  -2.20022  -2.19406  -2.19393  -1.14453
  Beta  occ. eigenvalues --   -1.14431  -1.14410  -1.13979  -1.13962  -1.13949
  Beta  occ. eigenvalues --   -1.13938  -1.13925  -1.13924  -1.13826  -1.13806
  Beta  occ. eigenvalues --   -1.13791  -1.13715  -1.13703  -1.13663  -1.13078
  Beta  occ. eigenvalues --   -1.13070  -1.13061  -1.13056  -1.13049  -1.13039
  Beta  occ. eigenvalues --   -0.16393  -0.13185  -0.11899
  Beta virt. eigenvalues --   -0.07047  -0.06408  -0.05833  -0.04154  -0.03105
  Beta virt. eigenvalues --   -0.02509  -0.01918  -0.01674  -0.01131  -0.00932
  Beta virt. eigenvalues --   -0.00600   0.00075   0.00426   0.00456   0.00592

 Mulliken charges and spin densities:
               1          2
     1  Na  -0.026314   0.050750
     2  Na  -0.277711   0.041539
     3  Na  -0.105006   0.681271
     4  Na   0.106911   0.047525
     5  Na   0.174034   0.197699
     6  Na  -0.067538  -0.037407
     7  Na   0.195624   0.018625
 Sum of Mulliken charges =  -0.00000   1.00000

 Dipole moment (field-independent basis, Debye):
    X=             -0.6830    Y=              0.0150    Z=             -0.0904  Tot=              0.6891
 Quadrupole moment (field-independent basis, Debye-Ang):
   XX=            -57.7718   YY=            -69.4727   ZZ=            -71.7966
   XY=             -1.4140   XZ=             -1.5751   YZ=             -0.8975

 Normal termination of Gaussian 16 at Mon Dec  4 03:38:53 2023.
