 Gaussian 16, Revision B.01,
 Gaussian 16:  ES64L-G16RevB.01 20-Dec-2017

 -------------------------
 #P B3LYP/6-311+g(d) force
 -------------------------

 -----
 DPGEN
 -----
 Symbolic Z-matrix:
 Charge =  0 Multiplicity = 2

                         Standard orientation:
 ---------------------------------------------------------------------
 Center     Atomic      Atomic             Coordinates (Angstroms)
 Number     Number       Type             X           Y           Z
 ---------------------------------------------------------------------
      1         11           0        2.703038    1.475110   -0.266846
      2         11           0       -1.013317    2.938346    0.003930
      3         11           0        0.002834    0.207943   -1.700886
      4         11           0       -2.894183   -0.033928    0.186539
      5         11           0        2.119292   -1.782834    0.275196
      6         11           0        0.074955   -0.106948    2.039893
      7         11           0       -0.992619   -2.697688   -0.537826
 ---------------------------------------------------------------------

 SCF Done:  E(UB3LYP) =  -1136.13931884     A.U. after   18 cycles

 The electronic state is 2-A.
 Alpha  occ. eigenvalues --  -38.43736 -38.43731 -38.43696 -38.43586 -38.43339
 Alpha  occ. eigenvalues --  -38.43218 -38.43213  -2.19652  -2.19570  -2.19515
 Alpha  occ. eigenvalues --   -2.19454  -2.19252  -2.19202  -2.19107  -1.13337
 Alpha  occ. eigenvalues --   -1.13296  -1.13270  -1.13263  -1.13225  -1.13210
 Alpha  occ. eigenvalues --   -1.13202  -1.13178  -1.13154  -1.13133  -1.13124
 Alpha  occ. eigenvalues --   -1.13079  -1.12945  -1.12924  -1.12883  -1.12879
 Alpha  occ. eigenvalues --   -1.12855  -1.12821  -1.12755  -1.12746  -1.12737
 Alpha  occ. eigenvalues --   -0.18924  -0.12923  -0.12593  -0.11062
 Alpha virt. eigenvalues --   -0.05395  -0.04942  -0.04699  -0.03255  -0.03040
 Alpha virt. eigenvalues --   -0.02733  -0.01250  -0.01168  -0.00193  -0.00167
 Alpha virt. eigenvalues --    0.00042   0.00375   0.00888   0.00900   0.00933

  Beta  occ. eigenvalues --  -38.43727 -38.43695 -38.43641 -38.43580 -38.43329
  Beta  occ. eigenvalues --  -38.43204 -38.43145  -2.19564  -2.19516  -2.19478
  Beta  occ. eigenvalues --   -2.19447  -2.19238  -2.19086  -2.19078  -1.13258
  Beta  occ. eigenvalues --   -1.13225  -1.13210  -1.13207  -1.13201  -1.13181
  Beta  occ. eigenvalues --   -1.13166  -1.13154  -1.13143  -1.13122  -1.13092
  Beta  occ. eigenvalues --   -1.13075  -1.12930  -1.12882  -1.12871  -1.12816
  Beta  occ. eigenvalues --   -1.12776  -1.12739  -1.12730  -1.12719  -1.12696
  Beta  occ. eigenvalues --   -0.18176  -0.12670  -0.12339
  Beta virt. eigenvalues --   -0.07114  -0.05402  -0.04860  -0.04688  -0.02424
  Beta virt. eigenvalues --   -0.02284  -0.01670  -0.01172  -0.01090  -0.00235
  Beta virt. eigenvalues --   -0.00164   0.00131   0.00391   0.00877   0.00927

 Mulliken charges and spin densities:
               1          2
     1  Na   0.029317  -0.111048
     2  Na  -0.041349  -0.114688
     3  Na  -0.216882   0.499251
     4  Na   0.127746  -0.000762
     5  Na   0.328192   0.080683
     6  Na  -0.376967   0.626094
     7  Na   0.149944   0.020469
 Sum of Mulliken charges =  -0.00000   1.00000

 Dipole moment (field-independent basis, Debye):
    X=              0.0037    Y=              0.3105    Z=              0.1486  Tot=              0.3442
 Quadrupole moment (field-independent basis, Debye-Ang):
   XX=            -60.3153   YY=            -60.9646   ZZ=            -72.8161
   XY=              0.4775   XZ=             -0.3165   YZ=              0.7800

 Normal termination of Gaussian 16 at Thu Dec  7 19:06:24 2023.
