 Gaussian 16, Revision B.01,
 Gaussian 16:  ES64L-G16RevB.01 20-Dec-2017

 -------------------------
 #P B3LYP/6-311+g(d) force
 -------------------------

 -----
 DPGEN
 -----
 Symbolic Z-matrix:
 Charge =  0 Multiplicity = 2

                         Standard orientation:
 ---------------------------------------------------------------------
 Center     Atomic      Atomic             Coordinates (Angstroms)
 Number     Number       Type             X           Y           Z
 ---------------------------------------------------------------------
      1         11           0       -0.935620    0.045518    1.312189
      2         11           0       -0.562115    0.336960   -1.875268
      3         11           0        2.901235   -0.299798   -1.168418
      4         11           0        0.244057    3.150255   -0.044608
      5         11           0        1.710456   -0.180388    2.110081
      6         11           0        0.713417   -2.463348   -0.291467
      7         11           0       -4.071430   -0.589199   -0.042509
 ---------------------------------------------------------------------

 SCF Done:  E(UB3LYP) =  -1136.11782965     A.U. after   23 cycles

 The electronic state is 2-A.
 Alpha  occ. eigenvalues --  -38.44749 -38.44736 -38.44464 -38.44211 -38.43426
 Alpha  occ. eigenvalues --  -38.43349 -38.42572  -2.20676  -2.20601  -2.20212
 Alpha  occ. eigenvalues --   -2.20113  -2.19452  -2.19249  -2.18370  -1.14502
 Alpha  occ. eigenvalues --   -1.14292  -1.14281  -1.14236  -1.14223  -1.14219
 Alpha  occ. eigenvalues --   -1.13894  -1.13874  -1.13840  -1.13831  -1.13748
 Alpha  occ. eigenvalues --   -1.13712  -1.13143  -1.13127  -1.13021  -1.12938
 Alpha  occ. eigenvalues --   -1.12913  -1.12864  -1.12043  -1.12035  -1.12013
 Alpha  occ. eigenvalues --   -0.18797  -0.12693  -0.12266  -0.11349
 Alpha virt. eigenvalues --   -0.06518  -0.04392  -0.04089  -0.03541  -0.02977
 Alpha virt. eigenvalues --   -0.02875  -0.02178  -0.00810  -0.00719   0.00152
 Alpha virt. eigenvalues --    0.00183   0.00248   0.00350   0.00825   0.00956

  Beta  occ. eigenvalues --  -38.44717 -38.44646 -38.44472 -38.44152 -38.43371
  Beta  occ. eigenvalues --  -38.43336 -38.42577  -2.20543  -2.20513  -2.20226
  Beta  occ. eigenvalues --   -2.20006  -2.19359  -2.19230  -2.18381  -1.14371
  Beta  occ. eigenvalues --   -1.14235  -1.14219  -1.14182  -1.14143  -1.14116
  Beta  occ. eigenvalues --   -1.13902  -1.13885  -1.13848  -1.13765  -1.13664
  Beta  occ. eigenvalues --   -1.13629  -1.13088  -1.13017  -1.12966  -1.12923
  Beta  occ. eigenvalues --   -1.12863  -1.12857  -1.12047  -1.12035  -1.12021
  Beta  occ. eigenvalues --   -0.17900  -0.12603  -0.11163
  Beta virt. eigenvalues --   -0.08021  -0.06411  -0.04261  -0.03523  -0.02937
  Beta virt. eigenvalues --   -0.02591  -0.02180  -0.01927  -0.00672  -0.00457
  Beta virt. eigenvalues --    0.00146   0.00215   0.00322   0.00445   0.00860

 Mulliken charges and spin densities:
               1          2
     1  Na  -0.299189   0.348955
     2  Na   0.274611   0.471261
     3  Na   0.091290   0.188530
     4  Na  -0.589910  -0.098467
     5  Na   0.699210   0.095424
     6  Na  -0.227310   0.074258
     7  Na   0.051299  -0.079961
 Sum of Mulliken charges =  -0.00000   1.00000

 Dipole moment (field-independent basis, Debye):
    X=              0.4216    Y=             -0.2741    Z=             -0.4159  Tot=              0.6526
 Quadrupole moment (field-independent basis, Debye-Ang):
   XX=            -54.5880   YY=            -72.5016   ZZ=            -66.1672
   XY=              0.7344   XZ=              0.4478   YZ=              0.4256

 Normal termination of Gaussian 16 at Tue Dec  5 10:05:24 2023.
