 Gaussian 16, Revision B.01,
 Gaussian 16:  ES64L-G16RevB.01 20-Dec-2017

 -------------------------
 #P B3LYP/6-311+g(d) force
 -------------------------

 -----
 DPGEN
 -----
 Symbolic Z-matrix:
 Charge =  0 Multiplicity = 2

                         Standard orientation:
 ---------------------------------------------------------------------
 Center     Atomic      Atomic             Coordinates (Angstroms)
 Number     Number       Type             X           Y           Z
 ---------------------------------------------------------------------
      1         11           0       -0.068698   -0.452948   -1.560290
      2         11           0       -0.495915   -2.601419    0.561893
      3         11           0        0.511719    0.084099    2.195768
      4         11           0       -3.351365   -0.597704   -0.372254
      5         11           0       -1.491553    2.681367   -0.012615
      6         11           0        2.935805   -1.133135   -0.641542
      7         11           0        1.960007    2.019740   -0.170962
 ---------------------------------------------------------------------

 SCF Done:  E(UB3LYP) =  -1136.13497937     A.U. after   19 cycles

 The electronic state is 2-A.
 Alpha  occ. eigenvalues --  -38.44208 -38.43969 -38.43897 -38.43418 -38.43413
 Alpha  occ. eigenvalues --  -38.43356 -38.43333  -2.20001  -2.19857  -2.19756
 Alpha  occ. eigenvalues --   -2.19405  -2.19238  -2.19225  -2.19209  -1.13681
 Alpha  occ. eigenvalues --   -1.13651  -1.13640  -1.13521  -1.13496  -1.13467
 Alpha  occ. eigenvalues --   -1.13455  -1.13407  -1.13384  -1.13157  -1.13064
 Alpha  occ. eigenvalues --   -1.13015  -1.12918  -1.12914  -1.12902  -1.12891
 Alpha  occ. eigenvalues --   -1.12881  -1.12871  -1.12862  -1.12829  -1.12818
 Alpha  occ. eigenvalues --   -0.18591  -0.13026  -0.12251  -0.11165
 Alpha virt. eigenvalues --   -0.05732  -0.05070  -0.04462  -0.03247  -0.02956
 Alpha virt. eigenvalues --   -0.02833  -0.01709  -0.00972  -0.00341  -0.00186
 Alpha virt. eigenvalues --   -0.00023   0.00321   0.00751   0.00871   0.00911

  Beta  occ. eigenvalues --  -38.44204 -38.43877 -38.43864 -38.43415 -38.43370
  Beta  occ. eigenvalues --  -38.43349 -38.43314  -2.19995  -2.19723  -2.19663
  Beta  occ. eigenvalues --   -2.19319  -2.19229  -2.19214  -2.19195  -1.13666
  Beta  occ. eigenvalues --   -1.13649  -1.13638  -1.13424  -1.13392  -1.13387
  Beta  occ. eigenvalues --   -1.13360  -1.13350  -1.13327  -1.13106  -1.13010
  Beta  occ. eigenvalues --   -1.12946  -1.12913  -1.12898  -1.12880  -1.12875
  Beta  occ. eigenvalues --   -1.12867  -1.12859  -1.12827  -1.12825  -1.12801
  Beta  occ. eigenvalues --   -0.17866  -0.12768  -0.12037
  Beta virt. eigenvalues --   -0.07181  -0.05644  -0.05055  -0.04371  -0.02554
  Beta virt. eigenvalues --   -0.02234  -0.01779  -0.01565  -0.00940  -0.00284
  Beta virt. eigenvalues --   -0.00205   0.00099   0.00371   0.00833   0.00887

 Mulliken charges and spin densities:
               1          2
     1  Na  -0.225587   0.335153
     2  Na   0.127020   0.087521
     3  Na  -0.287802   0.558067
     4  Na   0.065441  -0.046809
     5  Na  -0.166752  -0.050867
     6  Na   0.425237   0.072816
     7  Na   0.062443   0.044119
 Sum of Mulliken charges =  -0.00000   1.00000

 Dipole moment (field-independent basis, Debye):
    X=             -0.0907    Y=             -0.1524    Z=              0.1385  Tot=              0.2251
 Quadrupole moment (field-independent basis, Debye-Ang):
   XX=            -55.6186   YY=            -66.2398   ZZ=            -72.2827
   XY=             -0.4472   XZ=             -0.7517   YZ=             -0.5013

 Normal termination of Gaussian 16 at Tue Dec  5 15:26:10 2023.
