 Gaussian 16, Revision B.01,
 Gaussian 16:  ES64L-G16RevB.01 20-Dec-2017

 -------------------------
 #P B3LYP/6-311+g(d) force
 -------------------------

 -----
 DPGEN
 -----
 Symbolic Z-matrix:
 Charge =  0 Multiplicity = 2

                         Standard orientation:
 ---------------------------------------------------------------------
 Center     Atomic      Atomic             Coordinates (Angstroms)
 Number     Number       Type             X           Y           Z
 ---------------------------------------------------------------------
      1         11           0       -1.098418    2.077341   -0.529412
      2         11           0        3.043852   -2.038906    0.389776
      3         11           0        0.306552   -0.142219    2.228113
      4         11           0       -4.198331   -0.484326    0.510677
      5         11           0        1.392403   -0.338521   -1.614072
      6         11           0        2.047911    2.358598    0.132355
      7         11           0       -1.493967   -1.431967   -1.117436
 ---------------------------------------------------------------------

 SCF Done:  E(UB3LYP) =  -1136.12291613     A.U. after   21 cycles

 The electronic state is 2-A.
 Alpha  occ. eigenvalues --  -38.44943 -38.44933 -38.43886 -38.43726 -38.43529
 Alpha  occ. eigenvalues --  -38.43359 -38.43269  -2.20744  -2.20712  -2.19761
 Alpha  occ. eigenvalues --   -2.19533  -2.19389  -2.19247  -2.19221  -1.14407
 Alpha  occ. eigenvalues --   -1.14383  -1.14375  -1.14373  -1.14358  -1.14345
 Alpha  occ. eigenvalues --   -1.13484  -1.13416  -1.13373  -1.13249  -1.13181
 Alpha  occ. eigenvalues --   -1.13177  -1.13091  -1.13053  -1.13033  -1.12947
 Alpha  occ. eigenvalues --   -1.12912  -1.12895  -1.12871  -1.12825  -1.12815
 Alpha  occ. eigenvalues --   -0.18287  -0.13307  -0.11593  -0.11311
 Alpha virt. eigenvalues --   -0.06836  -0.05052  -0.04045  -0.03272  -0.03101
 Alpha virt. eigenvalues --   -0.02716  -0.02248  -0.01236  -0.00792  -0.00083
 Alpha virt. eigenvalues --    0.00126   0.00242   0.00351   0.00621   0.00729

  Beta  occ. eigenvalues --  -38.44941 -38.44841 -38.43853 -38.43729 -38.43526
  Beta  occ. eigenvalues --  -38.43349 -38.43212  -2.20708  -2.20573  -2.19705
  Beta  occ. eigenvalues --   -2.19541  -2.19385  -2.19206  -2.19145  -1.14381
  Beta  occ. eigenvalues --   -1.14368  -1.14343  -1.14291  -1.14256  -1.14234
  Beta  occ. eigenvalues --   -1.13436  -1.13363  -1.13334  -1.13251  -1.13187
  Beta  occ. eigenvalues --   -1.13170  -1.13082  -1.13052  -1.13016  -1.12906
  Beta  occ. eigenvalues --   -1.12870  -1.12860  -1.12810  -1.12802  -1.12755
  Beta  occ. eigenvalues --   -0.17489  -0.13226  -0.11404
  Beta virt. eigenvalues --   -0.07360  -0.06488  -0.05032  -0.03745  -0.02986
  Beta virt. eigenvalues --   -0.02167  -0.02112  -0.01945  -0.01131  -0.00516
  Beta virt. eigenvalues --   -0.00061   0.00171   0.00273   0.00558   0.00692

 Mulliken charges and spin densities:
               1          2
     1  Na  -0.200109   0.130132
     2  Na   0.006685   0.053830
     3  Na  -0.501606   0.672879
     4  Na   0.266051   0.060379
     5  Na   0.231149  -0.085381
     6  Na   0.349822   0.050553
     7  Na  -0.151992   0.117607
 Sum of Mulliken charges =  -0.00000   1.00000

 Dipole moment (field-independent basis, Debye):
    X=             -0.7341    Y=              0.2253    Z=              0.7311  Tot=              1.0603
 Quadrupole moment (field-independent basis, Debye-Ang):
   XX=            -50.9911   YY=            -72.8304   ZZ=            -70.4589
   XY=              0.5877   XZ=             -1.3340   YZ=             -1.1172

 Normal termination of Gaussian 16 at Thu Dec  7 14:38:44 2023.
