 Gaussian 16, Revision B.01,
 Gaussian 16:  ES64L-G16RevB.01 20-Dec-2017

 -------------------------
 #P B3LYP/6-311+g(d) force
 -------------------------

 -----
 DPGEN
 -----
 Symbolic Z-matrix:
 Charge =  0 Multiplicity = 2

                         Standard orientation:
 ---------------------------------------------------------------------
 Center     Atomic      Atomic             Coordinates (Angstroms)
 Number     Number       Type             X           Y           Z
 ---------------------------------------------------------------------
      1         11           0        0.049452   -0.551821    1.972944
      2         11           0        2.322789    1.146494   -0.813008
      3         11           0        0.274618   -1.182979   -1.711508
      4         11           0        0.000964    3.093021    0.690915
      5         11           0       -2.139348    1.131743   -0.801578
      6         11           0       -3.393345   -1.688061    0.217433
      7         11           0        2.884868   -1.948398    0.444802
 ---------------------------------------------------------------------

 SCF Done:  E(UB3LYP) =  -1136.13169907     A.U. after   20 cycles

 The electronic state is 2-A.
 Alpha  occ. eigenvalues --  -38.44196 -38.44161 -38.44014 -38.44001 -38.43961
 Alpha  occ. eigenvalues --  -38.43657 -38.42688  -2.20039  -2.19946  -2.19893
 Alpha  occ. eigenvalues --   -2.19891  -2.19798  -2.19541  -2.18532  -1.13713
 Alpha  occ. eigenvalues --   -1.13671  -1.13662  -1.13652  -1.13633  -1.13606
 Alpha  occ. eigenvalues --   -1.13584  -1.13566  -1.13553  -1.13540  -1.13525
 Alpha  occ. eigenvalues --   -1.13481  -1.13453  -1.13448  -1.13420  -1.13231
 Alpha  occ. eigenvalues --   -1.13212  -1.13157  -1.12206  -1.12184  -1.12180
 Alpha  occ. eigenvalues --   -0.18272  -0.13324  -0.11949  -0.11090
 Alpha virt. eigenvalues --   -0.05982  -0.05427  -0.04158  -0.03592  -0.02940
 Alpha virt. eigenvalues --   -0.02742  -0.01817  -0.01258  -0.00354  -0.00261
 Alpha virt. eigenvalues --    0.00199   0.00315   0.00632   0.00718   0.00791

  Beta  occ. eigenvalues --  -38.44167 -38.44109 -38.43993 -38.43955 -38.43939
  Beta  occ. eigenvalues --  -38.43645 -38.42683  -2.19957  -2.19878  -2.19857
  Beta  occ. eigenvalues --   -2.19790  -2.19780  -2.19522  -2.18525  -1.13642
  Beta  occ. eigenvalues --   -1.13615  -1.13605  -1.13596  -1.13591  -1.13555
  Beta  occ. eigenvalues --   -1.13548  -1.13527  -1.13502  -1.13490  -1.13473
  Beta  occ. eigenvalues --   -1.13441  -1.13426  -1.13411  -1.13389  -1.13212
  Beta  occ. eigenvalues --   -1.13184  -1.13151  -1.12203  -1.12179  -1.12163
  Beta  occ. eigenvalues --   -0.17509  -0.13157  -0.11802
  Beta virt. eigenvalues --   -0.07141  -0.05833  -0.05309  -0.04068  -0.02916
  Beta virt. eigenvalues --   -0.02289  -0.01894  -0.01647  -0.01116  -0.00349
  Beta virt. eigenvalues --   -0.00111   0.00267   0.00352   0.00757   0.00788

 Mulliken charges and spin densities:
               1          2
     1  Na  -0.626552   0.740967
     2  Na  -0.113987   0.148467
     3  Na   0.022415   0.304534
     4  Na   0.461221  -0.124543
     5  Na  -0.181834   0.135943
     6  Na   0.122733  -0.133308
     7  Na   0.316004  -0.072061
 Sum of Mulliken charges =  -0.00000   1.00000

 Dipole moment (field-independent basis, Debye):
    X=              0.1693    Y=             -0.7702    Z=              0.1075  Tot=              0.7959
 Quadrupole moment (field-independent basis, Debye-Ang):
   XX=            -56.4572   YY=            -66.6812   ZZ=            -71.5243
   XY=              0.2751   XZ=             -0.3421   YZ=             -0.7840

 Normal termination of Gaussian 16 at Thu Dec  7 14:54:09 2023.
