 Gaussian 16, Revision B.01,
 Gaussian 16:  ES64L-G16RevB.01 20-Dec-2017

 -------------------------
 #P B3LYP/6-311+g(d) force
 -------------------------

 -----
 DPGEN
 -----
 Symbolic Z-matrix:
 Charge =  0 Multiplicity = 2

                         Standard orientation:
 ---------------------------------------------------------------------
 Center     Atomic      Atomic             Coordinates (Angstroms)
 Number     Number       Type             X           Y           Z
 ---------------------------------------------------------------------
      1         11           0       -4.559481   -0.404872    1.175237
      2         11           0       -2.058520    2.390350    0.400320
      3         11           0        0.928575    2.936948   -0.786727
      4         11           0        4.139604    0.858889    0.220086
      5         11           0        3.552371   -2.047447    1.196021
      6         11           0        0.649829   -1.768030   -1.240089
      7         11           0       -2.652378   -1.965839   -0.964848
 ---------------------------------------------------------------------

 SCF Done:  E(UB3LYP) =  -1136.11389974     A.U. after   21 cycles

 The electronic state is 2-A.
 Alpha  occ. eigenvalues --  -38.45323 -38.44733 -38.44596 -38.44451 -38.44187
 Alpha  occ. eigenvalues --  -38.44052 -38.43001  -2.21117  -2.20538  -2.20399
 Alpha  occ. eigenvalues --   -2.20219  -2.20004  -2.19866  -2.18791  -1.14799
 Alpha  occ. eigenvalues --   -1.14773  -1.14751  -1.14200  -1.14193  -1.14174
 Alpha  occ. eigenvalues --   -1.14067  -1.14048  -1.14013  -1.13908  -1.13898
 Alpha  occ. eigenvalues --   -1.13844  -1.13672  -1.13649  -1.13632  -1.13540
 Alpha  occ. eigenvalues --   -1.13537  -1.13492  -1.12457  -1.12454  -1.12436
 Alpha  occ. eigenvalues --   -0.16147  -0.14291  -0.12233  -0.11197
 Alpha virt. eigenvalues --   -0.07011  -0.05070  -0.04518  -0.03766  -0.03325
 Alpha virt. eigenvalues --   -0.02259  -0.02068  -0.01797  -0.00969  -0.00610
 Alpha virt. eigenvalues --   -0.00397  -0.00095   0.00023   0.00460   0.00652

  Beta  occ. eigenvalues --  -38.45294 -38.44719 -38.44514 -38.44446 -38.44120
  Beta  occ. eigenvalues --  -38.44039 -38.42990  -2.21066  -2.20514  -2.20252
  Beta  occ. eigenvalues --   -2.20212  -2.19879  -2.19849  -2.18771  -1.14760
  Beta  occ. eigenvalues --   -1.14742  -1.14708  -1.14182  -1.14169  -1.14157
  Beta  occ. eigenvalues --   -1.13969  -1.13949  -1.13905  -1.13899  -1.13891
  Beta  occ. eigenvalues --   -1.13825  -1.13601  -1.13565  -1.13547  -1.13531
  Beta  occ. eigenvalues --   -1.13520  -1.13435  -1.12442  -1.12440  -1.12424
  Beta  occ. eigenvalues --   -0.15521  -0.13682  -0.11811
  Beta virt. eigenvalues --   -0.07753  -0.07048  -0.04511  -0.04148  -0.03602
  Beta virt. eigenvalues --   -0.02899  -0.02044  -0.01793  -0.01377  -0.00873
  Beta virt. eigenvalues --   -0.00454  -0.00278   0.00161   0.00218   0.00486

 Mulliken charges and spin densities:
               1          2
     1  Na   0.203952   0.303241
     2  Na  -0.243072   0.094969
     3  Na   0.089420  -0.010960
     4  Na   0.023108   0.201143
     5  Na   0.526720   0.066256
     6  Na  -0.702828   0.299496
     7  Na   0.102699   0.045855
 Sum of Mulliken charges =  -0.00000   1.00000

 Dipole moment (field-independent basis, Debye):
    X=              0.9515    Y=             -0.7029    Z=              0.6365  Tot=              1.3434
 Quadrupole moment (field-independent basis, Debye-Ang):
   XX=            -57.8318   YY=            -71.0846   ZZ=            -69.2187
   XY=              1.0204   XZ=             -1.8611   YZ=             -1.7925

 Normal termination of Gaussian 16 at Mon Dec  4 01:14:26 2023.
