 Gaussian 16, Revision B.01,
 Gaussian 16:  ES64L-G16RevB.01 20-Dec-2017

 -------------------------
 #P B3LYP/6-311+g(d) force
 -------------------------

 -----
 DPGEN
 -----
 Symbolic Z-matrix:
 Charge =  0 Multiplicity = 2

                         Standard orientation:
 ---------------------------------------------------------------------
 Center     Atomic      Atomic             Coordinates (Angstroms)
 Number     Number       Type             X           Y           Z
 ---------------------------------------------------------------------
      1         11           0        2.251339    1.554032    0.252433
      2         11           0        3.735546   -1.203705   -0.401846
      3         11           0        0.401047   -1.942389   -1.013588
      4         11           0       -2.866403    0.106355   -1.759189
      5         11           0       -0.692261    2.972813   -0.526562
      6         11           0       -0.665760    0.615782    2.265827
      7         11           0       -2.163508   -2.102888    1.182925
 ---------------------------------------------------------------------

 SCF Done:  E(UB3LYP) =  -1136.12870856     A.U. after   20 cycles

 The electronic state is 2-A.
 Alpha  occ. eigenvalues --  -38.44840 -38.44392 -38.44064 -38.43884 -38.43632
 Alpha  occ. eigenvalues --  -38.43628 -38.43451  -2.20630  -2.20236  -2.19868
 Alpha  occ. eigenvalues --   -2.19731  -2.19481  -2.19445  -2.19259  -1.14297
 Alpha  occ. eigenvalues --   -1.14265  -1.14240  -1.13903  -1.13894  -1.13844
 Alpha  occ. eigenvalues --   -1.13571  -1.13556  -1.13485  -1.13403  -1.13384
 Alpha  occ. eigenvalues --   -1.13348  -1.13192  -1.13173  -1.13159  -1.13100
 Alpha  occ. eigenvalues --   -1.13087  -1.13041  -1.12937  -1.12915  -1.12891
 Alpha  occ. eigenvalues --   -0.17505  -0.13268  -0.12189  -0.11543
 Alpha virt. eigenvalues --   -0.05965  -0.05234  -0.04827  -0.03521  -0.03148
 Alpha virt. eigenvalues --   -0.02879  -0.01746  -0.00972  -0.00621  -0.00239
 Alpha virt. eigenvalues --   -0.00129   0.00337   0.00422   0.00596   0.00728

  Beta  occ. eigenvalues --  -38.44762 -38.44313 -38.44056 -38.43856 -38.43633
  Beta  occ. eigenvalues --  -38.43632 -38.43443  -2.20485  -2.20090  -2.19854
  Beta  occ. eigenvalues --   -2.19683  -2.19481  -2.19453  -2.19246  -1.14195
  Beta  occ. eigenvalues --   -1.14169  -1.14140  -1.13804  -1.13797  -1.13730
  Beta  occ. eigenvalues --   -1.13549  -1.13547  -1.13478  -1.13359  -1.13355
  Beta  occ. eigenvalues --   -1.13303  -1.13199  -1.13169  -1.13157  -1.13104
  Beta  occ. eigenvalues --   -1.13092  -1.13046  -1.12929  -1.12909  -1.12868
  Beta  occ. eigenvalues --   -0.16871  -0.13012  -0.12048
  Beta virt. eigenvalues --   -0.07638  -0.05718  -0.05072  -0.04397  -0.03148
  Beta virt. eigenvalues --   -0.02598  -0.02199  -0.01521  -0.00938  -0.00371
  Beta virt. eigenvalues --   -0.00100  -0.00017   0.00410   0.00543   0.00735

 Mulliken charges and spin densities:
               1          2
     1  Na  -0.086868  -0.022634
     2  Na   0.392904  -0.111969
     3  Na  -0.719951   0.289848
     4  Na   0.019609   0.244884
     5  Na  -0.062094   0.180919
     6  Na  -0.185138   0.320621
     7  Na   0.641537   0.098331
 Sum of Mulliken charges =  -0.00000   1.00000

 Dipole moment (field-independent basis, Debye):
    X=             -0.4020    Y=             -0.2353    Z=              0.0432  Tot=              0.4678
 Quadrupole moment (field-independent basis, Debye-Ang):
   XX=            -59.5245   YY=            -68.8335   ZZ=            -69.1009
   XY=              0.5702   XZ=              1.1922   YZ=             -1.4363

 Normal termination of Gaussian 16 at Sun Dec  3 21:15:06 2023.
