 Gaussian 16, Revision B.01,
 Gaussian 16:  ES64L-G16RevB.01 20-Dec-2017

 -------------------------
 #P B3LYP/6-311+g(d) force
 -------------------------

 -----
 DPGEN
 -----
 Symbolic Z-matrix:
 Charge =  0 Multiplicity = 2

                         Standard orientation:
 ---------------------------------------------------------------------
 Center     Atomic      Atomic             Coordinates (Angstroms)
 Number     Number       Type             X           Y           Z
 ---------------------------------------------------------------------
      1         11           0        0.583352   -0.369706    1.435071
      2         11           0       -2.161448   -1.764517    0.134581
      3         11           0       -0.730658    2.544321   -0.455064
      4         11           0        3.354159   -0.827003   -0.418202
      5         11           0        2.775190    2.759149    0.035319
      6         11           0       -4.846070    0.718817   -0.200336
      7         11           0        1.025475   -3.061061   -0.531369
 ---------------------------------------------------------------------

 SCF Done:  E(UB3LYP) =  -1136.12244969     A.U. after   20 cycles

 The electronic state is 2-A.
 Alpha  occ. eigenvalues --  -38.44756 -38.44682 -38.44471 -38.44154 -38.43867
 Alpha  occ. eigenvalues --  -38.43636 -38.43390  -2.20575  -2.20512  -2.20248
 Alpha  occ. eigenvalues --   -2.20012  -2.19691  -2.19428  -2.19262  -1.14270
 Alpha  occ. eigenvalues --   -1.14249  -1.14205  -1.14198  -1.14173  -1.14122
 Alpha  occ. eigenvalues --   -1.13932  -1.13902  -1.13885  -1.13692  -1.13678
 Alpha  occ. eigenvalues --   -1.13653  -1.13391  -1.13371  -1.13306  -1.13073
 Alpha  occ. eigenvalues --   -1.13068  -1.13034  -1.12927  -1.12919  -1.12874
 Alpha  occ. eigenvalues --   -0.17417  -0.13398  -0.12967  -0.10202
 Alpha virt. eigenvalues --   -0.06453  -0.06213  -0.04590  -0.03366  -0.02689
 Alpha virt. eigenvalues --   -0.02348  -0.02139  -0.01520  -0.01002  -0.00870
 Alpha virt. eigenvalues --   -0.00204   0.00087   0.00447   0.00501   0.00654

  Beta  occ. eigenvalues --  -38.44749 -38.44651 -38.44471 -38.44150 -38.43859
  Beta  occ. eigenvalues --  -38.43536 -38.43335  -2.20520  -2.20500  -2.20251
  Beta  occ. eigenvalues --   -2.20008  -2.19682  -2.19241  -2.19159  -1.14235
  Beta  occ. eigenvalues --   -1.14204  -1.14198  -1.14174  -1.14140  -1.14113
  Beta  occ. eigenvalues --   -1.13936  -1.13901  -1.13875  -1.13691  -1.13680
  Beta  occ. eigenvalues --   -1.13621  -1.13387  -1.13363  -1.13270  -1.12945
  Beta  occ. eigenvalues --   -1.12940  -1.12913  -1.12860  -1.12851  -1.12802
  Beta  occ. eigenvalues --   -0.16991  -0.12892  -0.12392
  Beta virt. eigenvalues --   -0.06797  -0.06298  -0.06143  -0.04282  -0.02752
  Beta virt. eigenvalues --   -0.02431  -0.02068  -0.01906  -0.01258  -0.00833
  Beta virt. eigenvalues --   -0.00696   0.00112   0.00296   0.00502   0.00653

 Mulliken charges and spin densities:
               1          2
     1  Na   0.227376   0.113594
     2  Na  -0.300064   0.025589
     3  Na  -0.373965  -0.050455
     4  Na  -0.167409   0.379709
     5  Na   0.345647   0.012106
     6  Na   0.136532   0.567445
     7  Na   0.131884  -0.047988
 Sum of Mulliken charges =  -0.00000   1.00000

 Dipole moment (field-independent basis, Debye):
    X=              1.2291    Y=              0.1607    Z=              0.0196  Tot=              1.2397
 Quadrupole moment (field-independent basis, Debye-Ang):
   XX=            -76.1285   YY=            -59.9971   ZZ=            -68.7845
   XY=              4.3747   XZ=              0.6059   YZ=              0.6687

 Normal termination of Gaussian 16 at Tue Nov 28 20:53:39 2023.
