 Gaussian 16, Revision B.01,
 Gaussian 16:  ES64L-G16RevB.01 20-Dec-2017

 -------------------------
 #P B3LYP/6-311+g(d) force
 -------------------------

 -----
 DPGEN
 -----
 Symbolic Z-matrix:
 Charge =  0 Multiplicity = 2

                         Standard orientation:
 ---------------------------------------------------------------------
 Center     Atomic      Atomic             Coordinates (Angstroms)
 Number     Number       Type             X           Y           Z
 ---------------------------------------------------------------------
      1         11           0        2.995489   -2.131760   -1.115314
      2         11           0        2.198074    0.554775    1.194340
      3         11           0       -1.692604    1.994433   -0.619883
      4         11           0        0.034946   -1.320714   -1.168459
      5         11           0        1.430831    3.251686    0.188429
      6         11           0       -3.667486   -0.373429   -0.596935
      7         11           0       -1.299250   -1.974991    2.117822
 ---------------------------------------------------------------------

 SCF Done:  E(UB3LYP) =  -1136.12310459     A.U. after   21 cycles

 The electronic state is 2-A.
 Alpha  occ. eigenvalues --  -38.44575 -38.44360 -38.44230 -38.43912 -38.43898
 Alpha  occ. eigenvalues --  -38.43869 -38.43263  -2.20376  -2.20182  -2.20083
 Alpha  occ. eigenvalues --   -2.19787  -2.19746  -2.19707  -2.19108  -1.14019
 Alpha  occ. eigenvalues --   -1.14010  -1.13983  -1.13899  -1.13839  -1.13805
 Alpha  occ. eigenvalues --   -1.13789  -1.13751  -1.13713  -1.13509  -1.13474
 Alpha  occ. eigenvalues --   -1.13468  -1.13426  -1.13405  -1.13365  -1.13343
 Alpha  occ. eigenvalues --   -1.13339  -1.13285  -1.12795  -1.12749  -1.12742
 Alpha  occ. eigenvalues --   -0.17448  -0.13488  -0.12607  -0.10960
 Alpha virt. eigenvalues --   -0.06040  -0.05300  -0.05119  -0.03234  -0.03058
 Alpha virt. eigenvalues --   -0.02338  -0.02016  -0.01229  -0.00768  -0.00471
 Alpha virt. eigenvalues --   -0.00164   0.00178   0.00377   0.00602   0.00708

  Beta  occ. eigenvalues --  -38.44462 -38.44354 -38.44215 -38.43896 -38.43877
  Beta  occ. eigenvalues --  -38.43836 -38.43266  -2.20176  -2.20165  -2.20056
  Beta  occ. eigenvalues --   -2.19761  -2.19710  -2.19646  -2.19114  -1.13887
  Beta  occ. eigenvalues --   -1.13875  -1.13867  -1.13842  -1.13830  -1.13792
  Beta  occ. eigenvalues --   -1.13772  -1.13729  -1.13689  -1.13477  -1.13460
  Beta  occ. eigenvalues --   -1.13428  -1.13400  -1.13383  -1.13334  -1.13301
  Beta  occ. eigenvalues --   -1.13296  -1.13255  -1.12793  -1.12752  -1.12748
  Beta  occ. eigenvalues --   -0.16966  -0.13144  -0.12252
  Beta virt. eigenvalues --   -0.07294  -0.05917  -0.04919  -0.04788  -0.02875
  Beta virt. eigenvalues --   -0.02542  -0.01934  -0.01686  -0.01175  -0.00372
  Beta virt. eigenvalues --   -0.00325   0.00055   0.00278   0.00468   0.00751

 Mulliken charges and spin densities:
               1          2
     1  Na   0.267181  -0.026898
     2  Na   0.053917   0.290825
     3  Na  -0.464432   0.173558
     4  Na  -0.928854   0.180084
     5  Na   0.007260  -0.117785
     6  Na   1.310255   0.016613
     7  Na  -0.245327   0.483603
 Sum of Mulliken charges =  -0.00000   1.00000

 Dipole moment (field-independent basis, Debye):
    X=             -0.2308    Y=             -0.4151    Z=              0.0008  Tot=              0.4750
 Quadrupole moment (field-independent basis, Debye-Ang):
   XX=            -56.5934   YY=            -68.8440   ZZ=            -71.4999
   XY=              0.0791   XZ=              0.9754   YZ=             -0.7051

 Normal termination of Gaussian 16 at Sun Dec  3 16:36:47 2023.
