 Gaussian 16, Revision B.01,
 Gaussian 16:  ES64L-G16RevB.01 20-Dec-2017

 -------------------------
 #P B3LYP/6-311+g(d) force
 -------------------------

 -----
 DPGEN
 -----
 Symbolic Z-matrix:
 Charge =  0 Multiplicity = 2

                         Standard orientation:
 ---------------------------------------------------------------------
 Center     Atomic      Atomic             Coordinates (Angstroms)
 Number     Number       Type             X           Y           Z
 ---------------------------------------------------------------------
      1         11           0       -0.021087   -1.900735   -0.095340
      2         11           0        0.084574    0.325200   -2.040721
      3         11           0        2.708087   -0.859845   -0.029840
      4         11           0        1.504508    1.642346    0.051893
      5         11           0        0.053801    0.006430    2.076293
      6         11           0       -1.606917    1.730728    0.147223
      7         11           0       -2.722966   -0.944124   -0.109508
 ---------------------------------------------------------------------

 SCF Done:  E(UB3LYP) =  -1136.10158836     A.U. after   20 cycles

 The electronic state is 2-A.
 Alpha  occ. eigenvalues --  -38.44630 -38.44528 -38.44020 -38.43986 -38.43125
 Alpha  occ. eigenvalues --  -38.42938 -38.42719  -2.20707  -2.20611  -2.20026
 Alpha  occ. eigenvalues --   -2.19957  -2.19256  -2.18995  -2.18862  -1.14437
 Alpha  occ. eigenvalues --   -1.14354  -1.14350  -1.14298  -1.14265  -1.14199
 Alpha  occ. eigenvalues --   -1.13816  -1.13729  -1.13682  -1.13667  -1.13627
 Alpha  occ. eigenvalues --   -1.13566  -1.12941  -1.12914  -1.12850  -1.12666
 Alpha  occ. eigenvalues --   -1.12651  -1.12598  -1.12535  -1.12524  -1.12468
 Alpha  occ. eigenvalues --   -0.20987  -0.13934  -0.12547  -0.12059
 Alpha virt. eigenvalues --   -0.05555  -0.04239  -0.03983  -0.03786  -0.03077
 Alpha virt. eigenvalues --   -0.03044  -0.01416  -0.00400  -0.00254   0.00334
 Alpha virt. eigenvalues --    0.00606   0.00714   0.01016   0.01048   0.01067

  Beta  occ. eigenvalues --  -38.44529 -38.44432 -38.44015 -38.43984 -38.43109
  Beta  occ. eigenvalues --  -38.42926 -38.42700  -2.20522  -2.20437  -2.20022
  Beta  occ. eigenvalues --   -2.19957  -2.19234  -2.18980  -2.18836  -1.14322
  Beta  occ. eigenvalues --   -1.14242  -1.14216  -1.14164  -1.14135  -1.14073
  Beta  occ. eigenvalues --   -1.13817  -1.13730  -1.13683  -1.13672  -1.13588
  Beta  occ. eigenvalues --   -1.13539  -1.12934  -1.12846  -1.12833  -1.12660
  Beta  occ. eigenvalues --   -1.12598  -1.12590  -1.12519  -1.12460  -1.12446
  Beta  occ. eigenvalues --   -0.20094  -0.13609  -0.11738
  Beta virt. eigenvalues --   -0.08373  -0.05541  -0.04231  -0.03426  -0.03046
  Beta virt. eigenvalues --   -0.02368  -0.02132  -0.01330  -0.00368  -0.00060
  Beta virt. eigenvalues --    0.00352   0.00619   0.00699   0.01059   0.01108

 Mulliken charges and spin densities:
               1          2
     1  Na  -0.185119   0.022505
     2  Na   0.071557   0.548378
     3  Na   0.092528  -0.026814
     4  Na   0.056249  -0.013499
     5  Na   0.065019   0.543690
     6  Na  -0.027632  -0.019651
     7  Na  -0.072602  -0.054609
 Sum of Mulliken charges =  -0.00000   1.00000

 Dipole moment (field-independent basis, Debye):
    X=             -0.0773    Y=             -0.0314    Z=              0.0102  Tot=              0.0841
 Quadrupole moment (field-independent basis, Debye-Ang):
   XX=            -57.0956   YY=            -75.1179   ZZ=            -64.8875
   XY=             -0.4489   XZ=              0.1395   YZ=              0.7890

 Normal termination of Gaussian 16 at Fri Dec  8 19:04:20 2023.
