 Gaussian 16, Revision B.01,
 Gaussian 16:  ES64L-G16RevB.01 20-Dec-2017

 -------------------------
 #P B3LYP/6-311+g(d) force
 -------------------------

 -----
 DPGEN
 -----
 Symbolic Z-matrix:
 Charge =  0 Multiplicity = 2

                         Standard orientation:
 ---------------------------------------------------------------------
 Center     Atomic      Atomic             Coordinates (Angstroms)
 Number     Number       Type             X           Y           Z
 ---------------------------------------------------------------------
      1         11           0       -1.754681   -0.375939    2.062553
      2         11           0       -2.158156   -2.423901   -0.391741
      3         11           0        4.021598   -1.535019    0.141541
      4         11           0        3.530073    1.485901   -0.287180
      5         11           0       -1.419225    2.497194    0.434150
      6         11           0        0.669189   -0.113171   -0.513126
      7         11           0       -2.888797    0.464935   -1.446197
 ---------------------------------------------------------------------

 SCF Done:  E(UB3LYP) =  -1136.11532932     A.U. after   25 cycles

 The electronic state is 2-A.
 Alpha  occ. eigenvalues --  -38.45673 -38.45530 -38.44579 -38.43677 -38.43503
 Alpha  occ. eigenvalues --  -38.42471 -38.42375  -2.21473  -2.21362  -2.20471
 Alpha  occ. eigenvalues --   -2.19608  -2.19423  -2.18360  -2.18266  -1.15191
 Alpha  occ. eigenvalues --   -1.15132  -1.15125  -1.15035  -1.15012  -1.14949
 Alpha  occ. eigenvalues --   -1.14194  -1.14134  -1.14098  -1.13267  -1.13252
 Alpha  occ. eigenvalues --   -1.13245  -1.13084  -1.13061  -1.13042  -1.12035
 Alpha  occ. eigenvalues --   -1.12016  -1.12005  -1.11949  -1.11919  -1.11908
 Alpha  occ. eigenvalues --   -0.18038  -0.14966  -0.11076  -0.10444
 Alpha virt. eigenvalues --   -0.06898  -0.06204  -0.03579  -0.03448  -0.03016
 Alpha virt. eigenvalues --   -0.02353  -0.02166  -0.01495  -0.00908  -0.00464
 Alpha virt. eigenvalues --   -0.00154   0.00139   0.00430   0.00545   0.00568

  Beta  occ. eigenvalues --  -38.45681 -38.45531 -38.44575 -38.43596 -38.43412
  Beta  occ. eigenvalues --  -38.42456 -38.42359  -2.21490  -2.21364  -2.20466
  Beta  occ. eigenvalues --   -2.19460  -2.19255  -2.18338  -2.18241  -1.15201
  Beta  occ. eigenvalues --   -1.15142  -1.15135  -1.15038  -1.15011  -1.14955
  Beta  occ. eigenvalues --   -1.14156  -1.14142  -1.14100  -1.13158  -1.13157
  Beta  occ. eigenvalues --   -1.13133  -1.12967  -1.12953  -1.12914  -1.12026
  Beta  occ. eigenvalues --   -1.12000  -1.11956  -1.11936  -1.11899  -1.11862
  Beta  occ. eigenvalues --   -0.17427  -0.14764  -0.10784
  Beta virt. eigenvalues --   -0.06795  -0.06420  -0.06115  -0.03481  -0.03332
  Beta virt. eigenvalues --   -0.02766  -0.01633  -0.01472  -0.01215  -0.00819
  Beta virt. eigenvalues --   -0.00136   0.00026   0.00189   0.00525   0.00555

 Mulliken charges and spin densities:
               1          2
     1  Na  -0.407214   0.341775
     2  Na   0.828744   0.105801
     3  Na   0.393163  -0.113717
     4  Na   0.760014  -0.061097
     5  Na   0.562229   0.118136
     6  Na  -2.885700   0.216546
     7  Na   0.748765   0.392555
 Sum of Mulliken charges =  -0.00000   1.00000

 Dipole moment (field-independent basis, Debye):
    X=              3.3069    Y=             -0.0822    Z=              0.2751  Tot=              3.3194
 Quadrupole moment (field-independent basis, Debye-Ang):
   XX=            -49.9634   YY=            -68.8729   ZZ=            -74.2876
   XY=             -1.8523   XZ=             -0.6610   YZ=             -0.4411

 Normal termination of Gaussian 16 at Fri Dec  8 19:11:49 2023.
