 Gaussian 16, Revision B.01,
 Gaussian 16:  ES64L-G16RevB.01 20-Dec-2017

 -------------------------
 #P B3LYP/6-311+g(d) force
 -------------------------

 -----
 DPGEN
 -----
 Symbolic Z-matrix:
 Charge =  0 Multiplicity = 2

                         Standard orientation:
 ---------------------------------------------------------------------
 Center     Atomic      Atomic             Coordinates (Angstroms)
 Number     Number       Type             X           Y           Z
 ---------------------------------------------------------------------
      1         11           0       -0.674814   -0.412453   -1.691363
      2         11           0       -3.390084   -1.084909   -1.087697
      3         11           0       -1.462132    2.724937    0.050702
      4         11           0        1.827108    1.926617    0.663507
      5         11           0       -1.295475   -0.590334    2.246683
      6         11           0        1.371154   -2.234755    1.064041
      7         11           0        3.624242   -0.329103   -1.245874
 ---------------------------------------------------------------------

 SCF Done:  E(UB3LYP) =  -1136.12226220     A.U. after   21 cycles

 The electronic state is 2-A.
 Alpha  occ. eigenvalues --  -38.44801 -38.44534 -38.44452 -38.44449 -38.43878
 Alpha  occ. eigenvalues --  -38.43429 -38.42943  -2.20628  -2.20384  -2.20334
 Alpha  occ. eigenvalues --   -2.20241  -2.19683  -2.19235  -2.18745  -1.14307
 Alpha  occ. eigenvalues --   -1.14274  -1.14248  -1.14243  -1.14014  -1.14003
 Alpha  occ. eigenvalues --   -1.13964  -1.13946  -1.13906  -1.13896  -1.13874
 Alpha  occ. eigenvalues --   -1.13864  -1.13375  -1.13348  -1.13299  -1.12923
 Alpha  occ. eigenvalues --   -1.12914  -1.12861  -1.12423  -1.12407  -1.12380
 Alpha  occ. eigenvalues --   -0.17653  -0.13362  -0.11874  -0.11364
 Alpha virt. eigenvalues --   -0.06085  -0.05132  -0.04697  -0.03416  -0.03157
 Alpha virt. eigenvalues --   -0.02836  -0.01960  -0.01101  -0.00812  -0.00171
 Alpha virt. eigenvalues --    0.00149   0.00184   0.00250   0.00656   0.00707

  Beta  occ. eigenvalues --  -38.44712 -38.44503 -38.44424 -38.44405 -38.43852
  Beta  occ. eigenvalues --  -38.43430 -38.42942  -2.20465  -2.20327  -2.20258
  Beta  occ. eigenvalues --   -2.20187  -2.19640  -2.19239  -2.18744  -1.14217
  Beta  occ. eigenvalues --   -1.14190  -1.14142  -1.14121  -1.13966  -1.13964
  Beta  occ. eigenvalues --   -1.13911  -1.13899  -1.13869  -1.13858  -1.13832
  Beta  occ. eigenvalues --   -1.13822  -1.13338  -1.13319  -1.13254  -1.12920
  Beta  occ. eigenvalues --   -1.12914  -1.12862  -1.12419  -1.12403  -1.12380
  Beta  occ. eigenvalues --   -0.16978  -0.12990  -0.11200
  Beta virt. eigenvalues --   -0.07978  -0.05854  -0.04976  -0.04310  -0.03142
  Beta virt. eigenvalues --   -0.02410  -0.02209  -0.01789  -0.00885  -0.00558
  Beta virt. eigenvalues --   -0.00099   0.00218   0.00266   0.00363   0.00731

 Mulliken charges and spin densities:
               1          2
     1  Na  -0.403831   0.484918
     2  Na   0.319246  -0.053642
     3  Na  -0.077204  -0.075051
     4  Na  -0.277584   0.024480
     5  Na   0.069589   0.441090
     6  Na  -0.145245   0.080221
     7  Na   0.515028   0.097984
 Sum of Mulliken charges =  -0.00000   1.00000

 Dipole moment (field-independent basis, Debye):
    X=             -0.2884    Y=             -0.4881    Z=             -0.0490  Tot=              0.5691
 Quadrupole moment (field-independent basis, Debye-Ang):
   XX=            -53.7954   YY=            -75.5741   ZZ=            -66.9902
   XY=             -0.4593   XZ=             -3.3997   YZ=             -0.2163

 Normal termination of Gaussian 16 at Mon Dec  4 00:23:45 2023.
