 Gaussian 16, Revision B.01,
 Gaussian 16:  ES64L-G16RevB.01 20-Dec-2017

 -------------------------
 #P B3LYP/6-311+g(d) force
 -------------------------

 -----
 DPGEN
 -----
 Symbolic Z-matrix:
 Charge =  0 Multiplicity = 2

                         Standard orientation:
 ---------------------------------------------------------------------
 Center     Atomic      Atomic             Coordinates (Angstroms)
 Number     Number       Type             X           Y           Z
 ---------------------------------------------------------------------
      1         11           0        3.665880    1.912611   -0.442565
      2         11           0        4.060423   -1.475805   -0.327648
      3         11           0        0.531640    3.798300    0.146144
      4         11           0        1.516426   -3.378950    0.752772
      5         11           0       -2.659217    1.845174    0.832363
      6         11           0       -4.754261   -0.256863   -0.701113
      7         11           0       -2.360890   -2.444468   -0.259952
 ---------------------------------------------------------------------

 SCF Done:  E(UB3LYP) =  -1136.10934673     A.U. after   23 cycles

 The electronic state is 2-A.
 Alpha  occ. eigenvalues --  -38.46000 -38.45578 -38.44357 -38.44339 -38.44283
 Alpha  occ. eigenvalues --  -38.43874 -38.43724  -2.21760  -2.21350  -2.20201
 Alpha  occ. eigenvalues --   -2.20118  -2.20074  -2.19628  -2.19506  -1.15449
 Alpha  occ. eigenvalues --   -1.15434  -1.15379  -1.15042  -1.15023  -1.14957
 Alpha  occ. eigenvalues --   -1.13865  -1.13844  -1.13829  -1.13800  -1.13794
 Alpha  occ. eigenvalues --   -1.13757  -1.13751  -1.13739  -1.13694  -1.13310
 Alpha  occ. eigenvalues --   -1.13298  -1.13259  -1.13171  -1.13162  -1.13136
 Alpha  occ. eigenvalues --   -0.15862  -0.14147  -0.12877  -0.10769
 Alpha virt. eigenvalues --   -0.07665  -0.05281  -0.04433  -0.03646  -0.03266
 Alpha virt. eigenvalues --   -0.02485  -0.02278  -0.01696  -0.01414  -0.00813
 Alpha virt. eigenvalues --   -0.00609  -0.00165  -0.00034   0.00434   0.00647

  Beta  occ. eigenvalues --  -38.45970 -38.45541 -38.44317 -38.44305 -38.44277
  Beta  occ. eigenvalues --  -38.43864 -38.43688  -2.21710  -2.21284  -2.20127
  Beta  occ. eigenvalues --   -2.20067  -2.20056  -2.19612  -2.19438  -1.15419
  Beta  occ. eigenvalues --   -1.15403  -1.15308  -1.15000  -1.14981  -1.14884
  Beta  occ. eigenvalues --   -1.13808  -1.13794  -1.13784  -1.13763  -1.13756
  Beta  occ. eigenvalues --   -1.13747  -1.13734  -1.13713  -1.13658  -1.13300
  Beta  occ. eigenvalues --   -1.13288  -1.13238  -1.13125  -1.13119  -1.13089
  Beta  occ. eigenvalues --   -0.15296  -0.13746  -0.12316
  Beta virt. eigenvalues --   -0.07722  -0.07371  -0.04818  -0.03963  -0.03414
  Beta virt. eigenvalues --   -0.02883  -0.02313  -0.02165  -0.01525  -0.01159
  Beta virt. eigenvalues --   -0.00502  -0.00413   0.00047   0.00206   0.00455

 Mulliken charges and spin densities:
               1          2
     1  Na   0.007841   0.194104
     2  Na   0.018089  -0.045800
     3  Na   0.090060   0.025799
     4  Na  -0.135057   0.126422
     5  Na  -0.487220   0.246779
     6  Na   0.647207   0.201496
     7  Na  -0.140920   0.251201
 Sum of Mulliken charges =  -0.00000   1.00000

 Dipole moment (field-independent basis, Debye):
    X=             -1.8483    Y=             -0.2064    Z=             -0.2330  Tot=              1.8743
 Quadrupole moment (field-independent basis, Debye-Ang):
   XX=            -57.9440   YY=            -69.1726   ZZ=            -72.1115
   XY=              0.2118   XZ=              0.3699   YZ=              0.4218

 Normal termination of Gaussian 16 at Sun Dec  3 17:21:32 2023.
