 Gaussian 16, Revision B.01,
 Gaussian 16:  ES64L-G16RevB.01 20-Dec-2017

 -------------------------
 #P B3LYP/6-311+g(d) force
 -------------------------

 -----
 DPGEN
 -----
 Symbolic Z-matrix:
 Charge =  0 Multiplicity = 2

                         Standard orientation:
 ---------------------------------------------------------------------
 Center     Atomic      Atomic             Coordinates (Angstroms)
 Number     Number       Type             X           Y           Z
 ---------------------------------------------------------------------
      1         11           0        0.250763    0.319224   -0.616929
      2         11           0        3.457552    1.562549   -0.563452
      3         11           0       -1.339028    3.048919   -0.324282
      4         11           0       -3.280064    0.069451    0.005792
      5         11           0        0.043832   -0.092041    2.282307
      6         11           0       -1.184443   -2.750516   -0.987300
      7         11           0        2.051388   -2.157586    0.203864
 ---------------------------------------------------------------------

 SCF Done:  E(UB3LYP) =  -1136.12352876     A.U. after   20 cycles

 The electronic state is 2-A.
 Alpha  occ. eigenvalues --  -38.44355 -38.44337 -38.44256 -38.44060 -38.44010
 Alpha  occ. eigenvalues --  -38.43221 -38.42722  -2.20137  -2.20120  -2.20058
 Alpha  occ. eigenvalues --   -2.19908  -2.19904  -2.19053  -2.18809  -1.13817
 Alpha  occ. eigenvalues --   -1.13802  -1.13788  -1.13777  -1.13767  -1.13757
 Alpha  occ. eigenvalues --   -1.13751  -1.13711  -1.13674  -1.13650  -1.13610
 Alpha  occ. eigenvalues --   -1.13578  -1.13519  -1.13495  -1.13479  -1.12739
 Alpha  occ. eigenvalues --   -1.12698  -1.12687  -1.12567  -1.12461  -1.12396
 Alpha  occ. eigenvalues --   -0.18160  -0.12976  -0.12169  -0.10492
 Alpha virt. eigenvalues --   -0.06305  -0.05381  -0.04623  -0.03010  -0.02594
 Alpha virt. eigenvalues --   -0.02162  -0.01907  -0.01454  -0.00769  -0.00515
 Alpha virt. eigenvalues --   -0.00099   0.00251   0.00657   0.00737   0.00768

  Beta  occ. eigenvalues --  -38.44335 -38.44331 -38.44258 -38.44056 -38.43889
  Beta  occ. eigenvalues --  -38.43195 -38.42705  -2.20136  -2.20075  -2.20061
  Beta  occ. eigenvalues --   -2.19904  -2.19682  -2.19007  -2.18785  -1.13806
  Beta  occ. eigenvalues --   -1.13802  -1.13775  -1.13758  -1.13751  -1.13737
  Beta  occ. eigenvalues --   -1.13723  -1.13706  -1.13677  -1.13620  -1.13546
  Beta  occ. eigenvalues --   -1.13522  -1.13488  -1.13346  -1.13323  -1.12705
  Beta  occ. eigenvalues --   -1.12666  -1.12654  -1.12497  -1.12450  -1.12386
  Beta  occ. eigenvalues --   -0.17502  -0.12796  -0.11843
  Beta virt. eigenvalues --   -0.06764  -0.06100  -0.05302  -0.04375  -0.02391
  Beta virt. eigenvalues --   -0.02088  -0.01770  -0.01415  -0.01255  -0.00710
  Beta virt. eigenvalues --   -0.00425   0.00106   0.00329   0.00690   0.00800

 Mulliken charges and spin densities:
               1          2
     1  Na  -1.127365  -0.095860
     2  Na  -0.098278   0.230302
     3  Na  -0.204206   0.106023
     4  Na   0.673858   0.035588
     5  Na  -0.343249   0.539171
     6  Na   0.296481   0.093557
     7  Na   0.802758   0.091219
 Sum of Mulliken charges =  -0.00000   1.00000

 Dipole moment (field-independent basis, Debye):
    X=             -0.1116    Y=              0.2962    Z=              0.4323  Tot=              0.5358
 Quadrupole moment (field-independent basis, Debye-Ang):
   XX=            -55.2174   YY=            -61.1499   ZZ=            -74.6946
   XY=             -1.9745   XZ=             -0.2627   YZ=             -0.2209

 Normal termination of Gaussian 16 at Fri Dec  8 04:50:01 2023.
