 Gaussian 16, Revision B.01,
 Gaussian 16:  ES64L-G16RevB.01 20-Dec-2017

 -------------------------
 #P B3LYP/6-311+g(d) force
 -------------------------

 -----
 DPGEN
 -----
 Symbolic Z-matrix:
 Charge =  0 Multiplicity = 2

                         Standard orientation:
 ---------------------------------------------------------------------
 Center     Atomic      Atomic             Coordinates (Angstroms)
 Number     Number       Type             X           Y           Z
 ---------------------------------------------------------------------
      1         11           0       -3.310513   -0.880462   -0.368603
      2         11           0       -1.575794    2.286704   -0.005852
      3         11           0       -0.293775    0.088257   -1.520045
      4         11           0        1.593259    2.376784    0.161381
      5         11           0        3.474389   -0.673882   -0.450870
      6         11           0        0.282817   -2.815015    0.012037
      7         11           0       -0.170383   -0.382386    2.171952
 ---------------------------------------------------------------------

 SCF Done:  E(UB3LYP) =  -1136.13125845     A.U. after   21 cycles

 The electronic state is 2-A.
 Alpha  occ. eigenvalues --  -38.44446 -38.44417 -38.43721 -38.43529 -38.43454
 Alpha  occ. eigenvalues --  -38.43296 -38.43231  -2.20218  -2.20209  -2.19598
 Alpha  occ. eigenvalues --   -2.19453  -2.19365  -2.19221  -2.19098  -1.13895
 Alpha  occ. eigenvalues --   -1.13884  -1.13872  -1.13864  -1.13852  -1.13842
 Alpha  occ. eigenvalues --   -1.13272  -1.13244  -1.13226  -1.13214  -1.13139
 Alpha  occ. eigenvalues --   -1.13061  -1.13041  -1.13032  -1.12967  -1.12904
 Alpha  occ. eigenvalues --   -1.12867  -1.12847  -1.12764  -1.12755  -1.12711
 Alpha  occ. eigenvalues --   -0.18498  -0.12857  -0.12431  -0.10782
 Alpha virt. eigenvalues --   -0.06207  -0.04899  -0.04558  -0.03063  -0.02966
 Alpha virt. eigenvalues --   -0.02546  -0.02011  -0.01073  -0.00466  -0.00180
 Alpha virt. eigenvalues --   -0.00083   0.00265   0.00773   0.00821   0.00887

  Beta  occ. eigenvalues --  -38.44435 -38.44408 -38.43615 -38.43523 -38.43408
  Beta  occ. eigenvalues --  -38.43289 -38.43228  -2.20203  -2.20191  -2.19402
  Beta  occ. eigenvalues --   -2.19370  -2.19358  -2.19212  -2.19095  -1.13871
  Beta  occ. eigenvalues --   -1.13865  -1.13865  -1.13852  -1.13840  -1.13831
  Beta  occ. eigenvalues --   -1.13196  -1.13156  -1.13095  -1.13086  -1.13079
  Beta  occ. eigenvalues --   -1.13012  -1.13000  -1.12993  -1.12966  -1.12894
  Beta  occ. eigenvalues --   -1.12843  -1.12826  -1.12760  -1.12738  -1.12704
  Beta  occ. eigenvalues --   -0.17802  -0.12586  -0.12195
  Beta virt. eigenvalues --   -0.06936  -0.06069  -0.04885  -0.04493  -0.02383
  Beta virt. eigenvalues --   -0.02184  -0.01875  -0.01538  -0.01025  -0.00471
  Beta virt. eigenvalues --   -0.00212   0.00079   0.00315   0.00818   0.00848

 Mulliken charges and spin densities:
               1          2
     1  Na   0.288278  -0.028918
     2  Na   0.358996   0.052252
     3  Na  -0.408616   0.347027
     4  Na   0.050659   0.055332
     5  Na  -0.002748   0.039067
     6  Na   0.118075  -0.039433
     7  Na  -0.404645   0.574672
 Sum of Mulliken charges =  -0.00000   1.00000

 Dipole moment (field-independent basis, Debye):
    X=             -0.1590    Y=             -0.3295    Z=              0.1621  Tot=              0.4001
 Quadrupole moment (field-independent basis, Debye-Ang):
   XX=            -53.5092   YY=            -65.6472   ZZ=            -73.9970
   XY=              0.6010   XZ=             -0.4650   YZ=              1.4032

 Normal termination of Gaussian 16 at Thu Dec  7 23:05:03 2023.
