 Gaussian 16, Revision B.01,
 Gaussian 16:  ES64L-G16RevB.01 20-Dec-2017

 -------------------------
 #P B3LYP/6-311+g(d) force
 -------------------------

 -----
 DPGEN
 -----
 Symbolic Z-matrix:
 Charge =  0 Multiplicity = 2

                         Standard orientation:
 ---------------------------------------------------------------------
 Center     Atomic      Atomic             Coordinates (Angstroms)
 Number     Number       Type             X           Y           Z
 ---------------------------------------------------------------------
      1         11           0       -3.978834   -0.475884   -0.236382
      2         11           0        4.064550   -0.863711   -0.338229
      3         11           0        1.439694   -3.364908   -0.502255
      4         11           0       -1.878412   -3.419222    0.617731
      5         11           0        3.214203    1.835376    0.789620
      6         11           0       -3.094210    2.201734    0.043077
      7         11           0        0.233009    4.086615   -0.373561
 ---------------------------------------------------------------------

 SCF Done:  E(UB3LYP) =  -1136.10387118     A.U. after   20 cycles

 The electronic state is 2-A.
 Alpha  occ. eigenvalues --  -38.45199 -38.45017 -38.44763 -38.44729 -38.44283
 Alpha  occ. eigenvalues --  -38.44250 -38.44156  -2.20982  -2.20772  -2.20558
 Alpha  occ. eigenvalues --   -2.20530  -2.20139  -2.20029  -2.19988  -1.14683
 Alpha  occ. eigenvalues --   -1.14650  -1.14625  -1.14453  -1.14443  -1.14408
 Alpha  occ. eigenvalues --   -1.14371  -1.14206  -1.14201  -1.14187  -1.14185
 Alpha  occ. eigenvalues --   -1.14160  -1.13775  -1.13766  -1.13742  -1.13679
 Alpha  occ. eigenvalues --   -1.13662  -1.13655  -1.13653  -1.13630  -1.13615
 Alpha  occ. eigenvalues --   -0.15599  -0.14233  -0.13440  -0.10982
 Alpha virt. eigenvalues --   -0.07737  -0.04647  -0.04412  -0.03634  -0.03477
 Alpha virt. eigenvalues --   -0.02620  -0.02296  -0.01841  -0.01623  -0.00674
 Alpha virt. eigenvalues --   -0.00419  -0.00045   0.00175   0.00353   0.00400

  Beta  occ. eigenvalues --  -38.45193 -38.45005 -38.44736 -38.44711 -38.44238
  Beta  occ. eigenvalues --  -38.44162 -38.44114  -2.20977  -2.20753  -2.20532
  Beta  occ. eigenvalues --   -2.20483  -2.20060  -2.19912  -2.19864  -1.14669
  Beta  occ. eigenvalues --   -1.14653  -1.14597  -1.14443  -1.14432  -1.14373
  Beta  occ. eigenvalues --   -1.14317  -1.14195  -1.14171  -1.14161  -1.14158
  Beta  occ. eigenvalues --   -1.14115  -1.13721  -1.13714  -1.13683  -1.13602
  Beta  occ. eigenvalues --   -1.13578  -1.13567  -1.13566  -1.13553  -1.13542
  Beta  occ. eigenvalues --   -0.15097  -0.13609  -0.12502
  Beta virt. eigenvalues --   -0.07968  -0.07813  -0.04210  -0.03937  -0.03397
  Beta virt. eigenvalues --   -0.03163  -0.02407  -0.02013  -0.01722  -0.01392
  Beta virt. eigenvalues --   -0.00311  -0.00211   0.00116   0.00243   0.00350

 Mulliken charges and spin densities:
               1          2
     1  Na  -0.029055   0.139389
     2  Na   0.310106   0.177521
     3  Na  -0.037456   0.087847
     4  Na   0.099115   0.085775
     5  Na  -0.322930   0.017721
     6  Na  -0.067330   0.049027
     7  Na   0.047550   0.442721
 Sum of Mulliken charges =  -0.00000   1.00000

 Dipole moment (field-independent basis, Debye):
    X=              0.2695    Y=             -0.5650    Z=              0.0695  Tot=              0.6298
 Quadrupole moment (field-independent basis, Debye-Ang):
   XX=            -64.0542   YY=            -66.2943   ZZ=            -71.4503
   XY=              1.0221   XZ=             -1.1622   YZ=              1.1589

 Normal termination of Gaussian 16 at Mon Dec  4 05:44:52 2023.
