 Gaussian 16, Revision B.01,
 Gaussian 16:  ES64L-G16RevB.01 20-Dec-2017

 -------------------------
 #P B3LYP/6-311+g(d) force
 -------------------------

 -----
 DPGEN
 -----
 Symbolic Z-matrix:
 Charge =  0 Multiplicity = 2

                         Standard orientation:
 ---------------------------------------------------------------------
 Center     Atomic      Atomic             Coordinates (Angstroms)
 Number     Number       Type             X           Y           Z
 ---------------------------------------------------------------------
      1         11           0       -0.122658   -0.143918    2.594484
      2         11           0       -1.419983    3.010688   -0.186106
      3         11           0       -3.544730   -0.242338    0.025999
      4         11           0       -0.677490   -3.323820   -0.180187
      5         11           0        3.087929   -1.595938    0.129151
      6         11           0        0.203751   -0.175366   -2.432187
      7         11           0        2.473182    2.470692    0.048846
 ---------------------------------------------------------------------

 SCF Done:  E(UB3LYP) =  -1136.11339859     A.U. after   19 cycles

 The electronic state is 2-A.
 Alpha  occ. eigenvalues --  -38.45309 -38.45287 -38.44603 -38.44401 -38.44357
 Alpha  occ. eigenvalues --  -38.44206 -38.44063  -2.21060  -2.21041  -2.20325
 Alpha  occ. eigenvalues --   -2.20126  -2.20085  -2.19934  -2.19801  -1.14703
 Alpha  occ. eigenvalues --   -1.14697  -1.14690  -1.14682  -1.14673  -1.14665
 Alpha  occ. eigenvalues --   -1.14007  -1.13985  -1.13969  -1.13807  -1.13783
 Alpha  occ. eigenvalues --   -1.13773  -1.13766  -1.13748  -1.13728  -1.13617
 Alpha  occ. eigenvalues --   -1.13593  -1.13579  -1.13486  -1.13467  -1.13434
 Alpha  occ. eigenvalues --   -0.16488  -0.12011  -0.11871  -0.11218
 Alpha virt. eigenvalues --   -0.06106  -0.05858  -0.05544  -0.03274  -0.03201
 Alpha virt. eigenvalues --   -0.03166  -0.01521  -0.01357  -0.01101  -0.00976
 Alpha virt. eigenvalues --   -0.00238  -0.00062   0.00448   0.00489   0.00536

  Beta  occ. eigenvalues --  -38.45208 -38.45206 -38.44606 -38.44405 -38.44359
  Beta  occ. eigenvalues --  -38.44209 -38.44062  -2.20889  -2.20870  -2.20332
  Beta  occ. eigenvalues --   -2.20135  -2.20091  -2.19940  -2.19801  -1.14596
  Beta  occ. eigenvalues --   -1.14576  -1.14566  -1.14559  -1.14555  -1.14548
  Beta  occ. eigenvalues --   -1.14000  -1.13991  -1.13976  -1.13804  -1.13790
  Beta  occ. eigenvalues --   -1.13781  -1.13755  -1.13753  -1.13735  -1.13612
  Beta  occ. eigenvalues --   -1.13598  -1.13584  -1.13476  -1.13468  -1.13437
  Beta  occ. eigenvalues --   -0.15743  -0.11958  -0.11806
  Beta virt. eigenvalues --   -0.07322  -0.06073  -0.05674  -0.05073  -0.02623
  Beta virt. eigenvalues --   -0.02512  -0.02457  -0.01424  -0.01257  -0.01188
  Beta virt. eigenvalues --   -0.01010  -0.00044   0.00388   0.00485   0.00681

 Mulliken charges and spin densities:
               1          2
     1  Na  -0.156364   0.731743
     2  Na  -0.015487  -0.048339
     3  Na   0.025336  -0.075007
     4  Na   0.063419  -0.087382
     5  Na   0.062825  -0.077419
     6  Na   0.020568   0.621245
     7  Na  -0.000298  -0.064842
 Sum of Mulliken charges =  -0.00000   1.00000

 Dipole moment (field-independent basis, Debye):
    X=              0.1030    Y=             -0.2929    Z=             -0.0372  Tot=              0.3127
 Quadrupole moment (field-independent basis, Debye-Ang):
   XX=            -62.6004   YY=            -65.2114   ZZ=            -70.5254
   XY=              0.0804   XZ=              0.5857   YZ=             -0.1437

 Normal termination of Gaussian 16 at Mon Dec  4 04:41:38 2023.
