 Gaussian 16, Revision B.01,
 Gaussian 16:  ES64L-G16RevB.01 20-Dec-2017

 -------------------------
 #P B3LYP/6-311+g(d) force
 -------------------------

 -----
 DPGEN
 -----
 Symbolic Z-matrix:
 Charge =  0 Multiplicity = 2

                         Standard orientation:
 ---------------------------------------------------------------------
 Center     Atomic      Atomic             Coordinates (Angstroms)
 Number     Number       Type             X           Y           Z
 ---------------------------------------------------------------------
      1         11           0       -2.395910    0.581012    0.095970
      2         11           0        2.250752    0.939986   -0.078649
      3         11           0       -0.164357    2.438708   -0.019672
      4         11           0        1.603576   -1.683869    0.045783
      5         11           0       -0.017198   -0.109282    1.811014
      6         11           0       -0.143762   -0.080253   -1.758576
      7         11           0       -1.133102   -2.086302   -0.095872
 ---------------------------------------------------------------------

 SCF Done:  E(UB3LYP) =  -1136.08782433     A.U. after   19 cycles

 The electronic state is 2-A.
 Alpha  occ. eigenvalues --  -38.43998 -38.43989 -38.43747 -38.43639 -38.43602
 Alpha  occ. eigenvalues --  -38.43448 -38.43436  -2.20242  -2.20201  -2.19935
 Alpha  occ. eigenvalues --   -2.19756  -2.19739  -2.19546  -2.19507  -1.14159
 Alpha  occ. eigenvalues --   -1.14022  -1.13946  -1.13932  -1.13898  -1.13859
 Alpha  occ. eigenvalues --   -1.13818  -1.13634  -1.13523  -1.13483  -1.13421
 Alpha  occ. eigenvalues --   -1.13350  -1.13343  -1.13325  -1.13310  -1.13213
 Alpha  occ. eigenvalues --   -1.13168  -1.13134  -1.13124  -1.13098  -1.12996
 Alpha  occ. eigenvalues --   -0.21622  -0.13499  -0.13421  -0.12258
 Alpha virt. eigenvalues --   -0.04884  -0.04425  -0.04303  -0.03507  -0.03451
 Alpha virt. eigenvalues --   -0.02896  -0.00735  -0.00674  -0.00083   0.00368
 Alpha virt. eigenvalues --    0.00788   0.00864   0.01122   0.01149   0.01197

  Beta  occ. eigenvalues --  -38.43904 -38.43892 -38.43731 -38.43628 -38.43586
  Beta  occ. eigenvalues --  -38.43437 -38.43427  -2.20074  -2.20029  -2.19912
  Beta  occ. eigenvalues --   -2.19737  -2.19722  -2.19531  -2.19494  -1.14088
  Beta  occ. eigenvalues --   -1.13947  -1.13872  -1.13828  -1.13800  -1.13753
  Beta  occ. eigenvalues --   -1.13715  -1.13588  -1.13507  -1.13400  -1.13398
  Beta  occ. eigenvalues --   -1.13334  -1.13304  -1.13275  -1.13253  -1.13207
  Beta  occ. eigenvalues --   -1.13129  -1.13106  -1.13095  -1.13066  -1.12993
  Beta  occ. eigenvalues --   -0.20788  -0.13123  -0.13044
  Beta virt. eigenvalues --   -0.08065  -0.04933  -0.04409  -0.04289  -0.02541
  Beta virt. eigenvalues --   -0.02493  -0.01790  -0.00682  -0.00623   0.00060
  Beta virt. eigenvalues --    0.00388   0.00744   0.00816   0.01146   0.01165

 Mulliken charges and spin densities:
               1          2
     1  Na   0.159124   0.014765
     2  Na   0.035283   0.015634
     3  Na   0.074404   0.020408
     4  Na   0.281419   0.080055
     5  Na  -0.429627   0.437158
     6  Na  -0.404578   0.397375
     7  Na   0.283975   0.034606
 Sum of Mulliken charges =  -0.00000   1.00000

 Dipole moment (field-independent basis, Debye):
    X=             -0.1257    Y=              0.2041    Z=              0.0744  Tot=              0.2510
 Quadrupole moment (field-independent basis, Debye-Ang):
   XX=            -64.4209   YY=            -65.2915   ZZ=            -68.6478
   XY=              0.1436   XZ=             -0.2771   YZ=              0.0409

 Normal termination of Gaussian 16 at Thu Dec  7 06:56:45 2023.
