 Gaussian 16, Revision B.01,
 Gaussian 16:  ES64L-G16RevB.01 20-Dec-2017

 -------------------------
 #P B3LYP/6-311+g(d) force
 -------------------------

 -----
 DPGEN
 -----
 Symbolic Z-matrix:
 Charge =  0 Multiplicity = 2

                         Standard orientation:
 ---------------------------------------------------------------------
 Center     Atomic      Atomic             Coordinates (Angstroms)
 Number     Number       Type             X           Y           Z
 ---------------------------------------------------------------------
      1         11           0        3.313126    1.628843   -0.384476
      2         11           0       -4.651597   -1.402458    0.082957
      3         11           0        1.835555   -1.901768    0.675685
      4         11           0       -0.439227    3.353608    0.476368
      5         11           0       -1.474559   -3.445280   -0.311770
      6         11           0        5.373589   -0.540666   -0.210372
      7         11           0       -3.956887    2.307721   -0.328392
 ---------------------------------------------------------------------

 SCF Done:  E(UB3LYP) =  -1136.10553661     A.U. after   22 cycles

 The electronic state is 2-A.
 Alpha  occ. eigenvalues --  -38.45445 -38.45421 -38.44885 -38.44641 -38.44622
 Alpha  occ. eigenvalues --  -38.43984 -38.43896  -2.21234  -2.21201  -2.20730
 Alpha  occ. eigenvalues --   -2.20395  -2.20344  -2.19720  -2.19652  -1.14932
 Alpha  occ. eigenvalues --   -1.14905  -1.14890  -1.14887  -1.14881  -1.14782
 Alpha  occ. eigenvalues --   -1.14386  -1.14365  -1.14334  -1.14070  -1.14051
 Alpha  occ. eigenvalues --   -1.14040  -1.14023  -1.14010  -1.13977  -1.13410
 Alpha  occ. eigenvalues --   -1.13395  -1.13357  -1.13322  -1.13312  -1.13265
 Alpha  occ. eigenvalues --   -0.15943  -0.13792  -0.12393  -0.11104
 Alpha virt. eigenvalues --   -0.07286  -0.05781  -0.04689  -0.03575  -0.02959
 Alpha virt. eigenvalues --   -0.02746  -0.02355  -0.01725  -0.01193  -0.00934
 Alpha virt. eigenvalues --   -0.00605  -0.00495  -0.00126   0.00420   0.00508

  Beta  occ. eigenvalues --  -38.45402 -38.45391 -38.44833 -38.44640 -38.44595
  Beta  occ. eigenvalues --  -38.43993 -38.43845  -2.21204  -2.21103  -2.20635
  Beta  occ. eigenvalues --   -2.20382  -2.20307  -2.19740  -2.19555  -1.14893
  Beta  occ. eigenvalues --   -1.14880  -1.14858  -1.14821  -1.14817  -1.14703
  Beta  occ. eigenvalues --   -1.14315  -1.14300  -1.14275  -1.14068  -1.14050
  Beta  occ. eigenvalues --   -1.14010  -1.13996  -1.13985  -1.13951  -1.13426
  Beta  occ. eigenvalues --   -1.13410  -1.13354  -1.13255  -1.13245  -1.13203
  Beta  occ. eigenvalues --   -0.15321  -0.13433  -0.11943
  Beta virt. eigenvalues --   -0.07776  -0.07136  -0.05251  -0.04289  -0.03326
  Beta virt. eigenvalues --   -0.02649  -0.02551  -0.02175  -0.01577  -0.00889
  Beta virt. eigenvalues --   -0.00575  -0.00445  -0.00145   0.00041   0.00435

 Mulliken charges and spin densities:
               1          2
     1  Na  -0.204056   0.215531
     2  Na  -0.043477   0.258364
     3  Na  -0.518213   0.324919
     4  Na  -0.154582   0.183515
     5  Na   0.087540  -0.140554
     6  Na   0.833994   0.220617
     7  Na  -0.001206  -0.062391
 Sum of Mulliken charges =  -0.00000   1.00000

 Dipole moment (field-independent basis, Debye):
    X=              1.9686    Y=             -0.4731    Z=             -0.0834  Tot=              2.0263
 Quadrupole moment (field-independent basis, Debye-Ang):
   XX=            -52.7043   YY=            -70.2629   ZZ=            -73.4303
   XY=             -1.7862   XZ=              0.4874   YZ=             -0.8229

 Normal termination of Gaussian 16 at Mon Dec  4 04:52:47 2023.
