 Gaussian 16, Revision B.01,
 Gaussian 16:  ES64L-G16RevB.01 20-Dec-2017

 -------------------------
 #P B3LYP/6-311+g(d) force
 -------------------------

 -----
 DPGEN
 -----
 Symbolic Z-matrix:
 Charge =  0 Multiplicity = 2

                         Standard orientation:
 ---------------------------------------------------------------------
 Center     Atomic      Atomic             Coordinates (Angstroms)
 Number     Number       Type             X           Y           Z
 ---------------------------------------------------------------------
      1         11           0       -2.619801    1.155256   -0.814911
      2         11           0        0.072666    2.894183    0.534731
      3         11           0        2.678091   -2.519870    0.268856
      4         11           0       -0.082670   -0.242717    2.004713
      5         11           0        2.525291    1.565733   -0.480262
      6         11           0        0.692644   -0.941305   -1.631139
      7         11           0       -3.266221   -1.911280    0.118012
 ---------------------------------------------------------------------

 SCF Done:  E(UB3LYP) =  -1136.12460710     A.U. after   21 cycles

 The electronic state is 2-A.
 Alpha  occ. eigenvalues --  -38.44565 -38.44425 -38.44135 -38.44134 -38.43830
 Alpha  occ. eigenvalues --  -38.43758 -38.43049  -2.20335  -2.20291  -2.19959
 Alpha  occ. eigenvalues --   -2.19929  -2.19676  -2.19636  -2.18938  -1.14010
 Alpha  occ. eigenvalues --   -1.13999  -1.13994  -1.13981  -1.13962  -1.13915
 Alpha  occ. eigenvalues --   -1.13629  -1.13627  -1.13618  -1.13593  -1.13579
 Alpha  occ. eigenvalues --   -1.13577  -1.13348  -1.13311  -1.13304  -1.13292
 Alpha  occ. eigenvalues --   -1.13285  -1.13248  -1.12628  -1.12586  -1.12575
 Alpha  occ. eigenvalues --   -0.17946  -0.13187  -0.12236  -0.10605
 Alpha virt. eigenvalues --   -0.06323  -0.05654  -0.04244  -0.03433  -0.02989
 Alpha virt. eigenvalues --   -0.02577  -0.01840  -0.01522  -0.00574  -0.00272
 Alpha virt. eigenvalues --    0.00019   0.00325   0.00567   0.00674   0.00746

  Beta  occ. eigenvalues --  -38.44569 -38.44409 -38.44137 -38.44116 -38.43731
  Beta  occ. eigenvalues --  -38.43716 -38.43041  -2.20345  -2.20265  -2.19935
  Beta  occ. eigenvalues --   -2.19928  -2.19560  -2.19494  -2.18928  -1.14016
  Beta  occ. eigenvalues --   -1.13997  -1.13987  -1.13980  -1.13925  -1.13896
  Beta  occ. eigenvalues --   -1.13628  -1.13604  -1.13589  -1.13582  -1.13574
  Beta  occ. eigenvalues --   -1.13570  -1.13265  -1.13226  -1.13214  -1.13196
  Beta  occ. eigenvalues --   -1.13172  -1.13166  -1.12625  -1.12580  -1.12542
  Beta  occ. eigenvalues --   -0.17232  -0.12995  -0.12090
  Beta virt. eigenvalues --   -0.06768  -0.06275  -0.05450  -0.04186  -0.02790
  Beta virt. eigenvalues --   -0.02313  -0.01834  -0.01645  -0.01281  -0.00606
  Beta virt. eigenvalues --   -0.00175   0.00125   0.00387   0.00664   0.00716

 Mulliken charges and spin densities:
               1          2
     1  Na  -0.030635   0.085568
     2  Na   0.304603   0.107950
     3  Na  -0.027188  -0.100082
     4  Na  -0.322956   0.664607
     5  Na  -0.037901  -0.046416
     6  Na   0.063165   0.342883
     7  Na   0.050912  -0.054511
 Sum of Mulliken charges =  -0.00000   1.00000

 Dipole moment (field-independent basis, Debye):
    X=              0.0251    Y=             -0.6523    Z=              0.0291  Tot=              0.6535
 Quadrupole moment (field-independent basis, Debye-Ang):
   XX=            -57.3792   YY=            -62.9190   ZZ=            -74.4975
   XY=              0.3899   XZ=              0.9114   YZ=             -2.1308

 Normal termination of Gaussian 16 at Thu Dec  7 23:30:05 2023.
