 Gaussian 16, Revision B.01,
 Gaussian 16:  ES64L-G16RevB.01 20-Dec-2017

 -------------------------
 #P B3LYP/6-311+g(d) force
 -------------------------

 -----
 DPGEN
 -----
 Symbolic Z-matrix:
 Charge =  0 Multiplicity = 2

                         Standard orientation:
 ---------------------------------------------------------------------
 Center     Atomic      Atomic             Coordinates (Angstroms)
 Number     Number       Type             X           Y           Z
 ---------------------------------------------------------------------
      1         11           0        0.794715    0.643985    2.330481
      2         11           0       -1.418177    2.521624    0.092384
      3         11           0       -2.704555   -1.606864    0.812094
      4         11           0       -3.750207    0.083831   -1.732500
      5         11           0        2.578292    1.881172   -0.417517
      6         11           0        0.880628   -2.532668    0.371974
      7         11           0        3.619305   -0.991080   -1.456916
 ---------------------------------------------------------------------

 SCF Done:  E(UB3LYP) =  -1136.11966408     A.U. after   20 cycles

 The electronic state is 2-A.
 Alpha  occ. eigenvalues --  -38.44623 -38.44531 -38.44272 -38.44268 -38.44159
 Alpha  occ. eigenvalues --  -38.44133 -38.43670  -2.20440  -2.20336  -2.20081
 Alpha  occ. eigenvalues --   -2.20060  -2.19977  -2.19887  -2.19448  -1.14102
 Alpha  occ. eigenvalues --   -1.14096  -1.14046  -1.14004  -1.13985  -1.13964
 Alpha  occ. eigenvalues --   -1.13780  -1.13764  -1.13740  -1.13723  -1.13719
 Alpha  occ. eigenvalues --   -1.13697  -1.13630  -1.13604  -1.13594  -1.13585
 Alpha  occ. eigenvalues --   -1.13566  -1.13498  -1.13130  -1.13125  -1.13072
 Alpha  occ. eigenvalues --   -0.16824  -0.13917  -0.11608  -0.11446
 Alpha virt. eigenvalues --   -0.06160  -0.05525  -0.04956  -0.03443  -0.03222
 Alpha virt. eigenvalues --   -0.02733  -0.01711  -0.00931  -0.00821  -0.00681
 Alpha virt. eigenvalues --   -0.00252  -0.00066   0.00091   0.00370   0.00536

  Beta  occ. eigenvalues --  -38.44555 -38.44481 -38.44272 -38.44248 -38.44132
  Beta  occ. eigenvalues --  -38.44106 -38.43654  -2.20315  -2.20242  -2.20063
  Beta  occ. eigenvalues --   -2.20048  -2.19886  -2.19881  -2.19422  -1.14021
  Beta  occ. eigenvalues --   -1.14012  -1.13953  -1.13947  -1.13921  -1.13899
  Beta  occ. eigenvalues --   -1.13747  -1.13744  -1.13742  -1.13726  -1.13674
  Beta  occ. eigenvalues --   -1.13672  -1.13582  -1.13566  -1.13565  -1.13542
  Beta  occ. eigenvalues --   -1.13531  -1.13489  -1.13112  -1.13103  -1.13047
  Beta  occ. eigenvalues --   -0.16162  -0.13265  -0.11448
  Beta virt. eigenvalues --   -0.08007  -0.06098  -0.04936  -0.04532  -0.03329
  Beta virt. eigenvalues --   -0.02658  -0.02210  -0.01540  -0.00861  -0.00623
  Beta virt. eigenvalues --   -0.00437  -0.00114   0.00126   0.00302   0.00468

 Mulliken charges and spin densities:
               1          2
     1  Na   0.293154   0.454027
     2  Na  -0.308669  -0.048290
     3  Na  -0.072164  -0.088178
     4  Na   0.169237   0.311326
     5  Na  -0.037237   0.162875
     6  Na  -0.283725   0.019165
     7  Na   0.239404   0.189075
 Sum of Mulliken charges =  -0.00000   1.00000

 Dipole moment (field-independent basis, Debye):
    X=             -0.2603    Y=              0.3056    Z=             -0.2521  Tot=              0.4741
 Quadrupole moment (field-independent basis, Debye-Ang):
   XX=            -62.5456   YY=            -72.6330   ZZ=            -63.9877
   XY=              0.0050   XZ=              0.9400   YZ=             -1.7830

 Normal termination of Gaussian 16 at Sun Dec  3 13:52:07 2023.
