 Gaussian 16, Revision B.01,
 Gaussian 16:  ES64L-G16RevB.01 20-Dec-2017

 -------------------------
 #P B3LYP/6-311+g(d) force
 -------------------------

 -----
 DPGEN
 -----
 Symbolic Z-matrix:
 Charge =  0 Multiplicity = 2

                         Standard orientation:
 ---------------------------------------------------------------------
 Center     Atomic      Atomic             Coordinates (Angstroms)
 Number     Number       Type             X           Y           Z
 ---------------------------------------------------------------------
      1         11           0       -2.729035    1.129053    0.501675
      2         11           0        0.120324    2.597024   -0.297472
      3         11           0        0.181088   -0.246531   -1.686269
      4         11           0       -2.316075   -1.799779   -0.649678
      5         11           0       -0.137914   -0.281257    1.842424
      6         11           0        3.055739    0.942928   -0.055796
      7         11           0        1.825873   -2.341438    0.345115
 ---------------------------------------------------------------------

 SCF Done:  E(UB3LYP) =  -1136.13411862     A.U. after   19 cycles

 The electronic state is 2-A.
 Alpha  occ. eigenvalues --  -38.44258 -38.43783 -38.43740 -38.43526 -38.43454
 Alpha  occ. eigenvalues --  -38.43319 -38.42748  -2.20094  -2.19669  -2.19648
 Alpha  occ. eigenvalues --   -2.19487  -2.19331  -2.19318  -2.18656  -1.13769
 Alpha  occ. eigenvalues --   -1.13755  -1.13732  -1.13411  -1.13373  -1.13346
 Alpha  occ. eigenvalues --   -1.13293  -1.13289  -1.13234  -1.13178  -1.13135
 Alpha  occ. eigenvalues --   -1.13098  -1.13019  -1.13010  -1.12979  -1.12956
 Alpha  occ. eigenvalues --   -1.12935  -1.12923  -1.12354  -1.12311  -1.12282
 Alpha  occ. eigenvalues --   -0.19122  -0.13485  -0.12210  -0.11067
 Alpha virt. eigenvalues --   -0.05802  -0.05129  -0.04134  -0.03441  -0.02839
 Alpha virt. eigenvalues --   -0.02572  -0.01701  -0.01031  -0.00213   0.00014
 Alpha virt. eigenvalues --    0.00078   0.00347   0.00784   0.00881   0.00924

  Beta  occ. eigenvalues --  -38.44257 -38.43761 -38.43727 -38.43446 -38.43445
  Beta  occ. eigenvalues --  -38.43246 -38.42741  -2.20094  -2.19633  -2.19627
  Beta  occ. eigenvalues --   -2.19341  -2.19305  -2.19199  -2.18648  -1.13760
  Beta  occ. eigenvalues --   -1.13756  -1.13728  -1.13392  -1.13332  -1.13312
  Beta  occ. eigenvalues --   -1.13272  -1.13255  -1.13214  -1.13093  -1.13042
  Beta  occ. eigenvalues --   -1.13001  -1.12981  -1.12933  -1.12928  -1.12921
  Beta  occ. eigenvalues --   -1.12863  -1.12841  -1.12345  -1.12295  -1.12266
  Beta  occ. eigenvalues --   -0.18405  -0.13225  -0.11910
  Beta virt. eigenvalues --   -0.07128  -0.05766  -0.05092  -0.04067  -0.02697
  Beta virt. eigenvalues --   -0.02078  -0.01612  -0.01516  -0.00934  -0.00196
  Beta virt. eigenvalues --    0.00015   0.00138   0.00378   0.00855   0.00879

 Mulliken charges and spin densities:
               1          2
     1  Na   0.269980   0.113096
     2  Na   0.020887   0.004826
     3  Na  -0.204217   0.453813
     4  Na   0.133385  -0.005752
     5  Na  -0.287496   0.526510
     6  Na  -0.010518  -0.054033
     7  Na   0.077980  -0.038460
 Sum of Mulliken charges =  -0.00000   1.00000

 Dipole moment (field-independent basis, Debye):
    X=              0.2691    Y=             -0.1796    Z=              0.1392  Tot=              0.3522
 Quadrupole moment (field-independent basis, Debye-Ang):
   XX=            -53.9672   YY=            -66.6214   ZZ=            -73.1420
   XY=              0.1963   XZ=              0.2964   YZ=              0.6187

 Normal termination of Gaussian 16 at Tue Dec  5 20:34:23 2023.
