 Gaussian 16, Revision B.01,
 Gaussian 16:  ES64L-G16RevB.01 20-Dec-2017

 -------------------------
 #P B3LYP/6-311+g(d) force
 -------------------------

 -----
 DPGEN
 -----
 Symbolic Z-matrix:
 Charge =  0 Multiplicity = 2

                         Standard orientation:
 ---------------------------------------------------------------------
 Center     Atomic      Atomic             Coordinates (Angstroms)
 Number     Number       Type             X           Y           Z
 ---------------------------------------------------------------------
      1         11           0        2.907129   -1.541468   -0.547607
      2         11           0        5.958163   -0.446264   -0.484028
      3         11           0        3.477293    2.023431   -0.442569
      4         11           0       -0.375902    1.475238    0.987235
      5         11           0       -0.434035   -1.634119    1.319958
      6         11           0       -4.665997    0.361361    0.563009
      7         11           0       -6.866651   -0.238179   -1.395998
 ---------------------------------------------------------------------

 SCF Done:  E(UB3LYP) =  -1136.11357050     A.U. after   18 cycles

 The electronic state is 2-A.
 Alpha  occ. eigenvalues --  -38.44875 -38.44781 -38.44712 -38.44439 -38.44217
 Alpha  occ. eigenvalues --  -38.43609 -38.43604  -2.20685  -2.20609  -2.20523
 Alpha  occ. eigenvalues --   -2.20237  -2.20029  -2.19413  -2.19398  -1.14379
 Alpha  occ. eigenvalues --   -1.14348  -1.14330  -1.14291  -1.14272  -1.14198
 Alpha  occ. eigenvalues --   -1.14190  -1.14177  -1.14112  -1.13937  -1.13908
 Alpha  occ. eigenvalues --   -1.13872  -1.13687  -1.13669  -1.13657  -1.13202
 Alpha  occ. eigenvalues --   -1.13083  -1.13073  -1.13043  -1.13041  -1.12945
 Alpha  occ. eigenvalues --   -0.16517  -0.13853  -0.12132  -0.11046
 Alpha virt. eigenvalues --   -0.06921  -0.05503  -0.04689  -0.03624  -0.03026
 Alpha virt. eigenvalues --   -0.02590  -0.02168  -0.01822  -0.01163  -0.00833
 Alpha virt. eigenvalues --   -0.00421  -0.00221  -0.00081   0.00183   0.00491

  Beta  occ. eigenvalues --  -38.44869 -38.44731 -38.44636 -38.44418 -38.44193
  Beta  occ. eigenvalues --  -38.43611 -38.43607  -2.20675  -2.20518  -2.20383
  Beta  occ. eigenvalues --   -2.20199  -2.19984  -2.19417  -2.19402  -1.14357
  Beta  occ. eigenvalues --   -1.14341  -1.14315  -1.14228  -1.14206  -1.14128
  Beta  occ. eigenvalues --   -1.14102  -1.14084  -1.14007  -1.13910  -1.13883
  Beta  occ. eigenvalues --   -1.13837  -1.13657  -1.13639  -1.13619  -1.13206
  Beta  occ. eigenvalues --   -1.13082  -1.13075  -1.13049  -1.13044  -1.12950
  Beta  occ. eigenvalues --   -0.15813  -0.13846  -0.12072
  Beta virt. eigenvalues --   -0.07222  -0.06588  -0.04849  -0.04471  -0.03486
  Beta virt. eigenvalues --   -0.02569  -0.02274  -0.01954  -0.01709  -0.00896
  Beta virt. eigenvalues --   -0.00593  -0.00179  -0.00001   0.00180   0.00383

 Mulliken charges and spin densities:
               1          2
     1  Na  -0.487108   0.381207
     2  Na   0.573193  -0.024991
     3  Na  -0.092739   0.300066
     4  Na  -0.086436   0.215610
     5  Na   0.127784   0.122253
     6  Na  -0.578708   0.021817
     7  Na   0.544015  -0.015962
 Sum of Mulliken charges =  -0.00000   1.00000

 Dipole moment (field-independent basis, Debye):
    X=              2.5586    Y=             -0.3424    Z=             -0.1462  Tot=              2.5856
 Quadrupole moment (field-independent basis, Debye-Ang):
   XX=            -56.2947   YY=            -70.3880   ZZ=            -69.4356
   XY=              1.4280   XZ=              1.7248   YZ=              0.6557

 Normal termination of Gaussian 16 at Tue Nov 28 18:51:23 2023.
