 Gaussian 16, Revision B.01,
 Gaussian 16:  ES64L-G16RevB.01 20-Dec-2017

 -------------------------
 #P B3LYP/6-311+g(d) force
 -------------------------

 -----
 DPGEN
 -----
 Symbolic Z-matrix:
 Charge =  0 Multiplicity = 2

                         Standard orientation:
 ---------------------------------------------------------------------
 Center     Atomic      Atomic             Coordinates (Angstroms)
 Number     Number       Type             X           Y           Z
 ---------------------------------------------------------------------
      1         11           0        0.657798   -0.221597   -1.790374
      2         11           0        0.432256   -2.374553    0.387936
      3         11           0       -2.276251    1.722681   -0.376098
      4         11           0       -0.133645    0.048282    2.040013
      5         11           0       -2.573801   -1.414539   -0.316818
      6         11           0        0.816376    2.403075    0.247318
      7         11           0        3.077267   -0.163348   -0.191978
 ---------------------------------------------------------------------

 SCF Done:  E(UB3LYP) =  -1136.12974341     A.U. after   19 cycles

 The electronic state is 2-A.
 Alpha  occ. eigenvalues --  -38.44073 -38.43959 -38.43790 -38.43606 -38.43451
 Alpha  occ. eigenvalues --  -38.42996 -38.42928  -2.19979  -2.19941  -2.19810
 Alpha  occ. eigenvalues --   -2.19491  -2.19338  -2.18978  -2.18870  -1.13809
 Alpha  occ. eigenvalues --   -1.13645  -1.13616  -1.13600  -1.13598  -1.13530
 Alpha  occ. eigenvalues --   -1.13478  -1.13432  -1.13384  -1.13202  -1.13154
 Alpha  occ. eigenvalues --   -1.13141  -1.13006  -1.12987  -1.12973  -1.12678
 Alpha  occ. eigenvalues --   -1.12647  -1.12567  -1.12562  -1.12534  -1.12477
 Alpha  occ. eigenvalues --   -0.19544  -0.13355  -0.12476  -0.11535
 Alpha virt. eigenvalues --   -0.05532  -0.04739  -0.04141  -0.03558  -0.03163
 Alpha virt. eigenvalues --   -0.02950  -0.01461  -0.00684  -0.00116   0.00189
 Alpha virt. eigenvalues --    0.00232   0.00357   0.00899   0.00991   0.01005

  Beta  occ. eigenvalues --  -38.44066 -38.43858 -38.43723 -38.43600 -38.43444
  Beta  occ. eigenvalues --  -38.42978 -38.42917  -2.19970  -2.19759  -2.19688
  Beta  occ. eigenvalues --   -2.19483  -2.19328  -2.18952  -2.18855  -1.13777
  Beta  occ. eigenvalues --   -1.13596  -1.13591  -1.13517  -1.13470  -1.13405
  Beta  occ. eigenvalues --   -1.13400  -1.13348  -1.13304  -1.13197  -1.13152
  Beta  occ. eigenvalues --   -1.13114  -1.13002  -1.12972  -1.12956  -1.12659
  Beta  occ. eigenvalues --   -1.12587  -1.12554  -1.12552  -1.12495  -1.12472
  Beta  occ. eigenvalues --   -0.18780  -0.13076  -0.12207
  Beta virt. eigenvalues --   -0.07540  -0.05436  -0.04735  -0.04140  -0.02758
  Beta virt. eigenvalues --   -0.02309  -0.01869  -0.01368  -0.00647   0.00038
  Beta virt. eigenvalues --    0.00179   0.00199   0.00387   0.00950   0.00976

 Mulliken charges and spin densities:
               1          2
     1  Na  -0.834958   0.582791
     2  Na   0.594899   0.028688
     3  Na  -0.012528  -0.020255
     4  Na  -0.610344   0.474597
     5  Na  -0.019832  -0.041165
     6  Na   0.329197   0.014129
     7  Na   0.553566  -0.038785
 Sum of Mulliken charges =  -0.00000   1.00000

 Dipole moment (field-independent basis, Debye):
    X=              0.1502    Y=             -0.0064    Z=             -0.0142  Tot=              0.1510
 Quadrupole moment (field-independent basis, Debye-Ang):
   XX=            -57.0954   YY=            -68.5629   ZZ=            -70.1583
   XY=              0.2315   XZ=              1.5650   YZ=             -0.3380

 Normal termination of Gaussian 16 at Fri Dec  8 00:05:52 2023.
