 Gaussian 16, Revision B.01,
 Gaussian 16:  ES64L-G16RevB.01 20-Dec-2017

 -------------------------
 #P B3LYP/6-311+g(d) force
 -------------------------

 -----
 DPGEN
 -----
 Symbolic Z-matrix:
 Charge =  0 Multiplicity = 2

                         Standard orientation:
 ---------------------------------------------------------------------
 Center     Atomic      Atomic             Coordinates (Angstroms)
 Number     Number       Type             X           Y           Z
 ---------------------------------------------------------------------
      1         11           0       -3.393931   -0.313705   -0.018667
      2         11           0        3.255767    1.511034   -0.459506
      3         11           0       -0.428870    0.070441   -1.697313
      4         11           0       -1.321541    2.963014    0.072312
      5         11           0        0.208879    0.342205    2.026757
      6         11           0        2.740564   -1.831186    0.120493
      7         11           0       -1.060868   -2.741803   -0.044077
 ---------------------------------------------------------------------

 SCF Done:  E(UB3LYP) =  -1136.12952973     A.U. after   21 cycles

 The electronic state is 2-A.
 Alpha  occ. eigenvalues --  -38.44897 -38.44675 -38.44180 -38.43819 -38.43565
 Alpha  occ. eigenvalues --  -38.43450 -38.43084  -2.20706  -2.20440  -2.19966
 Alpha  occ. eigenvalues --   -2.19709  -2.19408  -2.19244  -2.18926  -1.14384
 Alpha  occ. eigenvalues --   -1.14371  -1.14335  -1.14108  -1.14094  -1.14080
 Alpha  occ. eigenvalues --   -1.13642  -1.13625  -1.13609  -1.13403  -1.13352
 Alpha  occ. eigenvalues --   -1.13330  -1.13078  -1.13039  -1.13024  -1.12917
 Alpha  occ. eigenvalues --   -1.12904  -1.12888  -1.12615  -1.12591  -1.12557
 Alpha  occ. eigenvalues --   -0.17845  -0.13237  -0.11890  -0.10340
 Alpha virt. eigenvalues --   -0.06450  -0.05558  -0.04572  -0.03251  -0.02673
 Alpha virt. eigenvalues --   -0.02360  -0.02111  -0.01338  -0.00886  -0.00523
 Alpha virt. eigenvalues --   -0.00081   0.00284   0.00660   0.00720   0.00730

  Beta  occ. eigenvalues --  -38.44895 -38.44660 -38.44179 -38.43766 -38.43470
  Beta  occ. eigenvalues --  -38.43449 -38.43080  -2.20705  -2.20412  -2.19966
  Beta  occ. eigenvalues --   -2.19611  -2.19245  -2.19233  -2.18923  -1.14372
  Beta  occ. eigenvalues --   -1.14365  -1.14336  -1.14079  -1.14077  -1.14062
  Beta  occ. eigenvalues --   -1.13631  -1.13627  -1.13603  -1.13332  -1.13285
  Beta  occ. eigenvalues --   -1.13258  -1.12962  -1.12921  -1.12915  -1.12904
  Beta  occ. eigenvalues --   -1.12891  -1.12875  -1.12611  -1.12583  -1.12543
  Beta  occ. eigenvalues --   -0.17173  -0.13021  -0.11681
  Beta virt. eigenvalues --   -0.06615  -0.06283  -0.05501  -0.04500  -0.02590
  Beta virt. eigenvalues --   -0.01991  -0.01948  -0.01421  -0.01269  -0.00880
  Beta virt. eigenvalues --   -0.00553   0.00087   0.00338   0.00720   0.00758

 Mulliken charges and spin densities:
               1          2
     1  Na   0.266294  -0.034090
     2  Na   0.000920   0.029594
     3  Na   0.012450   0.503782
     4  Na  -0.040291  -0.142961
     5  Na  -0.241440   0.701038
     6  Na   0.060884  -0.009255
     7  Na  -0.058816  -0.048108
 Sum of Mulliken charges =  -0.00000   1.00000

 Dipole moment (field-independent basis, Debye):
    X=             -0.1087    Y=              0.1535    Z=              0.0065  Tot=              0.1882
 Quadrupole moment (field-independent basis, Debye-Ang):
   XX=            -52.6449   YY=            -64.5235   ZZ=            -76.1257
   XY=              0.1043   XZ=             -1.3343   YZ=             -1.0310

 Normal termination of Gaussian 16 at Thu Dec  7 02:43:18 2023.
