 Gaussian 16, Revision B.01,
 Gaussian 16:  ES64L-G16RevB.01 20-Dec-2017

 -------------------------
 #P B3LYP/6-311+g(d) force
 -------------------------

 -----
 DPGEN
 -----
 Symbolic Z-matrix:
 Charge =  0 Multiplicity = 2

                         Standard orientation:
 ---------------------------------------------------------------------
 Center     Atomic      Atomic             Coordinates (Angstroms)
 Number     Number       Type             X           Y           Z
 ---------------------------------------------------------------------
      1         11           0       -0.183974   -1.027929   -1.532953
      2         11           0       -2.494023    1.299792   -0.639411
      3         11           0       -2.758052   -2.132115    0.448989
      4         11           0       -0.046899    0.131028    1.669202
      5         11           0        0.342776    3.114013    0.353269
      6         11           0        2.465217    0.881575   -0.566727
      7         11           0        2.674955   -2.266364    0.267632
 ---------------------------------------------------------------------

 SCF Done:  E(UB3LYP) =  -1136.13387623     A.U. after   20 cycles

 The electronic state is 2-A.
 Alpha  occ. eigenvalues --  -38.44173 -38.44122 -38.44118 -38.43683 -38.43191
 Alpha  occ. eigenvalues --  -38.43159 -38.43076  -2.19979  -2.19972  -2.19929
 Alpha  occ. eigenvalues --   -2.19598  -2.19123  -2.19104  -2.18948  -1.13663
 Alpha  occ. eigenvalues --   -1.13650  -1.13642  -1.13635  -1.13621  -1.13607
 Alpha  occ. eigenvalues --   -1.13587  -1.13575  -1.13575  -1.13292  -1.13262
 Alpha  occ. eigenvalues --   -1.13227  -1.12854  -1.12789  -1.12774  -1.12742
 Alpha  occ. eigenvalues --   -1.12727  -1.12719  -1.12616  -1.12595  -1.12584
 Alpha  occ. eigenvalues --   -0.18555  -0.13264  -0.12438  -0.10241
 Alpha virt. eigenvalues --   -0.05927  -0.05539  -0.04513  -0.03260  -0.02733
 Alpha virt. eigenvalues --   -0.02059  -0.01742  -0.01490  -0.00448  -0.00305
 Alpha virt. eigenvalues --    0.00099   0.00336   0.00732   0.00773   0.00857

  Beta  occ. eigenvalues --  -38.44165 -38.44119 -38.44101 -38.43671 -38.43137
  Beta  occ. eigenvalues --  -38.43086 -38.43072  -2.19965  -2.19937  -2.19933
  Beta  occ. eigenvalues --   -2.19578  -2.19026  -2.18971  -2.18944  -1.13641
  Beta  occ. eigenvalues --   -1.13639  -1.13615  -1.13612  -1.13609  -1.13593
  Beta  occ. eigenvalues --   -1.13580  -1.13573  -1.13558  -1.13281  -1.13222
  Beta  occ. eigenvalues --   -1.13216  -1.12784  -1.12706  -1.12689  -1.12659
  Beta  occ. eigenvalues --   -1.12652  -1.12631  -1.12613  -1.12573  -1.12557
  Beta  occ. eigenvalues --   -0.17851  -0.13036  -0.12245
  Beta virt. eigenvalues --   -0.06422  -0.05850  -0.05422  -0.04501  -0.02535
  Beta virt. eigenvalues --   -0.02098  -0.01657  -0.01396  -0.01092  -0.00491
  Beta virt. eigenvalues --   -0.00181   0.00204   0.00382   0.00749   0.00834

 Mulliken charges and spin densities:
               1          2
     1  Na   0.085402   0.315116
     2  Na  -0.080793   0.057625
     3  Na  -0.067760  -0.014250
     4  Na  -0.289229   0.599828
     5  Na   0.280325   0.012859
     6  Na   0.002059   0.069360
     7  Na   0.069997  -0.040537
 Sum of Mulliken charges =  -0.00000   1.00000

 Dipole moment (field-independent basis, Debye):
    X=             -0.2225    Y=             -0.5502    Z=              0.0414  Tot=              0.5949
 Quadrupole moment (field-independent basis, Debye-Ang):
   XX=            -56.2779   YY=            -59.2160   ZZ=            -76.0561
   XY=             -0.5845   XZ=             -0.0286   YZ=             -2.3572

 Normal termination of Gaussian 16 at Mon Dec  4 03:36:43 2023.
