 Gaussian 16, Revision B.01,
 Gaussian 16:  ES64L-G16RevB.01 20-Dec-2017

 -------------------------
 #P B3LYP/6-311+g(d) force
 -------------------------

 -----
 DPGEN
 -----
 Symbolic Z-matrix:
 Charge =  0 Multiplicity = 2

                         Standard orientation:
 ---------------------------------------------------------------------
 Center     Atomic      Atomic             Coordinates (Angstroms)
 Number     Number       Type             X           Y           Z
 ---------------------------------------------------------------------
      1         11           0       -1.440945    2.172795    0.248675
      2         11           0        2.465344    1.768615   -0.690093
      3         11           0        3.575415   -1.558622   -0.348554
      4         11           0        0.226200   -0.916849   -1.321700
      5         11           0       -3.916934   -0.159625   -1.010313
      6         11           0        1.032964    0.466750    1.919504
      7         11           0       -1.942044   -1.773064    1.202481
 ---------------------------------------------------------------------

 SCF Done:  E(UB3LYP) =  -1136.12460571     A.U. after   23 cycles

 The electronic state is 2-A.
 Alpha  occ. eigenvalues --  -38.44665 -38.44529 -38.44224 -38.43965 -38.43908
 Alpha  occ. eigenvalues --  -38.43491 -38.43059  -2.20509  -2.20338  -2.20079
 Alpha  occ. eigenvalues --   -2.19759  -2.19752  -2.19396  -2.18882  -1.14226
 Alpha  occ. eigenvalues --   -1.14188  -1.14110  -1.14005  -1.13986  -1.13964
 Alpha  occ. eigenvalues --   -1.13779  -1.13755  -1.13667  -1.13432  -1.13432
 Alpha  occ. eigenvalues --   -1.13422  -1.13397  -1.13395  -1.13379  -1.13073
 Alpha  occ. eigenvalues --   -1.13047  -1.13002  -1.12573  -1.12561  -1.12494
 Alpha  occ. eigenvalues --   -0.18151  -0.14095  -0.10967  -0.10873
 Alpha virt. eigenvalues --   -0.06778  -0.05627  -0.04585  -0.03011  -0.02735
 Alpha virt. eigenvalues --   -0.02406  -0.02279  -0.01275  -0.00933  -0.00358
 Alpha virt. eigenvalues --    0.00063   0.00142   0.00373   0.00575   0.00623

  Beta  occ. eigenvalues --  -38.44652 -38.44490 -38.44205 -38.43971 -38.43863
  Beta  occ. eigenvalues --  -38.43431 -38.43047  -2.20488  -2.20264  -2.20044
  Beta  occ. eigenvalues --   -2.19772  -2.19674  -2.19287  -2.18863  -1.14191
  Beta  occ. eigenvalues --   -1.14168  -1.14101  -1.13955  -1.13930  -1.13918
  Beta  occ. eigenvalues --   -1.13752  -1.13734  -1.13641  -1.13440  -1.13425
  Beta  occ. eigenvalues --   -1.13404  -1.13378  -1.13343  -1.13303  -1.13001
  Beta  occ. eigenvalues --   -1.12963  -1.12920  -1.12561  -1.12535  -1.12476
  Beta  occ. eigenvalues --   -0.17504  -0.13769  -0.10825
  Beta virt. eigenvalues --   -0.07136  -0.06521  -0.05440  -0.04080  -0.02890
  Beta virt. eigenvalues --   -0.02495  -0.01866  -0.01603  -0.01134  -0.00535
  Beta virt. eigenvalues --   -0.00228   0.00139   0.00194   0.00485   0.00633

 Mulliken charges and spin densities:
               1          2
     1  Na  -0.363440   0.041582
     2  Na   0.144037   0.071812
     3  Na   0.142794  -0.112716
     4  Na  -0.414673   0.301012
     5  Na   0.298724   0.260870
     6  Na   0.221365   0.442779
     7  Na  -0.028806  -0.005338
 Sum of Mulliken charges =  -0.00000   1.00000

 Dipole moment (field-independent basis, Debye):
    X=              0.1417    Y=              0.0178    Z=             -0.0026  Tot=              0.1428
 Quadrupole moment (field-independent basis, Debye-Ang):
   XX=            -52.1950   YY=            -74.4093   ZZ=            -68.9777
   XY=              1.1800   XZ=              1.9251   YZ=             -4.0448

 Normal termination of Gaussian 16 at Thu Dec  7 18:20:42 2023.
