 Gaussian 16, Revision B.01,
 Gaussian 16:  ES64L-G16RevB.01 20-Dec-2017

 -------------------------
 #P B3LYP/6-311+g(d) force
 -------------------------

 -----
 DPGEN
 -----
 Symbolic Z-matrix:
 Charge =  0 Multiplicity = 2

                         Standard orientation:
 ---------------------------------------------------------------------
 Center     Atomic      Atomic             Coordinates (Angstroms)
 Number     Number       Type             X           Y           Z
 ---------------------------------------------------------------------
      1         11           0        0.020930    0.096652    1.691944
      2         11           0        3.492062    0.406998    1.300325
      3         11           0        0.942219    2.098875   -1.242184
      4         11           0        2.097799   -1.741074   -1.043864
      5         11           0       -0.940710   -1.263669   -1.663521
      6         11           0       -2.870334   -1.290513    1.215323
      7         11           0       -2.741966    1.692732   -0.258023
 ---------------------------------------------------------------------

 SCF Done:  E(UB3LYP) =  -1136.12589662     A.U. after   27 cycles

 The electronic state is 2-A.
 Alpha  occ. eigenvalues --  -38.44520 -38.44480 -38.44407 -38.44254 -38.44247
 Alpha  occ. eigenvalues --  -38.43006 -38.42641  -2.20356  -2.20329  -2.20209
 Alpha  occ. eigenvalues --   -2.20133  -2.20077  -2.18857  -2.18537  -1.14055
 Alpha  occ. eigenvalues --   -1.14002  -1.13998  -1.13981  -1.13972  -1.13953
 Alpha  occ. eigenvalues --   -1.13891  -1.13857  -1.13827  -1.13818  -1.13780
 Alpha  occ. eigenvalues --   -1.13753  -1.13751  -1.13723  -1.13716  -1.12571
 Alpha  occ. eigenvalues --   -1.12520  -1.12490  -1.12217  -1.12186  -1.12163
 Alpha  occ. eigenvalues --   -0.18345  -0.13947  -0.11765  -0.10912
 Alpha virt. eigenvalues --   -0.06374  -0.05258  -0.04847  -0.03343  -0.02806
 Alpha virt. eigenvalues --   -0.02464  -0.02220  -0.00983  -0.00757  -0.00250
 Alpha virt. eigenvalues --    0.00179   0.00284   0.00391   0.00487   0.00740

  Beta  occ. eigenvalues --  -38.44492 -38.44439 -38.44352 -38.44244 -38.44207
  Beta  occ. eigenvalues --  -38.43003 -38.42616  -2.20281  -2.20277  -2.20110
  Beta  occ. eigenvalues --   -2.20063  -2.20058  -2.18853  -2.18494  -1.13992
  Beta  occ. eigenvalues --   -1.13958  -1.13955  -1.13947  -1.13924  -1.13922
  Beta  occ. eigenvalues --   -1.13824  -1.13783  -1.13762  -1.13750  -1.13736
  Beta  occ. eigenvalues --   -1.13732  -1.13715  -1.13692  -1.13687  -1.12559
  Beta  occ. eigenvalues --   -1.12510  -1.12489  -1.12190  -1.12139  -1.12134
  Beta  occ. eigenvalues --   -0.17632  -0.13675  -0.10642
  Beta virt. eigenvalues --   -0.07966  -0.06122  -0.05001  -0.04409  -0.02970
  Beta virt. eigenvalues --   -0.02301  -0.02072  -0.01734  -0.00746  -0.00531
  Beta virt. eigenvalues --   -0.00091   0.00252   0.00363   0.00454   0.00565

 Mulliken charges and spin densities:
               1          2
     1  Na  -0.901084   0.415542
     2  Na   0.591376   0.143942
     3  Na  -0.175336   0.217119
     4  Na  -0.203961  -0.092533
     5  Na  -0.297450   0.309610
     6  Na   1.014206  -0.072589
     7  Na  -0.027751   0.078910
 Sum of Mulliken charges =  -0.00000   1.00000

 Dipole moment (field-independent basis, Debye):
    X=             -0.1449    Y=              0.3523    Z=              0.4747  Tot=              0.6086
 Quadrupole moment (field-independent basis, Debye-Ang):
   XX=            -49.5376   YY=            -75.8161   ZZ=            -69.4288
   XY=              1.0893   XZ=              0.3513   YZ=             -6.5793

 Normal termination of Gaussian 16 at Thu Dec  7 04:35:30 2023.
