 Gaussian 16, Revision B.01,
 Gaussian 16:  ES64L-G16RevB.01 20-Dec-2017

 -------------------------
 #P B3LYP/6-311+g(d) force
 -------------------------

 -----
 DPGEN
 -----
 Symbolic Z-matrix:
 Charge =  0 Multiplicity = 2

                         Standard orientation:
 ---------------------------------------------------------------------
 Center     Atomic      Atomic             Coordinates (Angstroms)
 Number     Number       Type             X           Y           Z
 ---------------------------------------------------------------------
      1         11           0       -2.261274   -1.998681   -0.123321
      2         11           0       -0.071846   -0.208239   -1.731697
      3         11           0       -0.053361   -0.789653    1.904720
      4         11           0        2.627572    1.248383   -0.459907
      5         11           0       -2.563311    1.404882   -0.302632
      6         11           0        2.117084   -2.262694   -0.007934
      7         11           0        0.205135    2.606003    0.720771
 ---------------------------------------------------------------------

 SCF Done:  E(UB3LYP) =  -1136.13394374     A.U. after   19 cycles

 The electronic state is 2-A.
 Alpha  occ. eigenvalues --  -38.43886 -38.43843 -38.43781 -38.43749 -38.43523
 Alpha  occ. eigenvalues --  -38.43340 -38.43078  -2.19758  -2.19683  -2.19664
 Alpha  occ. eigenvalues --   -2.19628  -2.19454  -2.19328  -2.18992  -1.13458
 Alpha  occ. eigenvalues --   -1.13444  -1.13387  -1.13384  -1.13379  -1.13356
 Alpha  occ. eigenvalues --   -1.13336  -1.13325  -1.13319  -1.13295  -1.13271
 Alpha  occ. eigenvalues --   -1.13252  -1.13110  -1.13082  -1.13070  -1.12996
 Alpha  occ. eigenvalues --   -1.12960  -1.12946  -1.12658  -1.12645  -1.12624
 Alpha  occ. eigenvalues --   -0.18994  -0.13120  -0.12605  -0.11059
 Alpha virt. eigenvalues --   -0.05657  -0.05098  -0.04319  -0.03338  -0.03206
 Alpha virt. eigenvalues --   -0.02646  -0.01359  -0.01176  -0.00125  -0.00081
 Alpha virt. eigenvalues --    0.00136   0.00376   0.00819   0.00880   0.00943

  Beta  occ. eigenvalues --  -38.43879 -38.43840 -38.43773 -38.43743 -38.43441
  Beta  occ. eigenvalues --  -38.43268 -38.43061  -2.19750  -2.19680  -2.19652
  Beta  occ. eigenvalues --   -2.19621  -2.19302  -2.19197  -2.18965  -1.13453
  Beta  occ. eigenvalues --   -1.13409  -1.13381  -1.13378  -1.13371  -1.13335
  Beta  occ. eigenvalues --   -1.13323  -1.13321  -1.13299  -1.13268  -1.13263
  Beta  occ. eigenvalues --   -1.13251  -1.13013  -1.12978  -1.12960  -1.12908
  Beta  occ. eigenvalues --   -1.12869  -1.12848  -1.12644  -1.12627  -1.12583
  Beta  occ. eigenvalues --   -0.18262  -0.12842  -0.12367
  Beta virt. eigenvalues --   -0.07145  -0.05669  -0.05024  -0.04242  -0.02543
  Beta virt. eigenvalues --   -0.02428  -0.01607  -0.01278  -0.01134  -0.00140
  Beta virt. eigenvalues --    0.00006   0.00168   0.00411   0.00822   0.00969

 Mulliken charges and spin densities:
               1          2
     1  Na   0.196233  -0.066462
     2  Na  -0.105807   0.317617
     3  Na  -0.246325   0.595598
     4  Na   0.016203   0.073586
     5  Na   0.029357   0.086550
     6  Na   0.058431  -0.077942
     7  Na   0.051909   0.071055
 Sum of Mulliken charges =  -0.00000   1.00000

 Dipole moment (field-independent basis, Debye):
    X=             -0.0656    Y=             -0.4701    Z=             -0.0375  Tot=              0.4762
 Quadrupole moment (field-independent basis, Debye-Ang):
   XX=            -58.2769   YY=            -63.7596   ZZ=            -72.6243
   XY=             -0.2952   XZ=             -0.2698   YZ=              0.7640

 Normal termination of Gaussian 16 at Fri Dec  8 01:44:11 2023.
