 Gaussian 16, Revision B.01,
 Gaussian 16:  ES64L-G16RevB.01 20-Dec-2017

 -------------------------
 #P B3LYP/6-311+g(d) force
 -------------------------

 -----
 DPGEN
 -----
 Symbolic Z-matrix:
 Charge =  0 Multiplicity = 2

                         Standard orientation:
 ---------------------------------------------------------------------
 Center     Atomic      Atomic             Coordinates (Angstroms)
 Number     Number       Type             X           Y           Z
 ---------------------------------------------------------------------
      1         11           0        1.807927   -2.222701   -0.311518
      2         11           0        0.194377    3.039922    0.462008
      3         11           0        0.149061   -0.568934    1.994714
      4         11           0        2.766986    0.675022   -0.252961
      5         11           0       -0.374293    0.292819   -1.832974
      6         11           0       -1.962259   -2.236460    0.059587
      7         11           0       -2.581799    1.020332   -0.118856
 ---------------------------------------------------------------------

 SCF Done:  E(UB3LYP) =  -1136.13612165     A.U. after   19 cycles

 The electronic state is 2-A.
 Alpha  occ. eigenvalues --  -38.43681 -38.43618 -38.43607 -38.43528 -38.43521
 Alpha  occ. eigenvalues --  -38.43497 -38.43487  -2.19598  -2.19585  -2.19535
 Alpha  occ. eigenvalues --   -2.19421  -2.19406  -2.19357  -2.19324  -1.13473
 Alpha  occ. eigenvalues --   -1.13289  -1.13248  -1.13240  -1.13225  -1.13198
 Alpha  occ. eigenvalues --   -1.13196  -1.13172  -1.13141  -1.13108  -1.13076
 Alpha  occ. eigenvalues --   -1.13066  -1.13054  -1.13047  -1.13023  -1.13011
 Alpha  occ. eigenvalues --   -1.12989  -1.12988  -1.12982  -1.12970  -1.12961
 Alpha  occ. eigenvalues --   -0.18961  -0.13100  -0.12610  -0.11089
 Alpha virt. eigenvalues --   -0.05117  -0.04998  -0.04890  -0.03406  -0.03170
 Alpha virt. eigenvalues --   -0.02693  -0.01156  -0.01053  -0.00140  -0.00096
 Alpha virt. eigenvalues --   -0.00005   0.00383   0.00902   0.00920   0.00935

  Beta  occ. eigenvalues --  -38.43610 -38.43599 -38.43534 -38.43521 -38.43513
  Beta  occ. eigenvalues --  -38.43488 -38.43482  -2.19533  -2.19447  -2.19443
  Beta  occ. eigenvalues --   -2.19411  -2.19396  -2.19352  -2.19309  -1.13418
  Beta  occ. eigenvalues --   -1.13227  -1.13189  -1.13168  -1.13162  -1.13132
  Beta  occ. eigenvalues --   -1.13126  -1.13118  -1.13085  -1.13063  -1.13043
  Beta  occ. eigenvalues --   -1.13036  -1.13031  -1.13019  -1.13008  -1.12995
  Beta  occ. eigenvalues --   -1.12979  -1.12974  -1.12967  -1.12957  -1.12952
  Beta  occ. eigenvalues --   -0.18215  -0.12831  -0.12379
  Beta virt. eigenvalues --   -0.07189  -0.05106  -0.04982  -0.04762  -0.02589
  Beta virt. eigenvalues --   -0.02402  -0.01671  -0.01077  -0.00970  -0.00151
  Beta virt. eigenvalues --   -0.00143   0.00114   0.00407   0.00922   0.00932

 Mulliken charges and spin densities:
               1          2
     1  Na   0.210286  -0.069377
     2  Na  -0.053634  -0.000210
     3  Na  -0.525212   0.722819
     4  Na   0.049485  -0.025915
     5  Na  -0.289480   0.460333
     6  Na   0.231417  -0.102994
     7  Na   0.377138   0.015343
 Sum of Mulliken charges =  -0.00000   1.00000

 Dipole moment (field-independent basis, Debye):
    X=             -0.0285    Y=             -0.0724    Z=              0.1206  Tot=              0.1435
 Quadrupole moment (field-independent basis, Debye-Ang):
   XX=            -62.0719   YY=            -61.3590   ZZ=            -71.9020
   XY=              0.6751   XZ=             -0.9038   YZ=              1.9140

 Normal termination of Gaussian 16 at Thu Dec  7 21:00:16 2023.
