 Gaussian 16, Revision B.01,
 Gaussian 16:  ES64L-G16RevB.01 20-Dec-2017

 -------------------------
 #P B3LYP/6-311+g(d) force
 -------------------------

 -----
 DPGEN
 -----
 Symbolic Z-matrix:
 Charge =  0 Multiplicity = 2

                         Standard orientation:
 ---------------------------------------------------------------------
 Center     Atomic      Atomic             Coordinates (Angstroms)
 Number     Number       Type             X           Y           Z
 ---------------------------------------------------------------------
      1         11           0       -2.807374    1.558665   -0.611656
      2         11           0        3.166886    0.835914    0.193538
      3         11           0       -2.256870   -2.069671    0.822285
      4         11           0       -0.557193   -0.616519   -1.947111
      5         11           0        0.733486    2.985773   -0.023295
      6         11           0       -0.285742    0.030249    2.043680
      7         11           0        2.006807   -2.724411   -0.477442
 ---------------------------------------------------------------------

 SCF Done:  E(UB3LYP) =  -1136.13038589     A.U. after   19 cycles

 The electronic state is 2-A.
 Alpha  occ. eigenvalues --  -38.44312 -38.44217 -38.44070 -38.44057 -38.43918
 Alpha  occ. eigenvalues --  -38.43784 -38.43399  -2.20176  -2.20054  -2.19908
 Alpha  occ. eigenvalues --   -2.19874  -2.19712  -2.19549  -2.19209  -1.13900
 Alpha  occ. eigenvalues --   -1.13816  -1.13803  -1.13702  -1.13694  -1.13670
 Alpha  occ. eigenvalues --   -1.13592  -1.13565  -1.13554  -1.13524  -1.13511
 Alpha  occ. eigenvalues --   -1.13494  -1.13399  -1.13382  -1.13347  -1.13224
 Alpha  occ. eigenvalues --   -1.13199  -1.13192  -1.12887  -1.12877  -1.12843
 Alpha  occ. eigenvalues --   -0.17762  -0.12862  -0.12139  -0.11242
 Alpha virt. eigenvalues --   -0.05703  -0.05386  -0.04810  -0.03295  -0.03033
 Alpha virt. eigenvalues --   -0.02940  -0.01521  -0.01300  -0.00678  -0.00426
 Alpha virt. eigenvalues --   -0.00091   0.00336   0.00712   0.00782   0.00814

  Beta  occ. eigenvalues --  -38.44229 -38.44186 -38.44050 -38.43992 -38.43920
  Beta  occ. eigenvalues --  -38.43777 -38.43400  -2.20024  -2.20000  -2.19839
  Beta  occ. eigenvalues --   -2.19788  -2.19717  -2.19536  -2.19214  -1.13808
  Beta  occ. eigenvalues --   -1.13707  -1.13704  -1.13654  -1.13639  -1.13616
  Beta  occ. eigenvalues --   -1.13537  -1.13498  -1.13488  -1.13485  -1.13474
  Beta  occ. eigenvalues --   -1.13418  -1.13403  -1.13380  -1.13350  -1.13205
  Beta  occ. eigenvalues --   -1.13192  -1.13186  -1.12890  -1.12876  -1.12842
  Beta  occ. eigenvalues --   -0.17058  -0.12637  -0.11872
  Beta virt. eigenvalues --   -0.07363  -0.05628  -0.05273  -0.04649  -0.02690
  Beta virt. eigenvalues --   -0.02412  -0.01986  -0.01356  -0.01162  -0.00677
  Beta virt. eigenvalues --   -0.00452   0.00054   0.00404   0.00790   0.00834

 Mulliken charges and spin densities:
               1          2
     1  Na   0.114867   0.065291
     2  Na  -0.084286  -0.061134
     3  Na   0.189046  -0.006041
     4  Na  -0.040866   0.591616
     5  Na  -0.141269  -0.069814
     6  Na   0.048248   0.525070
     7  Na  -0.085740  -0.044987
 Sum of Mulliken charges =  -0.00000   1.00000

 Dipole moment (field-independent basis, Debye):
    X=             -0.4367    Y=             -0.1748    Z=              0.0542  Tot=              0.4735
 Quadrupole moment (field-independent basis, Debye-Ang):
   XX=            -59.6172   YY=            -64.3350   ZZ=            -72.3150
   XY=             -0.3206   XZ=              0.2487   YZ=             -1.2408

 Normal termination of Gaussian 16 at Sun Dec  3 20:23:21 2023.
