 Gaussian 16, Revision B.01,
 Gaussian 16:  ES64L-G16RevB.01 20-Dec-2017

 -------------------------
 #P B3LYP/6-311+g(d) force
 -------------------------

 -----
 DPGEN
 -----
 Symbolic Z-matrix:
 Charge =  0 Multiplicity = 2

                         Standard orientation:
 ---------------------------------------------------------------------
 Center     Atomic      Atomic             Coordinates (Angstroms)
 Number     Number       Type             X           Y           Z
 ---------------------------------------------------------------------
      1         11           0       -0.614321   -2.763305   -0.291013
      2         11           0       -2.969629   -0.030266   -0.588070
      3         11           0        2.649997   -1.536500   -0.076021
      4         11           0       -0.484149   -0.384251    2.529850
      5         11           0        0.276115    0.066397   -1.632053
      6         11           0       -1.080114    2.497790    0.053163
      7         11           0        2.222100    2.150136    0.004144
 ---------------------------------------------------------------------

 SCF Done:  E(UB3LYP) =  -1136.13630348     A.U. after   19 cycles

 The electronic state is 2-A.
 Alpha  occ. eigenvalues --  -38.44535 -38.43756 -38.43544 -38.43464 -38.43431
 Alpha  occ. eigenvalues --  -38.43292 -38.43233  -2.20350  -2.19586  -2.19404
 Alpha  occ. eigenvalues --   -2.19307  -2.19305  -2.19289  -2.19131  -1.13986
 Alpha  occ. eigenvalues --   -1.13975  -1.13971  -1.13289  -1.13248  -1.13216
 Alpha  occ. eigenvalues --   -1.13110  -1.13072  -1.13051  -1.13045  -1.13019
 Alpha  occ. eigenvalues --   -1.12974  -1.12963  -1.12952  -1.12949  -1.12926
 Alpha  occ. eigenvalues --   -1.12907  -1.12891  -1.12798  -1.12785  -1.12750
 Alpha  occ. eigenvalues --   -0.18559  -0.12714  -0.12583  -0.11362
 Alpha virt. eigenvalues --   -0.05310  -0.04944  -0.04718  -0.03440  -0.03209
 Alpha virt. eigenvalues --   -0.02975  -0.01224  -0.01014  -0.00212  -0.00152
 Alpha virt. eigenvalues --   -0.00072   0.00355   0.00796   0.00882   0.00919

  Beta  occ. eigenvalues --  -38.44418 -38.43755 -38.43533 -38.43465 -38.43425
  Beta  occ. eigenvalues --  -38.43242 -38.43228  -2.20132  -2.19586  -2.19388
  Beta  occ. eigenvalues --   -2.19308  -2.19282  -2.19215  -2.19125  -1.13839
  Beta  occ. eigenvalues --   -1.13825  -1.13819  -1.13282  -1.13238  -1.13219
  Beta  occ. eigenvalues --   -1.13095  -1.13052  -1.13027  -1.13026  -1.12998
  Beta  occ. eigenvalues --   -1.12962  -1.12950  -1.12928  -1.12921  -1.12908
  Beta  occ. eigenvalues --   -1.12877  -1.12837  -1.12786  -1.12754  -1.12751
  Beta  occ. eigenvalues --   -0.17857  -0.12525  -0.12384
  Beta virt. eigenvalues --   -0.07277  -0.05318  -0.04913  -0.04589  -0.02550
  Beta virt. eigenvalues --   -0.02414  -0.02017  -0.01146  -0.00957  -0.00259
  Beta virt. eigenvalues --   -0.00153   0.00101   0.00398   0.00879   0.00932

 Mulliken charges and spin densities:
               1          2
     1  Na   0.147244   0.045589
     2  Na   0.244252   0.059331
     3  Na   0.088706   0.024870
     4  Na  -0.743004   0.687068
     5  Na   0.089578   0.014681
     6  Na   0.105237   0.132426
     7  Na   0.067987   0.036036
 Sum of Mulliken charges =  -0.00000   1.00000

 Dipole moment (field-independent basis, Debye):
    X=              0.1135    Y=             -0.2044    Z=              0.3490  Tot=              0.4201
 Quadrupole moment (field-independent basis, Debye-Ang):
   XX=            -60.4274   YY=            -64.2578   ZZ=            -70.9775
   XY=              0.2617   XZ=              1.5919   YZ=              0.7346

 Normal termination of Gaussian 16 at Fri Dec  8 07:06:36 2023.
