 Gaussian 16, Revision B.01,
 Gaussian 16:  ES64L-G16RevB.01 20-Dec-2017

 -------------------------
 #P B3LYP/6-311+g(d) force
 -------------------------

 -----
 DPGEN
 -----
 Symbolic Z-matrix:
 Charge =  0 Multiplicity = 2

                         Standard orientation:
 ---------------------------------------------------------------------
 Center     Atomic      Atomic             Coordinates (Angstroms)
 Number     Number       Type             X           Y           Z
 ---------------------------------------------------------------------
      1         11           0        1.814326    1.985963   -0.390381
      2         11           0       -1.702392    2.885031    0.009617
      3         11           0        1.028209   -1.027433    1.060173
      4         11           0       -2.935863   -2.121594   -0.828747
      5         11           0        3.887884   -1.136026    0.072041
      6         11           0       -1.748402   -0.250093    2.172821
      7         11           0       -0.343761   -0.335848   -2.095524
 ---------------------------------------------------------------------

 SCF Done:  E(UB3LYP) =  -1136.12164600     A.U. after   23 cycles

 The electronic state is 2-A.
 Alpha  occ. eigenvalues --  -38.44719 -38.44324 -38.44258 -38.44132 -38.43760
 Alpha  occ. eigenvalues --  -38.43628 -38.43542  -2.20564  -2.20142  -2.20113
 Alpha  occ. eigenvalues --   -2.19919  -2.19588  -2.19580  -2.19310  -1.14244
 Alpha  occ. eigenvalues --   -1.14201  -1.14174  -1.13873  -1.13833  -1.13792
 Alpha  occ. eigenvalues --   -1.13770  -1.13725  -1.13705  -1.13589  -1.13582
 Alpha  occ. eigenvalues --   -1.13542  -1.13304  -1.13284  -1.13255  -1.13237
 Alpha  occ. eigenvalues --   -1.13186  -1.13163  -1.12985  -1.12974  -1.12943
 Alpha  occ. eigenvalues --   -0.17901  -0.13264  -0.11709  -0.11507
 Alpha virt. eigenvalues --   -0.06320  -0.05277  -0.04317  -0.03310  -0.03228
 Alpha virt. eigenvalues --   -0.02717  -0.02055  -0.01353  -0.00608  -0.00170
 Alpha virt. eigenvalues --    0.00149   0.00204   0.00450   0.00559   0.00762

  Beta  occ. eigenvalues --  -38.44638 -38.44329 -38.44178 -38.44113 -38.43756
  Beta  occ. eigenvalues --  -38.43595 -38.43542  -2.20415  -2.20151  -2.19966
  Beta  occ. eigenvalues --   -2.19885  -2.19581  -2.19525  -2.19310  -1.14146
  Beta  occ. eigenvalues --   -1.14100  -1.14058  -1.13865  -1.13797  -1.13776
  Beta  occ. eigenvalues --   -1.13734  -1.13625  -1.13608  -1.13563  -1.13546
  Beta  occ. eigenvalues --   -1.13521  -1.13296  -1.13266  -1.13209  -1.13185
  Beta  occ. eigenvalues --   -1.13175  -1.13140  -1.12981  -1.12969  -1.12943
  Beta  occ. eigenvalues --   -0.17183  -0.13029  -0.11346
  Beta virt. eigenvalues --   -0.07715  -0.06080  -0.05228  -0.03783  -0.03014
  Beta virt. eigenvalues --   -0.02338  -0.02224  -0.01925  -0.01259  -0.00299
  Beta virt. eigenvalues --   -0.00143   0.00188   0.00316   0.00629   0.00673

 Mulliken charges and spin densities:
               1          2
     1  Na   0.200319   0.055852
     2  Na  -0.413441  -0.060508
     3  Na  -1.595407   0.219171
     4  Na  -0.116874  -0.122180
     5  Na   0.521528   0.014590
     6  Na   1.227746   0.214722
     7  Na   0.176129   0.678353
 Sum of Mulliken charges =  -0.00000   1.00000

 Dipole moment (field-independent basis, Debye):
    X=              0.2275    Y=             -0.1530    Z=             -0.3824  Tot=              0.4705
 Quadrupole moment (field-independent basis, Debye-Ang):
   XX=            -52.5812   YY=            -72.0774   ZZ=            -69.8953
   XY=             -0.3543   XZ=             -2.4213   YZ=              1.8412

 Normal termination of Gaussian 16 at Sun Dec  3 15:45:52 2023.
