 Gaussian 16, Revision B.01,
 Gaussian 16:  ES64L-G16RevB.01 20-Dec-2017

 -------------------------
 #P B3LYP/6-311+g(d) force
 -------------------------

 -----
 DPGEN
 -----
 Symbolic Z-matrix:
 Charge =  0 Multiplicity = 2

                         Standard orientation:
 ---------------------------------------------------------------------
 Center     Atomic      Atomic             Coordinates (Angstroms)
 Number     Number       Type             X           Y           Z
 ---------------------------------------------------------------------
      1         11           0       -1.935226   -2.609884    0.378158
      2         11           0        2.868125    0.518431   -1.308566
      3         11           0       -1.672495    1.806316   -0.871507
      4         11           0       -4.331482   -0.413209   -0.795470
      5         11           0        4.333940   -1.625644   -0.309143
      6         11           0        0.107530   -0.528360    1.739908
      7         11           0        0.629609    2.852350    1.166621
 ---------------------------------------------------------------------

 SCF Done:  E(UB3LYP) =  -1136.11659714     A.U. after   19 cycles

 The electronic state is 2-A.
 Alpha  occ. eigenvalues --  -38.44762 -38.44359 -38.44266 -38.44079 -38.44039
 Alpha  occ. eigenvalues --  -38.43658 -38.43479  -2.20613  -2.20193  -2.20076
 Alpha  occ. eigenvalues --   -2.19938  -2.19860  -2.19500  -2.19315  -1.14298
 Alpha  occ. eigenvalues --   -1.14246  -1.14227  -1.13881  -1.13855  -1.13825
 Alpha  occ. eigenvalues --   -1.13765  -1.13733  -1.13722  -1.13702  -1.13587
 Alpha  occ. eigenvalues --   -1.13551  -1.13544  -1.13519  -1.13473  -1.13125
 Alpha  occ. eigenvalues --   -1.13124  -1.13113  -1.12983  -1.12972  -1.12955
 Alpha  occ. eigenvalues --   -0.17071  -0.13753  -0.12158  -0.11454
 Alpha virt. eigenvalues --   -0.05805  -0.05609  -0.04656  -0.03538  -0.03173
 Alpha virt. eigenvalues --   -0.02241  -0.02046  -0.01476  -0.00971  -0.00499
 Alpha virt. eigenvalues --   -0.00321   0.00105   0.00407   0.00448   0.00714

  Beta  occ. eigenvalues --  -38.44676 -38.44322 -38.44219 -38.44065 -38.44009
  Beta  occ. eigenvalues --  -38.43650 -38.43476  -2.20456  -2.20126  -2.19990
  Beta  occ. eigenvalues --   -2.19914  -2.19809  -2.19487  -2.19310  -1.14191
  Beta  occ. eigenvalues --   -1.14145  -1.14103  -1.13838  -1.13812  -1.13759
  Beta  occ. eigenvalues --   -1.13749  -1.13676  -1.13656  -1.13649  -1.13570
  Beta  occ. eigenvalues --   -1.13530  -1.13496  -1.13484  -1.13429  -1.13117
  Beta  occ. eigenvalues --   -1.13109  -1.13106  -1.12971  -1.12969  -1.12953
  Beta  occ. eigenvalues --   -0.16404  -0.13351  -0.11850
  Beta virt. eigenvalues --   -0.07777  -0.05432  -0.05378  -0.04347  -0.03220
  Beta virt. eigenvalues --   -0.02490  -0.02144  -0.01787  -0.01199  -0.00826
  Beta virt. eigenvalues --   -0.00259  -0.00093   0.00220   0.00542   0.00600

 Mulliken charges and spin densities:
               1          2
     1  Na   0.103171   0.131505
     2  Na  -0.433953   0.096425
     3  Na  -0.350261   0.256940
     4  Na   0.024853   0.134433
     5  Na   0.377624  -0.039386
     6  Na  -0.503369   0.364321
     7  Na   0.781936   0.055762
 Sum of Mulliken charges =  -0.00000   1.00000

 Dipole moment (field-independent basis, Debye):
    X=             -0.4869    Y=              0.1429    Z=              0.3768  Tot=              0.6320
 Quadrupole moment (field-independent basis, Debye-Ang):
   XX=            -66.9483   YY=            -65.1648   ZZ=            -68.8614
   XY=              0.9945   XZ=              4.6465   YZ=             -0.9565

 Normal termination of Gaussian 16 at Sun Dec  3 22:13:38 2023.
