 Gaussian 16, Revision B.01,
 Gaussian 16:  ES64L-G16RevB.01 20-Dec-2017

 -------------------------
 #P B3LYP/6-311+g(d) force
 -------------------------

 -----
 DPGEN
 -----
 Symbolic Z-matrix:
 Charge =  0 Multiplicity = 2

                         Standard orientation:
 ---------------------------------------------------------------------
 Center     Atomic      Atomic             Coordinates (Angstroms)
 Number     Number       Type             X           Y           Z
 ---------------------------------------------------------------------
      1         11           0        3.796357    0.367790    0.671415
      2         11           0        0.125250    0.095213    1.838001
      3         11           0        1.719235   -2.010927   -0.287243
      4         11           0       -1.107725   -0.898484   -1.615211
      5         11           0       -3.467326   -1.219535    0.605696
      6         11           0        1.237289    1.488045   -1.346531
      7         11           0       -2.303080    2.177897    0.133873
 ---------------------------------------------------------------------

 SCF Done:  E(UB3LYP) =  -1136.12272785     A.U. after   29 cycles

 The electronic state is 2-A.
 Alpha  occ. eigenvalues --  -38.45185 -38.45034 -38.44776 -38.43289 -38.43289
 Alpha  occ. eigenvalues --  -38.43182 -38.43122  -2.21008  -2.20877  -2.20575
 Alpha  occ. eigenvalues --   -2.19175  -2.19097  -2.19073  -2.19060  -1.14673
 Alpha  occ. eigenvalues --   -1.14661  -1.14639  -1.14583  -1.14519  -1.14489
 Alpha  occ. eigenvalues --   -1.14262  -1.14223  -1.14210  -1.12891  -1.12826
 Alpha  occ. eigenvalues --   -1.12801  -1.12781  -1.12779  -1.12761  -1.12750
 Alpha  occ. eigenvalues --   -1.12735  -1.12714  -1.12699  -1.12699  -1.12658
 Alpha  occ. eigenvalues --   -0.18560  -0.14103  -0.11290  -0.10750
 Alpha virt. eigenvalues --   -0.07133  -0.05248  -0.04418  -0.02997  -0.02911
 Alpha virt. eigenvalues --   -0.02456  -0.02353  -0.01052  -0.00891  -0.00233
 Alpha virt. eigenvalues --    0.00092   0.00215   0.00292   0.00632   0.00767

  Beta  occ. eigenvalues --  -38.45162 -38.44992 -38.44773 -38.43292 -38.43234
  Beta  occ. eigenvalues --  -38.43162 -38.43064  -2.20965  -2.20799  -2.20570
  Beta  occ. eigenvalues --   -2.19104  -2.19078  -2.19043  -2.18957  -1.14643
  Beta  occ. eigenvalues --   -1.14627  -1.14608  -1.14527  -1.14466  -1.14428
  Beta  occ. eigenvalues --   -1.14260  -1.14219  -1.14203  -1.12815  -1.12779
  Beta  occ. eigenvalues --   -1.12770  -1.12760  -1.12744  -1.12735  -1.12720
  Beta  occ. eigenvalues --   -1.12696  -1.12686  -1.12649  -1.12610  -1.12586
  Beta  occ. eigenvalues --   -0.17777  -0.13872  -0.10566
  Beta virt. eigenvalues --   -0.07419  -0.06881  -0.05209  -0.03840  -0.02807
  Beta virt. eigenvalues --   -0.02596  -0.01829  -0.01621  -0.00999  -0.00560
  Beta virt. eigenvalues --   -0.00180   0.00122   0.00219   0.00431   0.00704

 Mulliken charges and spin densities:
               1          2
     1  Na   0.457020   0.210754
     2  Na  -0.186078   0.284949
     3  Na  -0.236707   0.102127
     4  Na   0.549758   0.129371
     5  Na   0.002896   0.052523
     6  Na  -0.424702   0.176263
     7  Na  -0.162187   0.044013
 Sum of Mulliken charges =  -0.00000   1.00000

 Dipole moment (field-independent basis, Debye):
    X=              0.4232    Y=              0.0253    Z=              0.7154  Tot=              0.8316
 Quadrupole moment (field-independent basis, Debye-Ang):
   XX=            -46.2607   YY=            -77.6047   ZZ=            -69.2597
   XY=              1.1992   XZ=             -0.3324   YZ=             -1.4592

 Normal termination of Gaussian 16 at Tue Dec  5 14:00:52 2023.
