 Gaussian 16, Revision B.01,
 Gaussian 16:  ES64L-G16RevB.01 20-Dec-2017

 -------------------------
 #P B3LYP/6-311+g(d) force
 -------------------------

 -----
 DPGEN
 -----
 Symbolic Z-matrix:
 Charge =  0 Multiplicity = 2

                         Standard orientation:
 ---------------------------------------------------------------------
 Center     Atomic      Atomic             Coordinates (Angstroms)
 Number     Number       Type             X           Y           Z
 ---------------------------------------------------------------------
      1         11           0        0.125334    2.896210    0.486858
      2         11           0       -1.405230   -2.382684    0.419148
      3         11           0       -2.940505    0.738538   -0.554986
      4         11           0       -0.201052   -0.123385    1.867663
      5         11           0        2.848616    0.683767   -0.020890
      6         11           0        1.581545   -2.218461   -0.432693
      7         11           0       -0.008708    0.406014   -1.765099
 ---------------------------------------------------------------------

 SCF Done:  E(UB3LYP) =  -1136.13547011     A.U. after   18 cycles

 The electronic state is 2-A.
 Alpha  occ. eigenvalues --  -38.43764 -38.43611 -38.43592 -38.43511 -38.43366
 Alpha  occ. eigenvalues --  -38.43361 -38.43207  -2.19609  -2.19578  -2.19471
 Alpha  occ. eigenvalues --   -2.19393  -2.19358  -2.19292  -2.19138  -1.13350
 Alpha  occ. eigenvalues --   -1.13325  -1.13260  -1.13241  -1.13236  -1.13185
 Alpha  occ. eigenvalues --   -1.13153  -1.13135  -1.13105  -1.13093  -1.13062
 Alpha  occ. eigenvalues --   -1.13031  -1.13019  -1.12992  -1.12976  -1.12964
 Alpha  occ. eigenvalues --   -1.12943  -1.12896  -1.12794  -1.12780  -1.12746
 Alpha  occ. eigenvalues --   -0.19206  -0.12880  -0.12828  -0.11239
 Alpha virt. eigenvalues --   -0.05269  -0.04849  -0.04605  -0.03275  -0.03227
 Alpha virt. eigenvalues --   -0.02709  -0.01267  -0.01061  -0.00150   0.00045
 Alpha virt. eigenvalues --    0.00135   0.00363   0.00903   0.00917   0.00984

  Beta  occ. eigenvalues --  -38.43748 -38.43597 -38.43509 -38.43508 -38.43350
  Beta  occ. eigenvalues --  -38.43294 -38.43197  -2.19582  -2.19450  -2.19427
  Beta  occ. eigenvalues --   -2.19390  -2.19275  -2.19227  -2.19124  -1.13292
  Beta  occ. eigenvalues --   -1.13255  -1.13225  -1.13222  -1.13175  -1.13124
  Beta  occ. eigenvalues --   -1.13108  -1.13086  -1.13079  -1.13068  -1.13049
  Beta  occ. eigenvalues --   -1.13010  -1.12982  -1.12938  -1.12899  -1.12895
  Beta  occ. eigenvalues --   -1.12877  -1.12870  -1.12778  -1.12763  -1.12725
  Beta  occ. eigenvalues --   -0.18479  -0.12597  -0.12534
  Beta virt. eigenvalues --   -0.07301  -0.05244  -0.04783  -0.04583  -0.02478
  Beta virt. eigenvalues --   -0.02459  -0.01657  -0.01166  -0.00971  -0.00101
  Beta virt. eigenvalues --    0.00040   0.00158   0.00391   0.00913   0.00936

 Mulliken charges and spin densities:
               1          2
     1  Na   0.049503  -0.037171
     2  Na   0.389953   0.082886
     3  Na  -0.006873  -0.048711
     4  Na  -0.303089   0.510017
     5  Na   0.084742  -0.027172
     6  Na   0.054924   0.001500
     7  Na  -0.269160   0.518650
 Sum of Mulliken charges =  -0.00000   1.00000

 Dipole moment (field-independent basis, Debye):
    X=             -0.1215    Y=              0.3483    Z=              0.0180  Tot=              0.3693
 Quadrupole moment (field-independent basis, Debye-Ang):
   XX=            -60.0909   YY=            -62.3914   ZZ=            -72.1137
   XY=              0.1240   XZ=              0.5181   YZ=              1.2605

 Normal termination of Gaussian 16 at Thu Dec  7 11:41:57 2023.
