 Gaussian 16, Revision B.01,
 Gaussian 16:  ES64L-G16RevB.01 20-Dec-2017

 -------------------------
 #P B3LYP/6-311+g(d) force
 -------------------------

 -----
 DPGEN
 -----
 Symbolic Z-matrix:
 Charge =  0 Multiplicity = 2

                         Standard orientation:
 ---------------------------------------------------------------------
 Center     Atomic      Atomic             Coordinates (Angstroms)
 Number     Number       Type             X           Y           Z
 ---------------------------------------------------------------------
      1         11           0        0.606067   -0.064379    1.943353
      2         11           0       -0.444773   -0.800956   -1.641774
      3         11           0        2.653477    1.543441   -0.208620
      4         11           0        2.397983   -1.997828   -0.366585
      5         11           0       -0.427372    2.961597   -0.158464
      6         11           0       -1.542852   -2.165160    0.504775
      7         11           0       -3.242531    0.523285   -0.072685
 ---------------------------------------------------------------------

 SCF Done:  E(UB3LYP) =  -1136.13080979     A.U. after   19 cycles

 The electronic state is 2-A.
 Alpha  occ. eigenvalues --  -38.44238 -38.43948 -38.43809 -38.43782 -38.43652
 Alpha  occ. eigenvalues --  -38.43443 -38.43395  -2.20067  -2.19786  -2.19746
 Alpha  occ. eigenvalues --   -2.19652  -2.19625  -2.19360  -2.19197  -1.13761
 Alpha  occ. eigenvalues --   -1.13737  -1.13708  -1.13687  -1.13470  -1.13453
 Alpha  occ. eigenvalues --   -1.13426  -1.13400  -1.13351  -1.13322  -1.13307
 Alpha  occ. eigenvalues --   -1.13287  -1.13250  -1.13193  -1.13173  -1.13025
 Alpha  occ. eigenvalues --   -1.12990  -1.12973  -1.12874  -1.12862  -1.12836
 Alpha  occ. eigenvalues --   -0.18656  -0.13369  -0.12378  -0.10686
 Alpha virt. eigenvalues --   -0.05787  -0.05421  -0.04600  -0.03426  -0.02775
 Alpha virt. eigenvalues --   -0.02406  -0.01645  -0.01066  -0.00452  -0.00293
 Alpha virt. eigenvalues --   -0.00021   0.00348   0.00774   0.00848   0.00875

  Beta  occ. eigenvalues --  -38.44237 -38.43944 -38.43797 -38.43764 -38.43595
  Beta  occ. eigenvalues --  -38.43394 -38.43355  -2.20067  -2.19781  -2.19715
  Beta  occ. eigenvalues --   -2.19634  -2.19523  -2.19201  -2.19195  -1.13757
  Beta  occ. eigenvalues --   -1.13720  -1.13710  -1.13651  -1.13461  -1.13441
  Beta  occ. eigenvalues --   -1.13422  -1.13346  -1.13327  -1.13302  -1.13283
  Beta  occ. eigenvalues --   -1.13275  -1.13181  -1.13126  -1.13108  -1.12920
  Beta  occ. eigenvalues --   -1.12873  -1.12870  -1.12865  -1.12850  -1.12835
  Beta  occ. eigenvalues --   -0.17942  -0.13165  -0.12155
  Beta virt. eigenvalues --   -0.06765  -0.05726  -0.05406  -0.04485  -0.02661
  Beta virt. eigenvalues --   -0.02091  -0.01559  -0.01382  -0.01022  -0.00467
  Beta virt. eigenvalues --   -0.00312   0.00141   0.00398   0.00854   0.00861

 Mulliken charges and spin densities:
               1          2
     1  Na  -0.169469   0.591369
     2  Na  -0.297454   0.605101
     3  Na  -0.093618  -0.033257
     4  Na   0.242511  -0.007697
     5  Na  -0.146945  -0.092551
     6  Na   0.534636   0.002770
     7  Na  -0.069661  -0.065734
 Sum of Mulliken charges =  -0.00000   1.00000

 Dipole moment (field-independent basis, Debye):
    X=              0.0120    Y=             -0.0220    Z=              0.0166  Tot=              0.0301
 Quadrupole moment (field-independent basis, Debye-Ang):
   XX=            -54.8621   YY=            -65.3263   ZZ=            -74.3024
   XY=             -1.3358   XZ=             -1.5976   YZ=             -1.0857

 Normal termination of Gaussian 16 at Tue Dec  5 14:49:09 2023.
