 Gaussian 16, Revision B.01,
 Gaussian 16:  ES64L-G16RevB.01 20-Dec-2017

 -------------------------
 #P B3LYP/6-311+g(d) force
 -------------------------

 -----
 DPGEN
 -----
 Symbolic Z-matrix:
 Charge =  0 Multiplicity = 2

                         Standard orientation:
 ---------------------------------------------------------------------
 Center     Atomic      Atomic             Coordinates (Angstroms)
 Number     Number       Type             X           Y           Z
 ---------------------------------------------------------------------
      1         11           0        1.508687   -1.566189    1.550788
      2         11           0        0.046927   -0.961415   -1.066301
      3         11           0        3.394121   -0.480731   -1.551630
      4         11           0       -1.344623   -0.100662    1.924074
      5         11           0        1.497777    2.133509    0.857369
      6         11           0       -3.582300   -1.063245   -0.811493
      7         11           0       -1.520588    2.038733   -0.902808
 ---------------------------------------------------------------------

 SCF Done:  E(UB3LYP) =  -1136.12668077     A.U. after   26 cycles

 The electronic state is 2-A.
 Alpha  occ. eigenvalues --  -38.44557 -38.44296 -38.44179 -38.43936 -38.43485
 Alpha  occ. eigenvalues --  -38.43424 -38.42629  -2.20357  -2.20211  -2.20084
 Alpha  occ. eigenvalues --   -2.19729  -2.19380  -2.19346  -2.18453  -1.14029
 Alpha  occ. eigenvalues --   -1.13997  -1.13971  -1.13955  -1.13854  -1.13803
 Alpha  occ. eigenvalues --   -1.13801  -1.13703  -1.13681  -1.13405  -1.13388
 Alpha  occ. eigenvalues --   -1.13362  -1.13123  -1.13086  -1.13018  -1.12997
 Alpha  occ. eigenvalues --   -1.12961  -1.12934  -1.12131  -1.12121  -1.12088
 Alpha  occ. eigenvalues --   -0.18566  -0.13455  -0.11997  -0.10928
 Alpha virt. eigenvalues --   -0.06119  -0.05023  -0.04590  -0.03256  -0.02769
 Alpha virt. eigenvalues --   -0.02540  -0.02077  -0.01131  -0.00680  -0.00048
 Alpha virt. eigenvalues --    0.00198   0.00367   0.00459   0.00669   0.00725

  Beta  occ. eigenvalues --  -38.44512 -38.44232 -38.44122 -38.43934 -38.43458
  Beta  occ. eigenvalues --  -38.43406 -38.42626  -2.20273  -2.20097  -2.19985
  Beta  occ. eigenvalues --   -2.19727  -2.19353  -2.19296  -2.18451  -1.13966
  Beta  occ. eigenvalues --   -1.13938  -1.13922  -1.13865  -1.13766  -1.13732
  Beta  occ. eigenvalues --   -1.13728  -1.13637  -1.13582  -1.13401  -1.13384
  Beta  occ. eigenvalues --   -1.13361  -1.13071  -1.13060  -1.12986  -1.12969
  Beta  occ. eigenvalues --   -1.12941  -1.12899  -1.12122  -1.12109  -1.12090
  Beta  occ. eigenvalues --   -0.17770  -0.13182  -0.10784
  Beta virt. eigenvalues --   -0.07987  -0.05864  -0.04688  -0.04260  -0.02878
  Beta virt. eigenvalues --   -0.02160  -0.02056  -0.01842  -0.00889  -0.00439
  Beta virt. eigenvalues --    0.00094   0.00241   0.00428   0.00557   0.00731

 Mulliken charges and spin densities:
               1          2
     1  Na   0.127910   0.056698
     2  Na  -0.665171   0.593147
     3  Na   0.156758   0.001360
     4  Na   0.284099   0.240068
     5  Na  -0.330998   0.138387
     6  Na   0.534284  -0.030676
     7  Na  -0.106882   0.001016
 Sum of Mulliken charges =  -0.00000   1.00000

 Dipole moment (field-independent basis, Debye):
    X=              0.0846    Y=             -0.0143    Z=              0.0107  Tot=              0.0865
 Quadrupole moment (field-independent basis, Debye-Ang):
   XX=            -51.9687   YY=            -76.8876   ZZ=            -64.5790
   XY=              0.6774   XZ=             -0.6271   YZ=             -3.9674

 Normal termination of Gaussian 16 at Tue Dec  5 13:36:03 2023.
