 Gaussian 16, Revision B.01,
 Gaussian 16:  ES64L-G16RevB.01 20-Dec-2017

 -------------------------
 #P B3LYP/6-311+g(d) force
 -------------------------

 -----
 DPGEN
 -----
 Symbolic Z-matrix:
 Charge =  0 Multiplicity = 2

                         Standard orientation:
 ---------------------------------------------------------------------
 Center     Atomic      Atomic             Coordinates (Angstroms)
 Number     Number       Type             X           Y           Z
 ---------------------------------------------------------------------
      1         11           0        1.628916    2.471674    0.951209
      2         11           0       -1.717367   -2.883456   -0.430266
      3         11           0        3.648055   -0.075809   -1.230454
      4         11           0        1.941608   -1.958820    1.124424
      5         11           0        0.094350   -0.071493   -0.189068
      6         11           0       -2.069604    2.737300   -0.522723
      7         11           0       -3.525957   -0.219396    0.296879
 ---------------------------------------------------------------------

 SCF Done:  E(UB3LYP) =  -1136.12098968     A.U. after   22 cycles

 The electronic state is 2-A.
 Alpha  occ. eigenvalues --  -38.44855 -38.44355 -38.44086 -38.44045 -38.43871
 Alpha  occ. eigenvalues --  -38.43219 -38.43130  -2.20698  -2.20169  -2.19903
 Alpha  occ. eigenvalues --   -2.19838  -2.19715  -2.19161  -2.19068  -1.14445
 Alpha  occ. eigenvalues --   -1.14354  -1.14295  -1.13855  -1.13829  -1.13774
 Alpha  occ. eigenvalues --   -1.13591  -1.13581  -1.13536  -1.13525  -1.13519
 Alpha  occ. eigenvalues --   -1.13469  -1.13379  -1.13358  -1.13337  -1.12888
 Alpha  occ. eigenvalues --   -1.12809  -1.12784  -1.12720  -1.12710  -1.12670
 Alpha  occ. eigenvalues --   -0.17655  -0.13940  -0.12543  -0.09567
 Alpha virt. eigenvalues --   -0.06553  -0.05796  -0.04927  -0.03154  -0.02325
 Alpha virt. eigenvalues --   -0.02206  -0.01802  -0.01521  -0.01060  -0.00883
 Alpha virt. eigenvalues --    0.00030   0.00195   0.00379   0.00564   0.00600

  Beta  occ. eigenvalues --  -38.44845 -38.44318 -38.44089 -38.44046 -38.43842
  Beta  occ. eigenvalues --  -38.43119 -38.43117  -2.20683  -2.20102  -2.19910
  Beta  occ. eigenvalues --   -2.19842  -2.19660  -2.19139  -2.18882  -1.14434
  Beta  occ. eigenvalues --   -1.14334  -1.14266  -1.13808  -1.13778  -1.13726
  Beta  occ. eigenvalues --   -1.13597  -1.13587  -1.13531  -1.13526  -1.13521
  Beta  occ. eigenvalues --   -1.13449  -1.13339  -1.13324  -1.13301  -1.12855
  Beta  occ. eigenvalues --   -1.12798  -1.12772  -1.12593  -1.12581  -1.12547
  Beta  occ. eigenvalues --   -0.17263  -0.13403  -0.12233
  Beta virt. eigenvalues --   -0.06432  -0.06036  -0.05548  -0.04818  -0.02647
  Beta virt. eigenvalues --   -0.02029  -0.01964  -0.01499  -0.01285  -0.00888
  Beta virt. eigenvalues --   -0.00484   0.00255   0.00421   0.00504   0.00642

 Mulliken charges and spin densities:
               1          2
     1  Na   0.785866   0.090891
     2  Na   0.267198  -0.017969
     3  Na   0.561755   0.531934
     4  Na   1.017469   0.061709
     5  Na  -3.044406   0.083051
     6  Na   0.175836   0.065603
     7  Na   0.236281   0.184783
 Sum of Mulliken charges =  -0.00000   1.00000

 Dipole moment (field-independent basis, Debye):
    X=             -0.5909    Y=             -0.1458    Z=              0.9939  Tot=              1.1654
 Quadrupole moment (field-independent basis, Debye-Ang):
   XX=            -70.3003   YY=            -59.5517   ZZ=            -69.4428
   XY=              2.7216   XZ=              5.3517   YZ=             -1.3720

 Normal termination of Gaussian 16 at Fri Dec  8 18:35:41 2023.
