 Gaussian 16, Revision B.01,
 Gaussian 16:  ES64L-G16RevB.01 20-Dec-2017

 -------------------------
 #P B3LYP/6-311+g(d) force
 -------------------------

 -----
 DPGEN
 -----
 Symbolic Z-matrix:
 Charge =  0 Multiplicity = 2

                         Standard orientation:
 ---------------------------------------------------------------------
 Center     Atomic      Atomic             Coordinates (Angstroms)
 Number     Number       Type             X           Y           Z
 ---------------------------------------------------------------------
      1         11           0       -0.022509   -0.142199   -1.588649
      2         11           0        0.542949    0.089747    2.129565
      3         11           0       -1.222462   -2.713946    0.132564
      4         11           0        2.587415   -2.173426   -0.305133
      5         11           0        2.441109    1.990583   -0.212571
      6         11           0       -0.884912    2.951007   -0.100778
      7         11           0       -3.441589   -0.001767   -0.054999
 ---------------------------------------------------------------------

 SCF Done:  E(UB3LYP) =  -1136.13589466     A.U. after   19 cycles

 The electronic state is 2-A.
 Alpha  occ. eigenvalues --  -38.44058 -38.44053 -38.43979 -38.43870 -38.43806
 Alpha  occ. eigenvalues --  -38.43577 -38.43255  -2.19878  -2.19833  -2.19759
 Alpha  occ. eigenvalues --   -2.19694  -2.19615  -2.19426  -2.19183  -1.13553
 Alpha  occ. eigenvalues --   -1.13547  -1.13515  -1.13508  -1.13483  -1.13480
 Alpha  occ. eigenvalues --   -1.13432  -1.13425  -1.13410  -1.13387  -1.13364
 Alpha  occ. eigenvalues --   -1.13303  -1.13295  -1.13282  -1.13245  -1.13086
 Alpha  occ. eigenvalues --   -1.13055  -1.13040  -1.12876  -1.12826  -1.12798
 Alpha  occ. eigenvalues --   -0.18025  -0.12785  -0.12400  -0.10419
 Alpha virt. eigenvalues --   -0.05675  -0.05529  -0.05060  -0.03043  -0.02803
 Alpha virt. eigenvalues --   -0.02440  -0.01617  -0.01422  -0.00734  -0.00615
 Alpha virt. eigenvalues --   -0.00035   0.00326   0.00746   0.00790   0.00824

  Beta  occ. eigenvalues --  -38.44053 -38.44047 -38.43981 -38.43866 -38.43803
  Beta  occ. eigenvalues --  -38.43476 -38.43199  -2.19872  -2.19826  -2.19764
  Beta  occ. eigenvalues --   -2.19688  -2.19612  -2.19240  -2.19081  -1.13547
  Beta  occ. eigenvalues --   -1.13520  -1.13514  -1.13487  -1.13479  -1.13476
  Beta  occ. eigenvalues --   -1.13429  -1.13425  -1.13414  -1.13381  -1.13342
  Beta  occ. eigenvalues --   -1.13304  -1.13287  -1.13266  -1.13246  -1.12961
  Beta  occ. eigenvalues --   -1.12925  -1.12909  -1.12802  -1.12753  -1.12722
  Beta  occ. eigenvalues --   -0.17326  -0.12592  -0.12209
  Beta virt. eigenvalues --   -0.06518  -0.05677  -0.05491  -0.04959  -0.02285
  Beta virt. eigenvalues --   -0.02121  -0.01535  -0.01399  -0.01343  -0.00770
  Beta virt. eigenvalues --   -0.00657   0.00134   0.00367   0.00781   0.00801

 Mulliken charges and spin densities:
               1          2
     1  Na  -0.018093   0.499691
     2  Na  -0.426155   0.776252
     3  Na   0.104990  -0.030634
     4  Na   0.110273  -0.070027
     5  Na   0.231087  -0.060550
     6  Na   0.034010  -0.056294
     7  Na  -0.036112  -0.058438
 Sum of Mulliken charges =  -0.00000   1.00000

 Dipole moment (field-independent basis, Debye):
    X=              0.1490    Y=              0.0140    Z=              0.0272  Tot=              0.1521
 Quadrupole moment (field-independent basis, Debye-Ang):
   XX=            -56.2923   YY=            -60.0313   ZZ=            -76.4310
   XY=             -0.6582   XZ=             -1.2970   YZ=             -0.5247

 Normal termination of Gaussian 16 at Thu Dec  7 04:00:09 2023.
