 Gaussian 16, Revision B.01,
 Gaussian 16:  ES64L-G16RevB.01 20-Dec-2017

 -------------------------
 #P B3LYP/6-311+g(d) force
 -------------------------

 -----
 DPGEN
 -----
 Symbolic Z-matrix:
 Charge =  0 Multiplicity = 2

                         Standard orientation:
 ---------------------------------------------------------------------
 Center     Atomic      Atomic             Coordinates (Angstroms)
 Number     Number       Type             X           Y           Z
 ---------------------------------------------------------------------
      1         11           0        0.699198    1.631232   -1.567119
      2         11           0        3.559550   -1.739135   -1.147062
      3         11           0        0.039844   -2.215983   -0.401774
      4         11           0        1.775309    2.520728    1.334187
      5         11           0       -3.381279   -1.427186    0.836205
      6         11           0        0.332296   -0.131305    2.535988
      7         11           0       -3.024918    1.361649   -1.590427
 ---------------------------------------------------------------------

 SCF Done:  E(UB3LYP) =  -1136.11451630     A.U. after   23 cycles

 The electronic state is 2-A.
 Alpha  occ. eigenvalues --  -38.45346 -38.44594 -38.44425 -38.44392 -38.44287
 Alpha  occ. eigenvalues --  -38.43654 -38.43612  -2.21164  -2.20349  -2.20177
 Alpha  occ. eigenvalues --   -2.20152  -2.20094  -2.19485  -2.19400  -1.14813
 Alpha  occ. eigenvalues --   -1.14804  -1.14787  -1.14024  -1.14004  -1.13975
 Alpha  occ. eigenvalues --   -1.13841  -1.13832  -1.13830  -1.13802  -1.13799
 Alpha  occ. eigenvalues --   -1.13792  -1.13765  -1.13765  -1.13720  -1.13162
 Alpha  occ. eigenvalues --   -1.13138  -1.13126  -1.13105  -1.13097  -1.13001
 Alpha  occ. eigenvalues --   -0.16950  -0.12758  -0.11977  -0.11805
 Alpha virt. eigenvalues --   -0.06201  -0.05930  -0.04484  -0.03422  -0.03120
 Alpha virt. eigenvalues --   -0.02970  -0.02017  -0.01357  -0.00818  -0.00396
 Alpha virt. eigenvalues --    0.00006   0.00126   0.00215   0.00226   0.00641

  Beta  occ. eigenvalues --  -38.45255 -38.44564 -38.44389 -38.44387 -38.44254
  Beta  occ. eigenvalues --  -38.43646 -38.43615  -2.20997  -2.20294  -2.20144
  Beta  occ. eigenvalues --   -2.20110  -2.20032  -2.19472  -2.19410  -1.14705
  Beta  occ. eigenvalues --   -1.14694  -1.14656  -1.13985  -1.13964  -1.13938
  Beta  occ. eigenvalues --   -1.13826  -1.13794  -1.13793  -1.13785  -1.13784
  Beta  occ. eigenvalues --   -1.13755  -1.13727  -1.13724  -1.13669  -1.13142
  Beta  occ. eigenvalues --   -1.13124  -1.13119  -1.13113  -1.13096  -1.12997
  Beta  occ. eigenvalues --   -0.16252  -0.12587  -0.11404
  Beta virt. eigenvalues --   -0.08388  -0.05896  -0.05459  -0.03965  -0.03184
  Beta virt. eigenvalues --   -0.02805  -0.02390  -0.01841  -0.01115  -0.00604
  Beta virt. eigenvalues --   -0.00263   0.00095   0.00242   0.00296   0.00399

 Mulliken charges and spin densities:
               1          2
     1  Na   0.059560   0.381614
     2  Na   0.005555   0.062114
     3  Na  -0.453471   0.057143
     4  Na   0.142023  -0.019979
     5  Na   0.398644   0.043459
     6  Na   0.013256   0.383379
     7  Na  -0.165566   0.092271
 Sum of Mulliken charges =  -0.00000   1.00000

 Dipole moment (field-independent basis, Debye):
    X=             -0.0660    Y=              0.1808    Z=              0.5123  Tot=              0.5473
 Quadrupole moment (field-independent basis, Debye-Ang):
   XX=            -57.5390   YY=            -74.0472   ZZ=            -66.0294
   XY=              2.2190   XZ=             -1.3647   YZ=             -1.8526

 Normal termination of Gaussian 16 at Sun Dec  3 11:47:46 2023.
