 Gaussian 16, Revision B.01,
 Gaussian 16:  ES64L-G16RevB.01 20-Dec-2017

 -------------------------
 #P B3LYP/6-311+g(d) force
 -------------------------

 -----
 DPGEN
 -----
 Symbolic Z-matrix:
 Charge =  0 Multiplicity = 2

                         Standard orientation:
 ---------------------------------------------------------------------
 Center     Atomic      Atomic             Coordinates (Angstroms)
 Number     Number       Type             X           Y           Z
 ---------------------------------------------------------------------
      1         11           0        1.185472   -0.975594    1.684457
      2         11           0       -1.950435   -2.182876    0.342231
      3         11           0       -2.916182    0.544716   -1.165135
      4         11           0        0.110038   -0.463033   -1.243837
      5         11           0       -1.321179    1.636519    1.331126
      6         11           0        3.315240   -0.903703   -0.768172
      7         11           0        1.577046    2.343971   -0.180670
 ---------------------------------------------------------------------

 SCF Done:  E(UB3LYP) =  -1136.12888436     A.U. after   22 cycles

 The electronic state is 2-A.
 Alpha  occ. eigenvalues --  -38.44314 -38.44216 -38.43543 -38.43422 -38.43340
 Alpha  occ. eigenvalues --  -38.43197 -38.43021  -2.20167  -2.20126  -2.19476
 Alpha  occ. eigenvalues --   -2.19304  -2.19267  -2.19187  -2.18931  -1.13844
 Alpha  occ. eigenvalues --   -1.13832  -1.13810  -1.13794  -1.13789  -1.13738
 Alpha  occ. eigenvalues --   -1.13211  -1.13111  -1.13086  -1.13059  -1.12962
 Alpha  occ. eigenvalues --   -1.12944  -1.12937  -1.12909  -1.12886  -1.12858
 Alpha  occ. eigenvalues --   -1.12836  -1.12807  -1.12600  -1.12596  -1.12546
 Alpha  occ. eigenvalues --   -0.19024  -0.13901  -0.11554  -0.11153
 Alpha virt. eigenvalues --   -0.06019  -0.05027  -0.04353  -0.03291  -0.02662
 Alpha virt. eigenvalues --   -0.02430  -0.01951  -0.00890  -0.00546   0.00085
 Alpha virt. eigenvalues --    0.00302   0.00384   0.00499   0.00759   0.00849

  Beta  occ. eigenvalues --  -38.44295 -38.44184 -38.43481 -38.43414 -38.43337
  Beta  occ. eigenvalues --  -38.43161 -38.42991  -2.20134  -2.20067  -2.19363
  Beta  occ. eigenvalues --   -2.19293  -2.19205  -2.19184  -2.18877  -1.13814
  Beta  occ. eigenvalues --   -1.13810  -1.13770  -1.13765  -1.13746  -1.13700
  Beta  occ. eigenvalues --   -1.13141  -1.13048  -1.13014  -1.12998  -1.12942
  Beta  occ. eigenvalues --   -1.12919  -1.12902  -1.12866  -1.12846  -1.12837
  Beta  occ. eigenvalues --   -1.12816  -1.12797  -1.12565  -1.12544  -1.12504
  Beta  occ. eigenvalues --   -0.18288  -0.13622  -0.11347
  Beta virt. eigenvalues --   -0.07242  -0.05889  -0.04978  -0.03704  -0.03164
  Beta virt. eigenvalues --   -0.02034  -0.01803  -0.01466  -0.00857  -0.00188
  Beta virt. eigenvalues --    0.00120   0.00340   0.00384   0.00603   0.00842

 Mulliken charges and spin densities:
               1          2
     1  Na  -0.227039   0.345729
     2  Na  -0.023044   0.188340
     3  Na   0.460153  -0.004622
     4  Na  -0.722840   0.165660
     5  Na   0.039322   0.194225
     6  Na   0.831687   0.132327
     7  Na  -0.358239  -0.021660
 Sum of Mulliken charges =  -0.00000   1.00000

 Dipole moment (field-independent basis, Debye):
    X=              0.2825    Y=             -0.0801    Z=             -0.0306  Tot=              0.2952
 Quadrupole moment (field-independent basis, Debye-Ang):
   XX=            -51.6798   YY=            -71.8844   ZZ=            -69.0844
   XY=             -0.2153   XZ=             -0.6978   YZ=             -1.6475

 Normal termination of Gaussian 16 at Tue Dec  5 13:13:53 2023.
