 Gaussian 16, Revision B.01,
 Gaussian 16:  ES64L-G16RevB.01 20-Dec-2017

 -------------------------
 #P B3LYP/6-311+g(d) force
 -------------------------

 -----
 DPGEN
 -----
 Symbolic Z-matrix:
 Charge =  0 Multiplicity = 2

                         Standard orientation:
 ---------------------------------------------------------------------
 Center     Atomic      Atomic             Coordinates (Angstroms)
 Number     Number       Type             X           Y           Z
 ---------------------------------------------------------------------
      1         11           0        2.176708    1.903311   -0.043924
      2         11           0       -0.481988   -2.539388   -0.409023
      3         11           0       -3.041284   -0.940272    0.193419
      4         11           0       -0.228591    0.365346   -1.612416
      5         11           0       -1.888956    2.454218   -0.076459
      6         11           0        3.108750   -1.113292   -0.261020
      7         11           0        0.355361   -0.129923    2.209424
 ---------------------------------------------------------------------

 SCF Done:  E(UB3LYP) =  -1136.13156608     A.U. after   19 cycles

 The electronic state is 2-A.
 Alpha  occ. eigenvalues --  -38.44330 -38.44314 -38.44002 -38.43830 -38.43373
 Alpha  occ. eigenvalues --  -38.43300 -38.42907  -2.20167  -2.20153  -2.19856
 Alpha  occ. eigenvalues --   -2.19704  -2.19300  -2.19209  -2.18811  -1.13861
 Alpha  occ. eigenvalues --   -1.13845  -1.13823  -1.13811  -1.13803  -1.13792
 Alpha  occ. eigenvalues --   -1.13517  -1.13489  -1.13472  -1.13399  -1.13361
 Alpha  occ. eigenvalues --   -1.13325  -1.13042  -1.12986  -1.12932  -1.12860
 Alpha  occ. eigenvalues --   -1.12837  -1.12825  -1.12505  -1.12461  -1.12435
 Alpha  occ. eigenvalues --   -0.18681  -0.13469  -0.12001  -0.10933
 Alpha virt. eigenvalues --   -0.05985  -0.05401  -0.04047  -0.03515  -0.02844
 Alpha virt. eigenvalues --   -0.02642  -0.01789  -0.01145  -0.00293  -0.00127
 Alpha virt. eigenvalues --   -0.00050   0.00338   0.00718   0.00852   0.00902

  Beta  occ. eigenvalues --  -38.44327 -38.44314 -38.43900 -38.43823 -38.43373
  Beta  occ. eigenvalues --  -38.43241 -38.42896  -2.20168  -2.20150  -2.19695
  Beta  occ. eigenvalues --   -2.19667  -2.19212  -2.19192  -2.18794  -1.13864
  Beta  occ. eigenvalues --   -1.13846  -1.13808  -1.13803  -1.13792  -1.13788
  Beta  occ. eigenvalues --   -1.13405  -1.13380  -1.13358  -1.13341  -1.13324
  Beta  occ. eigenvalues --   -1.13317  -1.12998  -1.12916  -1.12864  -1.12847
  Beta  occ. eigenvalues --   -1.12833  -1.12785  -1.12491  -1.12434  -1.12417
  Beta  occ. eigenvalues --   -0.17944  -0.13274  -0.11781
  Beta virt. eigenvalues --   -0.06973  -0.05876  -0.05406  -0.04036  -0.02718
  Beta virt. eigenvalues --   -0.02009  -0.01681  -0.01646  -0.01088  -0.00330
  Beta virt. eigenvalues --   -0.00146   0.00111   0.00368   0.00798   0.00849

 Mulliken charges and spin densities:
               1          2
     1  Na   0.294154   0.002676
     2  Na   0.195053   0.011188
     3  Na   0.074906   0.038262
     4  Na  -0.225325   0.290824
     5  Na   0.181505  -0.023176
     6  Na   0.123626  -0.021095
     7  Na  -0.643919   0.701321
 Sum of Mulliken charges =  -0.00000   1.00000

 Dipole moment (field-independent basis, Debye):
    X=              0.1593    Y=             -0.0056    Z=              0.3090  Tot=              0.3477
 Quadrupole moment (field-independent basis, Debye-Ang):
   XX=            -53.2716   YY=            -67.4477   ZZ=            -73.4912
   XY=             -0.8076   XZ=             -1.7902   YZ=              1.0922

 Normal termination of Gaussian 16 at Thu Dec  7 22:55:45 2023.
