 Gaussian 16, Revision B.01,
 Gaussian 16:  ES64L-G16RevB.01 20-Dec-2017

 -------------------------
 #P B3LYP/6-311+g(d) force
 -------------------------

 -----
 DPGEN
 -----
 Symbolic Z-matrix:
 Charge =  0 Multiplicity = 2

                         Standard orientation:
 ---------------------------------------------------------------------
 Center     Atomic      Atomic             Coordinates (Angstroms)
 Number     Number       Type             X           Y           Z
 ---------------------------------------------------------------------
      1         11           0        0.370628   -0.485925    2.191515
      2         11           0        1.431157    2.216952   -0.095048
      3         11           0        3.558069   -0.194687   -0.154074
      4         11           0        0.994181   -2.283275   -0.591305
      5         11           0       -0.453874    0.011507   -1.391142
      6         11           0       -3.694877   -1.072133    0.055864
      7         11           0       -2.205285    1.807561   -0.015810
 ---------------------------------------------------------------------

 SCF Done:  E(UB3LYP) =  -1136.11405805     A.U. after   25 cycles

 The electronic state is 2-A.
 Alpha  occ. eigenvalues --  -38.45619 -38.45439 -38.43841 -38.43836 -38.43714
 Alpha  occ. eigenvalues --  -38.43058 -38.42551  -2.21440  -2.21210  -2.19910
 Alpha  occ. eigenvalues --   -2.19700  -2.19623  -2.18984  -2.18445  -1.15113
 Alpha  occ. eigenvalues --   -1.15099  -1.15075  -1.14892  -1.14875  -1.14843
 Alpha  occ. eigenvalues --   -1.13781  -1.13609  -1.13490  -1.13366  -1.13323
 Alpha  occ. eigenvalues --   -1.13311  -1.13284  -1.13260  -1.13212  -1.12701
 Alpha  occ. eigenvalues --   -1.12609  -1.12573  -1.12143  -1.12095  -1.12084
 Alpha  occ. eigenvalues --   -0.18783  -0.13933  -0.11448  -0.10736
 Alpha virt. eigenvalues --   -0.07363  -0.05046  -0.03619  -0.03385  -0.02880
 Alpha virt. eigenvalues --   -0.02561  -0.02260  -0.01337  -0.00272  -0.00213
 Alpha virt. eigenvalues --    0.00027   0.00156   0.00560   0.00730   0.00808

  Beta  occ. eigenvalues --  -38.45614 -38.45452 -38.43789 -38.43727 -38.43710
  Beta  occ. eigenvalues --  -38.43031 -38.42544  -2.21433  -2.21236  -2.19818
  Beta  occ. eigenvalues --   -2.19618  -2.19499  -2.18942  -2.18435  -1.15110
  Beta  occ. eigenvalues --   -1.15077  -1.15072  -1.14910  -1.14884  -1.14861
  Beta  occ. eigenvalues --   -1.13718  -1.13543  -1.13429  -1.13256  -1.13241
  Beta  occ. eigenvalues --   -1.13231  -1.13219  -1.13179  -1.13170  -1.12668
  Beta  occ. eigenvalues --   -1.12557  -1.12540  -1.12137  -1.12083  -1.12061
  Beta  occ. eigenvalues --   -0.18054  -0.13794  -0.11200
  Beta virt. eigenvalues --   -0.07262  -0.06718  -0.05066  -0.03446  -0.02905
  Beta virt. eigenvalues --   -0.02654  -0.01665  -0.01404  -0.01220  -0.00254
  Beta virt. eigenvalues --   -0.00017   0.00034   0.00174   0.00699   0.00768

 Mulliken charges and spin densities:
               1          2
     1  Na  -0.755668   0.688161
     2  Na   0.015635   0.116468
     3  Na   0.220366   0.022734
     4  Na   0.401278   0.151631
     5  Na  -0.258034  -0.046591
     6  Na   0.183545  -0.049692
     7  Na   0.192878   0.117289
 Sum of Mulliken charges =  -0.00000   1.00000

 Dipole moment (field-independent basis, Debye):
    X=             -0.2696    Y=             -0.3744    Z=              0.4498  Tot=              0.6443
 Quadrupole moment (field-independent basis, Debye-Ang):
   XX=            -42.7228   YY=            -73.3428   ZZ=            -74.9656
   XY=              1.6244   XZ=             -1.3322   YZ=              0.5532

 Normal termination of Gaussian 16 at Thu Dec  7 16:34:39 2023.
