 Gaussian 16, Revision B.01,
 Gaussian 16:  ES64L-G16RevB.01 20-Dec-2017

 -------------------------
 #P B3LYP/6-311+g(d) force
 -------------------------

 -----
 DPGEN
 -----
 Symbolic Z-matrix:
 Charge =  0 Multiplicity = 2

                         Standard orientation:
 ---------------------------------------------------------------------
 Center     Atomic      Atomic             Coordinates (Angstroms)
 Number     Number       Type             X           Y           Z
 ---------------------------------------------------------------------
      1         11           0        1.152337    1.313943   -1.280481
      2         11           0       -1.443429    3.293383    0.352080
      3         11           0        3.815201   -0.547148    0.376282
      4         11           0        0.695873   -1.889684   -0.703412
      5         11           0       -0.007978    0.366301    2.087576
      6         11           0       -1.672631    0.234416   -1.221326
      7         11           0       -2.539372   -2.771211    0.389281
 ---------------------------------------------------------------------

 SCF Done:  E(UB3LYP) =  -1136.13193063     A.U. after   19 cycles

 The electronic state is 2-A.
 Alpha  occ. eigenvalues --  -38.44407 -38.43959 -38.43740 -38.43657 -38.43497
 Alpha  occ. eigenvalues --  -38.43288 -38.43221  -2.20239  -2.19738  -2.19549
 Alpha  occ. eigenvalues --   -2.19449  -2.19443  -2.19213  -2.19197  -1.13916
 Alpha  occ. eigenvalues --   -1.13866  -1.13851  -1.13416  -1.13401  -1.13368
 Alpha  occ. eigenvalues --   -1.13251  -1.13227  -1.13207  -1.13187  -1.13126
 Alpha  occ. eigenvalues --   -1.13108  -1.13091  -1.13085  -1.13034  -1.12977
 Alpha  occ. eigenvalues --   -1.12894  -1.12878  -1.12841  -1.12787  -1.12742
 Alpha  occ. eigenvalues --   -0.18459  -0.12601  -0.12372  -0.11041
 Alpha virt. eigenvalues --   -0.06092  -0.04731  -0.04537  -0.03118  -0.02889
 Alpha virt. eigenvalues --   -0.02768  -0.01694  -0.01490  -0.00546  -0.00148
 Alpha virt. eigenvalues --    0.00185   0.00376   0.00729   0.00781   0.00830

  Beta  occ. eigenvalues --  -38.44319 -38.43959 -38.43738 -38.43657 -38.43451
  Beta  occ. eigenvalues --  -38.43270 -38.43179  -2.20075  -2.19740  -2.19548
  Beta  occ. eigenvalues --   -2.19449  -2.19362  -2.19184  -2.19126  -1.13807
  Beta  occ. eigenvalues --   -1.13749  -1.13732  -1.13418  -1.13394  -1.13370
  Beta  occ. eigenvalues --   -1.13228  -1.13195  -1.13187  -1.13178  -1.13126
  Beta  occ. eigenvalues --   -1.13101  -1.13086  -1.13014  -1.12985  -1.12941
  Beta  occ. eigenvalues --   -1.12852  -1.12828  -1.12770  -1.12760  -1.12705
  Beta  occ. eigenvalues --   -0.17634  -0.12451  -0.12257
  Beta virt. eigenvalues --   -0.07001  -0.05880  -0.04670  -0.04461  -0.02495
  Beta virt. eigenvalues --   -0.02371  -0.01748  -0.01589  -0.01387  -0.00220
  Beta virt. eigenvalues --   -0.00198   0.00216   0.00478   0.00774   0.00796

 Mulliken charges and spin densities:
               1          2
     1  Na   0.001847   0.117605
     2  Na   0.022531  -0.154554
     3  Na   0.268398  -0.060942
     4  Na  -0.091820   0.128460
     5  Na  -0.600502   0.815400
     6  Na   0.178466   0.276173
     7  Na   0.221080  -0.122142
 Sum of Mulliken charges =  -0.00000   1.00000

 Dipole moment (field-independent basis, Debye):
    X=              0.0760    Y=              0.2482    Z=              0.5032  Tot=              0.5662
 Quadrupole moment (field-independent basis, Debye-Ang):
   XX=            -58.0328   YY=            -61.6655   ZZ=            -71.8176
   XY=             -0.3777   XZ=             -0.0649   YZ=             -0.9758

 Normal termination of Gaussian 16 at Fri Dec  8 07:47:53 2023.
