 Gaussian 16, Revision B.01,
 Gaussian 16:  ES64L-G16RevB.01 20-Dec-2017

 -------------------------
 #P B3LYP/6-311+g(d) force
 -------------------------

 -----
 DPGEN
 -----
 Symbolic Z-matrix:
 Charge =  0 Multiplicity = 2

                         Standard orientation:
 ---------------------------------------------------------------------
 Center     Atomic      Atomic             Coordinates (Angstroms)
 Number     Number       Type             X           Y           Z
 ---------------------------------------------------------------------
      1         11           0        3.330125   -1.482058   -0.386007
      2         11           0       -1.270917    2.720398   -0.043310
      3         11           0       -0.191318   -0.429324    2.111956
      4         11           0       -3.164365   -0.095596   -0.390753
      5         11           0       -1.142565   -2.723223    0.026600
      6         11           0        0.047393   -0.038395   -1.527874
      7         11           0        2.391647    2.048197    0.209388
 ---------------------------------------------------------------------

 SCF Done:  E(UB3LYP) =  -1136.13278917     A.U. after   20 cycles

 The electronic state is 2-A.
 Alpha  occ. eigenvalues --  -38.44521 -38.44171 -38.44163 -38.43662 -38.43448
 Alpha  occ. eigenvalues --  -38.43412 -38.43071  -2.20275  -2.20033  -2.19953
 Alpha  occ. eigenvalues --   -2.19535  -2.19391  -2.19287  -2.18908  -1.13950
 Alpha  occ. eigenvalues --   -1.13926  -1.13913  -1.13710  -1.13691  -1.13674
 Alpha  occ. eigenvalues --   -1.13636  -1.13621  -1.13578  -1.13215  -1.13165
 Alpha  occ. eigenvalues --   -1.13153  -1.13096  -1.13060  -1.13007  -1.12947
 Alpha  occ. eigenvalues --   -1.12939  -1.12914  -1.12586  -1.12573  -1.12546
 Alpha  occ. eigenvalues --   -0.18287  -0.13136  -0.12124  -0.10582
 Alpha virt. eigenvalues --   -0.06094  -0.05502  -0.04490  -0.03149  -0.02774
 Alpha virt. eigenvalues --   -0.02429  -0.01925  -0.01281  -0.00615  -0.00431
 Alpha virt. eigenvalues --   -0.00056   0.00286   0.00687   0.00788   0.00834

  Beta  occ. eigenvalues --  -38.44513 -38.44161 -38.44157 -38.43560 -38.43405
  Beta  occ. eigenvalues --  -38.43400 -38.43069  -2.20261  -2.20012  -2.19951
  Beta  occ. eigenvalues --   -2.19346  -2.19306  -2.19278  -2.18908  -1.13932
  Beta  occ. eigenvalues --   -1.13918  -1.13905  -1.13690  -1.13672  -1.13652
  Beta  occ. eigenvalues --   -1.13628  -1.13616  -1.13576  -1.13103  -1.13036
  Beta  occ. eigenvalues --   -1.13031  -1.13025  -1.13000  -1.12940  -1.12925
  Beta  occ. eigenvalues --   -1.12913  -1.12894  -1.12584  -1.12568  -1.12535
  Beta  occ. eigenvalues --   -0.17592  -0.12915  -0.11878
  Beta virt. eigenvalues --   -0.06754  -0.05966  -0.05441  -0.04442  -0.02478
  Beta virt. eigenvalues --   -0.02042  -0.01794  -0.01423  -0.01219  -0.00631
  Beta virt. eigenvalues --   -0.00454   0.00111   0.00338   0.00752   0.00814

 Mulliken charges and spin densities:
               1          2
     1  Na   0.023487  -0.018141
     2  Na  -0.053640  -0.006764
     3  Na  -0.451038   0.641192
     4  Na   0.333950   0.087704
     5  Na   0.323320  -0.005836
     6  Na  -0.179173   0.305530
     7  Na   0.003095  -0.003686
 Sum of Mulliken charges =  -0.00000   1.00000

 Dipole moment (field-independent basis, Debye):
    X=              0.2836    Y=             -0.1663    Z=              0.1071  Tot=              0.3458
 Quadrupole moment (field-independent basis, Debye-Ang):
   XX=            -54.3011   YY=            -63.7036   ZZ=            -75.2191
   XY=              0.0484   XZ=              0.7538   YZ=              1.4044

 Normal termination of Gaussian 16 at Thu Dec  7 09:11:06 2023.
