 Gaussian 16, Revision B.01,
 Gaussian 16:  ES64L-G16RevB.01 20-Dec-2017

 -------------------------
 #P B3LYP/6-311+g(d) force
 -------------------------

 -----
 DPGEN
 -----
 Symbolic Z-matrix:
 Charge =  0 Multiplicity = 2

                         Standard orientation:
 ---------------------------------------------------------------------
 Center     Atomic      Atomic             Coordinates (Angstroms)
 Number     Number       Type             X           Y           Z
 ---------------------------------------------------------------------
      1         11           0       -3.559308   -1.668510   -1.161162
      2         11           0       -0.814734    0.119854    2.187162
      3         11           0        0.671056    2.873530    0.340038
      4         11           0        3.389532   -1.631479    0.559421
      5         11           0       -2.811581    1.548404   -0.232021
      6         11           0        0.257994   -2.174859    0.104454
      7         11           0        2.867042    0.933060   -1.797892
 ---------------------------------------------------------------------

 SCF Done:  E(UB3LYP) =  -1136.12095647     A.U. after   20 cycles

 The electronic state is 2-A.
 Alpha  occ. eigenvalues --  -38.44615 -38.44562 -38.44530 -38.44354 -38.44161
 Alpha  occ. eigenvalues --  -38.43691 -38.43292  -2.20419  -2.20385  -2.20359
 Alpha  occ. eigenvalues --   -2.20141  -2.19953  -2.19523  -2.19074  -1.14117
 Alpha  occ. eigenvalues --   -1.14097  -1.14061  -1.14042  -1.14040  -1.14021
 Alpha  occ. eigenvalues --   -1.14012  -1.14006  -1.13987  -1.13808  -1.13783
 Alpha  occ. eigenvalues --   -1.13761  -1.13611  -1.13600  -1.13570  -1.13223
 Alpha  occ. eigenvalues --   -1.13188  -1.13138  -1.12761  -1.12751  -1.12706
 Alpha  occ. eigenvalues --   -0.17086  -0.13706  -0.11907  -0.11063
 Alpha virt. eigenvalues --   -0.06348  -0.05330  -0.04945  -0.03451  -0.03202
 Alpha virt. eigenvalues --   -0.02472  -0.01903  -0.01175  -0.00785  -0.00430
 Alpha virt. eigenvalues --   -0.00219   0.00127   0.00245   0.00273   0.00687

  Beta  occ. eigenvalues --  -38.44604 -38.44566 -38.44452 -38.44301 -38.44101
  Beta  occ. eigenvalues --  -38.43677 -38.43295  -2.20401  -2.20369  -2.20241
  Beta  occ. eigenvalues --   -2.20043  -2.19842  -2.19501  -2.19084  -1.14101
  Beta  occ. eigenvalues --   -1.14087  -1.14047  -1.14025  -1.14006  -1.14000
  Beta  occ. eigenvalues --   -1.13963  -1.13922  -1.13884  -1.13741  -1.13719
  Beta  occ. eigenvalues --   -1.13694  -1.13534  -1.13518  -1.13501  -1.13193
  Beta  occ. eigenvalues --   -1.13164  -1.13132  -1.12764  -1.12760  -1.12699
  Beta  occ. eigenvalues --   -0.16485  -0.13161  -0.11643
  Beta virt. eigenvalues --   -0.07636  -0.06216  -0.04922  -0.04569  -0.03216
  Beta virt. eigenvalues --   -0.02582  -0.02101  -0.01643  -0.01031  -0.00634
  Beta virt. eigenvalues --   -0.00171  -0.00134   0.00284   0.00373   0.00458

 Mulliken charges and spin densities:
               1          2
     1  Na   0.266912   0.235579
     2  Na   0.467847   0.119228
     3  Na  -0.299984  -0.026162
     4  Na   0.214979  -0.021978
     5  Na  -0.107542   0.176236
     6  Na  -0.628607   0.229281
     7  Na   0.086395   0.287814
 Sum of Mulliken charges =  -0.00000   1.00000

 Dipole moment (field-independent basis, Debye):
    X=              0.2219    Y=             -0.1858    Z=              0.2403  Tot=              0.3762
 Quadrupole moment (field-independent basis, Debye-Ang):
   XX=            -60.6172   YY=            -70.9662   ZZ=            -67.1302
   XY=             -2.8279   XZ=              1.5134   YZ=              0.1704

 Normal termination of Gaussian 16 at Sun Dec  3 15:20:20 2023.
