 Gaussian 16, Revision B.01,
 Gaussian 16:  ES64L-G16RevB.01 20-Dec-2017

 -------------------------
 #P B3LYP/6-311+g(d) force
 -------------------------

 -----
 DPGEN
 -----
 Symbolic Z-matrix:
 Charge =  0 Multiplicity = 2

                         Standard orientation:
 ---------------------------------------------------------------------
 Center     Atomic      Atomic             Coordinates (Angstroms)
 Number     Number       Type             X           Y           Z
 ---------------------------------------------------------------------
      1         11           0        3.497062    0.803842    0.259669
      2         11           0       -0.317167    3.115089   -0.349152
      3         11           0       -3.284765    0.752609    0.551970
      4         11           0       -0.240937    0.464712   -1.757987
      5         11           0        1.853228   -2.267084   -0.475121
      6         11           0        0.394989   -0.215845    2.010823
      7         11           0       -1.902410   -2.653323   -0.240202
 ---------------------------------------------------------------------

 SCF Done:  E(UB3LYP) =  -1136.12989677     A.U. after   21 cycles

 The electronic state is 2-A.
 Alpha  occ. eigenvalues --  -38.44619 -38.44610 -38.44217 -38.43715 -38.43592
 Alpha  occ. eigenvalues --  -38.43504 -38.43449  -2.20385  -2.20379  -2.20044
 Alpha  occ. eigenvalues --   -2.19540  -2.19372  -2.19357  -2.19327  -1.14061
 Alpha  occ. eigenvalues --   -1.14056  -1.14036  -1.14030  -1.14028  -1.14011
 Alpha  occ. eigenvalues --   -1.13721  -1.13692  -1.13651  -1.13223  -1.13216
 Alpha  occ. eigenvalues --   -1.13173  -1.13157  -1.13051  -1.13031  -1.13018
 Alpha  occ. eigenvalues --   -1.13015  -1.12977  -1.12967  -1.12937  -1.12907
 Alpha  occ. eigenvalues --   -0.17752  -0.12902  -0.12093  -0.10575
 Alpha virt. eigenvalues --   -0.06227  -0.05283  -0.04782  -0.03297  -0.02825
 Alpha virt. eigenvalues --   -0.02502  -0.01969  -0.01241  -0.00745  -0.00521
 Alpha virt. eigenvalues --   -0.00083   0.00307   0.00686   0.00707   0.00761

  Beta  occ. eigenvalues --  -38.44617 -38.44594 -38.44144 -38.43702 -38.43592
  Beta  occ. eigenvalues --  -38.43496 -38.43381  -2.20382  -2.20349  -2.19910
  Beta  occ. eigenvalues --   -2.19519  -2.19374  -2.19319  -2.19230  -1.14050
  Beta  occ. eigenvalues --   -1.14031  -1.14028  -1.14026  -1.14011  -1.13992
  Beta  occ. eigenvalues --   -1.13629  -1.13600  -1.13550  -1.13206  -1.13191
  Beta  occ. eigenvalues --   -1.13139  -1.13124  -1.13047  -1.13032  -1.13009
  Beta  occ. eigenvalues --   -1.12962  -1.12942  -1.12923  -1.12881  -1.12842
  Beta  occ. eigenvalues --   -0.17070  -0.12695  -0.11837
  Beta virt. eigenvalues --   -0.06885  -0.06022  -0.05255  -0.04653  -0.02646
  Beta virt. eigenvalues --   -0.02167  -0.01807  -0.01566  -0.01162  -0.00736
  Beta virt. eigenvalues --   -0.00533   0.00063   0.00348   0.00761   0.00778

 Mulliken charges and spin densities:
               1          2
     1  Na   0.092136  -0.035980
     2  Na   0.055345  -0.091266
     3  Na  -0.033664   0.100459
     4  Na   0.138279   0.444115
     5  Na   0.055923  -0.016265
     6  Na  -0.240574   0.665745
     7  Na  -0.067444  -0.066808
 Sum of Mulliken charges =  -0.00000   1.00000

 Dipole moment (field-independent basis, Debye):
    X=              0.1969    Y=              0.1786    Z=              0.2596  Tot=              0.3716
 Quadrupole moment (field-independent basis, Debye-Ang):
   XX=            -54.3203   YY=            -64.3926   ZZ=            -74.8089
   XY=              0.7871   XZ=             -1.5563   YZ=              2.0967

 Normal termination of Gaussian 16 at Wed Dec  6 01:04:08 2023.
