 Gaussian 16, Revision B.01,
 Gaussian 16:  ES64L-G16RevB.01 20-Dec-2017

 -------------------------
 #P B3LYP/6-311+g(d) force
 -------------------------

 -----
 DPGEN
 -----
 Symbolic Z-matrix:
 Charge =  0 Multiplicity = 2

                         Standard orientation:
 ---------------------------------------------------------------------
 Center     Atomic      Atomic             Coordinates (Angstroms)
 Number     Number       Type             X           Y           Z
 ---------------------------------------------------------------------
      1         11           0        2.084983    2.062672   -0.082228
      2         11           0       -0.724284    0.705965    1.399239
      3         11           0       -1.927459   -2.971882   -0.077790
      4         11           0        1.533568   -1.381817   -0.653504
      5         11           0        4.873252   -1.013768    0.153997
      6         11           0       -4.557922   -0.266812   -0.103263
      7         11           0       -1.282138    2.865642   -0.636451
 ---------------------------------------------------------------------

 SCF Done:  E(UB3LYP) =  -1136.12021506     A.U. after   20 cycles

 The electronic state is 2-A.
 Alpha  occ. eigenvalues --  -38.44966 -38.44767 -38.44466 -38.43965 -38.43812
 Alpha  occ. eigenvalues --  -38.43792 -38.43576  -2.20835  -2.20590  -2.20297
 Alpha  occ. eigenvalues --   -2.19740  -2.19588  -2.19572  -2.19407  -1.14571
 Alpha  occ. eigenvalues --   -1.14509  -1.14441  -1.14300  -1.14279  -1.14169
 Alpha  occ. eigenvalues --   -1.13981  -1.13959  -1.13900  -1.13402  -1.13377
 Alpha  occ. eigenvalues --   -1.13356  -1.13258  -1.13244  -1.13241  -1.13223
 Alpha  occ. eigenvalues --   -1.13211  -1.13200  -1.13103  -1.13101  -1.13003
 Alpha  occ. eigenvalues --   -0.17196  -0.13434  -0.12491  -0.10281
 Alpha virt. eigenvalues --   -0.06157  -0.05956  -0.05202  -0.03321  -0.02598
 Alpha virt. eigenvalues --   -0.02394  -0.02074  -0.01475  -0.00911  -0.00815
 Alpha virt. eigenvalues --   -0.00427  -0.00269   0.00426   0.00538   0.00567

  Beta  occ. eigenvalues --  -38.44953 -38.44768 -38.44469 -38.43885 -38.43800
  Beta  occ. eigenvalues --  -38.43724 -38.43560  -2.20814  -2.20592  -2.20303
  Beta  occ. eigenvalues --   -2.19591  -2.19554  -2.19461  -2.19381  -1.14560
  Beta  occ. eigenvalues --   -1.14476  -1.14429  -1.14303  -1.14276  -1.14168
  Beta  occ. eigenvalues --   -1.13987  -1.13963  -1.13892  -1.13301  -1.13273
  Beta  occ. eigenvalues --   -1.13261  -1.13249  -1.13208  -1.13181  -1.13159
  Beta  occ. eigenvalues --   -1.13153  -1.13121  -1.13088  -1.13081  -1.12955
  Beta  occ. eigenvalues --   -0.16834  -0.12807  -0.12158
  Beta virt. eigenvalues --   -0.06921  -0.06079  -0.05732  -0.04668  -0.02917
  Beta virt. eigenvalues --   -0.02387  -0.02123  -0.01774  -0.01277  -0.00721
  Beta virt. eigenvalues --   -0.00587  -0.00142   0.00027   0.00561   0.00604

 Mulliken charges and spin densities:
               1          2
     1  Na   0.069369  -0.024599
     2  Na   0.353300  -0.111065
     3  Na   0.086488   0.033103
     4  Na  -0.710801   0.115271
     5  Na   0.365359   0.366599
     6  Na  -0.074052   0.518206
     7  Na  -0.089662   0.102484
 Sum of Mulliken charges =  -0.00000   1.00000

 Dipole moment (field-independent basis, Debye):
    X=              0.3670    Y=              1.0957    Z=              0.0412  Tot=              1.1563
 Quadrupole moment (field-independent basis, Debye-Ang):
   XX=            -71.6130   YY=            -64.9308   ZZ=            -67.3197
   XY=              2.4307   XZ=              2.0742   YZ=             -1.7554

 Normal termination of Gaussian 16 at Tue Nov 28 21:16:45 2023.
