 Gaussian 16, Revision B.01,
 Gaussian 16:  ES64L-G16RevB.01 20-Dec-2017

 -------------------------
 #P B3LYP/6-311+g(d) force
 -------------------------

 -----
 DPGEN
 -----
 Symbolic Z-matrix:
 Charge =  0 Multiplicity = 2

                         Standard orientation:
 ---------------------------------------------------------------------
 Center     Atomic      Atomic             Coordinates (Angstroms)
 Number     Number       Type             X           Y           Z
 ---------------------------------------------------------------------
      1         11           0        2.414527    1.526631   -0.273737
      2         11           0       -0.385575    3.244290   -0.015465
      3         11           0       -3.204359   -0.813275   -0.062371
      4         11           0        5.154477   -0.943298   -0.645626
      5         11           0       -6.247286   -0.699562   -0.581820
      6         11           0        0.000099   -0.309015    1.513747
      7         11           0        2.268116   -2.005773    0.065273
 ---------------------------------------------------------------------

 SCF Done:  E(UB3LYP) =  -1136.11889946     A.U. after   21 cycles

 The electronic state is 2-A.
 Alpha  occ. eigenvalues --  -38.44443 -38.44390 -38.44353 -38.44288 -38.44260
 Alpha  occ. eigenvalues --  -38.43773 -38.43457  -2.20331  -2.20274  -2.20218
 Alpha  occ. eigenvalues --   -2.20112  -2.20060  -2.19577  -2.19260  -1.14081
 Alpha  occ. eigenvalues --   -1.13995  -1.13989  -1.13931  -1.13923  -1.13916
 Alpha  occ. eigenvalues --   -1.13900  -1.13857  -1.13829  -1.13763  -1.13761
 Alpha  occ. eigenvalues --   -1.13727  -1.13719  -1.13702  -1.13668  -1.13262
 Alpha  occ. eigenvalues --   -1.13220  -1.13219  -1.12934  -1.12926  -1.12894
 Alpha  occ. eigenvalues --   -0.17365  -0.13647  -0.12393  -0.11455
 Alpha virt. eigenvalues --   -0.06187  -0.05497  -0.04905  -0.03470  -0.02744
 Alpha virt. eigenvalues --   -0.02305  -0.02199  -0.01461  -0.01264  -0.00925
 Alpha virt. eigenvalues --   -0.00458  -0.00058   0.00130   0.00451   0.00588

  Beta  occ. eigenvalues --  -38.44411 -38.44324 -38.44319 -38.44264 -38.44228
  Beta  occ. eigenvalues --  -38.43740 -38.43463  -2.20279  -2.20167  -2.20146
  Beta  occ. eigenvalues --   -2.20066  -2.20000  -2.19516  -2.19275  -1.14014
  Beta  occ. eigenvalues --   -1.13965  -1.13939  -1.13885  -1.13874  -1.13845
  Beta  occ. eigenvalues --   -1.13831  -1.13788  -1.13756  -1.13731  -1.13723
  Beta  occ. eigenvalues --   -1.13693  -1.13679  -1.13655  -1.13633  -1.13223
  Beta  occ. eigenvalues --   -1.13178  -1.13177  -1.12947  -1.12938  -1.12875
  Beta  occ. eigenvalues --   -0.16642  -0.13405  -0.11839
  Beta virt. eigenvalues --   -0.07995  -0.05904  -0.04980  -0.04653  -0.03034
  Beta virt. eigenvalues --   -0.02519  -0.02183  -0.01793  -0.01305  -0.01057
  Beta virt. eigenvalues --   -0.00478  -0.00210   0.00075   0.00281   0.00505

 Mulliken charges and spin densities:
               1          2
     1  Na  -0.681065   0.293676
     2  Na   0.514556   0.087172
     3  Na  -0.471105  -0.003245
     4  Na   0.531540   0.102349
     5  Na   0.511394   0.119427
     6  Na  -0.591128   0.345148
     7  Na   0.185808   0.055475
 Sum of Mulliken charges =  -0.00000   1.00000

 Dipole moment (field-independent basis, Debye):
    X=              1.4423    Y=              0.4974    Z=             -0.0460  Tot=              1.5264
 Quadrupole moment (field-independent basis, Debye-Ang):
   XX=            -57.4134   YY=            -67.6271   ZZ=            -71.3332
   XY=             -5.6359   XZ=             -0.1052   YZ=              0.1074

 Normal termination of Gaussian 16 at Tue Nov 28 23:00:34 2023.
