 Gaussian 16, Revision B.01,
 Gaussian 16:  ES64L-G16RevB.01 20-Dec-2017

 -------------------------
 #P B3LYP/6-311+g(d) force
 -------------------------

 -----
 DPGEN
 -----
 Symbolic Z-matrix:
 Charge =  0 Multiplicity = 2

                         Standard orientation:
 ---------------------------------------------------------------------
 Center     Atomic      Atomic             Coordinates (Angstroms)
 Number     Number       Type             X           Y           Z
 ---------------------------------------------------------------------
      1         11           0        1.034914   -2.763483   -1.368368
      2         11           0        5.285285   -0.127396    1.925138
      3         11           0        3.060478   -0.076507   -0.841499
      4         11           0        0.625815    3.219085   -1.319662
      5         11           0       -0.218560   -0.093627    0.092589
      6         11           0       -3.765210    0.345691    1.669046
      7         11           0       -6.022722   -0.503763   -0.157244
 ---------------------------------------------------------------------

 SCF Done:  E(UB3LYP) =  -1136.10121673     A.U. after   25 cycles

 The electronic state is 2-A.
 Alpha  occ. eigenvalues --  -38.45179 -38.44580 -38.44259 -38.44225 -38.44169
 Alpha  occ. eigenvalues --  -38.44076 -38.43938  -2.21018  -2.20362  -2.20056
 Alpha  occ. eigenvalues --   -2.20037  -2.19979  -2.19904  -2.19709  -1.14669
 Alpha  occ. eigenvalues --   -1.14653  -1.14631  -1.14073  -1.14019  -1.14016
 Alpha  occ. eigenvalues --   -1.13758  -1.13731  -1.13699  -1.13683  -1.13680
 Alpha  occ. eigenvalues --   -1.13659  -1.13636  -1.13626  -1.13606  -1.13602
 Alpha  occ. eigenvalues --   -1.13583  -1.13515  -1.13367  -1.13363  -1.13321
 Alpha  occ. eigenvalues --   -0.16493  -0.13514  -0.11964  -0.11452
 Alpha virt. eigenvalues --   -0.06896  -0.05322  -0.04685  -0.03374  -0.02998
 Alpha virt. eigenvalues --   -0.02447  -0.02216  -0.01584  -0.01206  -0.00893
 Alpha virt. eigenvalues --   -0.00717  -0.00637   0.00162   0.00316   0.00412

  Beta  occ. eigenvalues --  -38.45090 -38.44597 -38.44233 -38.44176 -38.44165
  Beta  occ. eigenvalues --  -38.44078 -38.43880  -2.20852  -2.20394  -2.20076
  Beta  occ. eigenvalues --   -2.19969  -2.19913  -2.19881  -2.19602  -1.14551
  Beta  occ. eigenvalues --   -1.14540  -1.14525  -1.14092  -1.14041  -1.14038
  Beta  occ. eigenvalues --   -1.13770  -1.13750  -1.13682  -1.13629  -1.13621
  Beta  occ. eigenvalues --   -1.13619  -1.13609  -1.13577  -1.13574  -1.13563
  Beta  occ. eigenvalues --   -1.13558  -1.13504  -1.13294  -1.13288  -1.13252
  Beta  occ. eigenvalues --   -0.15872  -0.13528  -0.10600
  Beta virt. eigenvalues --   -0.08295  -0.06886  -0.04670  -0.04544  -0.03146
  Beta virt. eigenvalues --   -0.02792  -0.02292  -0.01717  -0.01397  -0.00942
  Beta virt. eigenvalues --   -0.00735  -0.00437  -0.00374   0.00211   0.00481

 Mulliken charges and spin densities:
               1          2
     1  Na   0.838736   0.322509
     2  Na   0.279635   0.430720
     3  Na   0.492950   0.058635
     4  Na   0.181842   0.349869
     5  Na  -1.607084  -0.096017
     6  Na  -0.360329   0.007184
     7  Na   0.174250  -0.072901
 Sum of Mulliken charges =  -0.00000   1.00000

 Dipole moment (field-independent basis, Debye):
    X=             -1.0800    Y=             -0.7927    Z=             -0.6026  Tot=              1.4690
 Quadrupole moment (field-independent basis, Debye-Ang):
   XX=            -68.5183   YY=            -66.8083   ZZ=            -64.2961
   XY=              3.5263   XZ=              4.7108   YZ=              3.1275

 Normal termination of Gaussian 16 at Wed Nov 29 02:12:47 2023.
