 Gaussian 16, Revision B.01,
 Gaussian 16:  ES64L-G16RevB.01 20-Dec-2017

 -------------------------
 #P B3LYP/6-311+g(d) force
 -------------------------

 -----
 DPGEN
 -----
 Symbolic Z-matrix:
 Charge =  0 Multiplicity = 2

                         Standard orientation:
 ---------------------------------------------------------------------
 Center     Atomic      Atomic             Coordinates (Angstroms)
 Number     Number       Type             X           Y           Z
 ---------------------------------------------------------------------
      1         11           0        0.645863   -0.829021   -1.518105
      2         11           0        3.761698   -1.179522   -0.172763
      3         11           0        2.084389    1.739212   -0.505439
      4         11           0       -1.662733   -1.526708    0.741353
      5         11           0       -4.519319   -0.181098   -0.457950
      6         11           0       -1.286611    1.741155    0.009455
      7         11           0        0.976712    0.235982    1.903448
 ---------------------------------------------------------------------

 SCF Done:  E(UB3LYP) =  -1136.11402005     A.U. after   27 cycles

 The electronic state is 2-A.
 Alpha  occ. eigenvalues --  -38.45316 -38.44966 -38.43754 -38.43654 -38.43606
 Alpha  occ. eigenvalues --  -38.43560 -38.42641  -2.21227  -2.20749  -2.19670
 Alpha  occ. eigenvalues --   -2.19589  -2.19545  -2.19479  -2.18571  -1.14934
 Alpha  occ. eigenvalues --   -1.14904  -1.14829  -1.14413  -1.14408  -1.14374
 Alpha  occ. eigenvalues --   -1.13386  -1.13370  -1.13332  -1.13289  -1.13255
 Alpha  occ. eigenvalues --   -1.13229  -1.13190  -1.13177  -1.13145  -1.13134
 Alpha  occ. eigenvalues --   -1.13119  -1.13075  -1.12280  -1.12254  -1.12157
 Alpha  occ. eigenvalues --   -0.19107  -0.14237  -0.11158  -0.10890
 Alpha virt. eigenvalues --   -0.07852  -0.04868  -0.04147  -0.03290  -0.02930
 Alpha virt. eigenvalues --   -0.02206  -0.02116  -0.01437  -0.01007  -0.00389
 Alpha virt. eigenvalues --   -0.00075   0.00240   0.00330   0.00696   0.00776

  Beta  occ. eigenvalues --  -38.45288 -38.44942 -38.43710 -38.43666 -38.43541
  Beta  occ. eigenvalues --  -38.43527 -38.42628  -2.21182  -2.20702  -2.19594
  Beta  occ. eigenvalues --   -2.19504  -2.19489  -2.19468  -2.18548  -1.14883
  Beta  occ. eigenvalues --   -1.14857  -1.14803  -1.14382  -1.14374  -1.14345
  Beta  occ. eigenvalues --   -1.13338  -1.13307  -1.13274  -1.13213  -1.13196
  Beta  occ. eigenvalues --   -1.13186  -1.13150  -1.13148  -1.13141  -1.13106
  Beta  occ. eigenvalues --   -1.13074  -1.13031  -1.12271  -1.12213  -1.12142
  Beta  occ. eigenvalues --   -0.18377  -0.13997  -0.10722
  Beta virt. eigenvalues --   -0.07595  -0.07183  -0.04703  -0.03771  -0.03033
  Beta virt. eigenvalues --   -0.02705  -0.01736  -0.01407  -0.01146  -0.00619
  Beta virt. eigenvalues --   -0.00305  -0.00019   0.00276   0.00429   0.00754

 Mulliken charges and spin densities:
               1          2
     1  Na   0.229941   0.444572
     2  Na  -0.055781  -0.216710
     3  Na  -0.145406   0.239372
     4  Na  -0.001896  -0.083770
     5  Na   0.047823   0.144218
     6  Na  -0.414338   0.076893
     7  Na   0.339657   0.395426
 Sum of Mulliken charges =  -0.00000   1.00000

 Dipole moment (field-independent basis, Debye):
    X=             -0.4041    Y=              0.3613    Z=              0.3045  Tot=              0.6217
 Quadrupole moment (field-independent basis, Debye-Ang):
   XX=            -52.9187   YY=            -75.1571   ZZ=            -68.9099
   XY=              0.6611   XZ=              4.0730   YZ=             -1.7626

 Normal termination of Gaussian 16 at Tue Dec  5 17:24:57 2023.
