 Gaussian 16, Revision B.01,
 Gaussian 16:  ES64L-G16RevB.01 20-Dec-2017

 -------------------------
 #P B3LYP/6-311+g(d) force
 -------------------------

 -----
 DPGEN
 -----
 Symbolic Z-matrix:
 Charge =  0 Multiplicity = 2

                         Standard orientation:
 ---------------------------------------------------------------------
 Center     Atomic      Atomic             Coordinates (Angstroms)
 Number     Number       Type             X           Y           Z
 ---------------------------------------------------------------------
      1         11           0        0.962068    1.014015    2.086547
      2         11           0       -1.752004    2.085307    0.052488
      3         11           0        1.808638    1.898669   -0.794044
      4         11           0        3.005857   -1.653429   -0.288333
      5         11           0       -0.460018   -2.022540    0.982953
      6         11           0       -0.253388   -0.357759   -1.934062
      7         11           0       -3.311153   -0.964264   -0.105550
 ---------------------------------------------------------------------

 SCF Done:  E(UB3LYP) =  -1136.13372003     A.U. after   20 cycles

 The electronic state is 2-A.
 Alpha  occ. eigenvalues --  -38.44054 -38.44049 -38.43952 -38.43939 -38.43474
 Alpha  occ. eigenvalues --  -38.43363 -38.43219  -2.19972  -2.19839  -2.19823
 Alpha  occ. eigenvalues --   -2.19782  -2.19366  -2.19212  -2.19102  -1.13663
 Alpha  occ. eigenvalues --   -1.13625  -1.13580  -1.13516  -1.13501  -1.13495
 Alpha  occ. eigenvalues --   -1.13485  -1.13465  -1.13459  -1.13437  -1.13435
 Alpha  occ. eigenvalues --   -1.13426  -1.13056  -1.13036  -1.12963  -1.12894
 Alpha  occ. eigenvalues --   -1.12890  -1.12831  -1.12790  -1.12769  -1.12712
 Alpha  occ. eigenvalues --   -0.18581  -0.13176  -0.11820  -0.11497
 Alpha virt. eigenvalues --   -0.05814  -0.05233  -0.04028  -0.03421  -0.03111
 Alpha virt. eigenvalues --   -0.03011  -0.01713  -0.01042  -0.00284   0.00038
 Alpha virt. eigenvalues --    0.00193   0.00346   0.00675   0.00775   0.00837

  Beta  occ. eigenvalues --  -38.44050 -38.43982 -38.43940 -38.43873 -38.43457
  Beta  occ. eigenvalues --  -38.43358 -38.43192  -2.19841  -2.19827  -2.19785
  Beta  occ. eigenvalues --   -2.19693  -2.19339  -2.19206  -2.19055  -1.13581
  Beta  occ. eigenvalues --   -1.13524  -1.13494  -1.13489  -1.13479  -1.13467
  Beta  occ. eigenvalues --   -1.13456  -1.13440  -1.13422  -1.13420  -1.13398
  Beta  occ. eigenvalues --   -1.13331  -1.13027  -1.12999  -1.12945  -1.12889
  Beta  occ. eigenvalues --   -1.12864  -1.12830  -1.12762  -1.12712  -1.12683
  Beta  occ. eigenvalues --   -0.17802  -0.12991  -0.11623
  Beta virt. eigenvalues --   -0.07498  -0.05694  -0.05214  -0.03604  -0.03053
  Beta virt. eigenvalues --   -0.02373  -0.01991  -0.01636  -0.00998  -0.00050
  Beta virt. eigenvalues --    0.00017   0.00190   0.00373   0.00818   0.00824

 Mulliken charges and spin densities:
               1          2
     1  Na  -0.084603   0.399814
     2  Na  -0.091002   0.052058
     3  Na   0.276713  -0.041169
     4  Na   0.043307  -0.105767
     5  Na  -0.180865   0.229344
     6  Na  -0.308904   0.559704
     7  Na   0.345353  -0.093984
 Sum of Mulliken charges =  -0.00000   1.00000

 Dipole moment (field-independent basis, Debye):
    X=             -0.0248    Y=             -0.0298    Z=             -0.0779  Tot=              0.0870
 Quadrupole moment (field-independent basis, Debye-Ang):
   XX=            -54.5895   YY=            -71.4211   ZZ=            -68.7271
   XY=             -0.2916   XZ=             -0.6196   YZ=             -0.2496

 Normal termination of Gaussian 16 at Sun Dec  3 17:09:54 2023.
