 Gaussian 16, Revision B.01,
 Gaussian 16:  ES64L-G16RevB.01 20-Dec-2017

 -------------------------
 #P B3LYP/6-311+g(d) force
 -------------------------

 -----
 DPGEN
 -----
 Symbolic Z-matrix:
 Charge =  0 Multiplicity = 2

                         Standard orientation:
 ---------------------------------------------------------------------
 Center     Atomic      Atomic             Coordinates (Angstroms)
 Number     Number       Type             X           Y           Z
 ---------------------------------------------------------------------
      1         11           0       -2.533377   -2.568576   -0.371235
      2         11           0       -0.356009    3.356950   -0.332366
      3         11           0        4.157137   -1.041783   -0.174076
      4         11           0        1.479815    1.180593    0.485310
      5         11           0       -1.889377    0.640110    1.842337
      6         11           0       -1.253911    0.544769   -1.819400
      7         11           0        0.395721   -2.112064    0.369430
 ---------------------------------------------------------------------

 SCF Done:  E(UB3LYP) =  -1136.12843848     A.U. after   19 cycles

 The electronic state is 2-A.
 Alpha  occ. eigenvalues --  -38.44115 -38.44052 -38.43988 -38.43978 -38.43872
 Alpha  occ. eigenvalues --  -38.43812 -38.43314  -2.19958  -2.19891  -2.19866
 Alpha  occ. eigenvalues --   -2.19861  -2.19678  -2.19629  -2.19242  -1.13631
 Alpha  occ. eigenvalues --   -1.13627  -1.13613  -1.13602  -1.13558  -1.13551
 Alpha  occ. eigenvalues --   -1.13546  -1.13538  -1.13524  -1.13503  -1.13475
 Alpha  occ. eigenvalues --   -1.13430  -1.13387  -1.13356  -1.13303  -1.13302
 Alpha  occ. eigenvalues --   -1.13263  -1.13246  -1.12950  -1.12916  -1.12831
 Alpha  occ. eigenvalues --   -0.18279  -0.13235  -0.12371  -0.10702
 Alpha virt. eigenvalues --   -0.05982  -0.05787  -0.04525  -0.03321  -0.02579
 Alpha virt. eigenvalues --   -0.02523  -0.01756  -0.01664  -0.00619  -0.00404
 Alpha virt. eigenvalues --    0.00045   0.00220   0.00481   0.00668   0.00741

  Beta  occ. eigenvalues --  -38.44049 -38.44025 -38.43972 -38.43920 -38.43879
  Beta  occ. eigenvalues --  -38.43806 -38.43303  -2.19887  -2.19854  -2.19792
  Beta  occ. eigenvalues --   -2.19741  -2.19669  -2.19642  -2.19225  -1.13628
  Beta  occ. eigenvalues --   -1.13607  -1.13529  -1.13522  -1.13511  -1.13508
  Beta  occ. eigenvalues --   -1.13488  -1.13463  -1.13458  -1.13434  -1.13424
  Beta  occ. eigenvalues --   -1.13382  -1.13352  -1.13325  -1.13312  -1.13309
  Beta  occ. eigenvalues --   -1.13268  -1.13249  -1.12941  -1.12879  -1.12822
  Beta  occ. eigenvalues --   -0.17561  -0.13035  -0.12267
  Beta virt. eigenvalues --   -0.06733  -0.05771  -0.05676  -0.04458  -0.02575
  Beta virt. eigenvalues --   -0.02211  -0.01830  -0.01622  -0.01303  -0.00599
  Beta virt. eigenvalues --   -0.00124   0.00161   0.00311   0.00650   0.00700

 Mulliken charges and spin densities:
               1          2
     1  Na   0.647073   0.004033
     2  Na   0.857467  -0.018597
     3  Na   0.335129  -0.089316
     4  Na  -0.704328   0.291707
     5  Na  -0.285879   0.364030
     6  Na  -0.358112   0.316886
     7  Na  -0.491349   0.131257
 Sum of Mulliken charges =  -0.00000   1.00000

 Dipole moment (field-independent basis, Debye):
    X=             -0.6342    Y=              0.0782    Z=             -0.1948  Tot=              0.6680
 Quadrupole moment (field-independent basis, Debye-Ang):
   XX=            -58.8378   YY=            -59.3978   ZZ=            -74.4830
   XY=              1.2211   XZ=             -1.2946   YZ=              0.5334

 Normal termination of Gaussian 16 at Thu Dec  7 04:22:36 2023.
