 Gaussian 16, Revision B.01,
 Gaussian 16:  ES64L-G16RevB.01 20-Dec-2017

 -------------------------
 #P B3LYP/6-311+g(d) force
 -------------------------

 -----
 DPGEN
 -----
 Symbolic Z-matrix:
 Charge =  0 Multiplicity = 2

                         Standard orientation:
 ---------------------------------------------------------------------
 Center     Atomic      Atomic             Coordinates (Angstroms)
 Number     Number       Type             X           Y           Z
 ---------------------------------------------------------------------
      1         11           0        0.359629   -0.082938    2.546917
      2         11           0       -0.398804    0.067566   -2.320052
      3         11           0       -3.627917   -0.554079    0.075240
      4         11           0       -0.479053   -3.298946    0.098397
      5         11           0       -1.652944    2.970299    0.053067
      6         11           0        3.204559   -1.564102   -0.420595
      7         11           0        2.594530    2.462198   -0.032975
 ---------------------------------------------------------------------

 SCF Done:  E(UB3LYP) =  -1136.11102143     A.U. after   19 cycles

 The electronic state is 2-A.
 Alpha  occ. eigenvalues --  -38.45188 -38.45030 -38.44823 -38.44670 -38.44455
 Alpha  occ. eigenvalues --  -38.44340 -38.44099  -2.20941  -2.20784  -2.20542
 Alpha  occ. eigenvalues --   -2.20390  -2.20171  -2.20068  -2.19830  -1.14605
 Alpha  occ. eigenvalues --   -1.14575  -1.14564  -1.14431  -1.14414  -1.14406
 Alpha  occ. eigenvalues --   -1.14225  -1.14195  -1.14188  -1.14072  -1.14044
 Alpha  occ. eigenvalues --   -1.14031  -1.13854  -1.13829  -1.13818  -1.13752
 Alpha  occ. eigenvalues --   -1.13732  -1.13705  -1.13512  -1.13497  -1.13471
 Alpha  occ. eigenvalues --   -0.16399  -0.12182  -0.11741  -0.10966
 Alpha virt. eigenvalues --   -0.06272  -0.05937  -0.05572  -0.03275  -0.03077
 Alpha virt. eigenvalues --   -0.03024  -0.01728  -0.01447  -0.01155  -0.01062
 Alpha virt. eigenvalues --   -0.00232   0.00026   0.00425   0.00467   0.00563

  Beta  occ. eigenvalues --  -38.45115 -38.44927 -38.44827 -38.44666 -38.44459
  Beta  occ. eigenvalues --  -38.44341 -38.44100  -2.20805  -2.20593  -2.20550
  Beta  occ. eigenvalues --   -2.20384  -2.20180  -2.20071  -2.19834  -1.14514
  Beta  occ. eigenvalues --   -1.14479  -1.14466  -1.14303  -1.14282  -1.14270
  Beta  occ. eigenvalues --   -1.14222  -1.14201  -1.14194  -1.14058  -1.14042
  Beta  occ. eigenvalues --   -1.14030  -1.13850  -1.13836  -1.13825  -1.13743
  Beta  occ. eigenvalues --   -1.13735  -1.13709  -1.13501  -1.13500  -1.13475
  Beta  occ. eigenvalues --   -0.15680  -0.12105  -0.11670
  Beta virt. eigenvalues --   -0.07128  -0.06122  -0.05969  -0.05034  -0.02674
  Beta virt. eigenvalues --   -0.02405  -0.02261  -0.01614  -0.01414  -0.01202
  Beta virt. eigenvalues --   -0.01049  -0.00058   0.00417   0.00479   0.00642

 Mulliken charges and spin densities:
               1          2
     1  Na  -0.154062   0.750480
     2  Na   0.072177   0.609516
     3  Na   0.066276  -0.081730
     4  Na  -0.010271  -0.072140
     5  Na   0.000916  -0.091616
     6  Na   0.032465  -0.026352
     7  Na  -0.007502  -0.088157
 Sum of Mulliken charges =  -0.00000   1.00000

 Dipole moment (field-independent basis, Debye):
    X=             -0.1787    Y=              0.0169    Z=             -0.1282  Tot=              0.2206
 Quadrupole moment (field-independent basis, Debye-Ang):
   XX=            -59.6305   YY=            -65.6636   ZZ=            -72.2750
   XY=              0.0785   XZ=             -1.5142   YZ=              0.4072

 Normal termination of Gaussian 16 at Sun Dec  3 17:49:27 2023.
