 Gaussian 16, Revision B.01,
 Gaussian 16:  ES64L-G16RevB.01 20-Dec-2017

 -------------------------
 #P B3LYP/6-311+g(d) force
 -------------------------

 -----
 DPGEN
 -----
 Symbolic Z-matrix:
 Charge =  0 Multiplicity = 2

                         Standard orientation:
 ---------------------------------------------------------------------
 Center     Atomic      Atomic             Coordinates (Angstroms)
 Number     Number       Type             X           Y           Z
 ---------------------------------------------------------------------
      1         11           0        1.780749   -1.695471   -1.239774
      2         11           0       -2.583624    1.318009    0.751370
      3         11           0        0.812388   -0.358543    1.818371
      4         11           0       -0.964207    0.183843   -1.420882
      5         11           0       -4.881567   -1.052757    0.110953
      6         11           0        1.751351    2.057831   -0.825014
      7         11           0        4.084910   -0.452912    0.804976
 ---------------------------------------------------------------------

 SCF Done:  E(UB3LYP) =  -1136.10994336     A.U. after   27 cycles

 The electronic state is 2-A.
 Alpha  occ. eigenvalues --  -38.45641 -38.44488 -38.44256 -38.44141 -38.43958
 Alpha  occ. eigenvalues --  -38.43633 -38.42989  -2.21478  -2.20315  -2.20129
 Alpha  occ. eigenvalues --   -2.19903  -2.19871  -2.19472  -2.18948  -1.15182
 Alpha  occ. eigenvalues --   -1.15127  -1.15082  -1.13984  -1.13968  -1.13956
 Alpha  occ. eigenvalues --   -1.13885  -1.13798  -1.13716  -1.13572  -1.13571
 Alpha  occ. eigenvalues --   -1.13563  -1.13530  -1.13506  -1.13474  -1.13143
 Alpha  occ. eigenvalues --   -1.13132  -1.13109  -1.12650  -1.12628  -1.12532
 Alpha  occ. eigenvalues --   -0.18363  -0.14117  -0.11161  -0.10665
 Alpha virt. eigenvalues --   -0.07782  -0.05309  -0.04443  -0.03060  -0.03044
 Alpha virt. eigenvalues --   -0.02354  -0.02138  -0.01864  -0.01230  -0.00440
 Alpha virt. eigenvalues --   -0.00175   0.00159   0.00233   0.00580   0.00597

  Beta  occ. eigenvalues --  -38.45601 -38.44472 -38.44244 -38.44143 -38.43871
  Beta  occ. eigenvalues --  -38.43630 -38.42964  -2.21408  -2.20287  -2.20108
  Beta  occ. eigenvalues --   -2.19906  -2.19712  -2.19469  -2.18907  -1.15115
  Beta  occ. eigenvalues --   -1.15079  -1.15030  -1.13954  -1.13944  -1.13936
  Beta  occ. eigenvalues --   -1.13873  -1.13781  -1.13696  -1.13574  -1.13572
  Beta  occ. eigenvalues --   -1.13531  -1.13456  -1.13404  -1.13351  -1.13143
  Beta  occ. eigenvalues --   -1.13109  -1.13107  -1.12606  -1.12583  -1.12506
  Beta  occ. eigenvalues --   -0.17623  -0.13997  -0.10614
  Beta virt. eigenvalues --   -0.07517  -0.07119  -0.05158  -0.03998  -0.02972
  Beta virt. eigenvalues --   -0.02736  -0.01768  -0.01656  -0.01468  -0.00822
  Beta virt. eigenvalues --   -0.00369  -0.00108   0.00253   0.00333   0.00635

 Mulliken charges and spin densities:
               1          2
     1  Na  -0.164208   0.234155
     2  Na   0.585070   0.031117
     3  Na  -0.355271   0.365366
     4  Na  -0.306110   0.144986
     5  Na  -0.087660  -0.028471
     6  Na  -0.056306   0.197495
     7  Na   0.384486   0.055353
 Sum of Mulliken charges =  -0.00000   1.00000

 Dipole moment (field-independent basis, Debye):
    X=              0.6414    Y=              0.6216    Z=              0.0658  Tot=              0.8956
 Quadrupole moment (field-independent basis, Debye-Ang):
   XX=            -61.6320   YY=            -68.5828   ZZ=            -71.8615
   XY=              6.3050   XZ=             -2.4738   YZ=              0.8102

 Normal termination of Gaussian 16 at Fri Dec  8 02:24:59 2023.
