 Gaussian 16, Revision B.01,
 Gaussian 16:  ES64L-G16RevB.01 20-Dec-2017

 -------------------------
 #P B3LYP/6-311+g(d) force
 -------------------------

 -----
 DPGEN
 -----
 Symbolic Z-matrix:
 Charge =  0 Multiplicity = 2

                         Standard orientation:
 ---------------------------------------------------------------------
 Center     Atomic      Atomic             Coordinates (Angstroms)
 Number     Number       Type             X           Y           Z
 ---------------------------------------------------------------------
      1         11           0        2.769583    1.576105   -0.328684
      2         11           0       -1.480883   -2.307536   -0.180550
      3         11           0       -0.674954    2.451640    0.465362
      4         11           0        0.165598   -0.086709   -1.865369
      5         11           0        0.379979   -0.528378    1.940901
      6         11           0        2.361592   -1.666554    0.070883
      7         11           0       -3.520916    0.561431   -0.102543
 ---------------------------------------------------------------------

 SCF Done:  E(UB3LYP) =  -1136.13183682     A.U. after   21 cycles

 The electronic state is 2-A.
 Alpha  occ. eigenvalues --  -38.44690 -38.43870 -38.43819 -38.43752 -38.43685
 Alpha  occ. eigenvalues --  -38.43226 -38.42993  -2.20472  -2.19746  -2.19718
 Alpha  occ. eigenvalues --   -2.19695  -2.19640  -2.19097  -2.18842  -1.14143
 Alpha  occ. eigenvalues --   -1.14132  -1.14115  -1.13567  -1.13456  -1.13407
 Alpha  occ. eigenvalues --   -1.13393  -1.13366  -1.13357  -1.13319  -1.13317
 Alpha  occ. eigenvalues --   -1.13301  -1.13282  -1.13241  -1.13226  -1.12788
 Alpha  occ. eigenvalues --   -1.12773  -1.12703  -1.12534  -1.12515  -1.12457
 Alpha  occ. eigenvalues --   -0.18841  -0.13381  -0.12009  -0.11078
 Alpha virt. eigenvalues --   -0.06248  -0.05181  -0.03887  -0.03433  -0.02908
 Alpha virt. eigenvalues --   -0.02686  -0.01928  -0.01109  -0.00198  -0.00117
 Alpha virt. eigenvalues --    0.00031   0.00312   0.00731   0.00765   0.00869

  Beta  occ. eigenvalues --  -38.44695 -38.43863 -38.43807 -38.43675 -38.43596
  Beta  occ. eigenvalues --  -38.43218 -38.42981  -2.20483  -2.19729  -2.19708
  Beta  occ. eigenvalues --   -2.19554  -2.19478  -2.19087  -2.18822  -1.14148
  Beta  occ. eigenvalues --   -1.14136  -1.14122  -1.13524  -1.13424  -1.13382
  Beta  occ. eigenvalues --   -1.13365  -1.13343  -1.13312  -1.13276  -1.13224
  Beta  occ. eigenvalues --   -1.13204  -1.13176  -1.13137  -1.13122  -1.12779
  Beta  occ. eigenvalues --   -1.12742  -1.12699  -1.12520  -1.12481  -1.12448
  Beta  occ. eigenvalues --   -0.18084  -0.13167  -0.11747
  Beta virt. eigenvalues --   -0.07129  -0.06164  -0.05174  -0.03847  -0.02676
  Beta virt. eigenvalues --   -0.02089  -0.01857  -0.01653  -0.01075  -0.00239
  Beta virt. eigenvalues --   -0.00019   0.00080   0.00334   0.00816   0.00848

 Mulliken charges and spin densities:
               1          2
     1  Na  -0.013516  -0.015520
     2  Na   0.227379  -0.112031
     3  Na   0.055161  -0.026155
     4  Na  -0.407643   0.627614
     5  Na  -0.364953   0.648641
     6  Na   0.658755  -0.026739
     7  Na  -0.155184  -0.095809
 Sum of Mulliken charges =  -0.00000   1.00000

 Dipole moment (field-independent basis, Debye):
    X=             -0.2187    Y=             -0.0208    Z=             -0.1096  Tot=              0.2455
 Quadrupole moment (field-independent basis, Debye-Ang):
   XX=            -51.8129   YY=            -69.4209   ZZ=            -72.6817
   XY=              0.4907   XZ=             -0.2668   YZ=              0.4434

 Normal termination of Gaussian 16 at Tue Dec  5 17:26:26 2023.
