 Gaussian 16, Revision B.01,
 Gaussian 16:  ES64L-G16RevB.01 20-Dec-2017

 -------------------------
 #P B3LYP/6-311+g(d) force
 -------------------------

 -----
 DPGEN
 -----
 Symbolic Z-matrix:
 Charge =  0 Multiplicity = 2

                         Standard orientation:
 ---------------------------------------------------------------------
 Center     Atomic      Atomic             Coordinates (Angstroms)
 Number     Number       Type             X           Y           Z
 ---------------------------------------------------------------------
      1         11           0        0.203139   -0.981498    2.477954
      2         11           0        3.232489    0.777260   -1.025771
      3         11           0       -3.652044   -0.660891    0.193304
      4         11           0       -1.902045    2.906385   -0.686941
      5         11           0        1.060802    2.915490    0.532136
      6         11           0        2.459627   -2.392946   -0.114615
      7         11           0       -1.401969   -2.563800   -1.376067
 ---------------------------------------------------------------------

 SCF Done:  E(UB3LYP) =  -1136.11265656     A.U. after   22 cycles

 The electronic state is 2-A.
 Alpha  occ. eigenvalues --  -38.44866 -38.44737 -38.44588 -38.44445 -38.44425
 Alpha  occ. eigenvalues --  -38.44272 -38.43986  -2.20626  -2.20499  -2.20348
 Alpha  occ. eigenvalues --   -2.20222  -2.20218  -2.20065  -2.19789  -1.14305
 Alpha  occ. eigenvalues --   -1.14297  -1.14262  -1.14171  -1.14165  -1.14137
 Alpha  occ. eigenvalues --   -1.14017  -1.14000  -1.13991  -1.13918  -1.13893
 Alpha  occ. eigenvalues --   -1.13880  -1.13880  -1.13871  -1.13827  -1.13699
 Alpha  occ. eigenvalues --   -1.13690  -1.13683  -1.13460  -1.13449  -1.13440
 Alpha  occ. eigenvalues --   -0.16387  -0.13094  -0.12761  -0.10616
 Alpha virt. eigenvalues --   -0.06887  -0.06434  -0.03942  -0.03508  -0.03288
 Alpha virt. eigenvalues --   -0.02925  -0.01719  -0.01601  -0.01353  -0.00870
 Alpha virt. eigenvalues --   -0.00099   0.00008   0.00428   0.00501   0.00581

  Beta  occ. eigenvalues --  -38.44867 -38.44713 -38.44588 -38.44445 -38.44389
  Beta  occ. eigenvalues --  -38.44146 -38.43986  -2.20627  -2.20455  -2.20350
  Beta  occ. eigenvalues --   -2.20224  -2.20154  -2.19830  -2.19791  -1.14305
  Beta  occ. eigenvalues --   -1.14296  -1.14265  -1.14141  -1.14138  -1.14105
  Beta  occ. eigenvalues --   -1.14012  -1.14002  -1.13987  -1.13909  -1.13890
  Beta  occ. eigenvalues --   -1.13863  -1.13835  -1.13830  -1.13794  -1.13538
  Beta  occ. eigenvalues --   -1.13529  -1.13524  -1.13462  -1.13443  -1.13437
  Beta  occ. eigenvalues --   -0.15856  -0.12776  -0.12641
  Beta virt. eigenvalues --   -0.06926  -0.06597  -0.06286  -0.03860  -0.02918
  Beta virt. eigenvalues --   -0.02805  -0.02219  -0.01576  -0.01393  -0.01327
  Beta virt. eigenvalues --   -0.00821   0.00188   0.00204   0.00544   0.00559

 Mulliken charges and spin densities:
               1          2
     1  Na  -0.179233   0.558126
     2  Na   0.153824  -0.027710
     3  Na   0.037999   0.046546
     4  Na   0.153740  -0.095152
     5  Na  -0.258525   0.177139
     6  Na   0.116449   0.258539
     7  Na  -0.024254   0.082512
 Sum of Mulliken charges =  -0.00000   1.00000

 Dipole moment (field-independent basis, Debye):
    X=             -0.4602    Y=              0.0044    Z=             -0.5388  Tot=              0.7086
 Quadrupole moment (field-independent basis, Debye-Ang):
   XX=            -62.3254   YY=            -65.7957   ZZ=            -73.0928
   XY=             -2.9374   XZ=             -1.3395   YZ=              1.2202

 Normal termination of Gaussian 16 at Sun Dec  3 21:39:01 2023.
