 Gaussian 16, Revision B.01,
 Gaussian 16:  ES64L-G16RevB.01 20-Dec-2017

 -------------------------
 #P B3LYP/6-311+g(d) force
 -------------------------

 -----
 DPGEN
 -----
 Symbolic Z-matrix:
 Charge =  0 Multiplicity = 2

                         Standard orientation:
 ---------------------------------------------------------------------
 Center     Atomic      Atomic             Coordinates (Angstroms)
 Number     Number       Type             X           Y           Z
 ---------------------------------------------------------------------
      1         11           0        2.148546   -0.357871   -0.699494
      2         11           0        2.754496   -3.343492    0.633974
      3         11           0       -2.734421    0.306912   -0.948200
      4         11           0        2.836290    3.347799    0.989275
      5         11           0       -5.206392    0.046812    1.029585
      6         11           0       -0.242350   -2.282525   -0.239738
      7         11           0        0.443831    2.282365   -0.765402
 ---------------------------------------------------------------------

 SCF Done:  E(UB3LYP) =  -1136.11999489     A.U. after   18 cycles

 The electronic state is 2-A.
 Alpha  occ. eigenvalues --  -38.44772 -38.44710 -38.44237 -38.44111 -38.43811
 Alpha  occ. eigenvalues --  -38.43780 -38.42979  -2.20632  -2.20612  -2.20048
 Alpha  occ. eigenvalues --   -2.19954  -2.19662  -2.19627  -2.18813  -1.14419
 Alpha  occ. eigenvalues --   -1.14317  -1.14300  -1.14286  -1.14242  -1.14180
 Alpha  occ. eigenvalues --   -1.13723  -1.13697  -1.13673  -1.13615  -1.13602
 Alpha  occ. eigenvalues --   -1.13574  -1.13365  -1.13326  -1.13273  -1.13262
 Alpha  occ. eigenvalues --   -1.13260  -1.13256  -1.12498  -1.12489  -1.12462
 Alpha  occ. eigenvalues --   -0.17206  -0.13514  -0.13275  -0.10391
 Alpha virt. eigenvalues --   -0.06260  -0.05636  -0.04204  -0.04088  -0.02816
 Alpha virt. eigenvalues --   -0.02046  -0.01830  -0.01618  -0.01355  -0.00682
 Alpha virt. eigenvalues --   -0.00176  -0.00067   0.00136   0.00448   0.00620

  Beta  occ. eigenvalues --  -38.44761 -38.44704 -38.44195 -38.44081 -38.43767
  Beta  occ. eigenvalues --  -38.43725 -38.42976  -2.20616  -2.20605  -2.19968
  Beta  occ. eigenvalues --   -2.19896  -2.19642  -2.19465  -2.18816  -1.14404
  Beta  occ. eigenvalues --   -1.14305  -1.14284  -1.14265  -1.14211  -1.14183
  Beta  occ. eigenvalues --   -1.13671  -1.13642  -1.13621  -1.13574  -1.13562
  Beta  occ. eigenvalues --   -1.13540  -1.13352  -1.13316  -1.13216  -1.13168
  Beta  occ. eigenvalues --   -1.13149  -1.13146  -1.12509  -1.12499  -1.12401
  Beta  occ. eigenvalues --   -0.16688  -0.13178  -0.12660
  Beta virt. eigenvalues --   -0.07158  -0.05908  -0.05229  -0.04010  -0.03756
  Beta virt. eigenvalues --   -0.02723  -0.01815  -0.01464  -0.01244  -0.01117
  Beta virt. eigenvalues --   -0.00444   0.00072   0.00167   0.00342   0.00578

 Mulliken charges and spin densities:
               1          2
     1  Na  -0.919188   0.057239
     2  Na   0.704305   0.179521
     3  Na  -0.364241  -0.137530
     4  Na   0.480964   0.338625
     5  Na   0.037466   0.495333
     6  Na   0.048654   0.079573
     7  Na   0.012040  -0.012761
 Sum of Mulliken charges =  -0.00000   1.00000

 Dipole moment (field-independent basis, Debye):
    X=              1.7059    Y=             -0.7007    Z=              0.4971  Tot=              1.9100
 Quadrupole moment (field-independent basis, Debye-Ang):
   XX=            -68.6078   YY=            -61.3482   ZZ=            -68.8014
   XY=             -0.5646   XZ=              0.7161   YZ=             -0.5196

 Normal termination of Gaussian 16 at Tue Nov 28 18:54:25 2023.
