 Gaussian 16, Revision B.01,
 Gaussian 16:  ES64L-G16RevB.01 20-Dec-2017

 -------------------------
 #P B3LYP/6-311+g(d) force
 -------------------------

 -----
 DPGEN
 -----
 Symbolic Z-matrix:
 Charge =  0 Multiplicity = 2

                         Standard orientation:
 ---------------------------------------------------------------------
 Center     Atomic      Atomic             Coordinates (Angstroms)
 Number     Number       Type             X           Y           Z
 ---------------------------------------------------------------------
      1         11           0       -0.265474   -0.560192    1.520405
      2         11           0       -0.967185   -1.665345   -0.822023
      3         11           0        2.493151   -2.079125   -0.278841
      4         11           0        3.880739    0.636074   -0.085994
      5         11           0        1.493104    2.337414    0.324908
      6         11           0       -2.133162    1.460113   -1.187264
      7         11           0       -4.501172   -0.128939    0.528809
 ---------------------------------------------------------------------

 SCF Done:  E(UB3LYP) =  -1136.10854341     A.U. after   24 cycles

 The electronic state is 2-A.
 Alpha  occ. eigenvalues --  -38.45256 -38.44818 -38.44709 -38.44132 -38.43613
 Alpha  occ. eigenvalues --  -38.43523 -38.42955  -2.21196  -2.20641  -2.20525
 Alpha  occ. eigenvalues --   -2.20079  -2.19515  -2.19391  -2.18812  -1.15066
 Alpha  occ. eigenvalues --   -1.14811  -1.14758  -1.14358  -1.14306  -1.14280
 Alpha  occ. eigenvalues --   -1.14176  -1.14164  -1.14121  -1.13791  -1.13725
 Alpha  occ. eigenvalues --   -1.13616  -1.13255  -1.13207  -1.13145  -1.13064
 Alpha  occ. eigenvalues --   -1.13023  -1.12985  -1.12481  -1.12472  -1.12443
 Alpha  occ. eigenvalues --   -0.18159  -0.14593  -0.11536  -0.10734
 Alpha virt. eigenvalues --   -0.07248  -0.05390  -0.04352  -0.03480  -0.03265
 Alpha virt. eigenvalues --   -0.02187  -0.01762  -0.01368  -0.00879  -0.00430
 Alpha virt. eigenvalues --   -0.00227  -0.00035   0.00331   0.00531   0.00728

  Beta  occ. eigenvalues --  -38.45218 -38.44823 -38.44625 -38.44122 -38.43567
  Beta  occ. eigenvalues --  -38.43491 -38.42941  -2.21128  -2.20656  -2.20368
  Beta  occ. eigenvalues --   -2.20063  -2.19432  -2.19337  -2.18788  -1.15015
  Beta  occ. eigenvalues --   -1.14763  -1.14712  -1.14367  -1.14319  -1.14248
  Beta  occ. eigenvalues --   -1.14066  -1.14056  -1.14023  -1.13768  -1.13709
  Beta  occ. eigenvalues --   -1.13620  -1.13190  -1.13155  -1.13091  -1.13031
  Beta  occ. eigenvalues --   -1.12989  -1.12918  -1.12462  -1.12461  -1.12409
  Beta  occ. eigenvalues --   -0.17653  -0.13881  -0.11397
  Beta virt. eigenvalues --   -0.07161  -0.06981  -0.05235  -0.03718  -0.03223
  Beta virt. eigenvalues --   -0.02948  -0.02006  -0.01366  -0.01165  -0.00442
  Beta virt. eigenvalues --   -0.00123  -0.00069   0.00053   0.00461   0.00643

 Mulliken charges and spin densities:
               1          2
     1  Na  -0.199843  -0.065454
     2  Na   0.149756  -0.120193
     3  Na   0.162578   0.431907
     4  Na   0.077577   0.102859
     5  Na  -0.279364   0.152298
     6  Na  -0.106721   0.105219
     7  Na   0.196018   0.393365
 Sum of Mulliken charges =  -0.00000   1.00000

 Dipole moment (field-independent basis, Debye):
    X=             -1.2537    Y=             -0.4015    Z=              0.2306  Tot=              1.3365
 Quadrupole moment (field-independent basis, Debye-Ang):
   XX=            -70.0183   YY=            -75.4454   ZZ=            -61.5753
   XY=              0.1848   XZ=             -1.8752   YZ=             -0.7468

 Normal termination of Gaussian 16 at Sat Dec  9 06:06:39 2023.
