 Gaussian 16, Revision B.01,
 Gaussian 16:  ES64L-G16RevB.01 20-Dec-2017

 -------------------------
 #P B3LYP/6-311+g(d) force
 -------------------------

 -----
 DPGEN
 -----
 Symbolic Z-matrix:
 Charge =  0 Multiplicity = 2

                         Standard orientation:
 ---------------------------------------------------------------------
 Center     Atomic      Atomic             Coordinates (Angstroms)
 Number     Number       Type             X           Y           Z
 ---------------------------------------------------------------------
      1         11           0       -1.596281   -1.180405    1.062005
      2         11           0        0.112944   -0.717594   -1.490884
      3         11           0        1.199688    0.474952    1.489536
      4         11           0       -1.542365    2.032557    0.503471
      5         11           0        2.842439   -2.141794    0.092094
      6         11           0        2.926959    1.876506   -0.864540
      7         11           0       -3.943384   -0.344223   -0.791682
 ---------------------------------------------------------------------

 SCF Done:  E(UB3LYP) =  -1136.11869712     A.U. after   26 cycles

 The electronic state is 2-A.
 Alpha  occ. eigenvalues --  -38.44715 -38.44683 -38.44054 -38.43916 -38.43756
 Alpha  occ. eigenvalues --  -38.43445 -38.42819  -2.20570  -2.20554  -2.19866
 Alpha  occ. eigenvalues --   -2.19747  -2.19718  -2.19315  -2.18831  -1.14324
 Alpha  occ. eigenvalues --   -1.14243  -1.14210  -1.14189  -1.14185  -1.14171
 Alpha  occ. eigenvalues --   -1.13545  -1.13510  -1.13482  -1.13467  -1.13406
 Alpha  occ. eigenvalues --   -1.13394  -1.13367  -1.13358  -1.13355  -1.13017
 Alpha  occ. eigenvalues --   -1.12988  -1.12923  -1.12542  -1.12484  -1.12428
 Alpha  occ. eigenvalues --   -0.18763  -0.14238  -0.10990  -0.10835
 Alpha virt. eigenvalues --   -0.06847  -0.05646  -0.04327  -0.03000  -0.02715
 Alpha virt. eigenvalues --   -0.02201  -0.02033  -0.01318  -0.00943  -0.00144
 Alpha virt. eigenvalues --    0.00084   0.00159   0.00429   0.00560   0.00620

  Beta  occ. eigenvalues --  -38.44679 -38.44667 -38.44008 -38.43917 -38.43717
  Beta  occ. eigenvalues --  -38.43434 -38.42771  -2.20540  -2.20485  -2.19780
  Beta  occ. eigenvalues --   -2.19723  -2.19684  -2.19301  -2.18749  -1.14288
  Beta  occ. eigenvalues --   -1.14199  -1.14189  -1.14155  -1.14140  -1.14131
  Beta  occ. eigenvalues --   -1.13488  -1.13450  -1.13427  -1.13421  -1.13408
  Beta  occ. eigenvalues --   -1.13370  -1.13351  -1.13320  -1.13300  -1.13002
  Beta  occ. eigenvalues --   -1.12955  -1.12918  -1.12484  -1.12393  -1.12371
  Beta  occ. eigenvalues --   -0.18053  -0.13876  -0.10784
  Beta virt. eigenvalues --   -0.07103  -0.06582  -0.05500  -0.03790  -0.02859
  Beta virt. eigenvalues --   -0.02492  -0.01693  -0.01423  -0.01130  -0.00572
  Beta virt. eigenvalues --   -0.00055   0.00131   0.00220   0.00550   0.00651

 Mulliken charges and spin densities:
               1          2
     1  Na   0.331891   0.088961
     2  Na  -0.444102   0.355215
     3  Na   0.109386  -0.128664
     4  Na  -0.240692   0.074110
     5  Na   0.121780   0.019903
     6  Na  -0.134958   0.286947
     7  Na   0.256695   0.303528
 Sum of Mulliken charges =  -0.00000   1.00000

 Dipole moment (field-independent basis, Debye):
    X=             -0.4631    Y=             -0.0892    Z=             -0.2217  Tot=              0.5211
 Quadrupole moment (field-independent basis, Debye-Ang):
   XX=            -50.1203   YY=            -74.4650   ZZ=            -69.3648
   XY=             -2.1050   XZ=              1.0978   YZ=             -3.1896

 Normal termination of Gaussian 16 at Tue Dec  5 13:04:59 2023.
