 Gaussian 16, Revision B.01,
 Gaussian 16:  ES64L-G16RevB.01 20-Dec-2017

 -------------------------
 #P B3LYP/6-311+g(d) force
 -------------------------

 -----
 DPGEN
 -----
 Symbolic Z-matrix:
 Charge =  0 Multiplicity = 2

                         Standard orientation:
 ---------------------------------------------------------------------
 Center     Atomic      Atomic             Coordinates (Angstroms)
 Number     Number       Type             X           Y           Z
 ---------------------------------------------------------------------
      1         11           0       -0.385019    0.269509    2.313204
      2         11           0        3.161379   -0.822004   -0.328237
      3         11           0       -2.054263    2.455435   -0.384208
      4         11           0        0.116408   -0.113934   -1.305407
      5         11           0        1.804383    2.383196   -0.048652
      6         11           0       -2.795900   -1.389667   -0.480361
      7         11           0        0.153013   -2.782535    0.233660
 ---------------------------------------------------------------------

 SCF Done:  E(UB3LYP) =  -1136.13553421     A.U. after   19 cycles

 The electronic state is 2-A.
 Alpha  occ. eigenvalues --  -38.43898 -38.43846 -38.43836 -38.43805 -38.43746
 Alpha  occ. eigenvalues --  -38.43333 -38.42879  -2.19739  -2.19667  -2.19651
 Alpha  occ. eigenvalues --   -2.19639  -2.19578  -2.19220  -2.18930  -1.13431
 Alpha  occ. eigenvalues --   -1.13393  -1.13371  -1.13370  -1.13338  -1.13320
 Alpha  occ. eigenvalues --   -1.13306  -1.13299  -1.13292  -1.13273  -1.13271
 Alpha  occ. eigenvalues --   -1.13261  -1.13259  -1.13230  -1.13208  -1.12962
 Alpha  occ. eigenvalues --   -1.12873  -1.12835  -1.12617  -1.12571  -1.12549
 Alpha  occ. eigenvalues --   -0.18457  -0.12877  -0.12471  -0.10742
 Alpha virt. eigenvalues --   -0.05557  -0.05292  -0.04734  -0.02994  -0.02941
 Alpha virt. eigenvalues --   -0.02571  -0.01528  -0.01275  -0.00480  -0.00360
 Alpha virt. eigenvalues --   -0.00030   0.00322   0.00763   0.00838   0.00885

  Beta  occ. eigenvalues --  -38.43888 -38.43840 -38.43833 -38.43743 -38.43692
  Beta  occ. eigenvalues --  -38.43326 -38.42840  -2.19721  -2.19663  -2.19632
  Beta  occ. eigenvalues --   -2.19574  -2.19441  -2.19211  -2.18861  -1.13415
  Beta  occ. eigenvalues --   -1.13368  -1.13366  -1.13362  -1.13320  -1.13305
  Beta  occ. eigenvalues --   -1.13292  -1.13289  -1.13266  -1.13253  -1.13222
  Beta  occ. eigenvalues --   -1.13207  -1.13163  -1.13131  -1.13112  -1.12953
  Beta  occ. eigenvalues --   -1.12839  -1.12834  -1.12558  -1.12523  -1.12497
  Beta  occ. eigenvalues --   -0.17772  -0.12649  -0.12277
  Beta virt. eigenvalues --   -0.06746  -0.05558  -0.05218  -0.04669  -0.02252
  Beta virt. eigenvalues --   -0.02192  -0.01521  -0.01431  -0.01226  -0.00499
  Beta virt. eigenvalues --   -0.00369   0.00145   0.00374   0.00815   0.00862

 Mulliken charges and spin densities:
               1          2
     1  Na  -0.578282   0.699978
     2  Na   0.247101   0.053629
     3  Na   0.088375   0.002942
     4  Na  -0.557592   0.005325
     5  Na   0.218342   0.034908
     6  Na   0.231402   0.036082
     7  Na   0.350655   0.167136
 Sum of Mulliken charges =  -0.00000   1.00000

 Dipole moment (field-independent basis, Debye):
    X=             -0.0715    Y=              0.1723    Z=              0.1871  Tot=              0.2642
 Quadrupole moment (field-independent basis, Debye-Ang):
   XX=            -56.4386   YY=            -61.5372   ZZ=            -74.7687
   XY=             -0.2244   XZ=              1.0353   YZ=             -0.6220

 Normal termination of Gaussian 16 at Sat Dec  9 05:50:15 2023.
