 Gaussian 16, Revision B.01,
 Gaussian 16:  ES64L-G16RevB.01 20-Dec-2017

 -------------------------
 #P B3LYP/6-311+g(d) force
 -------------------------

 -----
 DPGEN
 -----
 Symbolic Z-matrix:
 Charge =  0 Multiplicity = 2

                         Standard orientation:
 ---------------------------------------------------------------------
 Center     Atomic      Atomic             Coordinates (Angstroms)
 Number     Number       Type             X           Y           Z
 ---------------------------------------------------------------------
      1         11           0        3.109125   -1.512421   -0.448781
      2         11           0        1.990807    0.749491    1.677265
      3         11           0       -0.328222   -0.918079   -1.894757
      4         11           0       -0.720937   -1.439046    1.720673
      5         11           0       -3.938473   -0.621777   -0.212561
      6         11           0       -1.346897    2.013209    0.435031
      7         11           0        1.234597    1.728621   -1.276870
 ---------------------------------------------------------------------

 SCF Done:  E(UB3LYP) =  -1136.12438986     A.U. after   25 cycles

 The electronic state is 2-A.
 Alpha  occ. eigenvalues --  -38.44912 -38.44757 -38.44276 -38.44118 -38.43948
 Alpha  occ. eigenvalues --  -38.42879 -38.42640  -2.20665  -2.20624  -2.20088
 Alpha  occ. eigenvalues --   -2.20025  -2.19751  -2.18755  -2.18596  -1.14342
 Alpha  occ. eigenvalues --   -1.14331  -1.14315  -1.14291  -1.14271  -1.14216
 Alpha  occ. eigenvalues --   -1.13790  -1.13759  -1.13709  -1.13698  -1.13670
 Alpha  occ. eigenvalues --   -1.13629  -1.13424  -1.13407  -1.13389  -1.12480
 Alpha  occ. eigenvalues --   -1.12433  -1.12376  -1.12291  -1.12246  -1.12183
 Alpha  occ. eigenvalues --   -0.18531  -0.13290  -0.11985  -0.11096
 Alpha virt. eigenvalues --   -0.06694  -0.04830  -0.04216  -0.03399  -0.03032
 Alpha virt. eigenvalues --   -0.02841  -0.02254  -0.01034  -0.00513  -0.00037
 Alpha virt. eigenvalues --    0.00189   0.00244   0.00306   0.00752   0.00891

  Beta  occ. eigenvalues --  -38.44917 -38.44675 -38.44234 -38.44065 -38.43947
  Beta  occ. eigenvalues --  -38.42869 -38.42618  -2.20673  -2.20475  -2.20013
  Beta  occ. eigenvalues --   -2.19928  -2.19751  -2.18739  -2.18561  -1.14344
  Beta  occ. eigenvalues --   -1.14337  -1.14297  -1.14216  -1.14162  -1.14106
  Beta  occ. eigenvalues --   -1.13736  -1.13693  -1.13644  -1.13640  -1.13605
  Beta  occ. eigenvalues --   -1.13565  -1.13420  -1.13393  -1.13389  -1.12473
  Beta  occ. eigenvalues --   -1.12405  -1.12363  -1.12252  -1.12217  -1.12154
  Beta  occ. eigenvalues --   -0.17671  -0.13209  -0.10907
  Beta virt. eigenvalues --   -0.07888  -0.06513  -0.04656  -0.03743  -0.02991
  Beta virt. eigenvalues --   -0.02341  -0.02177  -0.02112  -0.00811  -0.00314
  Beta virt. eigenvalues --   -0.00004   0.00236   0.00318   0.00362   0.00817

 Mulliken charges and spin densities:
               1          2
     1  Na   0.004600  -0.126057
     2  Na   0.131014   0.345533
     3  Na  -0.319675   0.472404
     4  Na  -0.205507   0.183702
     5  Na   0.189473  -0.070364
     6  Na  -0.260516   0.083325
     7  Na   0.460611   0.111457
 Sum of Mulliken charges =  -0.00000   1.00000

 Dipole moment (field-independent basis, Debye):
    X=             -0.7002    Y=             -0.3616    Z=             -0.0572  Tot=              0.7901
 Quadrupole moment (field-independent basis, Debye-Ang):
   XX=            -51.7568   YY=            -76.5420   ZZ=            -66.5983
   XY=              0.2004   XZ=              0.4295   YZ=              3.2380

 Normal termination of Gaussian 16 at Thu Dec  7 19:27:56 2023.
