 Gaussian 16, Revision B.01,
 Gaussian 16:  ES64L-G16RevB.01 20-Dec-2017

 -------------------------
 #P B3LYP/6-311+g(d) force
 -------------------------

 -----
 DPGEN
 -----
 Symbolic Z-matrix:
 Charge =  0 Multiplicity = 2

                         Standard orientation:
 ---------------------------------------------------------------------
 Center     Atomic      Atomic             Coordinates (Angstroms)
 Number     Number       Type             X           Y           Z
 ---------------------------------------------------------------------
      1         11           0        0.408142    1.772269   -1.555046
      2         11           0        3.938842    0.270392   -0.030208
      3         11           0       -2.621420    1.850496    0.783015
      4         11           0        1.435315    0.284571    1.666562
      5         11           0       -1.743683   -1.409872    1.452839
      6         11           0       -2.613681   -0.920548   -1.501240
      7         11           0        1.196485   -1.847309   -0.815923
 ---------------------------------------------------------------------

 SCF Done:  E(UB3LYP) =  -1136.12120073     A.U. after   24 cycles

 The electronic state is 2-A.
 Alpha  occ. eigenvalues --  -38.45499 -38.44714 -38.44299 -38.43634 -38.43545
 Alpha  occ. eigenvalues --  -38.43517 -38.43119  -2.21326  -2.20551  -2.20215
 Alpha  occ. eigenvalues --   -2.19444  -2.19403  -2.19310  -2.19009  -1.15043
 Alpha  occ. eigenvalues --   -1.14965  -1.14948  -1.14243  -1.14203  -1.14164
 Alpha  occ. eigenvalues --   -1.13902  -1.13868  -1.13825  -1.13119  -1.13110
 Alpha  occ. eigenvalues --   -1.13107  -1.13077  -1.13069  -1.13005  -1.13001
 Alpha  occ. eigenvalues --   -1.12977  -1.12914  -1.12690  -1.12679  -1.12625
 Alpha  occ. eigenvalues --   -0.18274  -0.14187  -0.11255  -0.10706
 Alpha virt. eigenvalues --   -0.06918  -0.05373  -0.04615  -0.03091  -0.02768
 Alpha virt. eigenvalues --   -0.02478  -0.02428  -0.01050  -0.00654  -0.00225
 Alpha virt. eigenvalues --    0.00111   0.00178   0.00298   0.00635   0.00713

  Beta  occ. eigenvalues --  -38.45499 -38.44684 -38.44253 -38.43617 -38.43517
  Beta  occ. eigenvalues --  -38.43488 -38.43093  -2.21326  -2.20496  -2.20131
  Beta  occ. eigenvalues --   -2.19413  -2.19354  -2.19258  -2.18964  -1.15036
  Beta  occ. eigenvalues --   -1.14966  -1.14946  -1.14208  -1.14155  -1.14125
  Beta  occ. eigenvalues --   -1.13846  -1.13800  -1.13766  -1.13093  -1.13082
  Beta  occ. eigenvalues --   -1.13080  -1.13053  -1.13013  -1.12972  -1.12969
  Beta  occ. eigenvalues --   -1.12926  -1.12881  -1.12657  -1.12643  -1.12580
  Beta  occ. eigenvalues --   -0.17560  -0.14015  -0.10541
  Beta virt. eigenvalues --   -0.07437  -0.06713  -0.04971  -0.04218  -0.02884
  Beta virt. eigenvalues --   -0.02427  -0.02169  -0.01642  -0.00693  -0.00462
  Beta virt. eigenvalues --   -0.00126   0.00158   0.00231   0.00369   0.00727

 Mulliken charges and spin densities:
               1          2
     1  Na  -0.480719   0.184692
     2  Na   0.559188   0.055602
     3  Na  -0.082649  -0.022112
     4  Na  -0.116892   0.074567
     5  Na   0.237475   0.195467
     6  Na   0.128987   0.224595
     7  Na  -0.245390   0.287189
 Sum of Mulliken charges =  -0.00000   1.00000

 Dipole moment (field-independent basis, Debye):
    X=              1.2157    Y=             -0.1017    Z=             -0.2920  Tot=              1.2544
 Quadrupole moment (field-independent basis, Debye-Ang):
   XX=            -46.2560   YY=            -79.6267   ZZ=            -67.6494
   XY=              1.0603   XZ=             -0.2911   YZ=              3.4865

 Normal termination of Gaussian 16 at Thu Dec  7 02:25:13 2023.
