 Gaussian 16, Revision B.01,
 Gaussian 16:  ES64L-G16RevB.01 20-Dec-2017

 -------------------------
 #P B3LYP/6-311+g(d) force
 -------------------------

 -----
 DPGEN
 -----
 Symbolic Z-matrix:
 Charge =  0 Multiplicity = 2

                         Standard orientation:
 ---------------------------------------------------------------------
 Center     Atomic      Atomic             Coordinates (Angstroms)
 Number     Number       Type             X           Y           Z
 ---------------------------------------------------------------------
      1         11           0       -0.175976   -1.471086    0.238309
      2         11           0       -6.791782   -0.385618    0.222066
      3         11           0       -3.381518   -0.019236   -0.145216
      4         11           0       -0.786803    2.144199    0.065255
      5         11           0        2.535368    1.220436   -0.899105
      6         11           0        3.482175   -1.998211   -0.449217
      7         11           0        5.118536    0.509515    0.967908
 ---------------------------------------------------------------------

 SCF Done:  E(UB3LYP) =  -1136.11674582     A.U. after   23 cycles

 The electronic state is 2-A.
 Alpha  occ. eigenvalues --  -38.44899 -38.44875 -38.44826 -38.44780 -38.44293
 Alpha  occ. eigenvalues --  -38.43248 -38.43020  -2.20751  -2.20742  -2.20664
 Alpha  occ. eigenvalues --   -2.20598  -2.20119  -2.18985  -2.18856  -1.14463
 Alpha  occ. eigenvalues --   -1.14453  -1.14429  -1.14389  -1.14387  -1.14361
 Alpha  occ. eigenvalues --   -1.14311  -1.14294  -1.14282  -1.14257  -1.14251
 Alpha  occ. eigenvalues --   -1.14202  -1.13791  -1.13778  -1.13740  -1.12663
 Alpha  occ. eigenvalues --   -1.12662  -1.12641  -1.12563  -1.12539  -1.12435
 Alpha  occ. eigenvalues --   -0.17491  -0.14390  -0.11712  -0.11011
 Alpha virt. eigenvalues --   -0.06948  -0.05879  -0.04958  -0.03475  -0.03022
 Alpha virt. eigenvalues --   -0.02454  -0.02162  -0.01299  -0.01142  -0.00766
 Alpha virt. eigenvalues --   -0.00388  -0.00249   0.00038   0.00140   0.00493

  Beta  occ. eigenvalues --  -38.44854 -38.44833 -38.44790 -38.44724 -38.44262
  Beta  occ. eigenvalues --  -38.43284 -38.43009  -2.20669  -2.20669  -2.20597
  Beta  occ. eigenvalues --   -2.20496  -2.20063  -2.19052  -2.18834  -1.14410
  Beta  occ. eigenvalues --   -1.14398  -1.14374  -1.14332  -1.14313  -1.14296
  Beta  occ. eigenvalues --   -1.14265  -1.14232  -1.14216  -1.14209  -1.14178
  Beta  occ. eigenvalues --   -1.14120  -1.13752  -1.13722  -1.13710  -1.12709
  Beta  occ. eigenvalues --   -1.12708  -1.12683  -1.12540  -1.12522  -1.12444
  Beta  occ. eigenvalues --   -0.16690  -0.14259  -0.11109
  Beta virt. eigenvalues --   -0.07724  -0.06655  -0.05248  -0.04668  -0.03033
  Beta virt. eigenvalues --   -0.02667  -0.02265  -0.01666  -0.01084  -0.00880
  Beta virt. eigenvalues --   -0.00668  -0.00241  -0.00089   0.00232   0.00297

 Mulliken charges and spin densities:
               1          2
     1  Na   0.118478   0.520301
     2  Na  -0.136143  -0.135650
     3  Na  -0.522780  -0.158981
     4  Na   0.263759   0.199844
     5  Na  -0.613792   0.379199
     6  Na   0.452657   0.081833
     7  Na   0.437821   0.113455
 Sum of Mulliken charges =  -0.00000   1.00000

 Dipole moment (field-independent basis, Debye):
    X=              3.6589    Y=              0.1589    Z=              0.3606  Tot=              3.6800
 Quadrupole moment (field-independent basis, Debye-Ang):
   XX=            -68.3153   YY=            -66.8561   ZZ=            -69.2833
   XY=             -2.3576   XZ=              1.4429   YZ=              0.8832

 Normal termination of Gaussian 16 at Tue Nov 28 21:57:29 2023.
