 Gaussian 16, Revision B.01,
 Gaussian 16:  ES64L-G16RevB.01 20-Dec-2017

 -------------------------
 #P B3LYP/6-311+g(d) force
 -------------------------

 -----
 DPGEN
 -----
 Symbolic Z-matrix:
 Charge =  0 Multiplicity = 2

                         Standard orientation:
 ---------------------------------------------------------------------
 Center     Atomic      Atomic             Coordinates (Angstroms)
 Number     Number       Type             X           Y           Z
 ---------------------------------------------------------------------
      1         11           0        0.290190    2.906844   -0.150360
      2         11           0        2.102760   -2.573046   -0.158144
      3         11           0        3.317551    0.867835    0.087642
      4         11           0       -3.436185    0.995934    0.081765
      5         11           0        0.212410   -0.114265    1.685564
      6         11           0       -2.498596   -2.055032   -0.010635
      7         11           0        0.011869   -0.028269   -1.535832
 ---------------------------------------------------------------------

 SCF Done:  E(UB3LYP) =  -1136.12869604     A.U. after   22 cycles

 The electronic state is 2-A.
 Alpha  occ. eigenvalues --  -38.45121 -38.44979 -38.44176 -38.43624 -38.43360
 Alpha  occ. eigenvalues --  -38.42917 -38.42886  -2.20915  -2.20768  -2.20000
 Alpha  occ. eigenvalues --   -2.19425  -2.19272  -2.18843  -2.18759  -1.14594
 Alpha  occ. eigenvalues --   -1.14566  -1.14551  -1.14447  -1.14433  -1.14402
 Alpha  occ. eigenvalues --   -1.13668  -1.13661  -1.13644  -1.13095  -1.13088
 Alpha  occ. eigenvalues --   -1.13073  -1.13002  -1.12893  -1.12876  -1.12565
 Alpha  occ. eigenvalues --   -1.12509  -1.12448  -1.12422  -1.12402  -1.12383
 Alpha  occ. eigenvalues --   -0.18243  -0.13557  -0.11858  -0.09802
 Alpha virt. eigenvalues --   -0.06644  -0.05712  -0.04422  -0.03160  -0.02377
 Alpha virt. eigenvalues --   -0.02281  -0.01844  -0.01535  -0.00805  -0.00554
 Alpha virt. eigenvalues --   -0.00039   0.00263   0.00639   0.00743   0.00815

  Beta  occ. eigenvalues --  -38.45116 -38.44978 -38.44173 -38.43620 -38.43290
  Beta  occ. eigenvalues --  -38.42909 -38.42812  -2.20909  -2.20769  -2.19996
  Beta  occ. eigenvalues --   -2.19421  -2.19145  -2.18749  -2.18710  -1.14566
  Beta  occ. eigenvalues --   -1.14564  -1.14552  -1.14451  -1.14418  -1.14403
  Beta  occ. eigenvalues --   -1.13665  -1.13647  -1.13634  -1.13086  -1.13079
  Beta  occ. eigenvalues --   -1.13064  -1.12910  -1.12803  -1.12784  -1.12492
  Beta  occ. eigenvalues --   -1.12439  -1.12398  -1.12381  -1.12354  -1.12335
  Beta  occ. eigenvalues --   -0.17558  -0.13364  -0.11612
  Beta virt. eigenvalues --   -0.06562  -0.05991  -0.05729  -0.04413  -0.02447
  Beta virt. eigenvalues --   -0.02253  -0.01597  -0.01510  -0.00896  -0.00825
  Beta virt. eigenvalues --   -0.00556   0.00143   0.00303   0.00690   0.00744

 Mulliken charges and spin densities:
               1          2
     1  Na  -0.062462  -0.118761
     2  Na   0.008153  -0.115164
     3  Na   0.224507  -0.006007
     4  Na   0.047873  -0.022965
     5  Na  -0.248357   0.675747
     6  Na   0.210932  -0.069466
     7  Na  -0.180646   0.656616
 Sum of Mulliken charges =  -0.00000   1.00000

 Dipole moment (field-independent basis, Debye):
    X=             -0.0570    Y=              0.0693    Z=              0.0373  Tot=              0.0972
 Quadrupole moment (field-independent basis, Debye-Ang):
   XX=            -46.8372   YY=            -63.2768   ZZ=            -79.5492
   XY=             -0.3031   XZ=             -0.4781   YZ=              0.3186

 Normal termination of Gaussian 16 at Thu Dec  7 23:08:19 2023.
