 Gaussian 16, Revision B.01,
 Gaussian 16:  ES64L-G16RevB.01 20-Dec-2017

 -------------------------
 #P B3LYP/6-311+g(d) force
 -------------------------

 -----
 DPGEN
 -----
 Symbolic Z-matrix:
 Charge =  0 Multiplicity = 2

                         Standard orientation:
 ---------------------------------------------------------------------
 Center     Atomic      Atomic             Coordinates (Angstroms)
 Number     Number       Type             X           Y           Z
 ---------------------------------------------------------------------
      1         11           0       -2.597084    1.045654    0.800005
      2         11           0       -2.494883   -1.827339   -0.438556
      3         11           0        0.590202   -0.059119    2.127006
      4         11           0        1.395866   -2.659345    0.053041
      5         11           0        2.950303    0.348543   -0.204065
      6         11           0       -0.162839    0.266495   -2.078867
      7         11           0        0.318436    2.885111   -0.258564
 ---------------------------------------------------------------------

 SCF Done:  E(UB3LYP) =  -1136.13642939     A.U. after   19 cycles

 The electronic state is 2-A.
 Alpha  occ. eigenvalues --  -38.44201 -38.44062 -38.43926 -38.43724 -38.43537
 Alpha  occ. eigenvalues --  -38.43463 -38.43035  -2.20081  -2.19954  -2.19783
 Alpha  occ. eigenvalues --   -2.19584  -2.19367  -2.19286  -2.18888  -1.13746
 Alpha  occ. eigenvalues --   -1.13727  -1.13701  -1.13623  -1.13593  -1.13580
 Alpha  occ. eigenvalues --   -1.13463  -1.13452  -1.13402  -1.13288  -1.13250
 Alpha  occ. eigenvalues --   -1.13220  -1.13033  -1.13017  -1.12998  -1.12966
 Alpha  occ. eigenvalues --   -1.12951  -1.12916  -1.12581  -1.12541  -1.12521
 Alpha  occ. eigenvalues --   -0.18452  -0.13020  -0.12133  -0.11503
 Alpha virt. eigenvalues --   -0.05422  -0.04952  -0.04563  -0.03650  -0.03238
 Alpha virt. eigenvalues --   -0.03115  -0.01220  -0.00923  -0.00292  -0.00072
 Alpha virt. eigenvalues --   -0.00011   0.00419   0.00811   0.00839   0.00897

  Beta  occ. eigenvalues --  -38.44119 -38.43980 -38.43921 -38.43706 -38.43533
  Beta  occ. eigenvalues --  -38.43462 -38.43031  -2.19930  -2.19804  -2.19777
  Beta  occ. eigenvalues --   -2.19553  -2.19362  -2.19287  -2.18884  -1.13651
  Beta  occ. eigenvalues --   -1.13623  -1.13590  -1.13527  -1.13488  -1.13471
  Beta  occ. eigenvalues --   -1.13444  -1.13437  -1.13395  -1.13273  -1.13212
  Beta  occ. eigenvalues --   -1.13197  -1.13019  -1.13007  -1.12997  -1.12959
  Beta  occ. eigenvalues --   -1.12948  -1.12914  -1.12571  -1.12530  -1.12514
  Beta  occ. eigenvalues --   -0.17674  -0.12825  -0.11902
  Beta virt. eigenvalues --   -0.07589  -0.05382  -0.04798  -0.04448  -0.02930
  Beta virt. eigenvalues --   -0.02418  -0.02201  -0.01140  -0.00847  -0.00239
  Beta virt. eigenvalues --   -0.00074   0.00064   0.00446   0.00887   0.00945

 Mulliken charges and spin densities:
               1          2
     1  Na   0.032563   0.107882
     2  Na   0.025902  -0.049118
     3  Na  -0.215725   0.507408
     4  Na  -0.030179  -0.074364
     5  Na   0.266332  -0.065833
     6  Na  -0.267118   0.598389
     7  Na   0.188226  -0.024364
 Sum of Mulliken charges =  -0.00000   1.00000

 Dipole moment (field-independent basis, Debye):
    X=              0.2665    Y=             -0.0544    Z=              0.0495  Tot=              0.2765
 Quadrupole moment (field-independent basis, Debye-Ang):
   XX=            -61.6989   YY=            -65.5620   ZZ=            -69.2825
   XY=              0.2988   XZ=             -1.3288   YZ=              1.5102

 Normal termination of Gaussian 16 at Tue Dec  5 18:07:25 2023.
