 Gaussian 16, Revision B.01,
 Gaussian 16:  ES64L-G16RevB.01 20-Dec-2017

 -------------------------
 #P B3LYP/6-311+g(d) force
 -------------------------

 -----
 DPGEN
 -----
 Symbolic Z-matrix:
 Charge =  0 Multiplicity = 2

                         Standard orientation:
 ---------------------------------------------------------------------
 Center     Atomic      Atomic             Coordinates (Angstroms)
 Number     Number       Type             X           Y           Z
 ---------------------------------------------------------------------
      1         11           0        1.103970   -1.794437   -0.561100
      2         11           0        4.528540   -0.591716   -0.781982
      3         11           0        2.245813    2.092043   -0.315151
      4         11           0       -0.839191    2.311542    0.476199
      5         11           0       -1.977930   -0.756249   -0.692975
      6         11           0        0.569006   -1.079883    2.331602
      7         11           0       -5.630208   -0.181300   -0.456593
 ---------------------------------------------------------------------

 SCF Done:  E(UB3LYP) =  -1136.10897774     A.U. after   29 cycles

 The electronic state is 2-A.
 Alpha  occ. eigenvalues --  -38.45831 -38.45432 -38.44531 -38.44199 -38.43493
 Alpha  occ. eigenvalues --  -38.43274 -38.42863  -2.21633  -2.21204  -2.20331
 Alpha  occ. eigenvalues --   -2.20020  -2.19390  -2.19110  -2.18682  -1.15324
 Alpha  occ. eigenvalues --   -1.15271  -1.15260  -1.14843  -1.14840  -1.14807
 Alpha  occ. eigenvalues --   -1.13986  -1.13962  -1.13953  -1.13730  -1.13703
 Alpha  occ. eigenvalues --   -1.13650  -1.13095  -1.13063  -1.12989  -1.12789
 Alpha  occ. eigenvalues --   -1.12771  -1.12746  -1.12368  -1.12361  -1.12312
 Alpha  occ. eigenvalues --   -0.17337  -0.13646  -0.11806  -0.11358
 Alpha virt. eigenvalues --   -0.07238  -0.05197  -0.04424  -0.03269  -0.02921
 Alpha virt. eigenvalues --   -0.02442  -0.02117  -0.01842  -0.01419  -0.00836
 Alpha virt. eigenvalues --   -0.00374   0.00146   0.00351   0.00520   0.00589

  Beta  occ. eigenvalues --  -38.45816 -38.45324 -38.44461 -38.44212 -38.43489
  Beta  occ. eigenvalues --  -38.43247 -38.42865  -2.21604  -2.21002  -2.20200
  Beta  occ. eigenvalues --   -2.20047  -2.19384  -2.19062  -2.18690  -1.15309
  Beta  occ. eigenvalues --   -1.15247  -1.15238  -1.14706  -1.14701  -1.14673
  Beta  occ. eigenvalues --   -1.13896  -1.13873  -1.13869  -1.13748  -1.13719
  Beta  occ. eigenvalues --   -1.13651  -1.13097  -1.13053  -1.12976  -1.12757
  Beta  occ. eigenvalues --   -1.12730  -1.12719  -1.12378  -1.12365  -1.12293
  Beta  occ. eigenvalues --   -0.16985  -0.12576  -0.11175
  Beta virt. eigenvalues --   -0.08449  -0.06900  -0.04711  -0.04115  -0.03148
  Beta virt. eigenvalues --   -0.02664  -0.02208  -0.01741  -0.01312  -0.01091
  Beta virt. eigenvalues --   -0.00569  -0.00144   0.00207   0.00444   0.00638

 Mulliken charges and spin densities:
               1          2
     1  Na   0.527991   0.241951
     2  Na   0.251367   0.238653
     3  Na  -0.158640   0.033362
     4  Na  -0.123640   0.054905
     5  Na  -0.915797   0.205519
     6  Na   0.177280   0.056315
     7  Na   0.241439   0.169295
 Sum of Mulliken charges =  -0.00000   1.00000

 Dipole moment (field-independent basis, Debye):
    X=             -0.3940    Y=             -0.8925    Z=              1.2215  Tot=              1.5633
 Quadrupole moment (field-independent basis, Debye-Ang):
   XX=            -54.6151   YY=            -80.3577   ZZ=            -62.0611
   XY=             -4.0495   XZ=             -0.2157   YZ=              2.3356

 Normal termination of Gaussian 16 at Tue Nov 28 22:43:14 2023.
