 Gaussian 16, Revision B.01,
 Gaussian 16:  ES64L-G16RevB.01 20-Dec-2017

 -------------------------
 #P B3LYP/6-311+g(d) force
 -------------------------

 -----
 DPGEN
 -----
 Symbolic Z-matrix:
 Charge =  0 Multiplicity = 2

                         Standard orientation:
 ---------------------------------------------------------------------
 Center     Atomic      Atomic             Coordinates (Angstroms)
 Number     Number       Type             X           Y           Z
 ---------------------------------------------------------------------
      1         11           0        2.320968   -1.729020   -0.919099
      2         11           0        1.843130    1.900495   -0.863084
      3         11           0       -0.957359   -0.191282   -1.946993
      4         11           0       -2.047261    2.018516    0.158282
      5         11           0        1.846076    0.824045    2.031414
      6         11           0       -3.355342   -1.059493    0.568020
      7         11           0        0.349788   -1.763261    0.971460
 ---------------------------------------------------------------------

 SCF Done:  E(UB3LYP) =  -1136.12279151     A.U. after   21 cycles

 The electronic state is 2-A.
 Alpha  occ. eigenvalues --  -38.44417 -38.44228 -38.44154 -38.44038 -38.43994
 Alpha  occ. eigenvalues --  -38.43248 -38.43100  -2.20227  -2.20123  -2.20044
 Alpha  occ. eigenvalues --   -2.19946  -2.19818  -2.19106  -2.19069  -1.13902
 Alpha  occ. eigenvalues --   -1.13876  -1.13873  -1.13818  -1.13791  -1.13764
 Alpha  occ. eigenvalues --   -1.13740  -1.13723  -1.13706  -1.13643  -1.13566
 Alpha  occ. eigenvalues --   -1.13542  -1.13504  -1.13486  -1.13427  -1.12793
 Alpha  occ. eigenvalues --   -1.12765  -1.12737  -1.12734  -1.12714  -1.12666
 Alpha  occ. eigenvalues --   -0.18549  -0.13680  -0.11580  -0.11494
 Alpha virt. eigenvalues --   -0.05798  -0.05314  -0.04441  -0.03324  -0.03158
 Alpha virt. eigenvalues --   -0.02902  -0.01581  -0.00916  -0.00442   0.00080
 Alpha virt. eigenvalues --    0.00206   0.00368   0.00475   0.00622   0.00776

  Beta  occ. eigenvalues --  -38.44406 -38.44169 -38.44085 -38.44019 -38.43992
  Beta  occ. eigenvalues --  -38.43238 -38.43077  -2.20207  -2.20016  -2.19917
  Beta  occ. eigenvalues --   -2.19912  -2.19816  -2.19091  -2.19031  -1.13882
  Beta  occ. eigenvalues --   -1.13862  -1.13859  -1.13773  -1.13751  -1.13690
  Beta  occ. eigenvalues --   -1.13653  -1.13633  -1.13621  -1.13557  -1.13531
  Beta  occ. eigenvalues --   -1.13509  -1.13490  -1.13478  -1.13427  -1.12777
  Beta  occ. eigenvalues --   -1.12736  -1.12726  -1.12701  -1.12680  -1.12631
  Beta  occ. eigenvalues --   -0.17786  -0.13470  -0.11309
  Beta virt. eigenvalues --   -0.07671  -0.05549  -0.05213  -0.03888  -0.03239
  Beta virt. eigenvalues --   -0.02458  -0.01971  -0.01487  -0.00844  -0.00131
  Beta virt. eigenvalues --    0.00091   0.00223   0.00416   0.00701   0.00752

 Mulliken charges and spin densities:
               1          2
     1  Na   0.324557   0.162233
     2  Na   0.104173   0.089774
     3  Na  -0.381225   0.308447
     4  Na  -0.080067   0.119097
     5  Na  -0.123054  -0.035587
     6  Na   0.243899  -0.083739
     7  Na  -0.088284   0.439776
 Sum of Mulliken charges =  -0.00000   1.00000

 Dipole moment (field-independent basis, Debye):
    X=             -0.6985    Y=              0.0802    Z=             -0.0337  Tot=              0.7039
 Quadrupole moment (field-independent basis, Debye-Ang):
   XX=            -56.2353   YY=            -73.9111   ZZ=            -65.8819
   XY=              0.3299   XZ=             -3.0992   YZ=              1.2815

 Normal termination of Gaussian 16 at Tue Dec  5 17:14:00 2023.
