 Gaussian 16, Revision B.01,
 Gaussian 16:  ES64L-G16RevB.01 20-Dec-2017

 -------------------------
 #P B3LYP/6-311+g(d) force
 -------------------------

 -----
 DPGEN
 -----
 Symbolic Z-matrix:
 Charge =  0 Multiplicity = 2

                         Standard orientation:
 ---------------------------------------------------------------------
 Center     Atomic      Atomic             Coordinates (Angstroms)
 Number     Number       Type             X           Y           Z
 ---------------------------------------------------------------------
      1         11           0       -1.724468    2.506399   -0.281635
      2         11           0       -0.198880   -2.695822   -0.004451
      3         11           0       -0.309049    0.000161    1.977843
      4         11           0        3.424268   -0.844696   -0.209156
      5         11           0        0.104867    0.106179   -1.699018
      6         11           0       -3.305317   -0.904030   -0.109973
      7         11           0        2.008579    1.831810    0.326388
 ---------------------------------------------------------------------

 SCF Done:  E(UB3LYP) =  -1136.13252230     A.U. after   20 cycles

 The electronic state is 2-A.
 Alpha  occ. eigenvalues --  -38.44915 -38.44568 -38.43477 -38.43461 -38.43457
 Alpha  occ. eigenvalues --  -38.43161 -38.43066  -2.20699  -2.20382  -2.19414
 Alpha  occ. eigenvalues --   -2.19389  -2.19365  -2.18992  -2.18920  -1.14378
 Alpha  occ. eigenvalues --   -1.14346  -1.14339  -1.14087  -1.14037  -1.14007
 Alpha  occ. eigenvalues --   -1.13143  -1.13091  -1.13076  -1.13046  -1.13040
 Alpha  occ. eigenvalues --   -1.13008  -1.12999  -1.12990  -1.12978  -1.12672
 Alpha  occ. eigenvalues --   -1.12650  -1.12626  -1.12616  -1.12597  -1.12524
 Alpha  occ. eigenvalues --   -0.18579  -0.13346  -0.11952  -0.10684
 Alpha virt. eigenvalues --   -0.06483  -0.05063  -0.04128  -0.03329  -0.02654
 Alpha virt. eigenvalues --   -0.02503  -0.02180  -0.01197  -0.00336  -0.00157
 Alpha virt. eigenvalues --   -0.00065   0.00294   0.00725   0.00766   0.00867

  Beta  occ. eigenvalues --  -38.44914 -38.44568 -38.43445 -38.43396 -38.43383
  Beta  occ. eigenvalues --  -38.43155 -38.43058  -2.20699  -2.20383  -2.19348
  Beta  occ. eigenvalues --   -2.19294  -2.19216  -2.18985  -2.18911  -1.14364
  Beta  occ. eigenvalues --   -1.14347  -1.14341  -1.14090  -1.14024  -1.14009
  Beta  occ. eigenvalues --   -1.13090  -1.13016  -1.13007  -1.12989  -1.12958
  Beta  occ. eigenvalues --   -1.12942  -1.12925  -1.12888  -1.12876  -1.12658
  Beta  occ. eigenvalues --   -1.12637  -1.12618  -1.12610  -1.12560  -1.12521
  Beta  occ. eigenvalues --   -0.17840  -0.13152  -0.11694
  Beta virt. eigenvalues --   -0.06772  -0.06417  -0.05059  -0.04105  -0.02591
  Beta virt. eigenvalues --   -0.02091  -0.01879  -0.01440  -0.01152  -0.00364
  Beta virt. eigenvalues --   -0.00177   0.00080   0.00317   0.00784   0.00856

 Mulliken charges and spin densities:
               1          2
     1  Na   0.095977  -0.075672
     2  Na   0.045739  -0.129071
     3  Na  -0.277754   0.656685
     4  Na   0.008834  -0.074042
     5  Na  -0.353334   0.665399
     6  Na   0.084478  -0.092087
     7  Na   0.396060   0.048787
 Sum of Mulliken charges =  -0.00000   1.00000

 Dipole moment (field-independent basis, Debye):
    X=             -0.2524    Y=             -0.2719    Z=              0.0154  Tot=              0.3713
 Quadrupole moment (field-independent basis, Debye-Ang):
   XX=            -49.6543   YY=            -67.7365   ZZ=            -74.7932
   XY=             -0.9501   XZ=              0.3838   YZ=              0.5070

 Normal termination of Gaussian 16 at Fri Dec  8 00:15:06 2023.
