 Gaussian 16, Revision B.01,
 Gaussian 16:  ES64L-G16RevB.01 20-Dec-2017

 -------------------------
 #P B3LYP/6-311+g(d) force
 -------------------------

 -----
 DPGEN
 -----
 Symbolic Z-matrix:
 Charge =  0 Multiplicity = 2

                         Standard orientation:
 ---------------------------------------------------------------------
 Center     Atomic      Atomic             Coordinates (Angstroms)
 Number     Number       Type             X           Y           Z
 ---------------------------------------------------------------------
      1         11           0        3.201765    0.458188    0.856465
      2         11           0        3.800773   -2.904978   -0.142482
      3         11           0       -2.990173   -1.412176   -0.304362
      4         11           0        1.696785    3.879919   -0.085276
      5         11           0       -5.984387   -0.120044    0.537397
      6         11           0        0.810992   -1.408718   -0.157233
      7         11           0       -0.535754    1.507809   -0.704509
 ---------------------------------------------------------------------

 SCF Done:  E(UB3LYP) =  -1136.12346821     A.U. after   19 cycles

 The electronic state is 2-A.
 Alpha  occ. eigenvalues --  -38.44994 -38.44416 -38.44202 -38.44061 -38.43751
 Alpha  occ. eigenvalues --  -38.43749 -38.43323  -2.20815  -2.20220  -2.20005
 Alpha  occ. eigenvalues --   -2.19906  -2.19670  -2.19546  -2.19115  -1.14543
 Alpha  occ. eigenvalues --   -1.14504  -1.14379  -1.13892  -1.13882  -1.13842
 Alpha  occ. eigenvalues --   -1.13639  -1.13638  -1.13631  -1.13623  -1.13591
 Alpha  occ. eigenvalues --   -1.13503  -1.13376  -1.13349  -1.13245  -1.13208
 Alpha  occ. eigenvalues --   -1.13207  -1.13171  -1.12807  -1.12798  -1.12757
 Alpha  occ. eigenvalues --   -0.16996  -0.13679  -0.12619  -0.11017
 Alpha virt. eigenvalues --   -0.06254  -0.05191  -0.04559  -0.03986  -0.02440
 Alpha virt. eigenvalues --   -0.02356  -0.02054  -0.01724  -0.01152  -0.00880
 Alpha virt. eigenvalues --   -0.00329  -0.00027   0.00309   0.00387   0.00616

  Beta  occ. eigenvalues --  -38.44972 -38.44407 -38.44100 -38.44038 -38.43734
  Beta  occ. eigenvalues --  -38.43708 -38.43327  -2.20775  -2.20203  -2.19868
  Beta  occ. eigenvalues --   -2.19813  -2.19595  -2.19517  -2.19132  -1.14513
  Beta  occ. eigenvalues --   -1.14478  -1.14345  -1.13879  -1.13870  -1.13830
  Beta  occ. eigenvalues --   -1.13592  -1.13568  -1.13509  -1.13507  -1.13499
  Beta  occ. eigenvalues --   -1.13471  -1.13332  -1.13302  -1.13188  -1.13187
  Beta  occ. eigenvalues --   -1.13162  -1.13151  -1.12828  -1.12817  -1.12707
  Beta  occ. eigenvalues --   -0.16457  -0.12987  -0.12307
  Beta virt. eigenvalues --   -0.07547  -0.06145  -0.04773  -0.04079  -0.03840
  Beta virt. eigenvalues --   -0.02321  -0.01969  -0.01835  -0.01412  -0.00915
  Beta virt. eigenvalues --   -0.00564   0.00018   0.00070   0.00443   0.00490

 Mulliken charges and spin densities:
               1          2
     1  Na  -0.190228   0.238896
     2  Na   1.151916   0.073317
     3  Na  -0.442752  -0.002315
     4  Na   0.626231   0.091604
     5  Na   0.311850   0.449380
     6  Na  -0.804629   0.163219
     7  Na  -0.652388  -0.014102
 Sum of Mulliken charges =  -0.00000   1.00000

 Dipole moment (field-independent basis, Debye):
    X=              1.8233    Y=             -0.0847    Z=              0.0307  Tot=              1.8255
 Quadrupole moment (field-independent basis, Debye-Ang):
   XX=            -62.6156   YY=            -59.9994   ZZ=            -71.7931
   XY=             -6.6038   XZ=             -0.0104   YZ=              1.3931

 Normal termination of Gaussian 16 at Wed Nov 29 00:27:50 2023.
