 Gaussian 16, Revision B.01,
 Gaussian 16:  ES64L-G16RevB.01 20-Dec-2017

 -------------------------
 #P B3LYP/6-311+g(d) force
 -------------------------

 -----
 DPGEN
 -----
 Symbolic Z-matrix:
 Charge =  0 Multiplicity = 2

                         Standard orientation:
 ---------------------------------------------------------------------
 Center     Atomic      Atomic             Coordinates (Angstroms)
 Number     Number       Type             X           Y           Z
 ---------------------------------------------------------------------
      1         11           0        0.024776   -0.329713   -1.333589
      2         11           0       -2.073012   -2.283992    0.225018
      3         11           0       -3.567542    0.701392   -0.512436
      4         11           0       -0.781501    2.162139    0.596951
      5         11           0        1.135619   -0.715321    2.253754
      6         11           0        2.921942   -1.393643   -0.934985
      7         11           0        2.339718    1.859139   -0.294713
 ---------------------------------------------------------------------

 SCF Done:  E(UB3LYP) =  -1136.12705319     A.U. after   22 cycles

 The electronic state is 2-A.
 Alpha  occ. eigenvalues --  -38.44700 -38.44106 -38.44094 -38.43836 -38.43765
 Alpha  occ. eigenvalues --  -38.43593 -38.42558  -2.20515  -2.19959  -2.19943
 Alpha  occ. eigenvalues --   -2.19651  -2.19649  -2.19587  -2.18454  -1.14189
 Alpha  occ. eigenvalues --   -1.14171  -1.14150  -1.13672  -1.13609  -1.13600
 Alpha  occ. eigenvalues --   -1.13591  -1.13562  -1.13554  -1.13374  -1.13351
 Alpha  occ. eigenvalues --   -1.13311  -1.13305  -1.13286  -1.13279  -1.13272
 Alpha  occ. eigenvalues --   -1.13222  -1.13194  -1.12158  -1.12103  -1.12087
 Alpha  occ. eigenvalues --   -0.18496  -0.13852  -0.11493  -0.11087
 Alpha virt. eigenvalues --   -0.06350  -0.05553  -0.03994  -0.03274  -0.02865
 Alpha virt. eigenvalues --   -0.02505  -0.02173  -0.01147  -0.00526  -0.00274
 Alpha virt. eigenvalues --    0.00153   0.00249   0.00500   0.00707   0.00800

  Beta  occ. eigenvalues --  -38.44694 -38.44066 -38.44001 -38.43836 -38.43754
  Beta  occ. eigenvalues --  -38.43562 -38.42550  -2.20506  -2.19911  -2.19748
  Beta  occ. eigenvalues --   -2.19651  -2.19634  -2.19533  -2.18442  -1.14180
  Beta  occ. eigenvalues --   -1.14165  -1.14144  -1.13633  -1.13578  -1.13538
  Beta  occ. eigenvalues --   -1.13464  -1.13438  -1.13415  -1.13366  -1.13340
  Beta  occ. eigenvalues --   -1.13305  -1.13284  -1.13273  -1.13258  -1.13230
  Beta  occ. eigenvalues --   -1.13188  -1.13153  -1.12153  -1.12089  -1.12064
  Beta  occ. eigenvalues --   -0.17825  -0.13598  -0.11310
  Beta virt. eigenvalues --   -0.07100  -0.06191  -0.05510  -0.03681  -0.02942
  Beta virt. eigenvalues --   -0.02106  -0.01950  -0.01600  -0.01123  -0.00406
  Beta virt. eigenvalues --   -0.00036   0.00155   0.00292   0.00662   0.00750

 Mulliken charges and spin densities:
               1          2
     1  Na  -0.485397  -0.079194
     2  Na  -0.125531   0.172110
     3  Na   0.698381  -0.023182
     4  Na  -0.438738   0.104232
     5  Na  -0.328074   0.542515
     6  Na   0.427495   0.183516
     7  Na   0.251864   0.100002
 Sum of Mulliken charges =  -0.00000   1.00000

 Dipole moment (field-independent basis, Debye):
    X=             -0.1826    Y=             -0.1994    Z=              0.0883  Tot=              0.2845
 Quadrupole moment (field-independent basis, Debye-Ang):
   XX=            -49.8790   YY=            -71.6733   ZZ=            -71.8295
   XY=             -0.2898   XZ=              0.2266   YZ=             -0.9477

 Normal termination of Gaussian 16 at Fri Dec  8 04:54:44 2023.
