 Gaussian 16, Revision B.01,
 Gaussian 16:  ES64L-G16RevB.01 20-Dec-2017

 -------------------------
 #P B3LYP/6-311+g(d) force
 -------------------------

 -----
 DPGEN
 -----
 Symbolic Z-matrix:
 Charge =  0 Multiplicity = 2

                         Standard orientation:
 ---------------------------------------------------------------------
 Center     Atomic      Atomic             Coordinates (Angstroms)
 Number     Number       Type             X           Y           Z
 ---------------------------------------------------------------------
      1         11           0        1.502504   -0.096074   -1.486982
      2         11           0       -1.764304    2.560413   -0.471344
      3         11           0       -0.616172   -0.917738    1.753025
      4         11           0       -3.372601   -0.171536    0.164234
      5         11           0       -0.583389   -2.662984   -0.950850
      6         11           0        2.738380   -1.143128    0.627425
      7         11           0        2.095581    2.431047    0.364490
 ---------------------------------------------------------------------

 SCF Done:  E(UB3LYP) =  -1136.12130769     A.U. after   21 cycles

 The electronic state is 2-A.
 Alpha  occ. eigenvalues --  -38.44748 -38.44302 -38.44095 -38.43962 -38.43750
 Alpha  occ. eigenvalues --  -38.43636 -38.43468  -2.20671  -2.20136  -2.19908
 Alpha  occ. eigenvalues --   -2.19754  -2.19744  -2.19496  -2.19372  -1.14580
 Alpha  occ. eigenvalues --   -1.14299  -1.14234  -1.13821  -1.13808  -1.13772
 Alpha  occ. eigenvalues --   -1.13619  -1.13569  -1.13536  -1.13418  -1.13413
 Alpha  occ. eigenvalues --   -1.13405  -1.13381  -1.13377  -1.13326  -1.13195
 Alpha  occ. eigenvalues --   -1.13160  -1.13111  -1.13027  -1.13002  -1.12996
 Alpha  occ. eigenvalues --   -0.18310  -0.13659  -0.12358  -0.10416
 Alpha virt. eigenvalues --   -0.06064  -0.05706  -0.04653  -0.03534  -0.02800
 Alpha virt. eigenvalues --   -0.02125  -0.01574  -0.01162  -0.00792  -0.00414
 Alpha virt. eigenvalues --   -0.00021   0.00382   0.00632   0.00781   0.00792

  Beta  occ. eigenvalues --  -38.44729 -38.44301 -38.44091 -38.43958 -38.43702
  Beta  occ. eigenvalues --  -38.43604 -38.43406  -2.20640  -2.20135  -2.19902
  Beta  occ. eigenvalues --   -2.19737  -2.19668  -2.19439  -2.19258  -1.14551
  Beta  occ. eigenvalues --   -1.14256  -1.14212  -1.13818  -1.13796  -1.13774
  Beta  occ. eigenvalues --   -1.13610  -1.13559  -1.13526  -1.13408  -1.13399
  Beta  occ. eigenvalues --   -1.13377  -1.13356  -1.13322  -1.13251  -1.13154
  Beta  occ. eigenvalues --   -1.13100  -1.13070  -1.12951  -1.12923  -1.12913
  Beta  occ. eigenvalues --   -0.17651  -0.13481  -0.12131
  Beta virt. eigenvalues --   -0.06601  -0.06026  -0.05575  -0.04416  -0.02886
  Beta virt. eigenvalues --   -0.02227  -0.01516  -0.01237  -0.01042  -0.00768
  Beta virt. eigenvalues --   -0.00403   0.00163   0.00451   0.00751   0.00819

 Mulliken charges and spin densities:
               1          2
     1  Na   0.453589   0.576455
     2  Na  -0.455272  -0.094509
     3  Na  -0.072324   0.519650
     4  Na   0.406688   0.032651
     5  Na  -0.388705  -0.072401
     6  Na   0.281684   0.071933
     7  Na  -0.225659  -0.033779
 Sum of Mulliken charges =  -0.00000   1.00000

 Dipole moment (field-independent basis, Debye):
    X=             -0.0761    Y=             -0.0077    Z=              0.1938  Tot=              0.2083
 Quadrupole moment (field-independent basis, Debye-Ang):
   XX=            -56.5439   YY=            -64.4516   ZZ=            -74.5803
   XY=              1.4809   XZ=              2.9089   YZ=              1.1427

 Normal termination of Gaussian 16 at Sat Dec  9 06:30:13 2023.
