 Gaussian 16, Revision B.01,
 Gaussian 16:  ES64L-G16RevB.01 20-Dec-2017

 -------------------------
 #P B3LYP/6-311+g(d) force
 -------------------------

 -----
 DPGEN
 -----
 Symbolic Z-matrix:
 Charge =  0 Multiplicity = 2

                         Standard orientation:
 ---------------------------------------------------------------------
 Center     Atomic      Atomic             Coordinates (Angstroms)
 Number     Number       Type             X           Y           Z
 ---------------------------------------------------------------------
      1         11           0       -2.750293   -1.132077   -0.717573
      2         11           0       -5.245381   -0.439817    0.924487
      3         11           0       -3.165180    1.991513   -0.158228
      4         11           0        0.282001    1.328564   -0.414929
      5         11           0        0.257130   -2.014780   -0.184122
      6         11           0        3.170088    0.224271    0.364783
      7         11           0        7.451636    0.042325    0.185582
 ---------------------------------------------------------------------

 SCF Done:  E(UB3LYP) =  -1136.10617546     A.U. after   29 cycles

 The electronic state is 2-A.
 Alpha  occ. eigenvalues --  -38.44891 -38.44862 -38.44493 -38.44451 -38.44409
 Alpha  occ. eigenvalues --  -38.44244 -38.44098  -2.20744  -2.20734  -2.20359
 Alpha  occ. eigenvalues --   -2.20341  -2.20205  -2.20109  -2.19878  -1.14461
 Alpha  occ. eigenvalues --   -1.14432  -1.14410  -1.14391  -1.14380  -1.14308
 Alpha  occ. eigenvalues --   -1.14045  -1.14024  -1.14016  -1.14008  -1.13993
 Alpha  occ. eigenvalues --   -1.13970  -1.13874  -1.13873  -1.13825  -1.13764
 Alpha  occ. eigenvalues --   -1.13755  -1.13721  -1.13584  -1.13565  -1.13479
 Alpha  occ. eigenvalues --   -0.17963  -0.14336  -0.11934  -0.11101
 Alpha virt. eigenvalues --   -0.07649  -0.05424  -0.04764  -0.03856  -0.03466
 Alpha virt. eigenvalues --   -0.02339  -0.02010  -0.01547  -0.01059  -0.00789
 Alpha virt. eigenvalues --   -0.00504  -0.00256  -0.00171   0.00199   0.00495

  Beta  occ. eigenvalues --  -38.44882 -38.44799 -38.44464 -38.44405 -38.44378
  Beta  occ. eigenvalues --  -38.44207 -38.44114  -2.20718  -2.20629  -2.20306
  Beta  occ. eigenvalues --   -2.20257  -2.20152  -2.20041  -2.19909  -1.14435
  Beta  occ. eigenvalues --   -1.14379  -1.14371  -1.14356  -1.14325  -1.14227
  Beta  occ. eigenvalues --   -1.14001  -1.13974  -1.13961  -1.13955  -1.13949
  Beta  occ. eigenvalues --   -1.13904  -1.13837  -1.13837  -1.13789  -1.13718
  Beta  occ. eigenvalues --   -1.13714  -1.13670  -1.13599  -1.13585  -1.13499
  Beta  occ. eigenvalues --   -0.17312  -0.14354  -0.10789
  Beta virt. eigenvalues --   -0.08026  -0.07256  -0.04896  -0.04473  -0.03756
  Beta virt. eigenvalues --   -0.02719  -0.02293  -0.01631  -0.01450  -0.00759
  Beta virt. eigenvalues --   -0.00621  -0.00135  -0.00090   0.00029   0.00335

 Mulliken charges and spin densities:
               1          2
     1  Na  -0.992173   0.200108
     2  Na   0.636918  -0.004177
     3  Na   0.018526   0.064546
     4  Na  -0.540885   0.520543
     5  Na   0.413735   0.229806
     6  Na   0.456955  -0.136492
     7  Na   0.006925   0.125667
 Sum of Mulliken charges =  -0.00000   1.00000

 Dipole moment (field-independent basis, Debye):
    X=             -3.3549    Y=             -0.2822    Z=              0.2410  Tot=              3.3753
 Quadrupole moment (field-independent basis, Debye-Ang):
   XX=            -64.6477   YY=            -68.7693   ZZ=            -71.2413
   XY=             -2.0983   XZ=             -4.0200   YZ=             -1.0473

 Normal termination of Gaussian 16 at Tue Nov 28 19:33:22 2023.
