 Gaussian 16, Revision B.01,
 Gaussian 16:  ES64L-G16RevB.01 20-Dec-2017

 -------------------------
 #P B3LYP/6-311+g(d) force
 -------------------------

 -----
 DPGEN
 -----
 Symbolic Z-matrix:
 Charge =  0 Multiplicity = 2

                         Standard orientation:
 ---------------------------------------------------------------------
 Center     Atomic      Atomic             Coordinates (Angstroms)
 Number     Number       Type             X           Y           Z
 ---------------------------------------------------------------------
      1         11           0        2.212059    1.806382    0.170217
      2         11           0       -4.556167    0.565639   -0.266477
      3         11           0        4.379261   -0.493542   -0.102257
      4         11           0       -2.391199   -1.869686    0.433672
      5         11           0       -1.347177    1.654096   -0.281212
      6         11           0        0.992279   -1.128690   -1.839169
      7         11           0        0.710944   -0.534198    1.885227
 ---------------------------------------------------------------------

 SCF Done:  E(UB3LYP) =  -1136.10951431     A.U. after   30 cycles

 The electronic state is 2-A.
 Alpha  occ. eigenvalues --  -38.45676 -38.45247 -38.44886 -38.43659 -38.43643
 Alpha  occ. eigenvalues --  -38.43478 -38.43164  -2.21439  -2.21103  -2.20722
 Alpha  occ. eigenvalues --   -2.19481  -2.19479  -2.19319  -2.19069  -1.15145
 Alpha  occ. eigenvalues --   -1.15086  -1.15055  -1.14772  -1.14763  -1.14709
 Alpha  occ. eigenvalues --   -1.14375  -1.14371  -1.14333  -1.13183  -1.13174
 Alpha  occ. eigenvalues --   -1.13140  -1.13124  -1.13116  -1.13070  -1.13036
 Alpha  occ. eigenvalues --   -1.12987  -1.12931  -1.12763  -1.12736  -1.12704
 Alpha  occ. eigenvalues --   -0.18155  -0.14519  -0.11254  -0.10489
 Alpha virt. eigenvalues --   -0.08037  -0.05147  -0.04589  -0.03536  -0.02990
 Alpha virt. eigenvalues --   -0.02252  -0.02160  -0.01584  -0.01206  -0.00917
 Alpha virt. eigenvalues --   -0.00265   0.00151   0.00191   0.00544   0.00717

  Beta  occ. eigenvalues --  -38.45674 -38.45196 -38.44810 -38.43651 -38.43592
  Beta  occ. eigenvalues --  -38.43468 -38.43146  -2.21436  -2.21011  -2.20580
  Beta  occ. eigenvalues --   -2.19468  -2.19384  -2.19306  -2.19045  -1.15138
  Beta  occ. eigenvalues --   -1.15088  -1.15046  -1.14709  -1.14694  -1.14641
  Beta  occ. eigenvalues --   -1.14283  -1.14271  -1.14235  -1.13166  -1.13157
  Beta  occ. eigenvalues --   -1.13106  -1.13064  -1.13061  -1.13031  -1.13024
  Beta  occ. eigenvalues --   -1.12975  -1.12892  -1.12751  -1.12724  -1.12639
  Beta  occ. eigenvalues --   -0.17502  -0.13861  -0.10286
  Beta virt. eigenvalues --   -0.07815  -0.07690  -0.04982  -0.03872  -0.03266
  Beta virt. eigenvalues --   -0.02858  -0.02052  -0.01695  -0.01330  -0.00808
  Beta virt. eigenvalues --   -0.00541  -0.00128   0.00204   0.00306   0.00622

 Mulliken charges and spin densities:
               1          2
     1  Na   0.041464  -0.050599
     2  Na   0.392612   0.384448
     3  Na   0.277461   0.468583
     4  Na   0.005703   0.031761
     5  Na  -0.597494  -0.103353
     6  Na  -0.112617   0.077977
     7  Na  -0.007129   0.191183
 Sum of Mulliken charges =  -0.00000   1.00000

 Dipole moment (field-independent basis, Debye):
    X=              0.9594    Y=             -1.0074    Z=              0.2844  Tot=              1.4199
 Quadrupole moment (field-independent basis, Debye-Ang):
   XX=            -61.7258   YY=            -81.0398   ZZ=            -60.9839
   XY=              0.4291   XZ=              1.5921   YZ=             -2.5972

 Normal termination of Gaussian 16 at Thu Dec  7 23:42:48 2023.
