 Gaussian 16, Revision B.01,
 Gaussian 16:  ES64L-G16RevB.01 20-Dec-2017

 -------------------------
 #P B3LYP/6-311+g(d) force
 -------------------------

 -----
 DPGEN
 -----
 Symbolic Z-matrix:
 Charge =  0 Multiplicity = 2

                         Standard orientation:
 ---------------------------------------------------------------------
 Center     Atomic      Atomic             Coordinates (Angstroms)
 Number     Number       Type             X           Y           Z
 ---------------------------------------------------------------------
      1         11           0        1.597885    3.966128   -0.790491
      2         11           0        0.415190   -3.344816   -1.082911
      3         11           0       -1.528605    3.008065   -0.350299
      4         11           0       -4.001459    0.402911    1.196938
      5         11           0       -3.245269   -2.328246   -0.385507
      6         11           0        3.582419   -2.174754    0.558622
      7         11           0        3.179839    0.470711    0.853648
 ---------------------------------------------------------------------

 SCF Done:  E(UB3LYP) =  -1136.10450564     A.U. after   20 cycles

 The electronic state is 2-A.
 Alpha  occ. eigenvalues --  -38.45176 -38.44987 -38.44809 -38.44795 -38.44301
 Alpha  occ. eigenvalues --  -38.43996 -38.43982  -2.21032  -2.20741  -2.20573
 Alpha  occ. eigenvalues --   -2.20567  -2.20178  -2.19804  -2.19770  -1.14877
 Alpha  occ. eigenvalues --   -1.14659  -1.14637  -1.14429  -1.14416  -1.14372
 Alpha  occ. eigenvalues --   -1.14258  -1.14246  -1.14229  -1.14227  -1.14210
 Alpha  occ. eigenvalues --   -1.14173  -1.13845  -1.13793  -1.13772  -1.13453
 Alpha  occ. eigenvalues --   -1.13445  -1.13441  -1.13428  -1.13419  -1.13411
 Alpha  occ. eigenvalues --   -0.15613  -0.14001  -0.13321  -0.10971
 Alpha virt. eigenvalues --   -0.07251  -0.04869  -0.04627  -0.03702  -0.03419
 Alpha virt. eigenvalues --   -0.02082  -0.02009  -0.01891  -0.01561  -0.01200
 Alpha virt. eigenvalues --   -0.00657  -0.00231  -0.00009   0.00464   0.00765

  Beta  occ. eigenvalues --  -38.45136 -38.44983 -38.44817 -38.44704 -38.44286
  Beta  occ. eigenvalues --  -38.43956 -38.43944  -2.20961  -2.20738  -2.20591
  Beta  occ. eigenvalues --   -2.20400  -2.20155  -2.19722  -2.19706  -1.14820
  Beta  occ. eigenvalues --   -1.14612  -1.14584  -1.14429  -1.14418  -1.14346
  Beta  occ. eigenvalues --   -1.14276  -1.14264  -1.14198  -1.14114  -1.14100
  Beta  occ. eigenvalues --   -1.14057  -1.13813  -1.13782  -1.13746  -1.13395
  Beta  occ. eigenvalues --   -1.13387  -1.13385  -1.13385  -1.13379  -1.13373
  Beta  occ. eigenvalues --   -0.15086  -0.13482  -0.12655
  Beta virt. eigenvalues --   -0.07671  -0.07226  -0.04523  -0.04172  -0.03530
  Beta virt. eigenvalues --   -0.02920  -0.01994  -0.01844  -0.01719  -0.01374
  Beta virt. eigenvalues --   -0.00762  -0.00414   0.00042   0.00203   0.00476

 Mulliken charges and spin densities:
               1          2
     1  Na   0.464051   0.118271
     2  Na  -0.053056   0.468920
     3  Na  -0.352603   0.049085
     4  Na   0.005487   0.246483
     5  Na  -0.052104  -0.062280
     6  Na   0.515187  -0.013939
     7  Na  -0.526962   0.193461
 Sum of Mulliken charges =  -0.00000   1.00000

 Dipole moment (field-independent basis, Debye):
    X=              0.3134    Y=              0.0060    Z=              0.0358  Tot=              0.3155
 Quadrupole moment (field-independent basis, Debye-Ang):
   XX=            -63.7996   YY=            -65.7861   ZZ=            -71.9672
   XY=              0.1430   XZ=             -1.1368   YZ=              0.8956

 Normal termination of Gaussian 16 at Sun Dec  3 14:16:53 2023.
