 Gaussian 16, Revision B.01,
 Gaussian 16:  ES64L-G16RevB.01 20-Dec-2017

 -------------------------
 #P B3LYP/6-311+g(d) force
 -------------------------

 -----
 DPGEN
 -----
 Symbolic Z-matrix:
 Charge =  0 Multiplicity = 2

                         Standard orientation:
 ---------------------------------------------------------------------
 Center     Atomic      Atomic             Coordinates (Angstroms)
 Number     Number       Type             X           Y           Z
 ---------------------------------------------------------------------
      1         11           0        3.792469   -1.562958    0.354374
      2         11           0        0.818377    3.807109   -0.299258
      3         11           0        3.384175    2.197538   -0.466511
      4         11           0       -2.161630   -2.797352   -0.607845
      5         11           0       -2.689079    2.321873    0.931000
      6         11           0       -4.726810   -0.292956   -0.242446
      7         11           0        1.582498   -3.673254    0.330686
 ---------------------------------------------------------------------

 SCF Done:  E(UB3LYP) =  -1136.10506055     A.U. after   20 cycles

 The electronic state is 2-A.
 Alpha  occ. eigenvalues --  -38.45072 -38.44620 -38.44599 -38.44555 -38.44496
 Alpha  occ. eigenvalues --  -38.44461 -38.44458  -2.20823  -2.20416  -2.20391
 Alpha  occ. eigenvalues --   -2.20335  -2.20308  -2.20273  -2.20234  -1.14509
 Alpha  occ. eigenvalues --   -1.14489  -1.14479  -1.14173  -1.14137  -1.14078
 Alpha  occ. eigenvalues --   -1.14065  -1.14056  -1.14042  -1.13991  -1.13979
 Alpha  occ. eigenvalues --   -1.13956  -1.13948  -1.13944  -1.13921  -1.13912
 Alpha  occ. eigenvalues --   -1.13903  -1.13892  -1.13880  -1.13877  -1.13843
 Alpha  occ. eigenvalues --   -0.15416  -0.13911  -0.13579  -0.10752
 Alpha virt. eigenvalues --   -0.07939  -0.05008  -0.04470  -0.03625  -0.03359
 Alpha virt. eigenvalues --   -0.02383  -0.02201  -0.01945  -0.01598  -0.00935
 Alpha virt. eigenvalues --   -0.00696  -0.00180   0.00138   0.00239   0.00583

  Beta  occ. eigenvalues --  -38.45090 -38.44614 -38.44597 -38.44477 -38.44467
  Beta  occ. eigenvalues --  -38.44425 -38.44372  -2.20861  -2.20410  -2.20393
  Beta  occ. eigenvalues --   -2.20256  -2.20208  -2.20188  -2.20075  -1.14539
  Beta  occ. eigenvalues --   -1.14519  -1.14469  -1.14145  -1.14113  -1.14077
  Beta  occ. eigenvalues --   -1.14061  -1.14054  -1.14034  -1.13922  -1.13910
  Beta  occ. eigenvalues --   -1.13891  -1.13880  -1.13877  -1.13872  -1.13863
  Beta  occ. eigenvalues --   -1.13854  -1.13832  -1.13783  -1.13771  -1.13741
  Beta  occ. eigenvalues --   -0.14901  -0.13326  -0.12915
  Beta virt. eigenvalues --   -0.07930  -0.07539  -0.04638  -0.03909  -0.03453
  Beta virt. eigenvalues --   -0.02988  -0.02256  -0.02119  -0.01745  -0.01501
  Beta virt. eigenvalues --   -0.00532  -0.00375  -0.00007   0.00311   0.00370

 Mulliken charges and spin densities:
               1          2
     1  Na  -0.011405   0.154285
     2  Na  -0.161811  -0.019716
     3  Na   0.317574   0.132642
     4  Na  -0.406965   0.436916
     5  Na  -0.446549   0.393378
     6  Na   0.415516  -0.064994
     7  Na   0.293640  -0.032511
 Sum of Mulliken charges =  -0.00000   1.00000

 Dipole moment (field-independent basis, Debye):
    X=             -0.1106    Y=              0.1322    Z=             -0.0348  Tot=              0.1759
 Quadrupole moment (field-independent basis, Debye-Ang):
   XX=            -58.3748   YY=            -68.3259   ZZ=            -73.9592
   XY=              0.4354   XZ=              0.8910   YZ=             -0.1795

 Normal termination of Gaussian 16 at Mon Dec  4 02:35:53 2023.
