 Gaussian 16, Revision B.01,
 Gaussian 16:  ES64L-G16RevB.01 20-Dec-2017

 -------------------------
 #P B3LYP/6-311+g(d) force
 -------------------------

 -----
 DPGEN
 -----
 Symbolic Z-matrix:
 Charge =  0 Multiplicity = 2

                         Standard orientation:
 ---------------------------------------------------------------------
 Center     Atomic      Atomic             Coordinates (Angstroms)
 Number     Number       Type             X           Y           Z
 ---------------------------------------------------------------------
      1         11           0       -2.826258   -2.023664    0.547436
      2         11           0        0.326879   -0.216058    1.720379
      3         11           0        3.575780    0.585652    0.411830
      4         11           0       -0.883415   -0.632558   -1.695017
      5         11           0        2.523341   -1.720621   -0.636639
      6         11           0       -3.007306    1.554158    0.084123
      7         11           0        0.290979    2.453091   -0.432113
 ---------------------------------------------------------------------

 SCF Done:  E(UB3LYP) =  -1136.12004342     A.U. after   24 cycles

 The electronic state is 2-A.
 Alpha  occ. eigenvalues --  -38.45293 -38.44959 -38.44371 -38.44345 -38.43556
 Alpha  occ. eigenvalues --  -38.43399 -38.42492  -2.21171  -2.20769  -2.20264
 Alpha  occ. eigenvalues --   -2.20217  -2.19381  -2.19311  -2.18346  -1.15000
 Alpha  occ. eigenvalues --   -1.14799  -1.14771  -1.14453  -1.14422  -1.14401
 Alpha  occ. eigenvalues --   -1.13931  -1.13926  -1.13891  -1.13878  -1.13856
 Alpha  occ. eigenvalues --   -1.13820  -1.13076  -1.13036  -1.13032  -1.12997
 Alpha  occ. eigenvalues --   -1.12931  -1.12920  -1.12043  -1.12013  -1.11969
 Alpha  occ. eigenvalues --   -0.18423  -0.14306  -0.11359  -0.10503
 Alpha virt. eigenvalues --   -0.07017  -0.05687  -0.04235  -0.03334  -0.02654
 Alpha virt. eigenvalues --   -0.02457  -0.02115  -0.01432  -0.00565  -0.00282
 Alpha virt. eigenvalues --   -0.00001   0.00219   0.00463   0.00595   0.00718

  Beta  occ. eigenvalues --  -38.45289 -38.44957 -38.44353 -38.44285 -38.43548
  Beta  occ. eigenvalues --  -38.43332 -38.42484  -2.21165  -2.20767  -2.20233
  Beta  occ. eigenvalues --   -2.20108  -2.19367  -2.19189  -2.18335  -1.14997
  Beta  occ. eigenvalues --   -1.14781  -1.14766  -1.14439  -1.14423  -1.14398
  Beta  occ. eigenvalues --   -1.13912  -1.13880  -1.13834  -1.13834  -1.13784
  Beta  occ. eigenvalues --   -1.13737  -1.13056  -1.13027  -1.13010  -1.12918
  Beta  occ. eigenvalues --   -1.12841  -1.12835  -1.12038  -1.11985  -1.11958
  Beta  occ. eigenvalues --   -0.17739  -0.14135  -0.11135
  Beta virt. eigenvalues --   -0.06848  -0.06718  -0.05624  -0.03726  -0.03079
  Beta virt. eigenvalues --   -0.02500  -0.01802  -0.01378  -0.01197  -0.00540
  Beta virt. eigenvalues --   -0.00067   0.00035   0.00247   0.00632   0.00720

 Mulliken charges and spin densities:
               1          2
     1  Na   0.038374   0.082007
     2  Na  -0.266049   0.419601
     3  Na   0.715292   0.065619
     4  Na   0.164956   0.316286
     5  Na  -0.321196   0.126852
     6  Na   0.124394   0.021099
     7  Na  -0.455770  -0.031465
 Sum of Mulliken charges =  -0.00000   1.00000

 Dipole moment (field-independent basis, Debye):
    X=              0.1526    Y=              0.3018    Z=              0.2602  Tot=              0.4267
 Quadrupole moment (field-independent basis, Debye-Ang):
   XX=            -46.9289   YY=            -72.4178   ZZ=            -74.6677
   XY=             -0.3188   XZ=             -0.8124   YZ=             -0.0352

 Normal termination of Gaussian 16 at Fri Dec  8 00:53:53 2023.
