 Gaussian 16, Revision B.01,
 Gaussian 16:  ES64L-G16RevB.01 20-Dec-2017

 -------------------------
 #P B3LYP/6-311+g(d) force
 -------------------------

 -----
 DPGEN
 -----
 Symbolic Z-matrix:
 Charge =  0 Multiplicity = 2

                         Standard orientation:
 ---------------------------------------------------------------------
 Center     Atomic      Atomic             Coordinates (Angstroms)
 Number     Number       Type             X           Y           Z
 ---------------------------------------------------------------------
      1         11           0       -3.086759   -1.786605   -0.358624
      2         11           0       -0.697963   -0.583768    1.824806
      3         11           0        2.270943   -1.931651    0.575543
      4         11           0        3.632846    0.428251   -0.906117
      5         11           0        1.189296    2.328247    0.826722
      6         11           0       -0.149463   -0.325038   -1.671609
      7         11           0       -3.158900    1.870565   -0.290721
 ---------------------------------------------------------------------

 SCF Done:  E(UB3LYP) =  -1136.11984976     A.U. after   27 cycles

 The electronic state is 2-A.
 Alpha  occ. eigenvalues --  -38.45069 -38.44769 -38.44557 -38.44391 -38.43860
 Alpha  occ. eigenvalues --  -38.43465 -38.43124  -2.20896  -2.20518  -2.20400
 Alpha  occ. eigenvalues --   -2.20202  -2.19708  -2.19366  -2.18926  -1.14607
 Alpha  occ. eigenvalues --   -1.14540  -1.14515  -1.14206  -1.14166  -1.14161
 Alpha  occ. eigenvalues --   -1.14094  -1.14045  -1.14024  -1.13884  -1.13855
 Alpha  occ. eigenvalues --   -1.13834  -1.13375  -1.13367  -1.13358  -1.13050
 Alpha  occ. eigenvalues --   -1.12999  -1.12970  -1.12605  -1.12592  -1.12554
 Alpha  occ. eigenvalues --   -0.18029  -0.14077  -0.10907  -0.10867
 Alpha virt. eigenvalues --   -0.06818  -0.06070  -0.04342  -0.03095  -0.02671
 Alpha virt. eigenvalues --   -0.02627  -0.02350  -0.01440  -0.00841  -0.00387
 Alpha virt. eigenvalues --    0.00019   0.00167   0.00369   0.00500   0.00558

  Beta  occ. eigenvalues --  -38.45041 -38.44770 -38.44528 -38.44384 -38.43846
  Beta  occ. eigenvalues --  -38.43377 -38.43101  -2.20843  -2.20521  -2.20345
  Beta  occ. eigenvalues --   -2.20192  -2.19688  -2.19206  -2.18886  -1.14560
  Beta  occ. eigenvalues --   -1.14508  -1.14473  -1.14205  -1.14166  -1.14159
  Beta  occ. eigenvalues --   -1.14059  -1.14000  -1.13987  -1.13869  -1.13851
  Beta  occ. eigenvalues --   -1.13822  -1.13359  -1.13351  -1.13320  -1.12945
  Beta  occ. eigenvalues --   -1.12882  -1.12852  -1.12577  -1.12549  -1.12528
  Beta  occ. eigenvalues --   -0.17343  -0.13774  -0.10682
  Beta virt. eigenvalues --   -0.07156  -0.06572  -0.06060  -0.03775  -0.02932
  Beta virt. eigenvalues --   -0.02444  -0.01968  -0.01536  -0.01414  -0.00721
  Beta virt. eigenvalues --   -0.00161   0.00038   0.00212   0.00511   0.00606

 Mulliken charges and spin densities:
               1          2
     1  Na   0.314188   0.037489
     2  Na   0.208409   0.507269
     3  Na  -0.063294   0.025139
     4  Na   0.380348   0.260944
     5  Na  -0.454676  -0.041745
     6  Na  -0.240730   0.249088
     7  Na  -0.144245  -0.038183
 Sum of Mulliken charges =  -0.00000   1.00000

 Dipole moment (field-independent basis, Debye):
    X=             -0.5265    Y=             -0.2862    Z=             -0.4239  Tot=              0.7340
 Quadrupole moment (field-independent basis, Debye-Ang):
   XX=            -49.6240   YY=            -74.0461   ZZ=            -71.1831
   XY=              0.5005   XZ=             -0.5921   YZ=             -0.6167

 Normal termination of Gaussian 16 at Fri Dec  8 01:15:02 2023.
