 Gaussian 16, Revision B.01,
 Gaussian 16:  ES64L-G16RevB.01 20-Dec-2017

 -------------------------
 #P B3LYP/6-311+g(d) force
 -------------------------

 -----
 DPGEN
 -----
 Symbolic Z-matrix:
 Charge =  0 Multiplicity = 2

                         Standard orientation:
 ---------------------------------------------------------------------
 Center     Atomic      Atomic             Coordinates (Angstroms)
 Number     Number       Type             X           Y           Z
 ---------------------------------------------------------------------
      1         11           0        1.861375   -3.096531   -0.784145
      2         11           0       -0.314912    3.039627   -0.473766
      3         11           0       -3.113839    0.989380   -0.923392
      4         11           0       -3.977567   -1.645588    1.000665
      5         11           0       -0.675598   -0.834373    0.190410
      6         11           0        2.342890    2.155355    0.844308
      7         11           0        3.877651   -0.607870    0.145920
 ---------------------------------------------------------------------

 SCF Done:  E(UB3LYP) =  -1136.12233764     A.U. after   21 cycles

 The electronic state is 2-A.
 Alpha  occ. eigenvalues --  -38.44911 -38.44630 -38.44485 -38.43988 -38.43511
 Alpha  occ. eigenvalues --  -38.43417 -38.43350  -2.20766  -2.20468  -2.20306
 Alpha  occ. eigenvalues --   -2.19825  -2.19333  -2.19282  -2.19195  -1.14470
 Alpha  occ. eigenvalues --   -1.14437  -1.14389  -1.14188  -1.14131  -1.14076
 Alpha  occ. eigenvalues --   -1.13989  -1.13978  -1.13938  -1.13479  -1.13468
 Alpha  occ. eigenvalues --   -1.13435  -1.13010  -1.12986  -1.12983  -1.12965
 Alpha  occ. eigenvalues --   -1.12938  -1.12936  -1.12854  -1.12838  -1.12801
 Alpha  occ. eigenvalues --   -0.17077  -0.14351  -0.12684  -0.10461
 Alpha virt. eigenvalues --   -0.06742  -0.05497  -0.04208  -0.03562  -0.02933
 Alpha virt. eigenvalues --   -0.02659  -0.01710  -0.01462  -0.00911  -0.00490
 Alpha virt. eigenvalues --   -0.00224  -0.00047   0.00244   0.00611   0.00685

  Beta  occ. eigenvalues --  -38.44896 -38.44621 -38.44463 -38.43917 -38.43471
  Beta  occ. eigenvalues --  -38.43383 -38.43341  -2.20743  -2.20454  -2.20269
  Beta  occ. eigenvalues --   -2.19693  -2.19257  -2.19220  -2.19179  -1.14460
  Beta  occ. eigenvalues --   -1.14427  -1.14328  -1.14174  -1.14116  -1.14066
  Beta  occ. eigenvalues --   -1.13958  -1.13954  -1.13890  -1.13387  -1.13376
  Beta  occ. eigenvalues --   -1.13353  -1.12982  -1.12934  -1.12930  -1.12918
  Beta  occ. eigenvalues --   -1.12897  -1.12895  -1.12844  -1.12819  -1.12772
  Beta  occ. eigenvalues --   -0.16650  -0.13694  -0.12324
  Beta virt. eigenvalues --   -0.07068  -0.06556  -0.05085  -0.04019  -0.03146
  Beta virt. eigenvalues --   -0.02581  -0.02442  -0.01424  -0.01140  -0.00791
  Beta virt. eigenvalues --   -0.00196   0.00032   0.00150   0.00425   0.00699

 Mulliken charges and spin densities:
               1          2
     1  Na   0.702325   0.142923
     2  Na  -0.021773  -0.013305
     3  Na   0.821179   0.109021
     4  Na   0.798714   0.380350
     5  Na  -2.571937   0.016320
     6  Na   0.451809   0.249927
     7  Na  -0.180317   0.114763
 Sum of Mulliken charges =  -0.00000   1.00000

 Dipole moment (field-independent basis, Debye):
    X=             -0.9710    Y=             -0.2713    Z=             -0.3759  Tot=              1.0760
 Quadrupole moment (field-independent basis, Debye-Ang):
   XX=            -60.1858   YY=            -67.8927   ZZ=            -69.9201
   XY=             -4.4147   XZ=              1.0791   YZ=             -1.5775

 Normal termination of Gaussian 16 at Tue Dec  5 20:12:50 2023.
