 Gaussian 16, Revision B.01,
 Gaussian 16:  ES64L-G16RevB.01 20-Dec-2017

 -------------------------
 #P B3LYP/6-311+g(d) force
 -------------------------

 -----
 DPGEN
 -----
 Symbolic Z-matrix:
 Charge =  0 Multiplicity = 2

                         Standard orientation:
 ---------------------------------------------------------------------
 Center     Atomic      Atomic             Coordinates (Angstroms)
 Number     Number       Type             X           Y           Z
 ---------------------------------------------------------------------
      1         11           0       -0.877841    2.292549   -0.868886
      2         11           0        3.988035    0.545487   -0.379777
      3         11           0       -4.063226    0.136208   -1.535801
      4         11           0        1.268185    2.988984    1.221424
      5         11           0       -3.509938   -1.508170    1.431706
      6         11           0        2.801141   -2.882637   -0.857312
      7         11           0        0.393644   -1.572422    0.988645
 ---------------------------------------------------------------------

 SCF Done:  E(UB3LYP) =  -1136.11042700     A.U. after   23 cycles

 The electronic state is 2-A.
 Alpha  occ. eigenvalues --  -38.45767 -38.44818 -38.44770 -38.44245 -38.44099
 Alpha  occ. eigenvalues --  -38.43653 -38.43532  -2.21514  -2.20567  -2.20559
 Alpha  occ. eigenvalues --   -2.20029  -2.19894  -2.19454  -2.19350  -1.15199
 Alpha  occ. eigenvalues --   -1.15157  -1.15125  -1.14254  -1.14250  -1.14233
 Alpha  occ. eigenvalues --   -1.14221  -1.14219  -1.14187  -1.13722  -1.13701
 Alpha  occ. eigenvalues --   -1.13664  -1.13580  -1.13552  -1.13488  -1.13109
 Alpha  occ. eigenvalues --   -1.13098  -1.13079  -1.13030  -1.12995  -1.12983
 Alpha  occ. eigenvalues --   -0.16117  -0.13640  -0.12434  -0.10288
 Alpha virt. eigenvalues --   -0.07445  -0.05082  -0.04858  -0.03693  -0.03200
 Alpha virt. eigenvalues --   -0.02503  -0.01713  -0.01451  -0.01355  -0.01006
 Alpha virt. eigenvalues --   -0.00308  -0.00080   0.00144   0.00476   0.00538

  Beta  occ. eigenvalues --  -38.45723 -38.44819 -38.44758 -38.44253 -38.44047
  Beta  occ. eigenvalues --  -38.43588 -38.43519  -2.21431  -2.20573  -2.20540
  Beta  occ. eigenvalues --   -2.20047  -2.19797  -2.19333  -2.19327  -1.15142
  Beta  occ. eigenvalues --   -1.15101  -1.15064  -1.14257  -1.14235  -1.14228
  Beta  occ. eigenvalues --   -1.14217  -1.14197  -1.14164  -1.13729  -1.13714
  Beta  occ. eigenvalues --   -1.13665  -1.13516  -1.13488  -1.13418  -1.13027
  Beta  occ. eigenvalues --   -1.13013  -1.13011  -1.13003  -1.12977  -1.12969
  Beta  occ. eigenvalues --   -0.15638  -0.13135  -0.12274
  Beta virt. eigenvalues --   -0.07257  -0.06878  -0.04883  -0.04269  -0.03490
  Beta virt. eigenvalues --   -0.02723  -0.02393  -0.01342  -0.01278  -0.01186
  Beta virt. eigenvalues --   -0.00676  -0.00216   0.00079   0.00346   0.00551

 Mulliken charges and spin densities:
               1          2
     1  Na  -0.374612   0.102263
     2  Na   0.116494   0.293780
     3  Na   0.097673   0.352430
     4  Na   0.364562   0.025542
     5  Na   0.057419  -0.037249
     6  Na   0.763809   0.052261
     7  Na  -1.025345   0.210973
 Sum of Mulliken charges =  -0.00000   1.00000

 Dipole moment (field-independent basis, Debye):
    X=              1.1072    Y=             -0.1266    Z=              0.1056  Tot=              1.1194
 Quadrupole moment (field-independent basis, Debye-Ang):
   XX=            -61.7114   YY=            -68.8144   ZZ=            -68.0601
   XY=              4.5932   XZ=             -2.6497   YZ=              2.3673

 Normal termination of Gaussian 16 at Mon Dec  4 04:25:19 2023.
