 Gaussian 16, Revision B.01,
 Gaussian 16:  ES64L-G16RevB.01 20-Dec-2017

 -------------------------
 #P B3LYP/6-311+g(d) force
 -------------------------

 -----
 DPGEN
 -----
 Symbolic Z-matrix:
 Charge =  0 Multiplicity = 2

                         Standard orientation:
 ---------------------------------------------------------------------
 Center     Atomic      Atomic             Coordinates (Angstroms)
 Number     Number       Type             X           Y           Z
 ---------------------------------------------------------------------
      1         11           0        1.088771   -2.738872   -0.248491
      2         11           0       -2.717983    1.464048    0.093323
      3         11           0        0.500566    0.137480   -1.772036
      4         11           0        0.812357    2.768278   -0.102121
      5         11           0       -2.664017   -1.497713   -0.155095
      6         11           0       -0.076006   -0.338678    1.786302
      7         11           0        3.056310    0.205457    0.398119
 ---------------------------------------------------------------------

 SCF Done:  E(UB3LYP) =  -1136.13598353     A.U. after   20 cycles

 The electronic state is 2-A.
 Alpha  occ. eigenvalues --  -38.44263 -38.43993 -38.43905 -38.43327 -38.43252
 Alpha  occ. eigenvalues --  -38.43195 -38.43148  -2.20129  -2.19861  -2.19763
 Alpha  occ. eigenvalues --   -2.19270  -2.19167  -2.19112  -2.19017  -1.13803
 Alpha  occ. eigenvalues --   -1.13802  -1.13755  -1.13662  -1.13520  -1.13494
 Alpha  occ. eigenvalues --   -1.13417  -1.13394  -1.13359  -1.12963  -1.12911
 Alpha  occ. eigenvalues --   -1.12894  -1.12879  -1.12854  -1.12791  -1.12768
 Alpha  occ. eigenvalues --   -1.12755  -1.12738  -1.12669  -1.12666  -1.12642
 Alpha  occ. eigenvalues --   -0.18856  -0.13456  -0.12310  -0.10656
 Alpha virt. eigenvalues --   -0.05844  -0.05118  -0.04566  -0.03366  -0.02775
 Alpha virt. eigenvalues --   -0.02373  -0.01634  -0.01034  -0.00355  -0.00294
 Alpha virt. eigenvalues --    0.00009   0.00371   0.00824   0.00885   0.00904

  Beta  occ. eigenvalues --  -38.44250 -38.43991 -38.43903 -38.43253 -38.43243
  Beta  occ. eigenvalues --  -38.43143 -38.43118  -2.20110  -2.19859  -2.19763
  Beta  occ. eigenvalues --   -2.19135  -2.19100  -2.19026  -2.19009  -1.13793
  Beta  occ. eigenvalues --   -1.13758  -1.13746  -1.13665  -1.13507  -1.13485
  Beta  occ. eigenvalues --   -1.13404  -1.13389  -1.13361  -1.12879  -1.12831
  Beta  occ. eigenvalues --   -1.12804  -1.12795  -1.12787  -1.12738  -1.12728
  Beta  occ. eigenvalues --   -1.12705  -1.12684  -1.12650  -1.12640  -1.12614
  Beta  occ. eigenvalues --   -0.18132  -0.13230  -0.12056
  Beta virt. eigenvalues --   -0.06752  -0.05775  -0.05129  -0.04533  -0.02579
  Beta virt. eigenvalues --   -0.02012  -0.01547  -0.01317  -0.00967  -0.00403
  Beta virt. eigenvalues --   -0.00334   0.00142   0.00396   0.00868   0.00882

 Mulliken charges and spin densities:
               1          2
     1  Na   0.085544  -0.096600
     2  Na  -0.000462  -0.070455
     3  Na  -0.282652   0.695319
     4  Na   0.093114  -0.082514
     5  Na   0.110044  -0.062374
     6  Na  -0.256110   0.613111
     7  Na   0.250522   0.003513
 Sum of Mulliken charges =  -0.00000   1.00000

 Dipole moment (field-independent basis, Debye):
    X=              0.0824    Y=             -0.0844    Z=              0.0904  Tot=              0.1486
 Quadrupole moment (field-independent basis, Debye-Ang):
   XX=            -55.5632   YY=            -63.3163   ZZ=            -74.8012
   XY=             -0.1330   XZ=              1.3511   YZ=              1.2532

 Normal termination of Gaussian 16 at Sun Dec  3 22:15:43 2023.
