 Gaussian 16, Revision B.01,
 Gaussian 16:  ES64L-G16RevB.01 20-Dec-2017

 -------------------------
 #P B3LYP/6-311+g(d) force
 -------------------------

 -----
 DPGEN
 -----
 Symbolic Z-matrix:
 Charge =  0 Multiplicity = 2

                         Standard orientation:
 ---------------------------------------------------------------------
 Center     Atomic      Atomic             Coordinates (Angstroms)
 Number     Number       Type             X           Y           Z
 ---------------------------------------------------------------------
      1         11           0        0.201106    0.162980    1.571155
      2         11           0        0.882632   -2.983077   -0.622758
      3         11           0       -2.923083   -1.989528    0.508309
      4         11           0        3.772757   -0.250798    0.432510
      5         11           0        1.353296    2.680113   -0.624687
      6         11           0       -2.364376    2.566302    0.161685
      7         11           0       -0.922332   -0.185992   -1.426213
 ---------------------------------------------------------------------

 SCF Done:  E(UB3LYP) =  -1136.12629547     A.U. after   20 cycles

 The electronic state is 2-A.
 Alpha  occ. eigenvalues --  -38.44428 -38.44412 -38.44198 -38.44162 -38.44051
 Alpha  occ. eigenvalues --  -38.43649 -38.43007  -2.20208  -2.20197  -2.19957
 Alpha  occ. eigenvalues --   -2.19949  -2.19838  -2.19531  -2.18957  -1.13891
 Alpha  occ. eigenvalues --   -1.13880  -1.13865  -1.13845  -1.13843  -1.13828
 Alpha  occ. eigenvalues --   -1.13639  -1.13635  -1.13624  -1.13606  -1.13587
 Alpha  occ. eigenvalues --   -1.13564  -1.13520  -1.13498  -1.13456  -1.13269
 Alpha  occ. eigenvalues --   -1.13166  -1.13127  -1.12673  -1.12607  -1.12550
 Alpha  occ. eigenvalues --   -0.17769  -0.12657  -0.12479  -0.09739
 Alpha virt. eigenvalues --   -0.06112  -0.05901  -0.05095  -0.02892  -0.02674
 Alpha virt. eigenvalues --   -0.01981  -0.01790  -0.01685  -0.01051  -0.00649
 Alpha virt. eigenvalues --   -0.00048   0.00264   0.00605   0.00674   0.00716

  Beta  occ. eigenvalues --  -38.44430 -38.44395 -38.44189 -38.44149 -38.44023
  Beta  occ. eigenvalues --  -38.43598 -38.42960  -2.20213  -2.20167  -2.19937
  Beta  occ. eigenvalues --   -2.19932  -2.19789  -2.19438  -2.18873  -1.13890
  Beta  occ. eigenvalues --   -1.13867  -1.13858  -1.13837  -1.13822  -1.13801
  Beta  occ. eigenvalues --   -1.13623  -1.13612  -1.13608  -1.13594  -1.13578
  Beta  occ. eigenvalues --   -1.13545  -1.13478  -1.13458  -1.13424  -1.13197
  Beta  occ. eigenvalues --   -1.13105  -1.13053  -1.12616  -1.12533  -1.12485
  Beta  occ. eigenvalues --   -0.17164  -0.12395  -0.12219
  Beta virt. eigenvalues --   -0.06261  -0.05961  -0.05743  -0.04931  -0.02294
  Beta virt. eigenvalues --   -0.02112  -0.01806  -0.01721  -0.01079  -0.00803
  Beta virt. eigenvalues --   -0.00631   0.00113   0.00327   0.00656   0.00750

 Mulliken charges and spin densities:
               1          2
     1  Na  -0.079766   0.569825
     2  Na  -0.224613   0.013307
     3  Na  -0.101441   0.155119
     4  Na   0.031332   0.014230
     5  Na  -0.187671   0.018864
     6  Na   0.075231   0.056264
     7  Na   0.486928   0.172391
 Sum of Mulliken charges =  -0.00000   1.00000

 Dipole moment (field-independent basis, Debye):
    X=             -0.3150    Y=              0.2026    Z=              0.0213  Tot=              0.3752
 Quadrupole moment (field-independent basis, Debye-Ang):
   XX=            -53.9048   YY=            -58.7150   ZZ=            -77.7794
   XY=             -0.8498   XZ=             -2.1727   YZ=             -1.0591

 Normal termination of Gaussian 16 at Thu Dec  7 12:49:34 2023.
