 Gaussian 16, Revision B.01,
 Gaussian 16:  ES64L-G16RevB.01 20-Dec-2017

 -------------------------
 #P B3LYP/6-311+g(d) force
 -------------------------

 -----
 DPGEN
 -----
 Symbolic Z-matrix:
 Charge =  0 Multiplicity = 2

                         Standard orientation:
 ---------------------------------------------------------------------
 Center     Atomic      Atomic             Coordinates (Angstroms)
 Number     Number       Type             X           Y           Z
 ---------------------------------------------------------------------
      1         11           0       -0.927367   -2.925196   -0.257602
      2         11           0        3.506557   -1.390461    0.016289
      3         11           0        1.848220    2.638139    0.012492
      4         11           0       -2.104828    2.411864   -0.201326
      5         11           0        0.591712    0.040771   -1.727818
      6         11           0        0.358397   -0.054295    2.021947
      7         11           0       -3.272693   -0.720823    0.136018
 ---------------------------------------------------------------------

 SCF Done:  E(UB3LYP) =  -1136.12680586     A.U. after   22 cycles

 The electronic state is 2-A.
 Alpha  occ. eigenvalues --  -38.45281 -38.44358 -38.44042 -38.43884 -38.43770
 Alpha  occ. eigenvalues --  -38.43684 -38.43487  -2.21012  -2.20148  -2.19861
 Alpha  occ. eigenvalues --   -2.19669  -2.19579  -2.19519  -2.19361  -1.14688
 Alpha  occ. eigenvalues --   -1.14671  -1.14651  -1.13834  -1.13816  -1.13772
 Alpha  occ. eigenvalues --   -1.13544  -1.13528  -1.13522  -1.13343  -1.13334
 Alpha  occ. eigenvalues --   -1.13302  -1.13252  -1.13240  -1.13215  -1.13189
 Alpha  occ. eigenvalues --   -1.13147  -1.13135  -1.13043  -1.13003  -1.12975
 Alpha  occ. eigenvalues --   -0.17692  -0.13029  -0.12041  -0.10278
 Alpha virt. eigenvalues --   -0.06677  -0.05609  -0.04593  -0.03155  -0.02687
 Alpha virt. eigenvalues --   -0.02453  -0.02150  -0.01437  -0.00909  -0.00546
 Alpha virt. eigenvalues --   -0.00089   0.00281   0.00628   0.00665   0.00715

  Beta  occ. eigenvalues --  -38.45283 -38.44352 -38.44042 -38.43882 -38.43766
  Beta  occ. eigenvalues --  -38.43590 -38.43421  -2.21019  -2.20141  -2.19864
  Beta  occ. eigenvalues --   -2.19668  -2.19574  -2.19346  -2.19241  -1.14679
  Beta  occ. eigenvalues --   -1.14674  -1.14657  -1.13824  -1.13794  -1.13771
  Beta  occ. eigenvalues --   -1.13549  -1.13529  -1.13511  -1.13338  -1.13325
  Beta  occ. eigenvalues --   -1.13304  -1.13246  -1.13221  -1.13214  -1.13072
  Beta  occ. eigenvalues --   -1.13025  -1.13013  -1.12958  -1.12916  -1.12889
  Beta  occ. eigenvalues --   -0.16998  -0.12869  -0.11854
  Beta virt. eigenvalues --   -0.06676  -0.06411  -0.05498  -0.04557  -0.02468
  Beta virt. eigenvalues --   -0.02119  -0.01968  -0.01375  -0.01349  -0.00965
  Beta virt. eigenvalues --   -0.00577   0.00079   0.00317   0.00674   0.00740

 Mulliken charges and spin densities:
               1          2
     1  Na   0.116986  -0.083968
     2  Na   0.043320  -0.163728
     3  Na   0.097859  -0.109267
     4  Na  -0.015802  -0.041898
     5  Na   0.040415   0.605232
     6  Na  -0.250542   0.798654
     7  Na  -0.032235  -0.005026
 Sum of Mulliken charges =  -0.00000   1.00000

 Dipole moment (field-independent basis, Debye):
    X=              0.8292    Y=             -0.0296    Z=              0.0395  Tot=              0.8307
 Quadrupole moment (field-independent basis, Debye-Ang):
   XX=            -52.5164   YY=            -62.6112   ZZ=            -77.5301
   XY=             -0.9051   XZ=              0.2530   YZ=              0.1485

 Normal termination of Gaussian 16 at Fri Dec  8 06:47:32 2023.
