 Gaussian 16, Revision B.01,
 Gaussian 16:  ES64L-G16RevB.01 20-Dec-2017

 -------------------------
 #P B3LYP/6-311+g(d) force
 -------------------------

 -----
 DPGEN
 -----
 Symbolic Z-matrix:
 Charge =  0 Multiplicity = 2

                         Standard orientation:
 ---------------------------------------------------------------------
 Center     Atomic      Atomic             Coordinates (Angstroms)
 Number     Number       Type             X           Y           Z
 ---------------------------------------------------------------------
      1         11           0       -0.944896   -2.124398   -1.178659
      2         11           0        1.825880   -2.939426    0.450017
      3         11           0        2.816229    2.987289    0.827919
      4         11           0        3.931591   -0.903903    0.311438
      5         11           0        0.015071    2.410838   -1.135704
      6         11           0       -2.806944    0.600680   -0.969270
      7         11           0       -4.836932   -0.031080    1.694259
 ---------------------------------------------------------------------

 SCF Done:  E(UB3LYP) =  -1136.11085922     A.U. after   21 cycles

 The electronic state is 2-A.
 Alpha  occ. eigenvalues --  -38.45151 -38.44857 -38.44792 -38.44208 -38.44205
 Alpha  occ. eigenvalues --  -38.43890 -38.43701  -2.20957  -2.20664  -2.20597
 Alpha  occ. eigenvalues --   -2.19995  -2.19953  -2.19738  -2.19549  -1.14585
 Alpha  occ. eigenvalues --   -1.14583  -1.14568  -1.14382  -1.14317  -1.14278
 Alpha  occ. eigenvalues --   -1.14264  -1.14250  -1.14237  -1.13677  -1.13661
 Alpha  occ. eigenvalues --   -1.13649  -1.13630  -1.13605  -1.13583  -1.13414
 Alpha  occ. eigenvalues --   -1.13406  -1.13395  -1.13236  -1.13196  -1.13189
 Alpha  occ. eigenvalues --   -0.16308  -0.14044  -0.12416  -0.11457
 Alpha virt. eigenvalues --   -0.06855  -0.05886  -0.04176  -0.03745  -0.02657
 Alpha virt. eigenvalues --   -0.02304  -0.02203  -0.01643  -0.01338  -0.00682
 Alpha virt. eigenvalues --   -0.00572  -0.00401   0.00020   0.00259   0.00661

  Beta  occ. eigenvalues --  -38.45019 -38.44830 -38.44753 -38.44215 -38.44186
  Beta  occ. eigenvalues --  -38.43886 -38.43704  -2.20713  -2.20613  -2.20525
  Beta  occ. eigenvalues --   -2.19972  -2.19953  -2.19740  -2.19557  -1.14418
  Beta  occ. eigenvalues --   -1.14416  -1.14406  -1.14351  -1.14281  -1.14243
  Beta  occ. eigenvalues --   -1.14216  -1.14200  -1.14190  -1.13652  -1.13649
  Beta  occ. eigenvalues --   -1.13641  -1.13626  -1.13614  -1.13575  -1.13418
  Beta  occ. eigenvalues --   -1.13415  -1.13338  -1.13233  -1.13198  -1.13191
  Beta  occ. eigenvalues --   -0.15782  -0.13325  -0.12347
  Beta virt. eigenvalues --   -0.07848  -0.06495  -0.05460  -0.03785  -0.03625
  Beta virt. eigenvalues --   -0.02309  -0.01931  -0.01746  -0.01526  -0.01150
  Beta virt. eigenvalues --   -0.00653  -0.00162  -0.00040   0.00275   0.00365

 Mulliken charges and spin densities:
               1          2
     1  Na  -0.104535   0.140153
     2  Na   0.091815   0.024176
     3  Na   0.223931  -0.011655
     4  Na  -0.047094   0.166507
     5  Na  -0.233358   0.132132
     6  Na  -0.106592  -0.074889
     7  Na   0.175833   0.623576
 Sum of Mulliken charges =  -0.00000   1.00000

 Dipole moment (field-independent basis, Debye):
    X=             -0.0778    Y=             -0.2737    Z=              0.4094  Tot=              0.4986
 Quadrupole moment (field-independent basis, Debye-Ang):
   XX=            -62.9907   YY=            -68.9440   ZZ=            -68.1893
   XY=              2.5096   XZ=              0.7087   YZ=              0.4478

 Normal termination of Gaussian 16 at Sun Dec  3 21:54:41 2023.
