 Gaussian 16, Revision B.01,
 Gaussian 16:  ES64L-G16RevB.01 20-Dec-2017

 -------------------------
 #P B3LYP/6-311+g(d) force
 -------------------------

 -----
 DPGEN
 -----
 Symbolic Z-matrix:
 Charge =  0 Multiplicity = 2

                         Standard orientation:
 ---------------------------------------------------------------------
 Center     Atomic      Atomic             Coordinates (Angstroms)
 Number     Number       Type             X           Y           Z
 ---------------------------------------------------------------------
      1         11           0        0.889539    3.407955   -0.299785
      2         11           0        2.180537    0.549908    0.638208
      3         11           0       -0.539486   -1.405212    2.247612
      4         11           0       -0.160977   -0.900078   -0.801142
      5         11           0        3.183065   -2.007879   -0.944638
      6         11           0       -2.054025    1.731048    0.017795
      7         11           0       -3.498653   -1.375741   -0.858051
 ---------------------------------------------------------------------

 SCF Done:  E(UB3LYP) =  -1136.12614006     A.U. after   19 cycles

 The electronic state is 2-A.
 Alpha  occ. eigenvalues --  -38.44240 -38.44166 -38.44057 -38.43896 -38.43609
 Alpha  occ. eigenvalues --  -38.43536 -38.43061  -2.20100  -2.19980  -2.19895
 Alpha  occ. eigenvalues --   -2.19730  -2.19597  -2.19469  -2.18883  -1.13789
 Alpha  occ. eigenvalues --   -1.13727  -1.13690  -1.13653  -1.13635  -1.13615
 Alpha  occ. eigenvalues --   -1.13601  -1.13576  -1.13489  -1.13415  -1.13382
 Alpha  occ. eigenvalues --   -1.13364  -1.13350  -1.13281  -1.13208  -1.13131
 Alpha  occ. eigenvalues --   -1.13124  -1.13070  -1.12555  -1.12538  -1.12522
 Alpha  occ. eigenvalues --   -0.18141  -0.13458  -0.12216  -0.10798
 Alpha virt. eigenvalues --   -0.05725  -0.05625  -0.04755  -0.03214  -0.02614
 Alpha virt. eigenvalues --   -0.02156  -0.02009  -0.01333  -0.00763  -0.00495
 Alpha virt. eigenvalues --    0.00001   0.00221   0.00583   0.00645   0.00761

  Beta  occ. eigenvalues --  -38.44140 -38.44125 -38.44053 -38.43860 -38.43598
  Beta  occ. eigenvalues --  -38.43530 -38.43064  -2.19933  -2.19892  -2.19887
  Beta  occ. eigenvalues --   -2.19662  -2.19583  -2.19462  -2.18888  -1.13652
  Beta  occ. eigenvalues --   -1.13621  -1.13615  -1.13591  -1.13580  -1.13578
  Beta  occ. eigenvalues --   -1.13558  -1.13545  -1.13484  -1.13377  -1.13342
  Beta  occ. eigenvalues --   -1.13323  -1.13313  -1.13246  -1.13201  -1.13123
  Beta  occ. eigenvalues --   -1.13094  -1.13060  -1.12559  -1.12540  -1.12526
  Beta  occ. eigenvalues --   -0.17523  -0.13079  -0.12048
  Beta virt. eigenvalues --   -0.07030  -0.05559  -0.05345  -0.04494  -0.02758
  Beta virt. eigenvalues --   -0.02099  -0.01851  -0.01544  -0.01173  -0.00558
  Beta virt. eigenvalues --   -0.00248   0.00149   0.00301   0.00696   0.00731

 Mulliken charges and spin densities:
               1          2
     1  Na  -0.225864  -0.226887
     2  Na   0.605729   0.454853
     3  Na  -0.168759   0.317392
     4  Na  -2.298401  -0.062200
     5  Na   0.479071   0.011196
     6  Na   0.534519   0.314897
     7  Na   1.073704   0.190748
 Sum of Mulliken charges =  -0.00000   1.00000

 Dipole moment (field-independent basis, Debye):
    X=             -0.5278    Y=             -0.6581    Z=              0.2063  Tot=              0.8685
 Quadrupole moment (field-independent basis, Debye-Ang):
   XX=            -56.7776   YY=            -65.3270   ZZ=            -71.2018
   XY=              0.7905   XZ=             -0.4855   YZ=              0.9186

 Normal termination of Gaussian 16 at Thu Dec  7 11:07:11 2023.
