 Gaussian 16, Revision B.01,
 Gaussian 16:  ES64L-G16RevB.01 20-Dec-2017

 -------------------------
 #P B3LYP/6-311+g(d) force
 -------------------------

 -----
 DPGEN
 -----
 Symbolic Z-matrix:
 Charge =  0 Multiplicity = 2

                         Standard orientation:
 ---------------------------------------------------------------------
 Center     Atomic      Atomic             Coordinates (Angstroms)
 Number     Number       Type             X           Y           Z
 ---------------------------------------------------------------------
      1         11           0        2.746065   -1.723566   -0.313650
      2         11           0        0.366502    2.869175    0.460029
      3         11           0       -4.114029   -0.131913   -1.472387
      4         11           0        0.213366   -2.446942    1.441455
      5         11           0        3.187506    1.259953   -1.252288
      6         11           0       -1.288618    0.915210    2.349668
      7         11           0       -1.110793   -0.741916   -1.212826
 ---------------------------------------------------------------------

 SCF Done:  E(UB3LYP) =  -1136.11710244     A.U. after   21 cycles

 The electronic state is 2-A.
 Alpha  occ. eigenvalues --  -38.45084 -38.44681 -38.44312 -38.43993 -38.43865
 Alpha  occ. eigenvalues --  -38.43606 -38.43318  -2.20897  -2.20506  -2.20163
 Alpha  occ. eigenvalues --   -2.19804  -2.19722  -2.19455  -2.19117  -1.14578
 Alpha  occ. eigenvalues --   -1.14524  -1.14511  -1.14174  -1.14148  -1.14124
 Alpha  occ. eigenvalues --   -1.13843  -1.13822  -1.13806  -1.13497  -1.13463
 Alpha  occ. eigenvalues --   -1.13427  -1.13400  -1.13367  -1.13360  -1.13123
 Alpha  occ. eigenvalues --   -1.13108  -1.13087  -1.12806  -1.12784  -1.12751
 Alpha  occ. eigenvalues --   -0.17266  -0.13440  -0.12148  -0.11876
 Alpha virt. eigenvalues --   -0.06077  -0.05118  -0.04911  -0.03383  -0.03058
 Alpha virt. eigenvalues --   -0.02681  -0.02240  -0.00843  -0.00749  -0.00249
 Alpha virt. eigenvalues --   -0.00233   0.00070   0.00196   0.00297   0.00883

  Beta  occ. eigenvalues --  -38.45008 -38.44614 -38.44297 -38.43962 -38.43821
  Beta  occ. eigenvalues --  -38.43607 -38.43321  -2.20758  -2.20383  -2.20140
  Beta  occ. eigenvalues --   -2.19746  -2.19640  -2.19459  -2.19124  -1.14478
  Beta  occ. eigenvalues --   -1.14430  -1.14419  -1.14091  -1.14057  -1.14043
  Beta  occ. eigenvalues --   -1.13822  -1.13805  -1.13773  -1.13458  -1.13422
  Beta  occ. eigenvalues --   -1.13391  -1.13352  -1.13318  -1.13295  -1.13123
  Beta  occ. eigenvalues --   -1.13109  -1.13074  -1.12803  -1.12791  -1.12751
  Beta  occ. eigenvalues --   -0.16706  -0.12648  -0.11813
  Beta virt. eigenvalues --   -0.08535  -0.05717  -0.04706  -0.04572  -0.03162
  Beta virt. eigenvalues --   -0.02649  -0.02195  -0.01904  -0.00708  -0.00522
  Beta virt. eigenvalues --   -0.00083  -0.00057   0.00209   0.00326   0.00455

 Mulliken charges and spin densities:
               1          2
     1  Na   0.592207   0.018244
     2  Na  -0.266451   0.026174
     3  Na   0.328693   0.224846
     4  Na   0.099625   0.364423
     5  Na   0.121776   0.121289
     6  Na   0.159737   0.154471
     7  Na  -1.035587   0.090554
 Sum of Mulliken charges =  -0.00000   1.00000

 Dipole moment (field-independent basis, Debye):
    X=             -1.1637    Y=             -0.1426    Z=              0.2605  Tot=              1.2010
 Quadrupole moment (field-independent basis, Debye-Ang):
   XX=            -58.0640   YY=            -73.0038   ZZ=            -66.1553
   XY=             -1.3468   XZ=             -2.0062   YZ=             -3.1724

 Normal termination of Gaussian 16 at Sun Dec  3 20:07:31 2023.
