 Gaussian 16, Revision B.01,
 Gaussian 16:  ES64L-G16RevB.01 20-Dec-2017

 -------------------------
 #P B3LYP/6-311+g(d) force
 -------------------------

 -----
 DPGEN
 -----
 Symbolic Z-matrix:
 Charge =  0 Multiplicity = 2

                         Standard orientation:
 ---------------------------------------------------------------------
 Center     Atomic      Atomic             Coordinates (Angstroms)
 Number     Number       Type             X           Y           Z
 ---------------------------------------------------------------------
      1         11           0       -2.188640    2.330003    0.102449
      2         11           0        0.060295   -2.858938   -0.080484
      3         11           0        0.050573    0.195216   -1.467463
      4         11           0        1.936766    2.554630   -0.197223
      5         11           0       -2.745284   -1.206013   -0.256734
      6         11           0       -0.028965    0.012853    1.887405
      7         11           0        2.915254   -1.027750    0.012049
 ---------------------------------------------------------------------

 SCF Done:  E(UB3LYP) =  -1136.13844900     A.U. after   19 cycles

 The electronic state is 2-A.
 Alpha  occ. eigenvalues --  -38.44013 -38.44009 -38.43894 -38.43647 -38.43194
 Alpha  occ. eigenvalues --  -38.43121 -38.42793  -2.19823  -2.19818  -2.19736
 Alpha  occ. eigenvalues --   -2.19519  -2.19095  -2.19049  -2.18815  -1.13510
 Alpha  occ. eigenvalues --   -1.13497  -1.13486  -1.13476  -1.13461  -1.13448
 Alpha  occ. eigenvalues --   -1.13415  -1.13400  -1.13369  -1.13210  -1.13182
 Alpha  occ. eigenvalues --   -1.13154  -1.12792  -1.12760  -1.12737  -1.12731
 Alpha  occ. eigenvalues --   -1.12664  -1.12654  -1.12508  -1.12444  -1.12435
 Alpha  occ. eigenvalues --   -0.18792  -0.12962  -0.12659  -0.10323
 Alpha virt. eigenvalues --   -0.05754  -0.05239  -0.04839  -0.02912  -0.02775
 Alpha virt. eigenvalues --   -0.02138  -0.01536  -0.01401  -0.00561  -0.00355
 Alpha virt. eigenvalues --    0.00030   0.00346   0.00790   0.00850   0.00875

  Beta  occ. eigenvalues --  -38.44010 -38.44004 -38.43890 -38.43638 -38.43186
  Beta  occ. eigenvalues --  -38.43029 -38.42735  -2.19819  -2.19811  -2.19732
  Beta  occ. eigenvalues --   -2.19507  -2.19086  -2.18880  -2.18711  -1.13498
  Beta  occ. eigenvalues --   -1.13488  -1.13470  -1.13463  -1.13462  -1.13446
  Beta  occ. eigenvalues --   -1.13412  -1.13379  -1.13366  -1.13201  -1.13161
  Beta  occ. eigenvalues --   -1.13137  -1.12780  -1.12738  -1.12710  -1.12632
  Beta  occ. eigenvalues --   -1.12549  -1.12532  -1.12428  -1.12366  -1.12361
  Beta  occ. eigenvalues --   -0.18077  -0.12714  -0.12405
  Beta virt. eigenvalues --   -0.06440  -0.05744  -0.05185  -0.04836  -0.02152
  Beta virt. eigenvalues --   -0.02016  -0.01449  -0.01331  -0.01090  -0.00612
  Beta virt. eigenvalues --   -0.00407   0.00169   0.00383   0.00803   0.00876

 Mulliken charges and spin densities:
               1          2
     1  Na   0.100645  -0.077869
     2  Na   0.255861   0.020337
     3  Na  -0.501011   0.405562
     4  Na   0.088144  -0.106571
     5  Na   0.283827   0.023030
     6  Na  -0.446773   0.769367
     7  Na   0.219306  -0.033856
 Sum of Mulliken charges =  -0.00000   1.00000

 Dipole moment (field-independent basis, Debye):
    X=              0.0873    Y=              0.3826    Z=              0.1324  Tot=              0.4142
 Quadrupole moment (field-independent basis, Debye-Ang):
   XX=            -55.8380   YY=            -58.7632   ZZ=            -76.7583
   XY=             -0.4645   XZ=              0.2656   YZ=              0.4378

 Normal termination of Gaussian 16 at Thu Dec  7 11:24:32 2023.
