 Gaussian 16, Revision B.01,
 Gaussian 16:  ES64L-G16RevB.01 20-Dec-2017

 -------------------------
 #P B3LYP/6-311+g(d) force
 -------------------------

 -----
 DPGEN
 -----
 Symbolic Z-matrix:
 Charge =  0 Multiplicity = 2

                         Standard orientation:
 ---------------------------------------------------------------------
 Center     Atomic      Atomic             Coordinates (Angstroms)
 Number     Number       Type             X           Y           Z
 ---------------------------------------------------------------------
      1         11           0        3.329054   -0.063564    0.076439
      2         11           0        0.216627    0.203735   -1.639535
      3         11           0       -2.899228    1.444288    0.120310
      4         11           0        0.946747    2.844752   -0.195820
      5         11           0        0.853609   -2.733101   -0.035717
      6         11           0       -0.094720    0.002273    2.039338
      7         11           0       -2.352089   -1.698383   -0.365016
 ---------------------------------------------------------------------

 SCF Done:  E(UB3LYP) =  -1136.13691017     A.U. after   19 cycles

 The electronic state is 2-A.
 Alpha  occ. eigenvalues --  -38.44595 -38.44077 -38.43602 -38.43557 -38.43468
 Alpha  occ. eigenvalues --  -38.43164 -38.43063  -2.20387  -2.19896  -2.19482
 Alpha  occ. eigenvalues --   -2.19391  -2.19352  -2.19139  -2.18927  -1.14066
 Alpha  occ. eigenvalues --   -1.14041  -1.14026  -1.13581  -1.13560  -1.13532
 Alpha  occ. eigenvalues --   -1.13157  -1.13135  -1.13113  -1.13096  -1.13045
 Alpha  occ. eigenvalues --   -1.13033  -1.13004  -1.13003  -1.12998  -1.12817
 Alpha  occ. eigenvalues --   -1.12776  -1.12749  -1.12600  -1.12592  -1.12559
 Alpha  occ. eigenvalues --   -0.18569  -0.13099  -0.12299  -0.10660
 Alpha virt. eigenvalues --   -0.06069  -0.04989  -0.04606  -0.03205  -0.02794
 Alpha virt. eigenvalues --   -0.02531  -0.01815  -0.01063  -0.00505  -0.00271
 Alpha virt. eigenvalues --   -0.00020   0.00346   0.00790   0.00840   0.00902

  Beta  occ. eigenvalues --  -38.44594 -38.44075 -38.43551 -38.43507 -38.43459
  Beta  occ. eigenvalues --  -38.43100 -38.43058  -2.20387  -2.19894  -2.19384
  Beta  occ. eigenvalues --   -2.19338  -2.19307  -2.19022  -2.18921  -1.14053
  Beta  occ. eigenvalues --   -1.14039  -1.14028  -1.13583  -1.13538  -1.13533
  Beta  occ. eigenvalues --   -1.13119  -1.13046  -1.13029  -1.13015  -1.13002
  Beta  occ. eigenvalues --   -1.12995  -1.12986  -1.12973  -1.12963  -1.12739
  Beta  occ. eigenvalues --   -1.12697  -1.12666  -1.12595  -1.12567  -1.12551
  Beta  occ. eigenvalues --   -0.17839  -0.12892  -0.12047
  Beta virt. eigenvalues --   -0.06753  -0.06030  -0.04982  -0.04571  -0.02445
  Beta virt. eigenvalues --   -0.02022  -0.01720  -0.01460  -0.00982  -0.00562
  Beta virt. eigenvalues --   -0.00317   0.00122   0.00369   0.00817   0.00862

 Mulliken charges and spin densities:
               1          2
     1  Na   0.099301  -0.072072
     2  Na  -0.150344   0.464112
     3  Na   0.142204  -0.042102
     4  Na   0.084537  -0.135015
     5  Na   0.126897  -0.040720
     6  Na  -0.496329   0.806461
     7  Na   0.193733   0.019337
 Sum of Mulliken charges =  -0.00000   1.00000

 Dipole moment (field-independent basis, Debye):
    X=              0.3151    Y=              0.2554    Z=              0.1745  Tot=              0.4415
 Quadrupole moment (field-independent basis, Debye-Ang):
   XX=            -53.9460   YY=            -63.8771   ZZ=            -74.9998
   XY=             -0.8323   XZ=              0.7738   YZ=              0.6836

 Normal termination of Gaussian 16 at Thu Dec  7 15:21:25 2023.
