 Gaussian 16, Revision B.01,
 Gaussian 16:  ES64L-G16RevB.01 20-Dec-2017

 -------------------------
 #P B3LYP/6-311+g(d) force
 -------------------------

 -----
 DPGEN
 -----
 Symbolic Z-matrix:
 Charge =  0 Multiplicity = 2

                         Standard orientation:
 ---------------------------------------------------------------------
 Center     Atomic      Atomic             Coordinates (Angstroms)
 Number     Number       Type             X           Y           Z
 ---------------------------------------------------------------------
      1         11           0        3.167153   -0.782917    0.225881
      2         11           0       -2.688577   -1.333910    0.105850
      3         11           0        0.117847    0.091485    1.985967
      4         11           0        1.469937    2.560746   -0.339433
      5         11           0       -2.025032    2.371180    0.143352
      6         11           0        0.027621   -2.902654   -0.226756
      7         11           0       -0.068949   -0.003931   -1.894862
 ---------------------------------------------------------------------

 SCF Done:  E(UB3LYP) =  -1136.13981970     A.U. after   19 cycles

 The electronic state is 2-A.
 Alpha  occ. eigenvalues --  -38.43764 -38.43746 -38.43686 -38.43621 -38.43570
 Alpha  occ. eigenvalues --  -38.43546 -38.43513  -2.19601  -2.19570  -2.19535
 Alpha  occ. eigenvalues --   -2.19488  -2.19440  -2.19406  -2.19383  -1.13305
 Alpha  occ. eigenvalues --   -1.13277  -1.13244  -1.13229  -1.13218  -1.13204
 Alpha  occ. eigenvalues --   -1.13195  -1.13183  -1.13183  -1.13171  -1.13143
 Alpha  occ. eigenvalues --   -1.13129  -1.13115  -1.13107  -1.13090  -1.13081
 Alpha  occ. eigenvalues --   -1.13065  -1.13046  -1.13040  -1.13023  -1.12970
 Alpha  occ. eigenvalues --   -0.18484  -0.12855  -0.12430  -0.10909
 Alpha virt. eigenvalues --   -0.05373  -0.05095  -0.04980  -0.03236  -0.02994
 Alpha virt. eigenvalues --   -0.02743  -0.01355  -0.01209  -0.00384  -0.00315
 Alpha virt. eigenvalues --   -0.00033   0.00377   0.00836   0.00856   0.00892

  Beta  occ. eigenvalues --  -38.43755 -38.43744 -38.43619 -38.43602 -38.43543
  Beta  occ. eigenvalues --  -38.43506 -38.43490  -2.19588  -2.19534  -2.19438
  Beta  occ. eigenvalues --   -2.19416  -2.19403  -2.19374  -2.19342  -1.13285
  Beta  occ. eigenvalues --   -1.13246  -1.13223  -1.13197  -1.13190  -1.13181
  Beta  occ. eigenvalues --   -1.13167  -1.13137  -1.13108  -1.13103  -1.13091
  Beta  occ. eigenvalues --   -1.13084  -1.13078  -1.13061  -1.13052  -1.13043
  Beta  occ. eigenvalues --   -1.13034  -1.13008  -1.12999  -1.12983  -1.12968
  Beta  occ. eigenvalues --   -0.17732  -0.12610  -0.12213
  Beta virt. eigenvalues --   -0.07014  -0.05371  -0.05063  -0.04895  -0.02422
  Beta virt. eigenvalues --   -0.02257  -0.01706  -0.01262  -0.01120  -0.00432
  Beta virt. eigenvalues --   -0.00374   0.00100   0.00389   0.00857   0.00880

 Mulliken charges and spin densities:
               1          2
     1  Na   0.015045  -0.100728
     2  Na   0.090149  -0.072637
     3  Na  -0.354868   0.796249
     4  Na   0.133117  -0.081513
     5  Na   0.065695  -0.093165
     6  Na   0.187062  -0.052454
     7  Na  -0.136199   0.604248
 Sum of Mulliken charges =  -0.00000   1.00000

 Dipole moment (field-independent basis, Debye):
    X=              0.0654    Y=              0.1264    Z=              0.0446  Tot=              0.1492
 Quadrupole moment (field-independent basis, Debye-Ang):
   XX=            -59.5476   YY=            -61.2697   ZZ=            -73.3685
   XY=             -0.4614   XZ=             -0.5190   YZ=             -0.1771

 Normal termination of Gaussian 16 at Wed Nov 29 17:12:23 2023.
