 Gaussian 16, Revision B.01,
 Gaussian 16:  ES64L-G16RevB.01 20-Dec-2017

 -------------------------
 #P B3LYP/6-311+g(d) force
 -------------------------

 -----
 DPGEN
 -----
 Symbolic Z-matrix:
 Charge =  0 Multiplicity = 2

                         Standard orientation:
 ---------------------------------------------------------------------
 Center     Atomic      Atomic             Coordinates (Angstroms)
 Number     Number       Type             X           Y           Z
 ---------------------------------------------------------------------
      1         11           0        2.110911    2.339805   -0.333779
      2         11           0        1.302267   -1.152196   -1.788635
      3         11           0       -0.409954   -1.227234    1.936409
      4         11           0        3.155157   -0.522058    1.138548
      5         11           0       -1.532781    1.171019   -1.527119
      6         11           0       -1.862459   -2.424113   -0.574795
      7         11           0       -2.763141    1.814776    1.149371
 ---------------------------------------------------------------------

 SCF Done:  E(UB3LYP) =  -1136.12522582     A.U. after   21 cycles

 The electronic state is 2-A.
 Alpha  occ. eigenvalues --  -38.44393 -38.44356 -38.44204 -38.43994 -38.43909
 Alpha  occ. eigenvalues --  -38.43658 -38.43443  -2.20232  -2.20127  -2.20025
 Alpha  occ. eigenvalues --   -2.19839  -2.19726  -2.19491  -2.19308  -1.13917
 Alpha  occ. eigenvalues --   -1.13887  -1.13843  -1.13813  -1.13789  -1.13769
 Alpha  occ. eigenvalues --   -1.13694  -1.13674  -1.13644  -1.13527  -1.13491
 Alpha  occ. eigenvalues --   -1.13461  -1.13449  -1.13372  -1.13350  -1.13160
 Alpha  occ. eigenvalues --   -1.13145  -1.13125  -1.12970  -1.12967  -1.12935
 Alpha  occ. eigenvalues --   -0.17765  -0.13210  -0.11648  -0.11573
 Alpha virt. eigenvalues --   -0.05849  -0.05252  -0.04831  -0.03411  -0.03248
 Alpha virt. eigenvalues --   -0.03045  -0.01351  -0.01038  -0.00701  -0.00031
 Alpha virt. eigenvalues --    0.00044   0.00287   0.00435   0.00538   0.00591

  Beta  occ. eigenvalues --  -38.44354 -38.44337 -38.44181 -38.43939 -38.43888
  Beta  occ. eigenvalues --  -38.43654 -38.43423  -2.20130  -2.20124  -2.19983
  Beta  occ. eigenvalues --   -2.19736  -2.19687  -2.19486  -2.19272  -1.13843
  Beta  occ. eigenvalues --   -1.13811  -1.13803  -1.13788  -1.13771  -1.13762
  Beta  occ. eigenvalues --   -1.13657  -1.13646  -1.13617  -1.13462  -1.13427
  Beta  occ. eigenvalues --   -1.13422  -1.13383  -1.13341  -1.13320  -1.13150
  Beta  occ. eigenvalues --   -1.13133  -1.13115  -1.12950  -1.12927  -1.12904
  Beta  occ. eigenvalues --   -0.17009  -0.13025  -0.11489
  Beta virt. eigenvalues --   -0.07771  -0.05792  -0.04898  -0.04170  -0.03270
  Beta virt. eigenvalues --   -0.02737  -0.02174  -0.01270  -0.00968  -0.00353
  Beta virt. eigenvalues --    0.00048   0.00090   0.00360   0.00473   0.00704

 Mulliken charges and spin densities:
               1          2
     1  Na  -0.187888   0.045749
     2  Na  -0.072465   0.276691
     3  Na  -0.344263   0.446131
     4  Na   0.222499   0.095390
     5  Na   0.133534   0.034474
     6  Na   0.250244   0.088061
     7  Na  -0.001661   0.013504
 Sum of Mulliken charges =  -0.00000   1.00000

 Dipole moment (field-independent basis, Debye):
    X=              0.5782    Y=             -0.1248    Z=              0.1741  Tot=              0.6166
 Quadrupole moment (field-independent basis, Debye-Ang):
   XX=            -61.2037   YY=            -70.4470   ZZ=            -65.7858
   XY=              1.5642   XZ=             -0.1444   YZ=              2.6146

 Normal termination of Gaussian 16 at Sun Dec  3 20:07:10 2023.
