 Gaussian 16, Revision B.01,
 Gaussian 16:  ES64L-G16RevB.01 20-Dec-2017

 -------------------------
 #P B3LYP/6-311+g(d) force
 -------------------------

 -----
 DPGEN
 -----
 Symbolic Z-matrix:
 Charge =  0 Multiplicity = 2

                         Standard orientation:
 ---------------------------------------------------------------------
 Center     Atomic      Atomic             Coordinates (Angstroms)
 Number     Number       Type             X           Y           Z
 ---------------------------------------------------------------------
      1         11           0        0.706801    1.627935    0.731241
      2         11           0       -1.456100   -0.965284    2.088527
      3         11           0       -0.973043   -3.043294   -0.563269
      4         11           0        2.191837   -1.518338   -0.702973
      5         11           0        4.389694    0.897204   -0.047355
      6         11           0       -2.761057   -0.256730   -0.851841
      7         11           0       -2.098132    3.258507   -0.654330
 ---------------------------------------------------------------------

 SCF Done:  E(UB3LYP) =  -1136.12486349     A.U. after   21 cycles

 The electronic state is 2-A.
 Alpha  occ. eigenvalues --  -38.44929 -38.44485 -38.44357 -38.43927 -38.43903
 Alpha  occ. eigenvalues --  -38.43557 -38.43512  -2.20703  -2.20332  -2.20162
 Alpha  occ. eigenvalues --   -2.19780  -2.19735  -2.19367  -2.19347  -1.14371
 Alpha  occ. eigenvalues --   -1.14370  -1.14337  -1.14035  -1.14007  -1.13941
 Alpha  occ. eigenvalues --   -1.13849  -1.13838  -1.13777  -1.13450  -1.13438
 Alpha  occ. eigenvalues --   -1.13432  -1.13409  -1.13387  -1.13330  -1.13035
 Alpha  occ. eigenvalues --   -1.13025  -1.13011  -1.13005  -1.13003  -1.12980
 Alpha  occ. eigenvalues --   -0.17468  -0.13556  -0.12484  -0.10382
 Alpha virt. eigenvalues --   -0.06909  -0.05347  -0.04966  -0.03072  -0.02885
 Alpha virt. eigenvalues --   -0.02455  -0.02019  -0.01257  -0.01243  -0.00638
 Alpha virt. eigenvalues --   -0.00271   0.00207   0.00266   0.00570   0.00750

  Beta  occ. eigenvalues --  -38.44932 -38.44459 -38.44343 -38.43907 -38.43814
  Beta  occ. eigenvalues --  -38.43538 -38.43495  -2.20710  -2.20286  -2.20136
  Beta  occ. eigenvalues --   -2.19700  -2.19616  -2.19338  -2.19312  -1.14375
  Beta  occ. eigenvalues --   -1.14372  -1.14341  -1.13987  -1.13975  -1.13907
  Beta  occ. eigenvalues --   -1.13833  -1.13814  -1.13756  -1.13423  -1.13376
  Beta  occ. eigenvalues --   -1.13326  -1.13318  -1.13306  -1.13271  -1.13012
  Beta  occ. eigenvalues --   -1.13007  -1.12988  -1.12973  -1.12971  -1.12960
  Beta  occ. eigenvalues --   -0.16866  -0.13422  -0.12201
  Beta virt. eigenvalues --   -0.06799  -0.06649  -0.04909  -0.04793  -0.02735
  Beta virt. eigenvalues --   -0.02418  -0.02355  -0.01367  -0.01171  -0.00963
  Beta virt. eigenvalues --   -0.00450   0.00044   0.00305   0.00413   0.00626

 Mulliken charges and spin densities:
               1          2
     1  Na  -1.154911   0.256754
     2  Na   0.278234   0.271581
     3  Na  -0.057284   0.292511
     4  Na  -0.307772  -0.002690
     5  Na   0.868615  -0.026386
     6  Na  -0.124777   0.244935
     7  Na   0.497894  -0.036705
 Sum of Mulliken charges =  -0.00000   1.00000

 Dipole moment (field-independent basis, Debye):
    X=              1.0899    Y=              0.0815    Z=              0.1343  Tot=              1.1012
 Quadrupole moment (field-independent basis, Debye-Ang):
   XX=            -54.7475   YY=            -64.6020   ZZ=            -74.8158
   XY=              4.6384   XZ=             -0.1211   YZ=             -0.0346

 Normal termination of Gaussian 16 at Wed Nov 29 00:05:13 2023.
