 Gaussian 16, Revision B.01,
 Gaussian 16:  ES64L-G16RevB.01 20-Dec-2017

 -------------------------
 #P B3LYP/6-311+g(d) force
 -------------------------

 -----
 DPGEN
 -----
 Symbolic Z-matrix:
 Charge =  0 Multiplicity = 2

                         Standard orientation:
 ---------------------------------------------------------------------
 Center     Atomic      Atomic             Coordinates (Angstroms)
 Number     Number       Type             X           Y           Z
 ---------------------------------------------------------------------
      1         11           0        1.067863    2.646623   -0.392537
      2         11           0       -0.401434   -0.089071   -1.320693
      3         11           0        0.375408   -0.104696    2.201431
      4         11           0        3.050336    0.258586   -0.089504
      5         11           0       -2.859562    1.722448    0.044181
      6         11           0        1.601567   -2.536765   -0.404277
      7         11           0       -2.834178   -1.897124   -0.038601
 ---------------------------------------------------------------------

 SCF Done:  E(UB3LYP) =  -1136.12982344     A.U. after   20 cycles

 The electronic state is 2-A.
 Alpha  occ. eigenvalues --  -38.44596 -38.44543 -38.44088 -38.43664 -38.43413
 Alpha  occ. eigenvalues --  -38.43063 -38.43014  -2.20387  -2.20332  -2.19995
 Alpha  occ. eigenvalues --   -2.19524  -2.19270  -2.19022  -2.18936  -1.14071
 Alpha  occ. eigenvalues --   -1.14051  -1.14024  -1.14014  -1.13987  -1.13958
 Alpha  occ. eigenvalues --   -1.13680  -1.13663  -1.13647  -1.13185  -1.13145
 Alpha  occ. eigenvalues --   -1.13138  -1.12963  -1.12919  -1.12908  -1.12733
 Alpha  occ. eigenvalues --   -1.12698  -1.12650  -1.12598  -1.12579  -1.12562
 Alpha  occ. eigenvalues --   -0.18497  -0.13508  -0.11966  -0.10528
 Alpha virt. eigenvalues --   -0.05961  -0.05901  -0.04207  -0.03290  -0.02504
 Alpha virt. eigenvalues --   -0.02442  -0.01850  -0.01424  -0.00603  -0.00342
 Alpha virt. eigenvalues --   -0.00025   0.00306   0.00678   0.00754   0.00886

  Beta  occ. eigenvalues --  -38.44597 -38.44544 -38.44080 -38.43554 -38.43403
  Beta  occ. eigenvalues --  -38.43054 -38.42972  -2.20389  -2.20336  -2.19986
  Beta  occ. eigenvalues --   -2.19321  -2.19255  -2.18946  -2.18922  -1.14066
  Beta  occ. eigenvalues --   -1.14046  -1.14028  -1.14010  -1.13984  -1.13964
  Beta  occ. eigenvalues --   -1.13678  -1.13660  -1.13605  -1.13049  -1.13002
  Beta  occ. eigenvalues --   -1.12997  -1.12948  -1.12909  -1.12880  -1.12689
  Beta  occ. eigenvalues --   -1.12641  -1.12597  -1.12583  -1.12547  -1.12543
  Beta  occ. eigenvalues --   -0.17789  -0.13329  -0.11741
  Beta virt. eigenvalues --   -0.06553  -0.05962  -0.05807  -0.04181  -0.02568
  Beta virt. eigenvalues --   -0.01801  -0.01761  -0.01381  -0.01305  -0.00655
  Beta virt. eigenvalues --   -0.00354   0.00163   0.00361   0.00751   0.00765

 Mulliken charges and spin densities:
               1          2
     1  Na   0.112167   0.040696
     2  Na  -0.227743   0.050741
     3  Na  -0.639216   0.727981
     4  Na   0.483296   0.173150
     5  Na   0.048422   0.006423
     6  Na   0.168943   0.033754
     7  Na   0.054131  -0.032745
 Sum of Mulliken charges =  -0.00000   1.00000

 Dipole moment (field-independent basis, Debye):
    X=             -0.8203    Y=             -0.1144    Z=              0.2507  Tot=              0.8654
 Quadrupole moment (field-independent basis, Debye-Ang):
   XX=            -52.5546   YY=            -63.9206   ZZ=            -76.1505
   XY=             -0.1524   XZ=             -1.5193   YZ=              0.1941

 Normal termination of Gaussian 16 at Thu Dec  7 22:53:35 2023.
