 Gaussian 16, Revision B.01,
 Gaussian 16:  ES64L-G16RevB.01 20-Dec-2017

 -------------------------
 #P B3LYP/6-311+g(d) force
 -------------------------

 -----
 DPGEN
 -----
 Symbolic Z-matrix:
 Charge =  0 Multiplicity = 2

                         Standard orientation:
 ---------------------------------------------------------------------
 Center     Atomic      Atomic             Coordinates (Angstroms)
 Number     Number       Type             X           Y           Z
 ---------------------------------------------------------------------
      1         11           0       -1.751743    2.259028    0.680261
      2         11           0       -2.930857   -0.817575   -0.518725
      3         11           0        1.320703    2.480087   -0.585885
      4         11           0       -0.195010   -2.578613    0.616170
      5         11           0        0.529032   -0.085232    2.065200
      6         11           0       -0.031393   -0.542098   -2.063490
      7         11           0        3.059268   -0.715596   -0.193531
 ---------------------------------------------------------------------

 SCF Done:  E(UB3LYP) =  -1136.13512238     A.U. after   19 cycles

 The electronic state is 2-A.
 Alpha  occ. eigenvalues --  -38.44148 -38.44148 -38.43882 -38.43595 -38.43431
 Alpha  occ. eigenvalues --  -38.43413 -38.43232  -2.20079  -2.20050  -2.19704
 Alpha  occ. eigenvalues --   -2.19441  -2.19324  -2.19268  -2.19071  -1.13803
 Alpha  occ. eigenvalues --   -1.13718  -1.13700  -1.13691  -1.13690  -1.13677
 Alpha  occ. eigenvalues --   -1.13382  -1.13362  -1.13340  -1.13123  -1.13097
 Alpha  occ. eigenvalues --   -1.13083  -1.13034  -1.12972  -1.12954  -1.12934
 Alpha  occ. eigenvalues --   -1.12908  -1.12905  -1.12747  -1.12720  -1.12705
 Alpha  occ. eigenvalues --   -0.18640  -0.12739  -0.12383  -0.11726
 Alpha virt. eigenvalues --   -0.05415  -0.04748  -0.04447  -0.03556  -0.03367
 Alpha virt. eigenvalues --   -0.03274  -0.01346  -0.00782  -0.00288   0.00075
 Alpha virt. eigenvalues --    0.00163   0.00404   0.00822   0.00865   0.00922

  Beta  occ. eigenvalues --  -38.44069 -38.44062 -38.43879 -38.43590 -38.43423
  Beta  occ. eigenvalues --  -38.43394 -38.43223  -2.19921  -2.19903  -2.19702
  Beta  occ. eigenvalues --   -2.19433  -2.19293  -2.19256  -2.19055  -1.13696
  Beta  occ. eigenvalues --   -1.13624  -1.13592  -1.13590  -1.13576  -1.13564
  Beta  occ. eigenvalues --   -1.13368  -1.13360  -1.13332  -1.13107  -1.13090
  Beta  occ. eigenvalues --   -1.13076  -1.12998  -1.12945  -1.12935  -1.12914
  Beta  occ. eigenvalues --   -1.12895  -1.12891  -1.12725  -1.12707  -1.12697
  Beta  occ. eigenvalues --   -0.17858  -0.12506  -0.12140
  Beta virt. eigenvalues --   -0.07771  -0.05364  -0.04658  -0.04311  -0.02822
  Beta virt. eigenvalues --   -0.02627  -0.02268  -0.01264  -0.00728  -0.00154
  Beta virt. eigenvalues --    0.00120   0.00135   0.00436   0.00888   0.00934

 Mulliken charges and spin densities:
               1          2
     1  Na  -0.010282  -0.020006
     2  Na   0.009479   0.036224
     3  Na  -0.156804   0.041889
     4  Na   0.223211  -0.063138
     5  Na  -0.002223   0.562767
     6  Na  -0.117580   0.544084
     7  Na   0.054199  -0.101819
 Sum of Mulliken charges =  -0.00000   1.00000

 Dipole moment (field-independent basis, Debye):
    X=              0.2956    Y=             -0.1809    Z=             -0.1713  Tot=              0.3866
 Quadrupole moment (field-independent basis, Debye-Ang):
   XX=            -59.9415   YY=            -67.8082   ZZ=            -68.5582
   XY=             -0.0600   XZ=             -1.1415   YZ=             -0.4185

 Normal termination of Gaussian 16 at Wed Dec  6 00:53:20 2023.
