 Gaussian 16, Revision B.01,
 Gaussian 16:  ES64L-G16RevB.01 20-Dec-2017

 -------------------------
 #P B3LYP/6-311+g(d) force
 -------------------------

 -----
 DPGEN
 -----
 Symbolic Z-matrix:
 Charge =  0 Multiplicity = 2

                         Standard orientation:
 ---------------------------------------------------------------------
 Center     Atomic      Atomic             Coordinates (Angstroms)
 Number     Number       Type             X           Y           Z
 ---------------------------------------------------------------------
      1         11           0       -2.265141   -1.975069    0.481704
      2         11           0       -2.976719    0.794753   -0.981871
      3         11           0        0.186682    3.054550    0.229407
      4         11           0       -0.073108   -0.747711   -1.317996
      5         11           0        3.215732    0.660616   -0.815052
      6         11           0       -0.018346    0.721572    2.047630
      7         11           0        1.930901   -2.508711    0.356178
 ---------------------------------------------------------------------

 SCF Done:  E(UB3LYP) =  -1136.12873309     A.U. after   20 cycles

 The electronic state is 2-A.
 Alpha  occ. eigenvalues --  -38.44446 -38.44003 -38.43915 -38.43817 -38.43590
 Alpha  occ. eigenvalues --  -38.43319 -38.43245  -2.20233  -2.19857  -2.19788
 Alpha  occ. eigenvalues --   -2.19638  -2.19485  -2.19306  -2.19080  -1.13914
 Alpha  occ. eigenvalues --   -1.13877  -1.13857  -1.13569  -1.13536  -1.13486
 Alpha  occ. eigenvalues --   -1.13474  -1.13436  -1.13387  -1.13352  -1.13299
 Alpha  occ. eigenvalues --   -1.13259  -1.13213  -1.13123  -1.13099  -1.12997
 Alpha  occ. eigenvalues --   -1.12956  -1.12919  -1.12758  -1.12718  -1.12702
 Alpha  occ. eigenvalues --   -0.18234  -0.13186  -0.12255  -0.10711
 Alpha virt. eigenvalues --   -0.05737  -0.05281  -0.04656  -0.03303  -0.03051
 Alpha virt. eigenvalues --   -0.02372  -0.01726  -0.01169  -0.00488  -0.00330
 Alpha virt. eigenvalues --   -0.00002   0.00315   0.00728   0.00808   0.00867

  Beta  occ. eigenvalues --  -38.44418 -38.43969 -38.43908 -38.43815 -38.43509
  Beta  occ. eigenvalues --  -38.43290 -38.43243  -2.20182  -2.19796  -2.19778
  Beta  occ. eigenvalues --   -2.19637  -2.19335  -2.19257  -2.19080  -1.13870
  Beta  occ. eigenvalues --   -1.13845  -1.13824  -1.13545  -1.13487  -1.13474
  Beta  occ. eigenvalues --   -1.13431  -1.13416  -1.13360  -1.13351  -1.13294
  Beta  occ. eigenvalues --   -1.13245  -1.13118  -1.13019  -1.12999  -1.12946
  Beta  occ. eigenvalues --   -1.12919  -1.12882  -1.12734  -1.12710  -1.12705
  Beta  occ. eigenvalues --   -0.17570  -0.12870  -0.12039
  Beta virt. eigenvalues --   -0.07038  -0.05525  -0.05124  -0.04527  -0.02731
  Beta virt. eigenvalues --   -0.02400  -0.01587  -0.01536  -0.01030  -0.00402
  Beta virt. eigenvalues --   -0.00295   0.00124   0.00382   0.00804   0.00844

 Mulliken charges and spin densities:
               1          2
     1  Na   0.231202   0.243333
     2  Na   0.149461   0.075399
     3  Na   0.041561   0.019611
     4  Na  -0.182778   0.045139
     5  Na  -0.033016   0.063576
     6  Na  -0.260415   0.405856
     7  Na   0.053986   0.147087
 Sum of Mulliken charges =  -0.00000   1.00000

 Dipole moment (field-independent basis, Debye):
    X=              0.1069    Y=             -0.1997    Z=              0.0723  Tot=              0.2378
 Quadrupole moment (field-independent basis, Debye-Ang):
   XX=            -56.8095   YY=            -64.2307   ZZ=            -72.8876
   XY=              0.1295   XZ=             -0.3541   YZ=             -5.0862

 Normal termination of Gaussian 16 at Tue Nov 28 21:43:53 2023.
