 Gaussian 16, Revision B.01,
 Gaussian 16:  ES64L-G16RevB.01 20-Dec-2017

 -------------------------
 #P B3LYP/6-311+g(d) force
 -------------------------

 -----
 DPGEN
 -----
 Symbolic Z-matrix:
 Charge =  0 Multiplicity = 2

                         Standard orientation:
 ---------------------------------------------------------------------
 Center     Atomic      Atomic             Coordinates (Angstroms)
 Number     Number       Type             X           Y           Z
 ---------------------------------------------------------------------
      1         11           0       -0.630531   -1.105913   -1.083304
      2         11           0       -0.273387    2.562711   -0.831444
      3         11           0        3.103825   -2.137069    0.540934
      4         11           0       -2.350354    1.369030    1.351356
      5         11           0        1.642707    0.374376    1.774664
      6         11           0        2.617400    0.723938   -1.416575
      7         11           0       -4.109660   -1.787074   -0.335631
 ---------------------------------------------------------------------

 SCF Done:  E(UB3LYP) =  -1136.12462277     A.U. after   22 cycles

 The electronic state is 2-A.
 Alpha  occ. eigenvalues --  -38.44440 -38.44374 -38.44359 -38.44290 -38.44081
 Alpha  occ. eigenvalues --  -38.43772 -38.42938  -2.20323  -2.20240  -2.20189
 Alpha  occ. eigenvalues --   -2.20100  -2.19918  -2.19524  -2.18796  -1.14012
 Alpha  occ. eigenvalues --   -1.14007  -1.13938  -1.13908  -1.13890  -1.13875
 Alpha  occ. eigenvalues --   -1.13855  -1.13847  -1.13802  -1.13789  -1.13769
 Alpha  occ. eigenvalues --   -1.13698  -1.13585  -1.13566  -1.13548  -1.13199
 Alpha  occ. eigenvalues --   -1.13192  -1.13156  -1.12474  -1.12461  -1.12443
 Alpha  occ. eigenvalues --   -0.18025  -0.13686  -0.11553  -0.11023
 Alpha virt. eigenvalues --   -0.06305  -0.05859  -0.04700  -0.03109  -0.02730
 Alpha virt. eigenvalues --   -0.02649  -0.02145  -0.01456  -0.00695  -0.00335
 Alpha virt. eigenvalues --   -0.00089   0.00159   0.00292   0.00360   0.00634

  Beta  occ. eigenvalues --  -38.44383 -38.44338 -38.44311 -38.44255 -38.44070
  Beta  occ. eigenvalues --  -38.43776 -38.42933  -2.20218  -2.20152  -2.20122
  Beta  occ. eigenvalues --   -2.20037  -2.19900  -2.19532  -2.18792  -1.13943
  Beta  occ. eigenvalues --   -1.13935  -1.13859  -1.13836  -1.13832  -1.13831
  Beta  occ. eigenvalues --   -1.13809  -1.13779  -1.13750  -1.13738  -1.13729
  Beta  occ. eigenvalues --   -1.13650  -1.13562  -1.13549  -1.13536  -1.13204
  Beta  occ. eigenvalues --   -1.13195  -1.13161  -1.12476  -1.12450  -1.12415
  Beta  occ. eigenvalues --   -0.17335  -0.13470  -0.11258
  Beta virt. eigenvalues --   -0.07350  -0.06119  -0.05599  -0.04236  -0.02868
  Beta virt. eigenvalues --   -0.02294  -0.02160  -0.01725  -0.01207  -0.00426
  Beta virt. eigenvalues --   -0.00246   0.00059   0.00204   0.00395   0.00502

 Mulliken charges and spin densities:
               1          2
     1  Na  -1.123504   0.268545
     2  Na  -0.067795   0.020079
     3  Na   0.615175   0.008662
     4  Na   0.287084   0.147809
     5  Na  -0.553420   0.388926
     6  Na   0.667929   0.215014
     7  Na   0.174531  -0.049036
 Sum of Mulliken charges =  -0.00000   1.00000

 Dipole moment (field-independent basis, Debye):
    X=              0.6982    Y=              0.0609    Z=              0.1463  Tot=              0.7159
 Quadrupole moment (field-independent basis, Debye-Ang):
   XX=            -56.1094   YY=            -69.5044   ZZ=            -70.4806
   XY=             -3.1811   XZ=             -3.9333   YZ=             -0.0305

 Normal termination of Gaussian 16 at Fri Dec  8 06:23:50 2023.
