 Gaussian 16, Revision B.01,
 Gaussian 16:  ES64L-G16RevB.01 20-Dec-2017

 -------------------------
 #P B3LYP/6-311+g(d) force
 -------------------------

 -----
 DPGEN
 -----
 Symbolic Z-matrix:
 Charge =  0 Multiplicity = 2

                         Standard orientation:
 ---------------------------------------------------------------------
 Center     Atomic      Atomic             Coordinates (Angstroms)
 Number     Number       Type             X           Y           Z
 ---------------------------------------------------------------------
      1         11           0       -2.766290   -1.311527   -0.827094
      2         11           0       -5.333982   -0.417420    1.031972
      3         11           0       -3.244847    2.089403   -0.183170
      4         11           0        0.355980    1.231329   -0.463104
      5         11           0        0.390694   -1.884835   -0.113482
      6         11           0        3.112725    0.221910    0.302375
      7         11           0        7.485719    0.071140    0.252503
 ---------------------------------------------------------------------

 SCF Done:  E(UB3LYP) =  -1136.10471323     A.U. after   24 cycles

 The electronic state is 2-A.
 Alpha  occ. eigenvalues --  -38.45004 -38.44901 -38.44585 -38.44571 -38.44512
 Alpha  occ. eigenvalues --  -38.44296 -38.44130  -2.20809  -2.20736  -2.20498
 Alpha  occ. eigenvalues --   -2.20450  -2.20219  -2.20185  -2.19947  -1.14488
 Alpha  occ. eigenvalues --   -1.14472  -1.14451  -1.14411  -1.14397  -1.14327
 Alpha  occ. eigenvalues --   -1.14194  -1.14163  -1.14154  -1.14141  -1.14113
 Alpha  occ. eigenvalues --   -1.14072  -1.13889  -1.13889  -1.13843  -1.13838
 Alpha  occ. eigenvalues --   -1.13831  -1.13810  -1.13649  -1.13622  -1.13546
 Alpha  occ. eigenvalues --   -0.17761  -0.14492  -0.11768  -0.10963
 Alpha virt. eigenvalues --   -0.07802  -0.05610  -0.04716  -0.03927  -0.03439
 Alpha virt. eigenvalues --   -0.02433  -0.02064  -0.01580  -0.01104  -0.00797
 Alpha virt. eigenvalues --   -0.00515  -0.00356  -0.00251   0.00152   0.00461

  Beta  occ. eigenvalues --  -38.44997 -38.44836 -38.44543 -38.44536 -38.44492
  Beta  occ. eigenvalues --  -38.44267 -38.44140  -2.20797  -2.20617  -2.20422
  Beta  occ. eigenvalues --   -2.20387  -2.20182  -2.20130  -2.19966  -1.14469
  Beta  occ. eigenvalues --   -1.14464  -1.14442  -1.14333  -1.14318  -1.14234
  Beta  occ. eigenvalues --   -1.14137  -1.14119  -1.14094  -1.14092  -1.14061
  Beta  occ. eigenvalues --   -1.14026  -1.13864  -1.13864  -1.13819  -1.13802
  Beta  occ. eigenvalues --   -1.13797  -1.13764  -1.13652  -1.13634  -1.13557
  Beta  occ. eigenvalues --   -0.17152  -0.14433  -0.10743
  Beta virt. eigenvalues --   -0.07982  -0.07327  -0.05032  -0.04446  -0.03861
  Beta virt. eigenvalues --   -0.02687  -0.02368  -0.01658  -0.01473  -0.00820
  Beta virt. eigenvalues --   -0.00676  -0.00214  -0.00161  -0.00025   0.00312

 Mulliken charges and spin densities:
               1          2
     1  Na  -0.592258   0.210037
     2  Na   0.430572   0.011412
     3  Na  -0.069161   0.120876
     4  Na  -0.909255   0.546314
     5  Na   0.228137   0.189095
     6  Na   0.964312  -0.162051
     7  Na  -0.052348   0.084317
 Sum of Mulliken charges =  -0.00000   1.00000

 Dipole moment (field-independent basis, Debye):
    X=             -3.4647    Y=             -0.3604    Z=              0.2132  Tot=              3.4899
 Quadrupole moment (field-independent basis, Debye-Ang):
   XX=            -65.8970   YY=            -69.3861   ZZ=            -70.8275
   XY=             -1.8101   XZ=             -3.8904   YZ=             -1.1028

 Normal termination of Gaussian 16 at Wed Nov 29 01:17:30 2023.
