 Gaussian 16, Revision B.01,
 Gaussian 16:  ES64L-G16RevB.01 20-Dec-2017

 -------------------------
 #P B3LYP/6-311+g(d) force
 -------------------------

 -----
 DPGEN
 -----
 Symbolic Z-matrix:
 Charge =  0 Multiplicity = 2

                         Standard orientation:
 ---------------------------------------------------------------------
 Center     Atomic      Atomic             Coordinates (Angstroms)
 Number     Number       Type             X           Y           Z
 ---------------------------------------------------------------------
      1         11           0       -2.959157    1.186910    0.170907
      2         11           0        0.272263    0.805548   -1.621615
      3         11           0        1.014743   -2.539435   -0.663966
      4         11           0        3.105974    0.263715    0.042414
      5         11           0        0.575834    3.095563    0.385177
      6         11           0       -2.062137   -1.615316   -0.557513
      7         11           0        0.052480   -1.196984    2.244596
 ---------------------------------------------------------------------

 SCF Done:  E(UB3LYP) =  -1136.13210241     A.U. after   18 cycles

 The electronic state is 2-A.
 Alpha  occ. eigenvalues --  -38.44230 -38.44023 -38.43991 -38.43961 -38.43334
 Alpha  occ. eigenvalues --  -38.43326 -38.43286  -2.20042  -2.19838  -2.19835
 Alpha  occ. eigenvalues --   -2.19786  -2.19289  -2.19222  -2.19213  -1.13731
 Alpha  occ. eigenvalues --   -1.13707  -1.13671  -1.13564  -1.13512  -1.13493
 Alpha  occ. eigenvalues --   -1.13486  -1.13471  -1.13456  -1.13451  -1.13438
 Alpha  occ. eigenvalues --   -1.13412  -1.12982  -1.12961  -1.12933  -1.12913
 Alpha  occ. eigenvalues --   -1.12879  -1.12870  -1.12860  -1.12851  -1.12809
 Alpha  occ. eigenvalues --   -0.18414  -0.12891  -0.12647  -0.10886
 Alpha virt. eigenvalues --   -0.05863  -0.04857  -0.04804  -0.03443  -0.03171
 Alpha virt. eigenvalues --   -0.02633  -0.01361  -0.01011  -0.00467  -0.00172
 Alpha virt. eigenvalues --   -0.00078   0.00375   0.00769   0.00832   0.00892

  Beta  occ. eigenvalues --  -38.44227 -38.44019 -38.43960 -38.43899 -38.43310
  Beta  occ. eigenvalues --  -38.43288 -38.43271  -2.20039  -2.19831  -2.19786
  Beta  occ. eigenvalues --   -2.19663  -2.19206  -2.19197  -2.19191  -1.13722
  Beta  occ. eigenvalues --   -1.13692  -1.13673  -1.13557  -1.13513  -1.13482
  Beta  occ. eigenvalues --   -1.13448  -1.13426  -1.13414  -1.13375  -1.13351
  Beta  occ. eigenvalues --   -1.13334  -1.12952  -1.12914  -1.12882  -1.12866
  Beta  occ. eigenvalues --   -1.12853  -1.12839  -1.12819  -1.12801  -1.12797
  Beta  occ. eigenvalues --   -0.17695  -0.12718  -0.12451
  Beta virt. eigenvalues --   -0.06972  -0.05850  -0.04784  -0.04599  -0.02771
  Beta virt. eigenvalues --   -0.02464  -0.01627  -0.01296  -0.00933  -0.00476
  Beta virt. eigenvalues --   -0.00194   0.00130   0.00424   0.00827   0.00904

 Mulliken charges and spin densities:
               1          2
     1  Na  -0.087992  -0.008370
     2  Na   0.300643   0.122811
     3  Na   0.420051   0.106136
     4  Na   0.004740  -0.005651
     5  Na  -0.045149   0.048397
     6  Na   0.178845   0.102732
     7  Na  -0.771137   0.633944
 Sum of Mulliken charges =  -0.00000   1.00000

 Dipole moment (field-independent basis, Debye):
    X=              0.3706    Y=              0.4031    Z=              0.3567  Tot=              0.6535
 Quadrupole moment (field-independent basis, Debye-Ang):
   XX=            -60.1075   YY=            -63.6333   ZZ=            -71.7543
   XY=             -1.0383   XZ=              0.0466   YZ=              3.4195

 Normal termination of Gaussian 16 at Sun Dec  3 22:57:46 2023.
