 Gaussian 16, Revision B.01,
 Gaussian 16:  ES64L-G16RevB.01 20-Dec-2017

 -------------------------
 #P B3LYP/6-311+g(d) force
 -------------------------

 -----
 DPGEN
 -----
 Symbolic Z-matrix:
 Charge =  0 Multiplicity = 2

                         Standard orientation:
 ---------------------------------------------------------------------
 Center     Atomic      Atomic             Coordinates (Angstroms)
 Number     Number       Type             X           Y           Z
 ---------------------------------------------------------------------
      1         11           0        3.934415   -0.503321   -0.818603
      2         11           0       -3.214437    0.864925   -1.238511
      3         11           0       -2.061662   -2.097416    0.107432
      4         11           0        0.293717   -1.187344   -1.014795
      5         11           0        1.027922    2.411058   -0.472397
      6         11           0        1.715256   -0.241950    1.780100
      7         11           0       -1.695212    0.754049    1.656773
 ---------------------------------------------------------------------

 SCF Done:  E(UB3LYP) =  -1136.11733309     A.U. after   25 cycles

 The electronic state is 2-A.
 Alpha  occ. eigenvalues --  -38.45008 -38.44705 -38.44168 -38.43726 -38.43644
 Alpha  occ. eigenvalues --  -38.43556 -38.43202  -2.20798  -2.20536  -2.20064
 Alpha  occ. eigenvalues --   -2.19678  -2.19463  -2.19431  -2.19142  -1.14476
 Alpha  occ. eigenvalues --   -1.14441  -1.14421  -1.14212  -1.14175  -1.14152
 Alpha  occ. eigenvalues --   -1.13773  -1.13692  -1.13686  -1.13513  -1.13340
 Alpha  occ. eigenvalues --   -1.13301  -1.13146  -1.13134  -1.13127  -1.13103
 Alpha  occ. eigenvalues --   -1.13088  -1.13044  -1.12793  -1.12770  -1.12732
 Alpha  occ. eigenvalues --   -0.18524  -0.14156  -0.11103  -0.10897
 Alpha virt. eigenvalues --   -0.06924  -0.05179  -0.04641  -0.03097  -0.02671
 Alpha virt. eigenvalues --   -0.02468  -0.02247  -0.01120  -0.00649  -0.00265
 Alpha virt. eigenvalues --    0.00087   0.00161   0.00308   0.00597   0.00804

  Beta  occ. eigenvalues --  -38.44985 -38.44655 -38.44118 -38.43715 -38.43641
  Beta  occ. eigenvalues --  -38.43520 -38.43194  -2.20755  -2.20441  -2.19974
  Beta  occ. eigenvalues --   -2.19661  -2.19427  -2.19401  -2.19131  -1.14444
  Beta  occ. eigenvalues --   -1.14412  -1.14393  -1.14150  -1.14111  -1.14085
  Beta  occ. eigenvalues --   -1.13713  -1.13628  -1.13602  -1.13490  -1.13324
  Beta  occ. eigenvalues --   -1.13282  -1.13131  -1.13108  -1.13086  -1.13062
  Beta  occ. eigenvalues --   -1.13042  -1.13035  -1.12787  -1.12757  -1.12704
  Beta  occ. eigenvalues --   -0.17819  -0.13867  -0.10738
  Beta virt. eigenvalues --   -0.07351  -0.06696  -0.04651  -0.04404  -0.02970
  Beta virt. eigenvalues --   -0.02433  -0.01899  -0.01549  -0.00734  -0.00581
  Beta virt. eigenvalues --   -0.00134   0.00182   0.00236   0.00396   0.00733

 Mulliken charges and spin densities:
               1          2
     1  Na   0.407235   0.177356
     2  Na  -0.098392   0.216613
     3  Na   0.355610   0.256854
     4  Na  -0.421517   0.048209
     5  Na  -0.534978   0.119405
     6  Na  -0.033798   0.069644
     7  Na   0.325840   0.111919
 Sum of Mulliken charges =  -0.00000   1.00000

 Dipole moment (field-independent basis, Debye):
    X=              0.7501    Y=              0.2860    Z=             -0.0867  Tot=              0.8074
 Quadrupole moment (field-independent basis, Debye-Ang):
   XX=            -48.5018   YY=            -78.2202   ZZ=            -66.7768
   XY=             -0.2385   XZ=             -0.2509   YZ=             -4.0618

 Normal termination of Gaussian 16 at Tue Dec  5 17:40:50 2023.
