 Gaussian 16, Revision B.01,
 Gaussian 16:  ES64L-G16RevB.01 20-Dec-2017

 -------------------------
 #P B3LYP/6-311+g(d) force
 -------------------------

 -----
 DPGEN
 -----
 Symbolic Z-matrix:
 Charge =  0 Multiplicity = 2

                         Standard orientation:
 ---------------------------------------------------------------------
 Center     Atomic      Atomic             Coordinates (Angstroms)
 Number     Number       Type             X           Y           Z
 ---------------------------------------------------------------------
      1         11           0        0.222642   -0.032443    2.083031
      2         11           0       -0.372307    0.170629   -1.539998
      3         11           0        0.846398   -2.676917   -0.551084
      4         11           0        3.048955   -0.613375    0.331556
      5         11           0       -2.516401    2.161970    0.241961
      6         11           0        1.775922    2.640084   -0.558876
      7         11           0       -3.005210   -1.649948   -0.006590
 ---------------------------------------------------------------------

 SCF Done:  E(UB3LYP) =  -1136.13167459     A.U. after   19 cycles

 The electronic state is 2-A.
 Alpha  occ. eigenvalues --  -38.44497 -38.44451 -38.43944 -38.43889 -38.43640
 Alpha  occ. eigenvalues --  -38.43239 -38.43135  -2.20264  -2.20227  -2.19811
 Alpha  occ. eigenvalues --   -2.19748  -2.19438  -2.19111  -2.19086  -1.13946
 Alpha  occ. eigenvalues --   -1.13919  -1.13910  -1.13905  -1.13887  -1.13854
 Alpha  occ. eigenvalues --   -1.13508  -1.13490  -1.13446  -1.13410  -1.13370
 Alpha  occ. eigenvalues --   -1.13358  -1.13121  -1.13087  -1.13077  -1.12847
 Alpha  occ. eigenvalues --   -1.12771  -1.12756  -1.12744  -1.12710  -1.12692
 Alpha  occ. eigenvalues --   -0.18200  -0.13097  -0.12042  -0.10638
 Alpha virt. eigenvalues --   -0.05947  -0.05700  -0.04411  -0.03288  -0.02730
 Alpha virt. eigenvalues --   -0.02473  -0.01753  -0.01435  -0.00639  -0.00334
 Alpha virt. eigenvalues --   -0.00027   0.00331   0.00709   0.00748   0.00820

  Beta  occ. eigenvalues --  -38.44498 -38.44449 -38.43937 -38.43797 -38.43626
  Beta  occ. eigenvalues --  -38.43226 -38.43079  -2.20270  -2.20223  -2.19802
  Beta  occ. eigenvalues --   -2.19577  -2.19414  -2.19090  -2.18984  -1.13940
  Beta  occ. eigenvalues --   -1.13924  -1.13908  -1.13896  -1.13882  -1.13853
  Beta  occ. eigenvalues --   -1.13499  -1.13466  -1.13429  -1.13299  -1.13255
  Beta  occ. eigenvalues --   -1.13236  -1.13095  -1.13067  -1.13063  -1.12814
  Beta  occ. eigenvalues --   -1.12736  -1.12725  -1.12697  -1.12642  -1.12620
  Beta  occ. eigenvalues --   -0.17492  -0.12909  -0.11777
  Beta virt. eigenvalues --   -0.06786  -0.05958  -0.05553  -0.04334  -0.02567
  Beta virt. eigenvalues --   -0.02064  -0.01657  -0.01454  -0.01340  -0.00666
  Beta virt. eigenvalues --   -0.00344   0.00119   0.00367   0.00742   0.00795

 Mulliken charges and spin densities:
               1          2
     1  Na  -0.319156   0.654353
     2  Na   0.101218   0.328357
     3  Na   0.013787  -0.027032
     4  Na   0.341171   0.159480
     5  Na  -0.062487  -0.031257
     6  Na  -0.048635  -0.033139
     7  Na  -0.025897  -0.050763
 Sum of Mulliken charges =  -0.00000   1.00000

 Dipole moment (field-independent basis, Debye):
    X=             -0.5885    Y=              0.1267    Z=              0.2744  Tot=              0.6616
 Quadrupole moment (field-independent basis, Debye-Ang):
   XX=            -54.1231   YY=            -63.3978   ZZ=            -75.2062
   XY=              0.1824   XZ=             -1.1532   YZ=              0.4291

 Normal termination of Gaussian 16 at Thu Dec  7 17:22:52 2023.
