 Gaussian 16, Revision B.01,
 Gaussian 16:  ES64L-G16RevB.01 20-Dec-2017

 -------------------------
 #P B3LYP/6-311+g(d) force
 -------------------------

 -----
 DPGEN
 -----
 Symbolic Z-matrix:
 Charge =  0 Multiplicity = 2

                         Standard orientation:
 ---------------------------------------------------------------------
 Center     Atomic      Atomic             Coordinates (Angstroms)
 Number     Number       Type             X           Y           Z
 ---------------------------------------------------------------------
      1         11           0        2.493733    1.729258    0.134830
      2         11           0       -0.059258    0.023651   -1.705190
      3         11           0       -0.764875   -2.574980   -0.185504
      4         11           0       -0.052114   -0.036806    1.791261
      5         11           0       -3.048316   -0.042120    0.210156
      6         11           0       -0.834839    2.726043   -0.229365
      7         11           0        2.265669   -1.825046   -0.016187
 ---------------------------------------------------------------------

 SCF Done:  E(UB3LYP) =  -1136.13904105     A.U. after   19 cycles

 The electronic state is 2-A.
 Alpha  occ. eigenvalues --  -38.43620 -38.43619 -38.43498 -38.43445 -38.43224
 Alpha  occ. eigenvalues --  -38.43155 -38.43086  -2.19483  -2.19465  -2.19379
 Alpha  occ. eigenvalues --   -2.19345  -2.19183  -2.19146  -2.19115  -1.13166
 Alpha  occ. eigenvalues --   -1.13148  -1.13144  -1.13137  -1.13132  -1.13117
 Alpha  occ. eigenvalues --   -1.13091  -1.13076  -1.13040  -1.13007  -1.12988
 Alpha  occ. eigenvalues --   -1.12984  -1.12934  -1.12869  -1.12813  -1.12781
 Alpha  occ. eigenvalues --   -1.12767  -1.12757  -1.12747  -1.12719  -1.12706
 Alpha  occ. eigenvalues --   -0.19311  -0.12966  -0.12884  -0.10801
 Alpha virt. eigenvalues --   -0.05280  -0.05029  -0.04774  -0.03052  -0.02991
 Alpha virt. eigenvalues --   -0.02394  -0.01365  -0.01107  -0.00184  -0.00067
 Alpha virt. eigenvalues --    0.00037   0.00364   0.00874   0.00930   0.00947

  Beta  occ. eigenvalues --  -38.43617 -38.43613 -38.43489 -38.43440 -38.43213
  Beta  occ. eigenvalues --  -38.43074 -38.43007  -2.19475  -2.19462  -2.19367
  Beta  occ. eigenvalues --   -2.19339  -2.19167  -2.18997  -2.18972  -1.13158
  Beta  occ. eigenvalues --   -1.13142  -1.13132  -1.13122  -1.13116  -1.13108
  Beta  occ. eigenvalues --   -1.13077  -1.13068  -1.13012  -1.12990  -1.12983
  Beta  occ. eigenvalues --   -1.12968  -1.12904  -1.12811  -1.12775  -1.12729
  Beta  occ. eigenvalues --   -1.12672  -1.12657  -1.12642  -1.12622  -1.12611
  Beta  occ. eigenvalues --   -0.18569  -0.12685  -0.12613
  Beta virt. eigenvalues --   -0.06853  -0.05269  -0.05021  -0.04767  -0.02222
  Beta virt. eigenvalues --   -0.02190  -0.01336  -0.01281  -0.01037  -0.00230
  Beta virt. eigenvalues --   -0.00118   0.00146   0.00382   0.00902   0.00934

 Mulliken charges and spin densities:
               1          2
     1  Na   0.026020  -0.102174
     2  Na  -0.326270   0.595454
     3  Na   0.385732  -0.010756
     4  Na  -0.466864   0.763637
     5  Na   0.174911  -0.058983
     6  Na   0.103015  -0.103134
     7  Na   0.103456  -0.084045
 Sum of Mulliken charges =  -0.00000   1.00000

 Dipole moment (field-independent basis, Debye):
    X=              0.0054    Y=              0.2078    Z=              0.0899  Tot=              0.2265
 Quadrupole moment (field-independent basis, Debye-Ang):
   XX=            -57.2884   YY=            -61.4441   ZZ=            -74.3226
   XY=             -0.0750   XZ=             -0.0379   YZ=              0.1369

 Normal termination of Gaussian 16 at Thu Dec  7 20:30:48 2023.
