 Gaussian 16, Revision B.01,
 Gaussian 16:  ES64L-G16RevB.01 20-Dec-2017

 -------------------------
 #P B3LYP/6-311+g(d) force
 -------------------------

 -----
 DPGEN
 -----
 Symbolic Z-matrix:
 Charge =  0 Multiplicity = 2

                         Standard orientation:
 ---------------------------------------------------------------------
 Center     Atomic      Atomic             Coordinates (Angstroms)
 Number     Number       Type             X           Y           Z
 ---------------------------------------------------------------------
      1         11           0       -0.134933    0.175549    2.171388
      2         11           0        1.746995   -2.317855   -0.046204
      3         11           0       -0.387658   -0.418657   -1.403195
      4         11           0       -2.707207    1.532273   -0.495301
      5         11           0        3.143438    0.540292   -0.410434
      6         11           0        0.455571    2.875066    0.065282
      7         11           0       -2.116207   -2.386668    0.118465
 ---------------------------------------------------------------------

 SCF Done:  E(UB3LYP) =  -1136.13470214     A.U. after   19 cycles

 The electronic state is 2-A.
 Alpha  occ. eigenvalues --  -38.43978 -38.43976 -38.43745 -38.43673 -38.43663
 Alpha  occ. eigenvalues --  -38.43456 -38.43066  -2.19820  -2.19812  -2.19576
 Alpha  occ. eigenvalues --   -2.19543  -2.19534  -2.19295  -2.19095  -1.13542
 Alpha  occ. eigenvalues --   -1.13526  -1.13468  -1.13462  -1.13444  -1.13431
 Alpha  occ. eigenvalues --   -1.13303  -1.13246  -1.13228  -1.13220  -1.13205
 Alpha  occ. eigenvalues --   -1.13187  -1.13163  -1.13161  -1.13126  -1.12968
 Alpha  occ. eigenvalues --   -1.12964  -1.12928  -1.12770  -1.12733  -1.12720
 Alpha  occ. eigenvalues --   -0.18564  -0.12963  -0.12600  -0.10698
 Alpha virt. eigenvalues --   -0.05578  -0.05298  -0.04776  -0.03006  -0.02998
 Alpha virt. eigenvalues --   -0.02523  -0.01460  -0.01311  -0.00445  -0.00336
 Alpha virt. eigenvalues --   -0.00014   0.00332   0.00824   0.00833   0.00896

  Beta  occ. eigenvalues --  -38.43973 -38.43964 -38.43740 -38.43658 -38.43566
  Beta  occ. eigenvalues --  -38.43452 -38.43022  -2.19810  -2.19795  -2.19566
  Beta  occ. eigenvalues --   -2.19529  -2.19345  -2.19291  -2.19016  -1.13536
  Beta  occ. eigenvalues --   -1.13502  -1.13449  -1.13438  -1.13432  -1.13425
  Beta  occ. eigenvalues --   -1.13298  -1.13237  -1.13216  -1.13209  -1.13166
  Beta  occ. eigenvalues --   -1.13121  -1.13075  -1.13030  -1.13023  -1.12961
  Beta  occ. eigenvalues --   -1.12936  -1.12928  -1.12707  -1.12676  -1.12665
  Beta  occ. eigenvalues --   -0.17869  -0.12693  -0.12403
  Beta virt. eigenvalues --   -0.06781  -0.05556  -0.05220  -0.04723  -0.02304
  Beta virt. eigenvalues --   -0.02209  -0.01465  -0.01371  -0.01235  -0.00469
  Beta virt. eigenvalues --   -0.00368   0.00144   0.00381   0.00838   0.00881

 Mulliken charges and spin densities:
               1          2
     1  Na  -0.516811   0.702483
     2  Na   0.331338   0.095157
     3  Na  -0.463195   0.116349
     4  Na   0.218994   0.000944
     5  Na  -0.054118   0.003408
     6  Na   0.202120   0.054593
     7  Na   0.281672   0.027067
 Sum of Mulliken charges =  -0.00000   1.00000

 Dipole moment (field-independent basis, Debye):
    X=             -0.2765    Y=             -0.0861    Z=              0.2124  Tot=              0.3591
 Quadrupole moment (field-independent basis, Debye-Ang):
   XX=            -57.5972   YY=            -61.0593   ZZ=            -74.8244
   XY=              0.9220   XZ=             -0.5728   YZ=             -1.5452

 Normal termination of Gaussian 16 at Thu Dec  7 08:57:54 2023.
