 Gaussian 16, Revision B.01,
 Gaussian 16:  ES64L-G16RevB.01 20-Dec-2017

 -------------------------
 #P B3LYP/6-311+g(d) force
 -------------------------

 -----
 DPGEN
 -----
 Symbolic Z-matrix:
 Charge =  0 Multiplicity = 2

                         Standard orientation:
 ---------------------------------------------------------------------
 Center     Atomic      Atomic             Coordinates (Angstroms)
 Number     Number       Type             X           Y           Z
 ---------------------------------------------------------------------
      1         11           0        0.329334   -2.908706   -0.690844
      2         11           0       -3.258993    1.491712    0.498841
      3         11           0        2.709952    1.628624   -0.375738
      4         11           0       -0.121869    3.078075   -0.605699
      5         11           0       -2.975810   -2.042998   -0.243600
      6         11           0        3.349176   -1.283114    0.626387
      7         11           0       -0.031790    0.036406    0.790653
 ---------------------------------------------------------------------

 SCF Done:  E(UB3LYP) =  -1136.12796517     A.U. after   22 cycles

 The electronic state is 2-A.
 Alpha  occ. eigenvalues --  -38.44582 -38.44231 -38.44182 -38.43746 -38.43360
 Alpha  occ. eigenvalues --  -38.43355 -38.43328  -2.20381  -2.20154  -2.20085
 Alpha  occ. eigenvalues --   -2.19590  -2.19236  -2.19229  -2.19165  -1.14066
 Alpha  occ. eigenvalues --   -1.14038  -1.14023  -1.13891  -1.13828  -1.13798
 Alpha  occ. eigenvalues --   -1.13759  -1.13743  -1.13728  -1.13269  -1.13253
 Alpha  occ. eigenvalues --   -1.13202  -1.12904  -1.12897  -1.12882  -1.12881
 Alpha  occ. eigenvalues --   -1.12862  -1.12848  -1.12825  -1.12801  -1.12789
 Alpha  occ. eigenvalues --   -0.17700  -0.13942  -0.13274  -0.09713
 Alpha virt. eigenvalues --   -0.06533  -0.05758  -0.04313  -0.03228  -0.02847
 Alpha virt. eigenvalues --   -0.02449  -0.01838  -0.01300  -0.00858  -0.00497
 Alpha virt. eigenvalues --   -0.00045   0.00204   0.00599   0.00634   0.00703

  Beta  occ. eigenvalues --  -38.44572 -38.44241 -38.44159 -38.43715 -38.43322
  Beta  occ. eigenvalues --  -38.43305 -38.43266  -2.20369  -2.20171  -2.20051
  Beta  occ. eigenvalues --   -2.19534  -2.19172  -2.19132  -2.19049  -1.14063
  Beta  occ. eigenvalues --   -1.14035  -1.13972  -1.13890  -1.13845  -1.13814
  Beta  occ. eigenvalues --   -1.13730  -1.13723  -1.13672  -1.13235  -1.13218
  Beta  occ. eigenvalues --   -1.13145  -1.12862  -1.12847  -1.12831  -1.12809
  Beta  occ. eigenvalues --   -1.12801  -1.12781  -1.12745  -1.12725  -1.12714
  Beta  occ. eigenvalues --   -0.17409  -0.13244  -0.12638
  Beta virt. eigenvalues --   -0.06520  -0.06461  -0.05575  -0.04089  -0.02677
  Beta virt. eigenvalues --   -0.02360  -0.02163  -0.01648  -0.01065  -0.00694
  Beta virt. eigenvalues --   -0.00314   0.00252   0.00396   0.00619   0.00757

 Mulliken charges and spin densities:
               1          2
     1  Na   0.172597   0.115003
     2  Na   0.758835   0.373134
     3  Na   0.036407   0.107631
     4  Na   0.165753   0.092898
     5  Na   0.076386   0.046024
     6  Na   1.148772   0.357449
     7  Na  -2.358750  -0.092140
 Sum of Mulliken charges =  -0.00000   1.00000

 Dipole moment (field-independent basis, Debye):
    X=             -0.0648    Y=             -0.2996    Z=             -0.5588  Tot=              0.6374
 Quadrupole moment (field-independent basis, Debye-Ang):
   XX=            -61.8153   YY=            -65.7126   ZZ=            -71.1383
   XY=              1.8982   XZ=              0.0818   YZ=             -0.3353

 Normal termination of Gaussian 16 at Wed Nov 29 16:39:03 2023.
