 Gaussian 16, Revision B.01,
 Gaussian 16:  ES64L-G16RevB.01 20-Dec-2017

 -------------------------
 #P B3LYP/6-311+g(d) force
 -------------------------

 -----
 DPGEN
 -----
 Symbolic Z-matrix:
 Charge =  0 Multiplicity = 2

                         Standard orientation:
 ---------------------------------------------------------------------
 Center     Atomic      Atomic             Coordinates (Angstroms)
 Number     Number       Type             X           Y           Z
 ---------------------------------------------------------------------
      1         11           0        2.830996    0.586162    0.079034
      2         11           0        0.527449    3.203151    0.064766
      3         11           0        1.766366   -2.410016   -0.230174
      4         11           0       -0.317829    0.056949    1.967187
      5         11           0        0.072091    0.183519   -1.700494
      6         11           0       -1.480685   -2.394356    0.147932
      7         11           0       -3.398388    0.774592   -0.328251
 ---------------------------------------------------------------------

 SCF Done:  E(UB3LYP) =  -1136.13556242     A.U. after   19 cycles

 The electronic state is 2-A.
 Alpha  occ. eigenvalues --  -38.44400 -38.43908 -38.43709 -38.43607 -38.43513
 Alpha  occ. eigenvalues --  -38.43315 -38.43216  -2.20163  -2.19710  -2.19595
 Alpha  occ. eigenvalues --   -2.19486  -2.19407  -2.19258  -2.19107  -1.13837
 Alpha  occ. eigenvalues --   -1.13817  -1.13802  -1.13384  -1.13372  -1.13358
 Alpha  occ. eigenvalues --   -1.13297  -1.13261  -1.13224  -1.13210  -1.13162
 Alpha  occ. eigenvalues --   -1.13112  -1.13071  -1.13022  -1.13019  -1.12946
 Alpha  occ. eigenvalues --   -1.12890  -1.12880  -1.12770  -1.12761  -1.12745
 Alpha  occ. eigenvalues --   -0.18585  -0.12900  -0.12488  -0.10629
 Alpha virt. eigenvalues --   -0.05966  -0.05160  -0.04646  -0.03147  -0.02887
 Alpha virt. eigenvalues --   -0.02443  -0.01654  -0.01302  -0.00452  -0.00295
 Alpha virt. eigenvalues --   -0.00007   0.00344   0.00772   0.00830   0.00900

  Beta  occ. eigenvalues --  -38.44395 -38.43908 -38.43703 -38.43598 -38.43423
  Beta  occ. eigenvalues --  -38.43249 -38.43211  -2.20155  -2.19711  -2.19587
  Beta  occ. eigenvalues --   -2.19474  -2.19243  -2.19137  -2.19101  -1.13819
  Beta  occ. eigenvalues --   -1.13812  -1.13799  -1.13379  -1.13362  -1.13360
  Beta  occ. eigenvalues --   -1.13291  -1.13238  -1.13212  -1.13189  -1.13129
  Beta  occ. eigenvalues --   -1.13103  -1.12969  -1.12907  -1.12905  -1.12865
  Beta  occ. eigenvalues --   -1.12808  -1.12794  -1.12768  -1.12747  -1.12715
  Beta  occ. eigenvalues --   -0.17850  -0.12664  -0.12261
  Beta virt. eigenvalues --   -0.06754  -0.05934  -0.05063  -0.04646  -0.02375
  Beta virt. eigenvalues --   -0.02152  -0.01571  -0.01421  -0.01208  -0.00496
  Beta virt. eigenvalues --   -0.00330   0.00129   0.00369   0.00783   0.00859

 Mulliken charges and spin densities:
               1          2
     1  Na   0.235054   0.039257
     2  Na   0.009549  -0.133953
     3  Na   0.121279   0.015020
     4  Na  -0.346423   0.578369
     5  Na  -0.283926   0.549770
     6  Na   0.323020   0.053027
     7  Na  -0.058553  -0.101491
 Sum of Mulliken charges =  -0.00000   1.00000

 Dipole moment (field-independent basis, Debye):
    X=             -0.3688    Y=              0.4150    Z=              0.0569  Tot=              0.5581
 Quadrupole moment (field-independent basis, Debye-Ang):
   XX=            -57.8445   YY=            -60.2137   ZZ=            -74.9790
   XY=             -0.9858   XZ=              0.9029   YZ=              0.3183

 Normal termination of Gaussian 16 at Thu Dec  7 16:04:46 2023.
