 Gaussian 16, Revision B.01,
 Gaussian 16:  ES64L-G16RevB.01 20-Dec-2017

 -------------------------
 #P B3LYP/6-311+g(d) force
 -------------------------

 -----
 DPGEN
 -----
 Symbolic Z-matrix:
 Charge =  0 Multiplicity = 2

                         Standard orientation:
 ---------------------------------------------------------------------
 Center     Atomic      Atomic             Coordinates (Angstroms)
 Number     Number       Type             X           Y           Z
 ---------------------------------------------------------------------
      1         11           0        1.062875    2.895211   -0.239283
      2         11           0        1.164698   -2.547780   -0.250537
      3         11           0       -0.228256    0.390912   -1.501859
      4         11           0        0.147414    0.127915    2.061515
      5         11           0       -3.304040    1.259206    0.087378
      6         11           0       -2.143702   -2.045501   -0.129867
      7         11           0        3.301011   -0.079962   -0.027347
 ---------------------------------------------------------------------

 SCF Done:  E(UB3LYP) =  -1136.13304414     A.U. after   20 cycles

 The electronic state is 2-A.
 Alpha  occ. eigenvalues --  -38.44806 -38.44652 -38.43640 -38.43587 -38.43543
 Alpha  occ. eigenvalues --  -38.43075 -38.42909  -2.20579  -2.20464  -2.19497
 Alpha  occ. eigenvalues --   -2.19421  -2.19410  -2.19048  -2.18790  -1.14251
 Alpha  occ. eigenvalues --   -1.14234  -1.14223  -1.14141  -1.14130  -1.14096
 Alpha  occ. eigenvalues --   -1.13189  -1.13161  -1.13155  -1.13131  -1.13089
 Alpha  occ. eigenvalues --   -1.13070  -1.13040  -1.13030  -1.13022  -1.12735
 Alpha  occ. eigenvalues --   -1.12694  -1.12658  -1.12464  -1.12446  -1.12440
 Alpha  occ. eigenvalues --   -0.18433  -0.13183  -0.12229  -0.10421
 Alpha virt. eigenvalues --   -0.06455  -0.05182  -0.04454  -0.03144  -0.02658
 Alpha virt. eigenvalues --   -0.02385  -0.02081  -0.01182  -0.00691  -0.00266
 Alpha virt. eigenvalues --   -0.00034   0.00304   0.00730   0.00769   0.00820

  Beta  occ. eigenvalues --  -38.44807 -38.44650 -38.43635 -38.43580 -38.43444
  Beta  occ. eigenvalues --  -38.43019 -38.42902  -2.20583  -2.20463  -2.19490
  Beta  occ. eigenvalues --   -2.19411  -2.19228  -2.18948  -2.18780  -1.14241
  Beta  occ. eigenvalues --   -1.14238  -1.14226  -1.14142  -1.14109  -1.14099
  Beta  occ. eigenvalues --   -1.13182  -1.13141  -1.13137  -1.13126  -1.13048
  Beta  occ. eigenvalues --   -1.13036  -1.12961  -1.12905  -1.12892  -1.12662
  Beta  occ. eigenvalues --   -1.12620  -1.12586  -1.12457  -1.12442  -1.12408
  Beta  occ. eigenvalues --   -0.17720  -0.13002  -0.11981
  Beta virt. eigenvalues --   -0.06545  -0.06381  -0.05161  -0.04430  -0.02426
  Beta virt. eigenvalues --   -0.02013  -0.01885  -0.01299  -0.01103  -0.00744
  Beta virt. eigenvalues --   -0.00300   0.00131   0.00337   0.00754   0.00816

 Mulliken charges and spin densities:
               1          2
     1  Na   0.151333  -0.079705
     2  Na   0.018676   0.019427
     3  Na  -0.235302   0.290712
     4  Na  -0.524790   0.749417
     5  Na   0.174886  -0.048016
     6  Na   0.174395   0.035773
     7  Na   0.240801   0.032392
 Sum of Mulliken charges =  -0.00000   1.00000

 Dipole moment (field-independent basis, Debye):
    X=             -0.2068    Y=              0.4195    Z=              0.1777  Tot=              0.5003
 Quadrupole moment (field-independent basis, Debye-Ang):
   XX=            -51.0291   YY=            -64.3889   ZZ=            -76.5125
   XY=             -0.6956   XZ=             -0.7215   YZ=              0.6894

 Normal termination of Gaussian 16 at Thu Dec  7 17:40:54 2023.
