 Gaussian 16, Revision B.01,
 Gaussian 16:  ES64L-G16RevB.01 20-Dec-2017

 -------------------------
 #P B3LYP/6-311+g(d) force
 -------------------------

 -----
 DPGEN
 -----
 Symbolic Z-matrix:
 Charge =  0 Multiplicity = 2

                         Standard orientation:
 ---------------------------------------------------------------------
 Center     Atomic      Atomic             Coordinates (Angstroms)
 Number     Number       Type             X           Y           Z
 ---------------------------------------------------------------------
      1         11           0        0.390220   -0.059588    2.076918
      2         11           0       -0.722504   -3.002380   -0.342864
      3         11           0        0.191371   -0.171549   -1.659554
      4         11           0       -1.425879    2.698674   -0.178188
      5         11           0        2.539341   -1.654151    0.107041
      6         11           0        2.410944    2.302507   -0.220525
      7         11           0       -3.383494   -0.113513    0.217172
 ---------------------------------------------------------------------

 SCF Done:  E(UB3LYP) =  -1136.13545357     A.U. after   19 cycles

 The electronic state is 2-A.
 Alpha  occ. eigenvalues --  -38.43988 -38.43978 -38.43926 -38.43808 -38.43743
 Alpha  occ. eigenvalues --  -38.43728 -38.43309  -2.19837  -2.19763  -2.19710
 Alpha  occ. eigenvalues --   -2.19612  -2.19605  -2.19554  -2.19248  -1.13534
 Alpha  occ. eigenvalues --   -1.13521  -1.13454  -1.13437  -1.13428  -1.13410
 Alpha  occ. eigenvalues --   -1.13387  -1.13363  -1.13356  -1.13296  -1.13280
 Alpha  occ. eigenvalues --   -1.13266  -1.13257  -1.13233  -1.13230  -1.13221
 Alpha  occ. eigenvalues --   -1.13206  -1.13180  -1.12930  -1.12883  -1.12865
 Alpha  occ. eigenvalues --   -0.18152  -0.12794  -0.12402  -0.10593
 Alpha virt. eigenvalues --   -0.05574  -0.05484  -0.05013  -0.03067  -0.02878
 Alpha virt. eigenvalues --   -0.02527  -0.01515  -0.01372  -0.00676  -0.00550
 Alpha virt. eigenvalues --   -0.00027   0.00339   0.00787   0.00804   0.00838

  Beta  occ. eigenvalues --  -38.43988 -38.43968 -38.43923 -38.43806 -38.43719
  Beta  occ. eigenvalues --  -38.43647 -38.43246  -2.19825  -2.19765  -2.19706
  Beta  occ. eigenvalues --   -2.19609  -2.19542  -2.19429  -2.19133  -1.13527
  Beta  occ. eigenvalues --   -1.13476  -1.13449  -1.13433  -1.13425  -1.13412
  Beta  occ. eigenvalues --   -1.13370  -1.13363  -1.13351  -1.13286  -1.13273
  Beta  occ. eigenvalues --   -1.13239  -1.13232  -1.13188  -1.13175  -1.13150
  Beta  occ. eigenvalues --   -1.13104  -1.13096  -1.12852  -1.12801  -1.12778
  Beta  occ. eigenvalues --   -0.17437  -0.12587  -0.12181
  Beta virt. eigenvalues --   -0.06707  -0.05568  -0.05423  -0.04922  -0.02324
  Beta virt. eigenvalues --   -0.02170  -0.01497  -0.01431  -0.01279  -0.00719
  Beta virt. eigenvalues --   -0.00594   0.00123   0.00378   0.00804   0.00835

 Mulliken charges and spin densities:
               1          2
     1  Na  -0.359049   0.784740
     2  Na   0.097163  -0.039458
     3  Na   0.044753   0.524222
     4  Na  -0.044347  -0.085624
     5  Na   0.344075  -0.035483
     6  Na   0.013553  -0.111217
     7  Na  -0.096147  -0.037181
 Sum of Mulliken charges =  -0.00000   1.00000

 Dipole moment (field-independent basis, Debye):
    X=              0.1462    Y=             -0.0559    Z=              0.0971  Tot=              0.1842
 Quadrupole moment (field-independent basis, Debye-Ang):
   XX=            -57.7636   YY=            -60.1554   ZZ=            -75.4927
   XY=              0.9701   XZ=             -0.7095   YZ=             -0.2577

 Normal termination of Gaussian 16 at Thu Dec  7 22:20:42 2023.
