 Gaussian 16, Revision B.01,
 Gaussian 16:  ES64L-G16RevB.01 20-Dec-2017

 -------------------------
 #P B3LYP/6-311+g(d) force
 -------------------------

 -----
 DPGEN
 -----
 Symbolic Z-matrix:
 Charge =  0 Multiplicity = 2

                         Standard orientation:
 ---------------------------------------------------------------------
 Center     Atomic      Atomic             Coordinates (Angstroms)
 Number     Number       Type             X           Y           Z
 ---------------------------------------------------------------------
      1         11           0        0.591081   -2.490716   -0.134752
      2         11           0       -2.721992   -1.447300    0.013040
      3         11           0        3.146488   -0.473090    0.076007
      4         11           0        0.031618    0.091827   -1.596603
      5         11           0       -0.220230    0.011481    1.728457
      6         11           0        1.445097    2.369675    0.029968
      7         11           0       -2.272062    1.938123   -0.116115
 ---------------------------------------------------------------------

 SCF Done:  E(UB3LYP) =  -1136.13510029     A.U. after   20 cycles

 The electronic state is 2-A.
 Alpha  occ. eigenvalues --  -38.44174 -38.43902 -38.43686 -38.43277 -38.43011
 Alpha  occ. eigenvalues --  -38.42926 -38.42925  -2.20038  -2.19772  -2.19560
 Alpha  occ. eigenvalues --   -2.19180  -2.19028  -2.18996  -2.18879  -1.13706
 Alpha  occ. eigenvalues --   -1.13697  -1.13693  -1.13449  -1.13436  -1.13418
 Alpha  occ. eigenvalues --   -1.13244  -1.13231  -1.13183  -1.12917  -1.12857
 Alpha  occ. eigenvalues --   -1.12800  -1.12794  -1.12709  -1.12667  -1.12635
 Alpha  occ. eigenvalues --   -1.12631  -1.12586  -1.12523  -1.12500  -1.12480
 Alpha  occ. eigenvalues --   -0.19427  -0.13492  -0.12466  -0.10563
 Alpha virt. eigenvalues --   -0.05802  -0.05271  -0.04217  -0.03178  -0.02646
 Alpha virt. eigenvalues --   -0.02133  -0.01766  -0.01118  -0.00183  -0.00052
 Alpha virt. eigenvalues --    0.00031   0.00345   0.00780   0.00907   0.00944

  Beta  occ. eigenvalues --  -38.44172 -38.43897 -38.43680 -38.43269 -38.42930
  Beta  occ. eigenvalues --  -38.42914 -38.42850  -2.20037  -2.19767  -2.19552
  Beta  occ. eigenvalues --   -2.19171  -2.18881  -2.18870  -2.18853  -1.13710
  Beta  occ. eigenvalues --   -1.13698  -1.13668  -1.13445  -1.13419  -1.13405
  Beta  occ. eigenvalues --   -1.13239  -1.13197  -1.13183  -1.12902  -1.12815
  Beta  occ. eigenvalues --   -1.12793  -1.12732  -1.12621  -1.12575  -1.12539
  Beta  occ. eigenvalues --   -1.12526  -1.12497  -1.12477  -1.12467  -1.12434
  Beta  occ. eigenvalues --   -0.18692  -0.13234  -0.12173
  Beta virt. eigenvalues --   -0.06614  -0.05774  -0.05277  -0.04230  -0.02363
  Beta virt. eigenvalues --   -0.01834  -0.01678  -0.01091  -0.01068  -0.00241
  Beta virt. eigenvalues --   -0.00094   0.00161   0.00374   0.00824   0.00901

 Mulliken charges and spin densities:
               1          2
     1  Na   0.372004  -0.060377
     2  Na   0.244555  -0.059797
     3  Na   0.076510  -0.030623
     4  Na  -0.587795   0.618783
     5  Na  -0.572296   0.744672
     6  Na   0.267220  -0.102106
     7  Na   0.199802  -0.110552
 Sum of Mulliken charges =  -0.00000   1.00000

 Dipole moment (field-independent basis, Debye):
    X=             -0.0815    Y=              0.0820    Z=              0.0973  Tot=              0.1511
 Quadrupole moment (field-independent basis, Debye-Ang):
   XX=            -51.6656   YY=            -64.4330   ZZ=            -75.6145
   XY=              0.0544   XZ=              0.6404   YZ=              0.0852

 Normal termination of Gaussian 16 at Thu Dec  7 03:56:59 2023.
