 Gaussian 16, Revision B.01,
 Gaussian 16:  ES64L-G16RevB.01 20-Dec-2017

 -------------------------
 #P B3LYP/6-311+g(d) force
 -------------------------

 -----
 DPGEN
 -----
 Symbolic Z-matrix:
 Charge =  0 Multiplicity = 2

                         Standard orientation:
 ---------------------------------------------------------------------
 Center     Atomic      Atomic             Coordinates (Angstroms)
 Number     Number       Type             X           Y           Z
 ---------------------------------------------------------------------
      1         11           0       -0.777813   -1.684819    1.681325
      2         11           0       -0.065471    0.218720   -0.960199
      3         11           0        1.326245    0.658420    1.636234
      4         11           0       -3.105883   -0.565362   -1.045762
      5         11           0        1.234434   -2.438445   -0.700565
      6         11           0       -1.792713    2.621746    0.274342
      7         11           0        3.181202    1.189741   -0.885374
 ---------------------------------------------------------------------

 SCF Done:  E(UB3LYP) =  -1136.12268005     A.U. after   22 cycles

 The electronic state is 2-A.
 Alpha  occ. eigenvalues --  -38.44361 -38.43931 -38.43809 -38.43688 -38.43426
 Alpha  occ. eigenvalues --  -38.43185 -38.42661  -2.20186  -2.19765  -2.19614
 Alpha  occ. eigenvalues --   -2.19577  -2.19412  -2.19125  -2.18828  -1.13888
 Alpha  occ. eigenvalues --   -1.13835  -1.13789  -1.13453  -1.13427  -1.13391
 Alpha  occ. eigenvalues --   -1.13339  -1.13307  -1.13275  -1.13234  -1.13232
 Alpha  occ. eigenvalues --   -1.13182  -1.13170  -1.13057  -1.12998  -1.12808
 Alpha  occ. eigenvalues --   -1.12744  -1.12738  -1.12538  -1.12468  -1.12428
 Alpha  occ. eigenvalues --   -0.18857  -0.13065  -0.11847  -0.11289
 Alpha virt. eigenvalues --   -0.05890  -0.04870  -0.03965  -0.03263  -0.02783
 Alpha virt. eigenvalues --   -0.02527  -0.01722  -0.01110  -0.00555   0.00159
 Alpha virt. eigenvalues --    0.00328   0.00375   0.00534   0.00809   0.00882

  Beta  occ. eigenvalues --  -38.44336 -38.43915 -38.43808 -38.43670 -38.43365
  Beta  occ. eigenvalues --  -38.43134 -38.42627  -2.20142  -2.19737  -2.19613
  Beta  occ. eigenvalues --   -2.19545  -2.19305  -2.19033  -2.18773  -1.13850
  Beta  occ. eigenvalues --   -1.13806  -1.13761  -1.13435  -1.13403  -1.13367
  Beta  occ. eigenvalues --   -1.13321  -1.13302  -1.13266  -1.13231  -1.13191
  Beta  occ. eigenvalues --   -1.13152  -1.13112  -1.12956  -1.12925  -1.12744
  Beta  occ. eigenvalues --   -1.12681  -1.12656  -1.12465  -1.12426  -1.12389
  Beta  occ. eigenvalues --   -0.18081  -0.12806  -0.11700
  Beta virt. eigenvalues --   -0.07284  -0.05699  -0.04747  -0.03642  -0.02951
  Beta virt. eigenvalues --   -0.02233  -0.01596  -0.01530  -0.01014  -0.00233
  Beta virt. eigenvalues --    0.00193   0.00352   0.00419   0.00588   0.00833

 Mulliken charges and spin densities:
               1          2
     1  Na   0.330529   0.230064
     2  Na  -1.494252   0.020548
     3  Na   0.109089   0.232426
     4  Na   0.820778   0.005986
     5  Na  -0.182528   0.139891
     6  Na  -0.034925   0.157961
     7  Na   0.451309   0.213124
 Sum of Mulliken charges =  -0.00000   1.00000

 Dipole moment (field-independent basis, Debye):
    X=             -0.2086    Y=             -0.0968    Z=             -0.0734  Tot=              0.2414
 Quadrupole moment (field-independent basis, Debye-Ang):
   XX=            -55.5804   YY=            -66.1284   ZZ=            -68.9135
   XY=              0.7993   XZ=             -1.9157   YZ=              1.7972

 Normal termination of Gaussian 16 at Fri Dec  8 05:22:55 2023.
