 Gaussian 16, Revision B.01,
 Gaussian 16:  ES64L-G16RevB.01 20-Dec-2017

 -------------------------
 #P B3LYP/6-311+g(d) force
 -------------------------

 -----
 DPGEN
 -----
 Symbolic Z-matrix:
 Charge =  0 Multiplicity = 2

                         Standard orientation:
 ---------------------------------------------------------------------
 Center     Atomic      Atomic             Coordinates (Angstroms)
 Number     Number       Type             X           Y           Z
 ---------------------------------------------------------------------
      1         11           0       -1.232391   -1.067172    1.981659
      2         11           0       -1.697716    1.913659    0.197648
      3         11           0        4.340677    0.510778   -0.432487
      4         11           0        1.852439   -1.841111    0.060586
      5         11           0       -0.578325   -0.636215   -1.670671
      6         11           0        1.242144    1.384694    0.588058
      7         11           0       -3.926827   -0.264634   -0.724793
 ---------------------------------------------------------------------

 SCF Done:  E(UB3LYP) =  -1136.11331611     A.U. after   29 cycles

 The electronic state is 2-A.
 Alpha  occ. eigenvalues --  -38.45161 -38.45156 -38.44791 -38.44267 -38.43062
 Alpha  occ. eigenvalues --  -38.42866 -38.42807  -2.21048  -2.21001  -2.20595
 Alpha  occ. eigenvalues --   -2.20113  -2.19016  -2.18819  -2.18705  -1.14754
 Alpha  occ. eigenvalues --   -1.14705  -1.14671  -1.14655  -1.14637  -1.14617
 Alpha  occ. eigenvalues --   -1.14256  -1.14247  -1.14225  -1.13786  -1.13764
 Alpha  occ. eigenvalues --   -1.13725  -1.12786  -1.12684  -1.12659  -1.12492
 Alpha  occ. eigenvalues --   -1.12456  -1.12436  -1.12416  -1.12380  -1.12301
 Alpha  occ. eigenvalues --   -0.18825  -0.14390  -0.11421  -0.10691
 Alpha virt. eigenvalues --   -0.07822  -0.04676  -0.04445  -0.03304  -0.03063
 Alpha virt. eigenvalues --   -0.02321  -0.02112  -0.01320  -0.01156  -0.00382
 Alpha virt. eigenvalues --   -0.00042   0.00227   0.00356   0.00705   0.00814

  Beta  occ. eigenvalues --  -38.45133 -38.45106 -38.44763 -38.44214 -38.43032
  Beta  occ. eigenvalues --  -38.42845 -38.42805  -2.21007  -2.20899  -2.20542
  Beta  occ. eigenvalues --   -2.20018  -2.18967  -2.18787  -2.18704  -1.14717
  Beta  occ. eigenvalues --   -1.14667  -1.14645  -1.14584  -1.14567  -1.14552
  Beta  occ. eigenvalues --   -1.14220  -1.14210  -1.14191  -1.13706  -1.13701
  Beta  occ. eigenvalues --   -1.13659  -1.12748  -1.12648  -1.12603  -1.12473
  Beta  occ. eigenvalues --   -1.12434  -1.12419  -1.12378  -1.12365  -1.12288
  Beta  occ. eigenvalues --   -0.18151  -0.13926  -0.10493
  Beta virt. eigenvalues --   -0.07748  -0.07450  -0.04554  -0.03899  -0.02995
  Beta virt. eigenvalues --   -0.02823  -0.01876  -0.01496  -0.01005  -0.00902
  Beta virt. eigenvalues --   -0.00256   0.00025   0.00320   0.00426   0.00780

 Mulliken charges and spin densities:
               1          2
     1  Na  -0.346431   0.194184
     2  Na  -0.148426   0.009952
     3  Na   0.394654   0.199814
     4  Na   0.623980   0.130984
     5  Na  -0.412660   0.167381
     6  Na  -0.612579   0.089566
     7  Na   0.501462   0.208118
 Sum of Mulliken charges =  -0.00000   1.00000

 Dipole moment (field-independent basis, Debye):
    X=             -0.5372    Y=             -0.8941    Z=              0.1033  Tot=              1.0482
 Quadrupole moment (field-independent basis, Debye-Ang):
   XX=            -47.5711   YY=            -81.1758   ZZ=            -66.0741
   XY=              0.8309   XZ=             -3.4490   YZ=             -0.7711

 Normal termination of Gaussian 16 at Thu Dec  7 17:36:14 2023.
