 Gaussian 16, Revision B.01,
 Gaussian 16:  ES64L-G16RevB.01 20-Dec-2017

 -------------------------
 #P B3LYP/6-311+g(d) force
 -------------------------

 -----
 DPGEN
 -----
 Symbolic Z-matrix:
 Charge =  0 Multiplicity = 2

                         Standard orientation:
 ---------------------------------------------------------------------
 Center     Atomic      Atomic             Coordinates (Angstroms)
 Number     Number       Type             X           Y           Z
 ---------------------------------------------------------------------
      1         11           0        0.143780   -0.029636   -1.664581
      2         11           0       -3.294340    0.255812   -0.117840
      3         11           0        2.834162    1.296231   -0.478629
      4         11           0        2.316386   -1.918241    0.446485
      5         11           0       -0.605534    2.765291    0.237143
      6         11           0       -1.356594   -2.427645   -0.285674
      7         11           0       -0.037860    0.058188    1.863097
 ---------------------------------------------------------------------

 SCF Done:  E(UB3LYP) =  -1136.13714997     A.U. after   19 cycles

 The electronic state is 2-A.
 Alpha  occ. eigenvalues --  -38.44412 -38.43987 -38.43588 -38.43353 -38.43291
 Alpha  occ. eigenvalues --  -38.43147 -38.43061  -2.20230  -2.19839  -2.19446
 Alpha  occ. eigenvalues --   -2.19303  -2.19283  -2.19036  -2.18920  -1.13903
 Alpha  occ. eigenvalues --   -1.13892  -1.13868  -1.13538  -1.13492  -1.13466
 Alpha  occ. eigenvalues --   -1.13135  -1.13103  -1.13082  -1.13011  -1.12971
 Alpha  occ. eigenvalues --   -1.12942  -1.12938  -1.12914  -1.12893  -1.12713
 Alpha  occ. eigenvalues --   -1.12693  -1.12650  -1.12607  -1.12586  -1.12533
 Alpha  occ. eigenvalues --   -0.18859  -0.13288  -0.12244  -0.10799
 Alpha virt. eigenvalues --   -0.05935  -0.05022  -0.04344  -0.03289  -0.02799
 Alpha virt. eigenvalues --   -0.02454  -0.01805  -0.01064  -0.00272  -0.00185
 Alpha virt. eigenvalues --    0.00019   0.00337   0.00788   0.00889   0.00909

  Beta  occ. eigenvalues --  -38.44411 -38.43973 -38.43576 -38.43266 -38.43225
  Beta  occ. eigenvalues --  -38.43139 -38.43054  -2.20230  -2.19815  -2.19427
  Beta  occ. eigenvalues --   -2.19162  -2.19145  -2.19024  -2.18911  -1.13903
  Beta  occ. eigenvalues --   -1.13884  -1.13864  -1.13512  -1.13468  -1.13451
  Beta  occ. eigenvalues --   -1.13112  -1.13077  -1.13068  -1.12924  -1.12881
  Beta  occ. eigenvalues --   -1.12848  -1.12831  -1.12811  -1.12801  -1.12692
  Beta  occ. eigenvalues --   -1.12672  -1.12634  -1.12592  -1.12562  -1.12527
  Beta  occ. eigenvalues --   -0.18147  -0.13026  -0.11958
  Beta virt. eigenvalues --   -0.06907  -0.05887  -0.04987  -0.04331  -0.02534
  Beta virt. eigenvalues --   -0.02026  -0.01708  -0.01412  -0.00974  -0.00290
  Beta virt. eigenvalues --   -0.00214   0.00125   0.00366   0.00846   0.00889

 Mulliken charges and spin densities:
               1          2
     1  Na  -0.185116   0.518961
     2  Na  -0.033249  -0.088398
     3  Na   0.120554  -0.005694
     4  Na   0.124545   0.024416
     5  Na   0.039151  -0.087659
     6  Na   0.183725  -0.026691
     7  Na  -0.249610   0.665065
 Sum of Mulliken charges =  -0.00000   1.00000

 Dipole moment (field-independent basis, Debye):
    X=             -0.1116    Y=              0.0785    Z=              0.0465  Tot=              0.1442
 Quadrupole moment (field-independent basis, Debye-Ang):
   XX=            -53.1332   YY=            -65.2303   ZZ=            -74.3241
   XY=             -0.4594   XZ=              0.2841   YZ=             -0.7195

 Normal termination of Gaussian 16 at Wed Dec  6 01:14:46 2023.
