 Gaussian 16, Revision B.01,
 Gaussian 16:  ES64L-G16RevB.01 20-Dec-2017

 -------------------------
 #P B3LYP/6-311+g(d) force
 -------------------------

 -----
 DPGEN
 -----
 Symbolic Z-matrix:
 Charge =  0 Multiplicity = 2

                         Standard orientation:
 ---------------------------------------------------------------------
 Center     Atomic      Atomic             Coordinates (Angstroms)
 Number     Number       Type             X           Y           Z
 ---------------------------------------------------------------------
      1         11           0       -3.735353   -2.234431    0.277961
      2         11           0        0.284469   -3.275197   -0.323965
      3         11           0        2.150214    2.925702    0.955460
      4         11           0       -1.520579    3.306062   -0.649745
      5         11           0        4.099429    0.965809   -0.578796
      6         11           0       -4.834726    0.790640    0.080333
      7         11           0        3.556546   -2.478583    0.238752
 ---------------------------------------------------------------------

 SCF Done:  E(UB3LYP) =  -1136.10217551     A.U. after   22 cycles

 The electronic state is 2-A.
 Alpha  occ. eigenvalues --  -38.45085 -38.44738 -38.44699 -38.44612 -38.44592
 Alpha  occ. eigenvalues --  -38.44591 -38.44228  -2.20849  -2.20504  -2.20461
 Alpha  occ. eigenvalues --   -2.20375  -2.20371  -2.20356  -2.20050  -1.14522
 Alpha  occ. eigenvalues --   -1.14520  -1.14496  -1.14184  -1.14173  -1.14163
 Alpha  occ. eigenvalues --   -1.14158  -1.14138  -1.14111  -1.14039  -1.14034
 Alpha  occ. eigenvalues --   -1.14032  -1.14022  -1.14009  -1.14006  -1.13993
 Alpha  occ. eigenvalues --   -1.13985  -1.13965  -1.13698  -1.13695  -1.13676
 Alpha  occ. eigenvalues --   -0.15256  -0.13982  -0.13018  -0.10813
 Alpha virt. eigenvalues --   -0.07804  -0.05076  -0.04586  -0.03502  -0.03340
 Alpha virt. eigenvalues --   -0.02783  -0.02282  -0.01999  -0.01145  -0.00785
 Alpha virt. eigenvalues --   -0.00407  -0.00292  -0.00220   0.00213   0.00281

  Beta  occ. eigenvalues --  -38.45078 -38.44743 -38.44715 -38.44573 -38.44556
  Beta  occ. eigenvalues --  -38.44487 -38.44178  -2.20840  -2.20518  -2.20496
  Beta  occ. eigenvalues --   -2.20312  -2.20301  -2.20160  -2.19957  -1.14518
  Beta  occ. eigenvalues --   -1.14512  -1.14467  -1.14196  -1.14184  -1.14180
  Beta  occ. eigenvalues --   -1.14166  -1.14143  -1.14110  -1.13993  -1.13991
  Beta  occ. eigenvalues --   -1.13985  -1.13983  -1.13957  -1.13934  -1.13872
  Beta  occ. eigenvalues --   -1.13861  -1.13835  -1.13638  -1.13632  -1.13617
  Beta  occ. eigenvalues --   -0.14800  -0.13408  -0.12239
  Beta virt. eigenvalues --   -0.07920  -0.07583  -0.04662  -0.04170  -0.03303
  Beta virt. eigenvalues --   -0.02955  -0.02623  -0.02103  -0.01844  -0.00982
  Beta virt. eigenvalues --   -0.00460  -0.00169  -0.00082  -0.00037   0.00305

 Mulliken charges and spin densities:
               1          2
     1  Na   0.063239   0.159187
     2  Na  -0.046189   0.187480
     3  Na  -0.069599  -0.116325
     4  Na  -0.104384   0.549852
     5  Na  -0.087751   0.249729
     6  Na   0.118139   0.029692
     7  Na   0.126544  -0.059614
 Sum of Mulliken charges =  -0.00000   1.00000

 Dipole moment (field-independent basis, Debye):
    X=             -0.0776    Y=             -0.2669    Z=              0.1259  Tot=              0.3052
 Quadrupole moment (field-independent basis, Debye-Ang):
   XX=            -59.2932   YY=            -70.1674   ZZ=            -71.6647
   XY=             -3.5777   XZ=              0.2673   YZ=              0.6461

 Normal termination of Gaussian 16 at Sun Dec  3 16:34:23 2023.
