 Gaussian 16, Revision B.01,
 Gaussian 16:  ES64L-G16RevB.01 20-Dec-2017

 -------------------------
 #P B3LYP/6-311+g(d) force
 -------------------------

 -----
 DPGEN
 -----
 Symbolic Z-matrix:
 Charge =  0 Multiplicity = 2

                         Standard orientation:
 ---------------------------------------------------------------------
 Center     Atomic      Atomic             Coordinates (Angstroms)
 Number     Number       Type             X           Y           Z
 ---------------------------------------------------------------------
      1         11           0       -2.513396    2.198412    0.053130
      2         11           0        3.039680    1.975516   -0.241464
      3         11           0       -0.362244   -2.360949   -0.503435
      4         11           0       -3.181331   -0.932294    0.017018
      5         11           0        0.260506   -0.026379    2.152314
      6         11           0       -0.199186    0.560499   -1.440887
      7         11           0        2.955970   -1.414805   -0.036675
 ---------------------------------------------------------------------

 SCF Done:  E(UB3LYP) =  -1136.12359090     A.U. after   23 cycles

 The electronic state is 2-A.
 Alpha  occ. eigenvalues --  -38.44895 -38.44721 -38.44312 -38.43903 -38.43806
 Alpha  occ. eigenvalues --  -38.43761 -38.42326  -2.20755  -2.20538  -2.20091
 Alpha  occ. eigenvalues --   -2.19750  -2.19708  -2.19649  -2.18258  -1.14428
 Alpha  occ. eigenvalues --   -1.14412  -1.14409  -1.14212  -1.14194  -1.14186
 Alpha  occ. eigenvalues --   -1.13757  -1.13753  -1.13735  -1.13437  -1.13425
 Alpha  occ. eigenvalues --   -1.13400  -1.13371  -1.13361  -1.13335  -1.13307
 Alpha  occ. eigenvalues --   -1.13286  -1.13262  -1.11971  -1.11904  -1.11882
 Alpha  occ. eigenvalues --   -0.18480  -0.13878  -0.11544  -0.10583
 Alpha virt. eigenvalues --   -0.06613  -0.06066  -0.03698  -0.03527  -0.02526
 Alpha virt. eigenvalues --   -0.02355  -0.02316  -0.01534  -0.00755  -0.00123
 Alpha virt. eigenvalues --   -0.00046   0.00233   0.00587   0.00671   0.00737

  Beta  occ. eigenvalues --  -38.44892 -38.44719 -38.44310 -38.43804 -38.43797
  Beta  occ. eigenvalues --  -38.43712 -38.42311  -2.20753  -2.20537  -2.20088
  Beta  occ. eigenvalues --   -2.19649  -2.19622  -2.19553  -2.18234  -1.14428
  Beta  occ. eigenvalues --   -1.14413  -1.14388  -1.14196  -1.14195  -1.14185
  Beta  occ. eigenvalues --   -1.13753  -1.13743  -1.13733  -1.13386  -1.13363
  Beta  occ. eigenvalues --   -1.13311  -1.13287  -1.13274  -1.13268  -1.13234
  Beta  occ. eigenvalues --   -1.13223  -1.13220  -1.11954  -1.11887  -1.11842
  Beta  occ. eigenvalues --   -0.17768  -0.13704  -0.11338
  Beta virt. eigenvalues --   -0.06648  -0.06496  -0.06040  -0.03647  -0.02831
  Beta virt. eigenvalues --   -0.02226  -0.01751  -0.01519  -0.01275  -0.00802
  Beta virt. eigenvalues --   -0.00072   0.00101   0.00270   0.00667   0.00684

 Mulliken charges and spin densities:
               1          2
     1  Na   0.298837   0.101810
     2  Na   0.106686   0.034012
     3  Na   0.067194   0.120753
     4  Na   0.160569   0.031340
     5  Na  -0.527137   0.615960
     6  Na  -0.367460   0.047443
     7  Na   0.261310   0.048680
 Sum of Mulliken charges =  -0.00000   1.00000

 Dipole moment (field-independent basis, Debye):
    X=              0.1145    Y=              0.0347    Z=              0.2636  Tot=              0.2895
 Quadrupole moment (field-independent basis, Debye-Ang):
   XX=            -49.1427   YY=            -68.4958   ZZ=            -75.8064
   XY=             -0.0811   XZ=             -0.9024   YZ=              0.5270

 Normal termination of Gaussian 16 at Thu Dec  7 21:57:05 2023.
