 Gaussian 16, Revision B.01,
 Gaussian 16:  ES64L-G16RevB.01 20-Dec-2017

 -------------------------
 #P B3LYP/6-311+g(d) force
 -------------------------

 -----
 DPGEN
 -----
 Symbolic Z-matrix:
 Charge =  0 Multiplicity = 2

                         Standard orientation:
 ---------------------------------------------------------------------
 Center     Atomic      Atomic             Coordinates (Angstroms)
 Number     Number       Type             X           Y           Z
 ---------------------------------------------------------------------
      1         11           0       -3.280216   -0.095614   -0.259322
      2         11           0       -1.060744    2.503730   -0.327749
      3         11           0        2.106400    1.876726   -0.027976
      4         11           0        3.101810   -1.339463   -0.272817
      5         11           0       -0.048051   -0.069316    2.348341
      6         11           0       -1.013421   -2.566214   -0.085592
      7         11           0        0.194222   -0.309849   -1.374885
 ---------------------------------------------------------------------

 SCF Done:  E(UB3LYP) =  -1136.13043201     A.U. after   19 cycles

 The electronic state is 2-A.
 Alpha  occ. eigenvalues --  -38.44419 -38.44232 -38.44001 -38.43476 -38.43455
 Alpha  occ. eigenvalues --  -38.43212 -38.42817  -2.20248  -2.20050  -2.19853
 Alpha  occ. eigenvalues --   -2.19374  -2.19357  -2.19278  -2.18708  -1.13913
 Alpha  occ. eigenvalues --   -1.13904  -1.13898  -1.13731  -1.13708  -1.13687
 Alpha  occ. eigenvalues --   -1.13503  -1.13473  -1.13471  -1.13270  -1.13087
 Alpha  occ. eigenvalues --   -1.13016  -1.13010  -1.12991  -1.12972  -1.12928
 Alpha  occ. eigenvalues --   -1.12877  -1.12847  -1.12397  -1.12354  -1.12346
 Alpha  occ. eigenvalues --   -0.18808  -0.13317  -0.12185  -0.10986
 Alpha virt. eigenvalues --   -0.06089  -0.05043  -0.04180  -0.03231  -0.02881
 Alpha virt. eigenvalues --   -0.02688  -0.01943  -0.00992  -0.00302  -0.00087
 Alpha virt. eigenvalues --   -0.00052   0.00295   0.00766   0.00860   0.00921

  Beta  occ. eigenvalues --  -38.44415 -38.44229 -38.43883 -38.43470 -38.43450
  Beta  occ. eigenvalues --  -38.43168 -38.42810  -2.20241  -2.20046  -2.19633
  Beta  occ. eigenvalues --   -2.19365  -2.19351  -2.19203  -2.18699  -1.13903
  Beta  occ. eigenvalues --   -1.13897  -1.13890  -1.13722  -1.13702  -1.13682
  Beta  occ. eigenvalues --   -1.13357  -1.13321  -1.13315  -1.13245  -1.13077
  Beta  occ. eigenvalues --   -1.12994  -1.12985  -1.12980  -1.12967  -1.12877
  Beta  occ. eigenvalues --   -1.12826  -1.12802  -1.12389  -1.12344  -1.12326
  Beta  occ. eigenvalues --   -0.18096  -0.13102  -0.11963
  Beta virt. eigenvalues --   -0.06941  -0.06035  -0.05026  -0.04165  -0.02475
  Beta virt. eigenvalues --   -0.01933  -0.01870  -0.01678  -0.00945  -0.00332
  Beta virt. eigenvalues --   -0.00101   0.00116   0.00341   0.00838   0.00865

 Mulliken charges and spin densities:
               1          2
     1  Na   0.180630   0.031367
     2  Na   0.169257   0.088405
     3  Na   0.342299   0.119976
     4  Na   0.375616   0.061348
     5  Na  -0.714425   0.677996
     6  Na   0.455191   0.113404
     7  Na  -0.808568  -0.092497
 Sum of Mulliken charges =  -0.00000   1.00000

 Dipole moment (field-independent basis, Debye):
    X=             -0.0045    Y=             -0.2654    Z=              0.3469  Tot=              0.4368
 Quadrupole moment (field-independent basis, Debye-Ang):
   XX=            -52.7395   YY=            -67.0428   ZZ=            -73.7013
   XY=             -0.7608   XZ=              0.5270   YZ=             -0.2838

 Normal termination of Gaussian 16 at Sat Dec  9 06:18:53 2023.
