 Gaussian 16, Revision B.01,
 Gaussian 16:  ES64L-G16RevB.01 20-Dec-2017

 -------------------------
 #P B3LYP/6-311+g(d) force
 -------------------------

 -----
 DPGEN
 -----
 Symbolic Z-matrix:
 Charge =  0 Multiplicity = 2

                         Standard orientation:
 ---------------------------------------------------------------------
 Center     Atomic      Atomic             Coordinates (Angstroms)
 Number     Number       Type             X           Y           Z
 ---------------------------------------------------------------------
      1         11           0        0.277812   -0.289226    2.261927
      2         11           0       -0.313112   -2.318963   -0.892734
      3         11           0       -1.885206    1.771264   -0.732243
      4         11           0       -3.417926   -0.923378    0.451565
      5         11           0        3.028290   -1.524010    0.102938
      6         11           0        1.000853    0.478417   -1.631774
      7         11           0        1.309290    2.805896    0.440322
 ---------------------------------------------------------------------

 SCF Done:  E(UB3LYP) =  -1136.13243374     A.U. after   19 cycles

 The electronic state is 2-A.
 Alpha  occ. eigenvalues --  -38.44449 -38.44194 -38.43746 -38.43696 -38.43614
 Alpha  occ. eigenvalues --  -38.43361 -38.43280  -2.20275  -2.20007  -2.19552
 Alpha  occ. eigenvalues --   -2.19543  -2.19469  -2.19269  -2.19205  -1.13928
 Alpha  occ. eigenvalues --   -1.13906  -1.13896  -1.13687  -1.13661  -1.13647
 Alpha  occ. eigenvalues --   -1.13294  -1.13237  -1.13218  -1.13205  -1.13192
 Alpha  occ. eigenvalues --   -1.13182  -1.13135  -1.13132  -1.13069  -1.12994
 Alpha  occ. eigenvalues --   -1.12942  -1.12884  -1.12860  -1.12835  -1.12805
 Alpha  occ. eigenvalues --   -0.18319  -0.12815  -0.12241  -0.11321
 Alpha virt. eigenvalues --   -0.05843  -0.05088  -0.04252  -0.03319  -0.03228
 Alpha virt. eigenvalues --   -0.03079  -0.01652  -0.01055  -0.00398   0.00011
 Alpha virt. eigenvalues --    0.00091   0.00338   0.00700   0.00801   0.00849

  Beta  occ. eigenvalues --  -38.44349 -38.44194 -38.43747 -38.43674 -38.43604
  Beta  occ. eigenvalues --  -38.43357 -38.43225  -2.20090  -2.20010  -2.19547
  Beta  occ. eigenvalues --   -2.19514  -2.19451  -2.19199  -2.19169  -1.13805
  Beta  occ. eigenvalues --   -1.13776  -1.13762  -1.13685  -1.13655  -1.13642
  Beta  occ. eigenvalues --   -1.13257  -1.13238  -1.13201  -1.13194  -1.13174
  Beta  occ. eigenvalues --   -1.13160  -1.13114  -1.13113  -1.13061  -1.12954
  Beta  occ. eigenvalues --   -1.12881  -1.12847  -1.12825  -1.12815  -1.12756
  Beta  occ. eigenvalues --   -0.17558  -0.12670  -0.12048
  Beta virt. eigenvalues --   -0.07322  -0.05718  -0.04994  -0.04176  -0.02688
  Beta virt. eigenvalues --   -0.02502  -0.02024  -0.01572  -0.00987  -0.00209
  Beta virt. eigenvalues --   -0.00021   0.00159   0.00377   0.00809   0.00864

 Mulliken charges and spin densities:
               1          2
     1  Na  -0.467245   0.751060
     2  Na  -0.353371   0.101978
     3  Na  -0.399568   0.079235
     4  Na   0.318646  -0.052748
     5  Na   0.160368  -0.006719
     6  Na   0.670669   0.096316
     7  Na   0.070500   0.030878
 Sum of Mulliken charges =  -0.00000   1.00000

 Dipole moment (field-independent basis, Debye):
    X=              0.3712    Y=             -0.2363    Z=              0.4106  Tot=              0.6019
 Quadrupole moment (field-independent basis, Debye-Ang):
   XX=            -57.3018   YY=            -66.9643   ZZ=            -70.6857
   XY=             -0.2448   XZ=              0.5756   YZ=              0.7673

 Normal termination of Gaussian 16 at Thu Dec  7 03:32:11 2023.
