 Gaussian 16, Revision B.01,
 Gaussian 16:  ES64L-G16RevB.01 20-Dec-2017

 -------------------------
 #P B3LYP/6-311+g(d) force
 -------------------------

 -----
 DPGEN
 -----
 Symbolic Z-matrix:
 Charge =  0 Multiplicity = 2

                         Standard orientation:
 ---------------------------------------------------------------------
 Center     Atomic      Atomic             Coordinates (Angstroms)
 Number     Number       Type             X           Y           Z
 ---------------------------------------------------------------------
      1         11           0       -1.292930   -0.795858   -0.322089
      2         11           0       -4.924161   -1.232442    0.246306
      3         11           0        1.050318    1.483852   -1.491228
      4         11           0        1.442240   -1.366671   -1.148292
      5         11           0       -2.002689    2.266389    0.301154
      6         11           0        4.584065   -0.505731    0.541181
      7         11           0        1.143157    0.150460    1.872969
 ---------------------------------------------------------------------

 SCF Done:  E(UB3LYP) =  -1136.10160691     A.U. after   28 cycles

 The electronic state is 2-A.
 Alpha  occ. eigenvalues --  -38.45797 -38.44783 -38.44743 -38.44406 -38.43845
 Alpha  occ. eigenvalues --  -38.43567 -38.43478  -2.21637  -2.20559  -2.20554
 Alpha  occ. eigenvalues --   -2.20424  -2.19763  -2.19466  -2.19310  -1.15355
 Alpha  occ. eigenvalues --   -1.15290  -1.15217  -1.14249  -1.14227  -1.14223
 Alpha  occ. eigenvalues --   -1.14221  -1.14179  -1.14171  -1.14153  -1.14134
 Alpha  occ. eigenvalues --   -1.13981  -1.13455  -1.13407  -1.13375  -1.13171
 Alpha  occ. eigenvalues --   -1.13149  -1.13042  -1.12982  -1.12977  -1.12934
 Alpha  occ. eigenvalues --   -0.18928  -0.13564  -0.11598  -0.10801
 Alpha virt. eigenvalues --   -0.07822  -0.05579  -0.04205  -0.03299  -0.02966
 Alpha virt. eigenvalues --   -0.02412  -0.02075  -0.01821  -0.01224  -0.00643
 Alpha virt. eigenvalues --   -0.00074   0.00181   0.00353   0.00516   0.00554

  Beta  occ. eigenvalues --  -38.45752 -38.44758 -38.44713 -38.44328 -38.43842
  Beta  occ. eigenvalues --  -38.43560 -38.43443  -2.21555  -2.20509  -2.20503
  Beta  occ. eigenvalues --   -2.20286  -2.19764  -2.19410  -2.19297  -1.15292
  Beta  occ. eigenvalues --   -1.15238  -1.15150  -1.14214  -1.14193  -1.14183
  Beta  occ. eigenvalues --   -1.14183  -1.14142  -1.14113  -1.14081  -1.14046
  Beta  occ. eigenvalues --   -1.13865  -1.13436  -1.13400  -1.13366  -1.13138
  Beta  occ. eigenvalues --   -1.13068  -1.13005  -1.12973  -1.12967  -1.12925
  Beta  occ. eigenvalues --   -0.18193  -0.13262  -0.10640
  Beta virt. eigenvalues --   -0.07732  -0.07595  -0.05249  -0.03804  -0.02985
  Beta virt. eigenvalues --   -0.02634  -0.01948  -0.01632  -0.01510  -0.00938
  Beta virt. eigenvalues --   -0.00572   0.00008   0.00348   0.00418   0.00578

 Mulliken charges and spin densities:
               1          2
     1  Na  -0.027923   0.081508
     2  Na   0.086555  -0.000401
     3  Na  -0.066203  -0.010426
     4  Na  -0.084230   0.188591
     5  Na   0.207079   0.197739
     6  Na   0.111357   0.135546
     7  Na  -0.226636   0.407443
 Sum of Mulliken charges =  -0.00000   1.00000

 Dipole moment (field-independent basis, Debye):
    X=              1.7874    Y=              1.4876    Z=             -0.0319  Tot=              2.3257
 Quadrupole moment (field-independent basis, Debye-Ang):
   XX=            -59.4592   YY=            -70.5468   ZZ=            -70.0546
   XY=             -4.0352   XZ=             -3.2734   YZ=              0.5825

 Normal termination of Gaussian 16 at Tue Dec  5 21:43:23 2023.
