 Gaussian 16, Revision B.01,
 Gaussian 16:  ES64L-G16RevB.01 20-Dec-2017

 -------------------------
 #P B3LYP/6-311+g(d) force
 -------------------------

 -----
 DPGEN
 -----
 Symbolic Z-matrix:
 Charge =  0 Multiplicity = 2

                         Standard orientation:
 ---------------------------------------------------------------------
 Center     Atomic      Atomic             Coordinates (Angstroms)
 Number     Number       Type             X           Y           Z
 ---------------------------------------------------------------------
      1         11           0       -2.985802   -1.789165   -0.681739
      2         11           0        2.151544   -1.627391    1.347943
      3         11           0        3.361245   -0.138716   -1.356040
      4         11           0        0.082502   -0.572173   -1.012335
      5         11           0       -1.393156    0.357186    2.339625
      6         11           0        1.206746    2.288272    0.391387
      7         11           0       -2.423079    1.481988   -1.028841
 ---------------------------------------------------------------------

 SCF Done:  E(UB3LYP) =  -1136.12550273     A.U. after   24 cycles

 The electronic state is 2-A.
 Alpha  occ. eigenvalues --  -38.44542 -38.44437 -38.44394 -38.44173 -38.43248
 Alpha  occ. eigenvalues --  -38.43162 -38.42705  -2.20380  -2.20297  -2.20241
 Alpha  occ. eigenvalues --   -2.19986  -2.19161  -2.19079  -2.18537  -1.14066
 Alpha  occ. eigenvalues --   -1.14029  -1.14008  -1.14007  -1.13952  -1.13919
 Alpha  occ. eigenvalues --   -1.13887  -1.13876  -1.13861  -1.13654  -1.13627
 Alpha  occ. eigenvalues --   -1.13601  -1.12887  -1.12824  -1.12820  -1.12737
 Alpha  occ. eigenvalues --   -1.12733  -1.12711  -1.12232  -1.12201  -1.12154
 Alpha  occ. eigenvalues --   -0.18270  -0.13952  -0.11373  -0.10775
 Alpha virt. eigenvalues --   -0.05917  -0.05575  -0.04856  -0.03114  -0.02705
 Alpha virt. eigenvalues --   -0.02431  -0.02018  -0.01064  -0.00820  -0.00180
 Alpha virt. eigenvalues --    0.00251   0.00297   0.00396   0.00484   0.00709

  Beta  occ. eigenvalues --  -38.44495 -38.44411 -38.44377 -38.44110 -38.43252
  Beta  occ. eigenvalues --  -38.43139 -38.42694  -2.20294  -2.20250  -2.20210
  Beta  occ. eigenvalues --   -2.19869  -2.19125  -2.19090  -2.18520  -1.14009
  Beta  occ. eigenvalues --   -1.13973  -1.13969  -1.13940  -1.13921  -1.13893
  Beta  occ. eigenvalues --   -1.13855  -1.13852  -1.13831  -1.13569  -1.13544
  Beta  occ. eigenvalues --   -1.13522  -1.12820  -1.12813  -1.12800  -1.12742
  Beta  occ. eigenvalues --   -1.12731  -1.12707  -1.12221  -1.12175  -1.12141
  Beta  occ. eigenvalues --   -0.17557  -0.13749  -0.10630
  Beta virt. eigenvalues --   -0.07549  -0.05654  -0.05106  -0.04562  -0.02817
  Beta virt. eigenvalues --   -0.02079  -0.01970  -0.01829  -0.00755  -0.00502
  Beta virt. eigenvalues --   -0.00056   0.00296   0.00425   0.00473   0.00604

 Mulliken charges and spin densities:
               1          2
     1  Na   0.258194  -0.158411
     2  Na  -0.073389   0.120736
     3  Na   0.839378  -0.025553
     4  Na  -1.151263   0.721118
     5  Na  -0.162367   0.422947
     6  Na  -0.109030   0.058049
     7  Na   0.398477  -0.138886
 Sum of Mulliken charges =  -0.00000   1.00000

 Dipole moment (field-independent basis, Debye):
    X=              0.3195    Y=              0.2050    Z=              0.2122  Tot=              0.4349
 Quadrupole moment (field-independent basis, Debye-Ang):
   XX=            -52.6900   YY=            -73.2908   ZZ=            -67.5299
   XY=             -0.8655   XZ=             -2.2691   YZ=             -6.2188

 Normal termination of Gaussian 16 at Thu Dec  7 13:46:28 2023.
