 Gaussian 16, Revision B.01,
 Gaussian 16:  ES64L-G16RevB.01 20-Dec-2017

 -------------------------
 #P B3LYP/6-311+g(d) force
 -------------------------

 -----
 DPGEN
 -----
 Symbolic Z-matrix:
 Charge =  0 Multiplicity = 2

                         Standard orientation:
 ---------------------------------------------------------------------
 Center     Atomic      Atomic             Coordinates (Angstroms)
 Number     Number       Type             X           Y           Z
 ---------------------------------------------------------------------
      1         11           0       -1.485880    0.346927    1.663697
      2         11           0        1.818325   -1.345192    0.706732
      3         11           0       -3.813674   -0.787338   -0.085206
      4         11           0        1.586609    1.161645   -0.874767
      5         11           0       -2.248639    2.454711   -0.419900
      6         11           0       -0.864540   -2.180317   -1.067081
      7         11           0        5.007800    0.349564    0.076524
 ---------------------------------------------------------------------

 SCF Done:  E(UB3LYP) =  -1136.11605698     A.U. after   24 cycles

 The electronic state is 2-A.
 Alpha  occ. eigenvalues --  -38.45161 -38.44470 -38.43949 -38.43923 -38.43889
 Alpha  occ. eigenvalues --  -38.43398 -38.43090  -2.21070  -2.20317  -2.19833
 Alpha  occ. eigenvalues --   -2.19777  -2.19764  -2.19238  -2.18931  -1.14782
 Alpha  occ. eigenvalues --   -1.14742  -1.14685  -1.14078  -1.13991  -1.13918
 Alpha  occ. eigenvalues --   -1.13527  -1.13510  -1.13456  -1.13429  -1.13424
 Alpha  occ. eigenvalues --   -1.13410  -1.13406  -1.13368  -1.13360  -1.12928
 Alpha  occ. eigenvalues --   -1.12903  -1.12860  -1.12613  -1.12588  -1.12580
 Alpha  occ. eigenvalues --   -0.18041  -0.14512  -0.11406  -0.10685
 Alpha virt. eigenvalues --   -0.07191  -0.05109  -0.04430  -0.03532  -0.03194
 Alpha virt. eigenvalues --   -0.02171  -0.01596  -0.01295  -0.01049  -0.00871
 Alpha virt. eigenvalues --   -0.00429   0.00077   0.00317   0.00620   0.00776

  Beta  occ. eigenvalues --  -38.45151 -38.44460 -38.43909 -38.43857 -38.43820
  Beta  occ. eigenvalues --  -38.43392 -38.43092  -2.21056  -2.20303  -2.19812
  Beta  occ. eigenvalues --   -2.19648  -2.19591  -2.19230  -2.18938  -1.14772
  Beta  occ. eigenvalues --   -1.14701  -1.14675  -1.14069  -1.13985  -1.13878
  Beta  occ. eigenvalues --   -1.13511  -1.13493  -1.13389  -1.13370  -1.13341
  Beta  occ. eigenvalues --   -1.13295  -1.13290  -1.13279  -1.13252  -1.12925
  Beta  occ. eigenvalues --   -1.12900  -1.12833  -1.12621  -1.12590  -1.12564
  Beta  occ. eigenvalues --   -0.17461  -0.13859  -0.11115
  Beta virt. eigenvalues --   -0.07206  -0.06998  -0.04981  -0.03639  -0.03284
  Beta virt. eigenvalues --   -0.02998  -0.02103  -0.01243  -0.01011  -0.00530
  Beta virt. eigenvalues --   -0.00400  -0.00276   0.00181   0.00411   0.00695

 Mulliken charges and spin densities:
               1          2
     1  Na  -0.221554   0.196226
     2  Na   0.089451  -0.031702
     3  Na   0.335797   0.413413
     4  Na  -0.449487   0.086902
     5  Na   0.087327  -0.126837
     6  Na  -0.219552  -0.035404
     7  Na   0.378018   0.497401
 Sum of Mulliken charges =  -0.00000   1.00000

 Dipole moment (field-independent basis, Debye):
    X=             -0.2058    Y=              0.0176    Z=              0.1429  Tot=              0.2512
 Quadrupole moment (field-independent basis, Debye-Ang):
   XX=            -68.2960   YY=            -76.6884   ZZ=            -60.5440
   XY=             -1.8176   XZ=              1.7805   YZ=             -3.3960

 Normal termination of Gaussian 16 at Tue Nov 28 23:58:07 2023.
