 Gaussian 16, Revision B.01,
 Gaussian 16:  ES64L-G16RevB.01 20-Dec-2017

 -------------------------
 #P B3LYP/6-311+g(d) force
 -------------------------

 -----
 DPGEN
 -----
 Symbolic Z-matrix:
 Charge =  0 Multiplicity = 2

                         Standard orientation:
 ---------------------------------------------------------------------
 Center     Atomic      Atomic             Coordinates (Angstroms)
 Number     Number       Type             X           Y           Z
 ---------------------------------------------------------------------
      1         11           0       -3.341465   -0.729761    0.138060
      2         11           0        0.984160    0.135299   -2.276013
      3         11           0       -1.574794    2.093462   -0.692328
      4         11           0        1.817053    2.705010    0.379096
      5         11           0       -0.480110    0.144209    2.360395
      6         11           0        2.759554   -1.653792    0.708064
      7         11           0       -0.164399   -2.694427   -0.617273
 ---------------------------------------------------------------------

 SCF Done:  E(UB3LYP) =  -1136.13156219     A.U. after   19 cycles

 The electronic state is 2-A.
 Alpha  occ. eigenvalues --  -38.44854 -38.44415 -38.44168 -38.43699 -38.43671
 Alpha  occ. eigenvalues --  -38.43516 -38.43415  -2.20653  -2.20244  -2.19950
 Alpha  occ. eigenvalues --   -2.19502  -2.19474  -2.19337  -2.19212  -1.14312
 Alpha  occ. eigenvalues --   -1.14292  -1.14270  -1.13922  -1.13879  -1.13857
 Alpha  occ. eigenvalues --   -1.13622  -1.13601  -1.13598  -1.13194  -1.13176
 Alpha  occ. eigenvalues --   -1.13145  -1.13139  -1.13132  -1.13103  -1.13029
 Alpha  occ. eigenvalues --   -1.13004  -1.12957  -1.12883  -1.12867  -1.12860
 Alpha  occ. eigenvalues --   -0.17630  -0.12488  -0.12058  -0.11578
 Alpha virt. eigenvalues --   -0.05527  -0.05277  -0.04708  -0.03615  -0.03392
 Alpha virt. eigenvalues --   -0.03198  -0.01284  -0.01083  -0.00403  -0.00160
 Alpha virt. eigenvalues --   -0.00095   0.00448   0.00502   0.00602   0.00796

  Beta  occ. eigenvalues --  -38.44772 -38.44343 -38.44159 -38.43699 -38.43659
  Beta  occ. eigenvalues --  -38.43506 -38.43417  -2.20501  -2.20112  -2.19934
  Beta  occ. eigenvalues --   -2.19481  -2.19475  -2.19321  -2.19217  -1.14212
  Beta  occ. eigenvalues --   -1.14186  -1.14157  -1.13830  -1.13788  -1.13761
  Beta  occ. eigenvalues --   -1.13608  -1.13590  -1.13580  -1.13175  -1.13155
  Beta  occ. eigenvalues --   -1.13137  -1.13133  -1.13125  -1.13097  -1.13009
  Beta  occ. eigenvalues --   -1.12984  -1.12951  -1.12880  -1.12868  -1.12864
  Beta  occ. eigenvalues --   -0.16849  -0.12346  -0.11922
  Beta virt. eigenvalues --   -0.07721  -0.05316  -0.05023  -0.04509  -0.03070
  Beta virt. eigenvalues --   -0.02743  -0.02346  -0.01181  -0.01020  -0.00262
  Beta virt. eigenvalues --   -0.00115  -0.00018   0.00480   0.00726   0.00803

 Mulliken charges and spin densities:
               1          2
     1  Na   0.216137  -0.045278
     2  Na   0.072266   0.363137
     3  Na  -0.000186   0.057678
     4  Na   0.090939  -0.069125
     5  Na  -0.389590   0.646124
     6  Na   0.091708   0.002787
     7  Na  -0.081275   0.044677
 Sum of Mulliken charges =  -0.00000   1.00000

 Dipole moment (field-independent basis, Debye):
    X=              0.3828    Y=              0.0097    Z=              0.2119  Tot=              0.4377
 Quadrupole moment (field-independent basis, Debye-Ang):
   XX=            -61.8102   YY=            -68.3581   ZZ=            -66.9806
   XY=              0.9467   XZ=              2.4445   YZ=              0.1729

 Normal termination of Gaussian 16 at Sun Dec  3 12:42:01 2023.
