 Gaussian 16, Revision B.01,
 Gaussian 16:  ES64L-G16RevB.01 20-Dec-2017

 -------------------------
 #P B3LYP/6-311+g(d) force
 -------------------------

 -----
 DPGEN
 -----
 Symbolic Z-matrix:
 Charge =  0 Multiplicity = 2

                         Standard orientation:
 ---------------------------------------------------------------------
 Center     Atomic      Atomic             Coordinates (Angstroms)
 Number     Number       Type             X           Y           Z
 ---------------------------------------------------------------------
      1         11           0        1.472599   -2.295756   -0.529569
      2         11           0       -2.201151   -2.174374   -0.000520
      3         11           0        3.805781    0.189939    0.086874
      4         11           0       -0.161808   -0.148218    2.195429
      5         11           0       -0.361457    0.426621   -1.630428
      6         11           0       -2.982889    1.088719   -0.078029
      7         11           0        0.428925    2.913069   -0.043756
 ---------------------------------------------------------------------

 SCF Done:  E(UB3LYP) =  -1136.12882388     A.U. after   21 cycles

 The electronic state is 2-A.
 Alpha  occ. eigenvalues --  -38.45104 -38.44502 -38.43935 -38.43407 -38.43379
 Alpha  occ. eigenvalues --  -38.43377 -38.43367  -2.20842  -2.20359  -2.19780
 Alpha  occ. eigenvalues --   -2.19357  -2.19254  -2.19207  -2.19194  -1.14518
 Alpha  occ. eigenvalues --   -1.14505  -1.14479  -1.14071  -1.14012  -1.13979
 Alpha  occ. eigenvalues --   -1.13438  -1.13406  -1.13398  -1.13091  -1.13018
 Alpha  occ. eigenvalues --   -1.13004  -1.12918  -1.12915  -1.12907  -1.12893
 Alpha  occ. eigenvalues --   -1.12872  -1.12850  -1.12843  -1.12821  -1.12800
 Alpha  occ. eigenvalues --   -0.18279  -0.13001  -0.12061  -0.10762
 Alpha virt. eigenvalues --   -0.06598  -0.05025  -0.04341  -0.03200  -0.02852
 Alpha virt. eigenvalues --   -0.02655  -0.02126  -0.01135  -0.00588  -0.00225
 Alpha virt. eigenvalues --   -0.00091   0.00269   0.00630   0.00722   0.00794

  Beta  occ. eigenvalues --  -38.45111 -38.44494 -38.43831 -38.43403 -38.43365
  Beta  occ. eigenvalues --  -38.43364 -38.43321  -2.20856  -2.20347  -2.19588
  Beta  occ. eigenvalues --   -2.19253  -2.19249  -2.19192  -2.19187  -1.14521
  Beta  occ. eigenvalues --   -1.14515  -1.14489  -1.14056  -1.13984  -1.13976
  Beta  occ. eigenvalues --   -1.13310  -1.13271  -1.13260  -1.13037  -1.12958
  Beta  occ. eigenvalues --   -1.12934  -1.12914  -1.12904  -1.12883  -1.12868
  Beta  occ. eigenvalues --   -1.12845  -1.12832  -1.12818  -1.12811  -1.12792
  Beta  occ. eigenvalues --   -0.17533  -0.12863  -0.11834
  Beta virt. eigenvalues --   -0.06801  -0.06517  -0.05023  -0.04266  -0.02535
  Beta virt. eigenvalues --   -0.02079  -0.02027  -0.01588  -0.01081  -0.00616
  Beta virt. eigenvalues --   -0.00234   0.00073   0.00311   0.00763   0.00791

 Mulliken charges and spin densities:
               1          2
     1  Na   0.023289  -0.011084
     2  Na   0.162021   0.026352
     3  Na  -0.077637  -0.068586
     4  Na  -0.548683   0.788330
     5  Na   0.175897   0.386475
     6  Na   0.342767  -0.008188
     7  Na  -0.077653  -0.113298
 Sum of Mulliken charges =  -0.00000   1.00000

 Dipole moment (field-independent basis, Debye):
    X=              0.2299    Y=              0.2452    Z=              0.2605  Tot=              0.4252
 Quadrupole moment (field-independent basis, Debye-Ang):
   XX=            -51.3523   YY=            -66.9946   ZZ=            -74.7391
   XY=              1.3343   XZ=              0.3138   YZ=              1.4032

 Normal termination of Gaussian 16 at Thu Dec  7 08:12:56 2023.
