 Gaussian 16, Revision B.01,
 Gaussian 16:  ES64L-G16RevB.01 20-Dec-2017

 -------------------------
 #P B3LYP/6-311+g(d) force
 -------------------------

 -----
 DPGEN
 -----
 Symbolic Z-matrix:
 Charge =  0 Multiplicity = 2

                         Standard orientation:
 ---------------------------------------------------------------------
 Center     Atomic      Atomic             Coordinates (Angstroms)
 Number     Number       Type             X           Y           Z
 ---------------------------------------------------------------------
      1         11           0       -3.194880   -0.468776   -0.179398
      2         11           0        0.008491    0.354962    2.092240
      3         11           0        0.009148   -0.335199   -1.545718
      4         11           0       -0.483882   -2.903147    0.197030
      5         11           0       -1.433279    2.717354   -0.239480
      6         11           0        2.351915    1.916752   -0.168300
      7         11           0        2.742486   -1.281947   -0.156374
 ---------------------------------------------------------------------

 SCF Done:  E(UB3LYP) =  -1136.13826062     A.U. after   19 cycles

 The electronic state is 2-A.
 Alpha  occ. eigenvalues --  -38.44216 -38.43726 -38.43697 -38.43642 -38.43498
 Alpha  occ. eigenvalues --  -38.43377 -38.43094  -2.20022  -2.19602  -2.19548
 Alpha  occ. eigenvalues --   -2.19452  -2.19371  -2.19232  -2.19089  -1.13702
 Alpha  occ. eigenvalues --   -1.13679  -1.13658  -1.13328  -1.13277  -1.13248
 Alpha  occ. eigenvalues --   -1.13214  -1.13200  -1.13160  -1.13130  -1.13121
 Alpha  occ. eigenvalues --   -1.13086  -1.13035  -1.12993  -1.12989  -1.12966
 Alpha  occ. eigenvalues --   -1.12889  -1.12855  -1.12766  -1.12713  -1.12706
 Alpha  occ. eigenvalues --   -0.18574  -0.13055  -0.12434  -0.10594
 Alpha virt. eigenvalues --   -0.05693  -0.05208  -0.04794  -0.03089  -0.02915
 Alpha virt. eigenvalues --   -0.02435  -0.01566  -0.01149  -0.00492  -0.00423
 Alpha virt. eigenvalues --   -0.00007   0.00353   0.00786   0.00856   0.00888

  Beta  occ. eigenvalues --  -38.44213 -38.43720 -38.43692 -38.43638 -38.43398
  Beta  occ. eigenvalues --  -38.43371 -38.43040  -2.20018  -2.19594  -2.19541
  Beta  occ. eigenvalues --   -2.19447  -2.19225  -2.19187  -2.18992  -1.13687
  Beta  occ. eigenvalues --   -1.13672  -1.13659  -1.13323  -1.13268  -1.13224
  Beta  occ. eigenvalues --   -1.13201  -1.13181  -1.13157  -1.13119  -1.13106
  Beta  occ. eigenvalues --   -1.13084  -1.12955  -1.12913  -1.12869  -1.12864
  Beta  occ. eigenvalues --   -1.12853  -1.12850  -1.12698  -1.12643  -1.12636
  Beta  occ. eigenvalues --   -0.17857  -0.12818  -0.12221
  Beta virt. eigenvalues --   -0.06677  -0.05675  -0.05204  -0.04723  -0.02329
  Beta virt. eigenvalues --   -0.02133  -0.01479  -0.01385  -0.01079  -0.00544
  Beta virt. eigenvalues --   -0.00468   0.00145   0.00387   0.00832   0.00862

 Mulliken charges and spin densities:
               1          2
     1  Na   0.104182  -0.055853
     2  Na  -0.553186   0.781456
     3  Na  -0.289154   0.359271
     4  Na   0.160112   0.002883
     5  Na   0.054852  -0.080690
     6  Na   0.185863  -0.039121
     7  Na   0.337331   0.032054
 Sum of Mulliken charges =  -0.00000   1.00000

 Dipole moment (field-independent basis, Debye):
    X=             -0.2041    Y=              0.0473    Z=              0.1189  Tot=              0.2409
 Quadrupole moment (field-independent basis, Debye-Ang):
   XX=            -56.1966   YY=            -61.6525   ZZ=            -75.1714
   XY=              0.2242   XZ=             -0.0088   YZ=             -1.5588

 Normal termination of Gaussian 16 at Fri Dec  8 03:58:17 2023.
