 Gaussian 16, Revision B.01,
 Gaussian 16:  ES64L-G16RevB.01 20-Dec-2017

 -------------------------
 #P B3LYP/6-311+g(d) force
 -------------------------

 -----
 DPGEN
 -----
 Symbolic Z-matrix:
 Charge =  0 Multiplicity = 2

                         Standard orientation:
 ---------------------------------------------------------------------
 Center     Atomic      Atomic             Coordinates (Angstroms)
 Number     Number       Type             X           Y           Z
 ---------------------------------------------------------------------
      1         11           0       -0.124349    0.169652   -1.313650
      2         11           0        2.676565   -1.675672   -0.499986
      3         11           0       -0.336894    3.060244   -0.339082
      4         11           0       -0.362243   -0.508441    2.276083
      5         11           0        2.578274    1.303916    0.388294
      6         11           0       -1.294116   -2.919221   -0.391280
      7         11           0       -3.137237    0.569521   -0.120380
 ---------------------------------------------------------------------

 SCF Done:  E(UB3LYP) =  -1136.13270770     A.U. after   19 cycles

 The electronic state is 2-A.
 Alpha  occ. eigenvalues --  -38.44428 -38.43988 -38.43889 -38.43777 -38.43531
 Alpha  occ. eigenvalues --  -38.43472 -38.42857  -2.20236  -2.19781  -2.19724
 Alpha  occ. eigenvalues --   -2.19617  -2.19411  -2.19324  -2.18891  -1.13928
 Alpha  occ. eigenvalues --   -1.13903  -1.13854  -1.13463  -1.13442  -1.13433
 Alpha  occ. eigenvalues --   -1.13413  -1.13388  -1.13352  -1.13271  -1.13243
 Alpha  occ. eigenvalues --   -1.13229  -1.13095  -1.13065  -1.13061  -1.13043
 Alpha  occ. eigenvalues --   -1.12969  -1.12939  -1.12579  -1.12526  -1.12524
 Alpha  occ. eigenvalues --   -0.18348  -0.12978  -0.12406  -0.10636
 Alpha virt. eigenvalues --   -0.05925  -0.05099  -0.04757  -0.03200  -0.02831
 Alpha virt. eigenvalues --   -0.02484  -0.01578  -0.01316  -0.00507  -0.00408
 Alpha virt. eigenvalues --   -0.00020   0.00335   0.00762   0.00832   0.00894

  Beta  occ. eigenvalues --  -38.44424 -38.43982 -38.43881 -38.43669 -38.43525
  Beta  occ. eigenvalues --  -38.43468 -38.42815  -2.20231  -2.19772  -2.19711
  Beta  occ. eigenvalues --   -2.19417  -2.19402  -2.19320  -2.18817  -1.13919
  Beta  occ. eigenvalues --   -1.13887  -1.13853  -1.13448  -1.13430  -1.13427
  Beta  occ. eigenvalues --   -1.13407  -1.13364  -1.13346  -1.13137  -1.13105
  Beta  occ. eigenvalues --   -1.13092  -1.13085  -1.13061  -1.13037  -1.13031
  Beta  occ. eigenvalues --   -1.12956  -1.12938  -1.12516  -1.12475  -1.12468
  Beta  occ. eigenvalues --   -0.17674  -0.12792  -0.12175
  Beta virt. eigenvalues --   -0.06691  -0.05923  -0.04991  -0.04696  -0.02445
  Beta virt. eigenvalues --   -0.02120  -0.01508  -0.01453  -0.01246  -0.00530
  Beta virt. eigenvalues --   -0.00404   0.00152   0.00384   0.00770   0.00882

 Mulliken charges and spin densities:
               1          2
     1  Na  -0.331167   0.021551
     2  Na   0.118621   0.032334
     3  Na   0.273398   0.078451
     4  Na  -0.541865   0.719616
     5  Na   0.225037   0.145308
     6  Na   0.062194  -0.015180
     7  Na   0.193782   0.017921
 Sum of Mulliken charges =  -0.00000   1.00000

 Dipole moment (field-independent basis, Debye):
    X=             -0.4344    Y=             -0.2128    Z=              0.1469  Tot=              0.5056
 Quadrupole moment (field-independent basis, Debye-Ang):
   XX=            -57.2949   YY=            -60.3221   ZZ=            -75.2572
   XY=             -0.3682   XZ=              0.4152   YZ=              1.7088

 Normal termination of Gaussian 16 at Thu Dec  7 13:10:51 2023.
