 Gaussian 16, Revision B.01,
 Gaussian 16:  ES64L-G16RevB.01 20-Dec-2017

 -------------------------
 #P B3LYP/6-311+g(d) force
 -------------------------

 -----
 DPGEN
 -----
 Symbolic Z-matrix:
 Charge =  0 Multiplicity = 2

                         Standard orientation:
 ---------------------------------------------------------------------
 Center     Atomic      Atomic             Coordinates (Angstroms)
 Number     Number       Type             X           Y           Z
 ---------------------------------------------------------------------
      1         11           0       -3.006103    0.491410    0.083067
      2         11           0        2.311604    1.641747    0.308700
      3         11           0        2.858453   -1.677523   -0.545828
      4         11           0       -1.581506   -2.547229    0.475913
      5         11           0       -0.666510    2.667866   -0.490623
      6         11           0        0.456704    0.014756    1.911006
      7         11           0       -0.372642   -0.591027   -1.742234
 ---------------------------------------------------------------------

 SCF Done:  E(UB3LYP) =  -1136.13291451     A.U. after   19 cycles

 The electronic state is 2-A.
 Alpha  occ. eigenvalues --  -38.44150 -38.44099 -38.43749 -38.43663 -38.43624
 Alpha  occ. eigenvalues --  -38.43515 -38.42872  -2.19969  -2.19949  -2.19683
 Alpha  occ. eigenvalues --   -2.19575  -2.19483  -2.19450  -2.18761  -1.13651
 Alpha  occ. eigenvalues --   -1.13633  -1.13620  -1.13615  -1.13600  -1.13592
 Alpha  occ. eigenvalues --   -1.13501  -1.13332  -1.13285  -1.13223  -1.13215
 Alpha  occ. eigenvalues --   -1.13191  -1.13174  -1.13141  -1.13117  -1.13111
 Alpha  occ. eigenvalues --   -1.13063  -1.13059  -1.12435  -1.12426  -1.12399
 Alpha  occ. eigenvalues --   -0.18744  -0.13365  -0.12282  -0.10943
 Alpha virt. eigenvalues --   -0.05813  -0.05165  -0.04434  -0.03478  -0.02955
 Alpha virt. eigenvalues --   -0.02521  -0.01631  -0.01047  -0.00308  -0.00112
 Alpha virt. eigenvalues --    0.00023   0.00355   0.00808   0.00843   0.00852

  Beta  occ. eigenvalues --  -38.44135 -38.44096 -38.43669 -38.43654 -38.43612
  Beta  occ. eigenvalues --  -38.43453 -38.42863  -2.19966  -2.19922  -2.19568
  Beta  occ. eigenvalues --   -2.19529  -2.19464  -2.19337  -2.18749  -1.13647
  Beta  occ. eigenvalues --   -1.13627  -1.13598  -1.13595  -1.13578  -1.13575
  Beta  occ. eigenvalues --   -1.13430  -1.13239  -1.13212  -1.13187  -1.13184
  Beta  occ. eigenvalues --   -1.13158  -1.13125  -1.13102  -1.13099  -1.13046
  Beta  occ. eigenvalues --   -1.12994  -1.12975  -1.12426  -1.12422  -1.12370
  Beta  occ. eigenvalues --   -0.18040  -0.13120  -0.12010
  Beta virt. eigenvalues --   -0.07101  -0.05751  -0.05063  -0.04334  -0.02749
  Beta virt. eigenvalues --   -0.02246  -0.01564  -0.01487  -0.00953  -0.00343
  Beta virt. eigenvalues --   -0.00085   0.00125   0.00392   0.00846   0.00900

 Mulliken charges and spin densities:
               1          2
     1  Na   0.153704   0.059043
     2  Na   0.379763   0.167944
     3  Na  -0.097666  -0.064958
     4  Na   0.089135  -0.027253
     5  Na  -0.135435  -0.028647
     6  Na  -0.188216   0.391737
     7  Na  -0.201285   0.502135
 Sum of Mulliken charges =  -0.00000   1.00000

 Dipole moment (field-independent basis, Debye):
    X=             -0.0176    Y=             -0.4162    Z=              0.0476  Tot=              0.4193
 Quadrupole moment (field-independent basis, Debye-Ang):
   XX=            -56.6846   YY=            -65.0105   ZZ=            -72.9324
   XY=             -0.4441   XZ=             -1.7256   YZ=             -0.9087

 Normal termination of Gaussian 16 at Thu Dec  7 01:39:52 2023.
