 Gaussian 16, Revision B.01,
 Gaussian 16:  ES64L-G16RevB.01 20-Dec-2017

 -------------------------
 #P B3LYP/6-311+g(d) force
 -------------------------

 -----
 DPGEN
 -----
 Symbolic Z-matrix:
 Charge =  0 Multiplicity = 2

                         Standard orientation:
 ---------------------------------------------------------------------
 Center     Atomic      Atomic             Coordinates (Angstroms)
 Number     Number       Type             X           Y           Z
 ---------------------------------------------------------------------
      1         11           0        1.386922    3.072273   -1.584708
      2         11           0        3.126814    0.293814    0.599958
      3         11           0       -2.754232   -0.467530    1.034052
      4         11           0        2.779413   -2.961148   -0.732802
      5         11           0       -5.270091   -0.348148   -0.967223
      6         11           0        0.212138    0.928961    2.435490
      7         11           0        0.519037   -0.518221   -0.784767
 ---------------------------------------------------------------------

 SCF Done:  E(UB3LYP) =  -1136.11155559     A.U. after   22 cycles

 The electronic state is 2-A.
 Alpha  occ. eigenvalues --  -38.45196 -38.44698 -38.44664 -38.44519 -38.44043
 Alpha  occ. eigenvalues --  -38.43447 -38.42816  -2.21058  -2.20602  -2.20454
 Alpha  occ. eigenvalues --   -2.20310  -2.19886  -2.19270  -2.18625  -1.14806
 Alpha  occ. eigenvalues --   -1.14747  -1.14631  -1.14303  -1.14281  -1.14204
 Alpha  occ. eigenvalues --   -1.14107  -1.14094  -1.14049  -1.13958  -1.13953
 Alpha  occ. eigenvalues --   -1.13944  -1.13550  -1.13535  -1.13497  -1.12958
 Alpha  occ. eigenvalues --   -1.12942  -1.12913  -1.12302  -1.12290  -1.12268
 Alpha  occ. eigenvalues --   -0.17490  -0.13559  -0.11755  -0.11331
 Alpha virt. eigenvalues --   -0.07243  -0.05260  -0.04208  -0.03289  -0.02851
 Alpha virt. eigenvalues --   -0.02522  -0.02301  -0.01432  -0.01308  -0.00764
 Alpha virt. eigenvalues --   -0.00408  -0.00235   0.00060   0.00561   0.00642

  Beta  occ. eigenvalues --  -38.45198 -38.44696 -38.44561 -38.44466 -38.43979
  Beta  occ. eigenvalues --  -38.43446 -38.42832  -2.21064  -2.20601  -2.20263
  Beta  occ. eigenvalues --   -2.20211  -2.19768  -2.19274  -2.18655  -1.14812
  Beta  occ. eigenvalues --   -1.14727  -1.14647  -1.14301  -1.14255  -1.14212
  Beta  occ. eigenvalues --   -1.13976  -1.13960  -1.13926  -1.13893  -1.13885
  Beta  occ. eigenvalues --   -1.13879  -1.13468  -1.13452  -1.13420  -1.12969
  Beta  occ. eigenvalues --   -1.12950  -1.12869  -1.12326  -1.12310  -1.12285
  Beta  occ. eigenvalues --   -0.17004  -0.13032  -0.11306
  Beta virt. eigenvalues --   -0.07804  -0.07005  -0.04849  -0.03973  -0.02944
  Beta virt. eigenvalues --   -0.02519  -0.02325  -0.01983  -0.01190  -0.00834
  Beta virt. eigenvalues --   -0.00516  -0.00267  -0.00010   0.00107   0.00625

 Mulliken charges and spin densities:
               1          2
     1  Na  -0.065332   0.373086
     2  Na   1.166553   0.145254
     3  Na   0.084857   0.024525
     4  Na   0.205291  -0.202570
     5  Na   0.033927   0.274975
     6  Na  -0.036030   0.070091
     7  Na  -1.389265   0.314639
 Sum of Mulliken charges =  -0.00000   1.00000

 Dipole moment (field-independent basis, Debye):
    X=              0.5644    Y=              0.8374    Z=              0.1938  Tot=              1.0283
 Quadrupole moment (field-independent basis, Debye-Ang):
   XX=            -59.6853   YY=            -70.5437   ZZ=            -67.0961
   XY=              1.2181   XZ=              7.7589   YZ=             -0.6596

 Normal termination of Gaussian 16 at Wed Nov 29 02:15:29 2023.
