 Gaussian 16, Revision B.01,
 Gaussian 16:  ES64L-G16RevB.01 20-Dec-2017

 -------------------------
 #P B3LYP/6-311+g(d) force
 -------------------------

 -----
 DPGEN
 -----
 Symbolic Z-matrix:
 Charge =  0 Multiplicity = 2

                         Standard orientation:
 ---------------------------------------------------------------------
 Center     Atomic      Atomic             Coordinates (Angstroms)
 Number     Number       Type             X           Y           Z
 ---------------------------------------------------------------------
      1         11           0        1.862861   -0.424345    1.828171
      2         11           0       -1.973433   -1.762031    1.470617
      3         11           0        0.980406   -3.146281   -0.935687
      4         11           0       -1.898355    2.869857   -0.606734
      5         11           0        1.203783    2.959360    0.589618
      6         11           0       -3.458057   -0.580574   -0.927732
      7         11           0        3.282794    0.084014   -1.418253
 ---------------------------------------------------------------------

 SCF Done:  E(UB3LYP) =  -1136.11465965     A.U. after   21 cycles

 The electronic state is 2-A.
 Alpha  occ. eigenvalues --  -38.45363 -38.44936 -38.44420 -38.44149 -38.44148
 Alpha  occ. eigenvalues --  -38.44147 -38.43833  -2.21094  -2.20701  -2.20219
 Alpha  occ. eigenvalues --   -2.19959  -2.19953  -2.19912  -2.19621  -1.14776
 Alpha  occ. eigenvalues --   -1.14745  -1.14722  -1.14375  -1.14345  -1.14327
 Alpha  occ. eigenvalues --   -1.13952  -1.13874  -1.13849  -1.13628  -1.13613
 Alpha  occ. eigenvalues --   -1.13604  -1.13598  -1.13592  -1.13589  -1.13585
 Alpha  occ. eigenvalues --   -1.13583  -1.13547  -1.13296  -1.13288  -1.13253
 Alpha  occ. eigenvalues --   -0.16481  -0.13297  -0.12508  -0.10396
 Alpha virt. eigenvalues --   -0.07012  -0.05742  -0.04853  -0.03694  -0.03161
 Alpha virt. eigenvalues --   -0.02271  -0.01541  -0.01338  -0.01026  -0.00881
 Alpha virt. eigenvalues --   -0.00543  -0.00046   0.00070   0.00478   0.00619

  Beta  occ. eigenvalues --  -38.45338 -38.44893 -38.44414 -38.44138 -38.44124
  Beta  occ. eigenvalues --  -38.44097 -38.43828  -2.21048  -2.20622  -2.20207
  Beta  occ. eigenvalues --   -2.19912  -2.19895  -2.19859  -2.19613  -1.14743
  Beta  occ. eigenvalues --   -1.14714  -1.14678  -1.14321  -1.14295  -1.14262
  Beta  occ. eigenvalues --   -1.13942  -1.13866  -1.13837  -1.13584  -1.13576
  Beta  occ. eigenvalues --   -1.13575  -1.13572  -1.13563  -1.13550  -1.13536
  Beta  occ. eigenvalues --   -1.13521  -1.13519  -1.13288  -1.13279  -1.13246
  Beta  occ. eigenvalues --   -0.15942  -0.13045  -0.12309
  Beta virt. eigenvalues --   -0.06985  -0.06877  -0.05423  -0.04156  -0.03551
  Beta virt. eigenvalues --   -0.02714  -0.01677  -0.01318  -0.01284  -0.00938
  Beta virt. eigenvalues --   -0.00830  -0.00323   0.00151   0.00341   0.00590

 Mulliken charges and spin densities:
               1          2
     1  Na   0.733753   0.324847
     2  Na  -0.274044   0.111247
     3  Na  -0.163827   0.191284
     4  Na   0.033248   0.083061
     5  Na  -0.308504  -0.052077
     6  Na   0.083709   0.039793
     7  Na  -0.104336   0.301845
 Sum of Mulliken charges =  -0.00000   1.00000

 Dipole moment (field-independent basis, Debye):
    X=              0.2174    Y=             -0.5939    Z=             -0.5401  Tot=              0.8317
 Quadrupole moment (field-independent basis, Debye-Ang):
   XX=            -63.7525   YY=            -65.3969   ZZ=            -70.6369
   XY=              2.9854   XZ=              1.1046   YZ=              0.1028

 Normal termination of Gaussian 16 at Sun Dec  3 16:41:16 2023.
