 Gaussian 16, Revision B.01,
 Gaussian 16:  ES64L-G16RevB.01 20-Dec-2017

 -------------------------
 #P B3LYP/6-311+g(d) force
 -------------------------

 -----
 DPGEN
 -----
 Symbolic Z-matrix:
 Charge =  0 Multiplicity = 2

                         Standard orientation:
 ---------------------------------------------------------------------
 Center     Atomic      Atomic             Coordinates (Angstroms)
 Number     Number       Type             X           Y           Z
 ---------------------------------------------------------------------
      1         11           0        0.525033   -0.164198    1.863158
      2         11           0       -1.902622    2.425826   -0.466417
      3         11           0       -4.449633   -0.435749    0.450624
      4         11           0        4.164449    0.030587    0.611984
      5         11           0        1.709390   -1.982183   -1.134496
      6         11           0        1.632196    1.883027   -0.813645
      7         11           0       -1.678812   -1.757310   -0.511208
 ---------------------------------------------------------------------

 SCF Done:  E(UB3LYP) =  -1136.11817126     A.U. after   28 cycles

 The electronic state is 2-A.
 Alpha  occ. eigenvalues --  -38.47054 -38.44078 -38.43906 -38.43783 -38.43646
 Alpha  occ. eigenvalues --  -38.43587 -38.42996  -2.22830  -2.19914  -2.19754
 Alpha  occ. eigenvalues --   -2.19612  -2.19479  -2.19351  -2.18855  -1.16506
 Alpha  occ. eigenvalues --   -1.16479  -1.16461  -1.13602  -1.13558  -1.13545
 Alpha  occ. eigenvalues --   -1.13413  -1.13392  -1.13368  -1.13273  -1.13251
 Alpha  occ. eigenvalues --   -1.13224  -1.13175  -1.13159  -1.13100  -1.13049
 Alpha  occ. eigenvalues --   -1.13012  -1.12979  -1.12547  -1.12530  -1.12488
 Alpha  occ. eigenvalues --   -0.17727  -0.14111  -0.11515  -0.10457
 Alpha virt. eigenvalues --   -0.07592  -0.05379  -0.04408  -0.03307  -0.03185
 Alpha virt. eigenvalues --   -0.02387  -0.01745  -0.01670  -0.01284  -0.00475
 Alpha virt. eigenvalues --   -0.00439   0.00022   0.00236   0.00570   0.00626

  Beta  occ. eigenvalues --  -38.47048 -38.44048 -38.43829 -38.43699 -38.43646
  Beta  occ. eigenvalues --  -38.43590 -38.42983  -2.22821  -2.19863  -2.19608
  Beta  occ. eigenvalues --   -2.19483  -2.19456  -2.19361  -2.18840  -1.16490
  Beta  occ. eigenvalues --   -1.16476  -1.16455  -1.13566  -1.13526  -1.13489
  Beta  occ. eigenvalues --   -1.13314  -1.13292  -1.13276  -1.13176  -1.13169
  Beta  occ. eigenvalues --   -1.13159  -1.13145  -1.13121  -1.13082  -1.13056
  Beta  occ. eigenvalues --   -1.13019  -1.12970  -1.12546  -1.12511  -1.12439
  Beta  occ. eigenvalues --   -0.17243  -0.13333  -0.11162
  Beta virt. eigenvalues --   -0.07479  -0.07048  -0.05342  -0.03671  -0.03166
  Beta virt. eigenvalues --   -0.02831  -0.02215  -0.01676  -0.01233  -0.00652
  Beta virt. eigenvalues --   -0.00346  -0.00094   0.00089   0.00370   0.00676

 Mulliken charges and spin densities:
               1          2
     1  Na  -0.272317  -0.171725
     2  Na  -0.111850  -0.021260
     3  Na   0.492015   0.490858
     4  Na   0.678935   0.572310
     5  Na  -0.024206   0.024538
     6  Na  -0.264512  -0.019367
     7  Na  -0.498066   0.124645
 Sum of Mulliken charges =  -0.00000   1.00000

 Dipole moment (field-independent basis, Debye):
    X=              0.8173    Y=             -0.1295    Z=              0.8554  Tot=              1.1902
 Quadrupole moment (field-independent basis, Debye-Ang):
   XX=            -68.8710   YY=            -78.3531   ZZ=            -59.3890
   XY=             -3.9564   XZ=             -1.7322   YZ=             -0.2121

 Normal termination of Gaussian 16 at Sun Dec  3 18:35:45 2023.
