 Gaussian 16, Revision B.01,
 Gaussian 16:  ES64L-G16RevB.01 20-Dec-2017

 -------------------------
 #P B3LYP/6-311+g(d) force
 -------------------------

 -----
 DPGEN
 -----
 Symbolic Z-matrix:
 Charge =  0 Multiplicity = 2

                         Standard orientation:
 ---------------------------------------------------------------------
 Center     Atomic      Atomic             Coordinates (Angstroms)
 Number     Number       Type             X           Y           Z
 ---------------------------------------------------------------------
      1         11           0        0.383184   -3.354856   -0.605255
      2         11           0        0.903274    3.612665    0.810089
      3         11           0       -1.804813   -2.633106    1.068444
      4         11           0       -3.819610   -0.283128   -0.235049
      5         11           0       -2.727333    2.545918   -0.647527
      6         11           0        3.120521    1.591311   -0.371181
      7         11           0        3.944777   -1.478804   -0.019521
 ---------------------------------------------------------------------

 SCF Done:  E(UB3LYP) =  -1136.10703292     A.U. after   19 cycles

 The electronic state is 2-A.
 Alpha  occ. eigenvalues --  -38.45007 -38.44679 -38.44410 -38.44390 -38.44234
 Alpha  occ. eigenvalues --  -38.44095 -38.44071  -2.20826  -2.20472  -2.20278
 Alpha  occ. eigenvalues --   -2.20228  -2.20052  -2.19911  -2.19882  -1.14617
 Alpha  occ. eigenvalues --   -1.14469  -1.14445  -1.14196  -1.14135  -1.14108
 Alpha  occ. eigenvalues --   -1.13942  -1.13921  -1.13901  -1.13878  -1.13866
 Alpha  occ. eigenvalues --   -1.13833  -1.13768  -1.13734  -1.13719  -1.13551
 Alpha  occ. eigenvalues --   -1.13548  -1.13530  -1.13523  -1.13509  -1.13500
 Alpha  occ. eigenvalues --   -0.15951  -0.14146  -0.13508  -0.10890
 Alpha virt. eigenvalues --   -0.07164  -0.04823  -0.04094  -0.03759  -0.03294
 Alpha virt. eigenvalues --   -0.02578  -0.02237  -0.01593  -0.01478  -0.00741
 Alpha virt. eigenvalues --   -0.00261   0.00027   0.00099   0.00555   0.00695

  Beta  occ. eigenvalues --  -38.44993 -38.44660 -38.44384 -38.44361 -38.44225
  Beta  occ. eigenvalues --  -38.44020 -38.43995  -2.20806  -2.20443  -2.20232
  Beta  occ. eigenvalues --   -2.20178  -2.20045  -2.19772  -2.19742  -1.14584
  Beta  occ. eigenvalues --   -1.14459  -1.14426  -1.14159  -1.14118  -1.14077
  Beta  occ. eigenvalues --   -1.13907  -1.13891  -1.13868  -1.13845  -1.13833
  Beta  occ. eigenvalues --   -1.13788  -1.13735  -1.13722  -1.13694  -1.13459
  Beta  occ. eigenvalues --   -1.13455  -1.13437  -1.13429  -1.13418  -1.13407
  Beta  occ. eigenvalues --   -0.15516  -0.13294  -0.12714
  Beta virt. eigenvalues --   -0.07710  -0.07338  -0.04510  -0.03670  -0.03504
  Beta virt. eigenvalues --   -0.02826  -0.02337  -0.01936  -0.01449  -0.01300
  Beta virt. eigenvalues --   -0.00440  -0.00066   0.00209   0.00291   0.00526

 Mulliken charges and spin densities:
               1          2
     1  Na  -0.004774  -0.012404
     2  Na   0.129467   0.318725
     3  Na  -0.165233   0.142618
     4  Na   0.230650   0.123659
     5  Na  -0.000017   0.031244
     6  Na  -0.398737   0.044825
     7  Na   0.208645   0.351333
 Sum of Mulliken charges =  -0.00000   1.00000

 Dipole moment (field-independent basis, Debye):
    X=             -0.5912    Y=             -0.5821    Z=              0.0009  Tot=              0.8297
 Quadrupole moment (field-independent basis, Debye-Ang):
   XX=            -68.6638   YY=            -65.2778   ZZ=            -69.0967
   XY=             -1.6512   XZ=             -1.3624   YZ=              0.5036

 Normal termination of Gaussian 16 at Sun Dec  3 19:42:27 2023.
