 Gaussian 16, Revision B.01,
 Gaussian 16:  ES64L-G16RevB.01 20-Dec-2017

 -------------------------
 #P B3LYP/6-311+g(d) force
 -------------------------

 -----
 DPGEN
 -----
 Symbolic Z-matrix:
 Charge =  0 Multiplicity = 2

                         Standard orientation:
 ---------------------------------------------------------------------
 Center     Atomic      Atomic             Coordinates (Angstroms)
 Number     Number       Type             X           Y           Z
 ---------------------------------------------------------------------
      1         11           0        0.120275   -0.307227   -1.650143
      2         11           0       -0.931255    2.575149   -0.137806
      3         11           0        2.580262   -1.685811   -0.101874
      4         11           0       -0.293068    0.205530    2.109706
      5         11           0        2.327275    1.848539   -0.063074
      6         11           0       -0.822089   -2.462095    0.292023
      7         11           0       -2.981400   -0.174086   -0.448832
 ---------------------------------------------------------------------

 SCF Done:  E(UB3LYP) =  -1136.13793325     A.U. after   19 cycles

 The electronic state is 2-A.
 Alpha  occ. eigenvalues --  -38.43775 -38.43665 -38.43596 -38.43592 -38.43230
 Alpha  occ. eigenvalues --  -38.43176 -38.43126  -2.19692  -2.19554  -2.19446
 Alpha  occ. eigenvalues --   -2.19442  -2.19264  -2.19124  -2.19024  -1.13364
 Alpha  occ. eigenvalues --   -1.13334  -1.13304  -1.13247  -1.13214  -1.13193
 Alpha  occ. eigenvalues --   -1.13162  -1.13127  -1.13115  -1.13098  -1.13098
 Alpha  occ. eigenvalues --   -1.13058  -1.13003  -1.12913  -1.12868  -1.12792
 Alpha  occ. eigenvalues --   -1.12760  -1.12723  -1.12699  -1.12690  -1.12648
 Alpha  occ. eigenvalues --   -0.19173  -0.13021  -0.12635  -0.11162
 Alpha virt. eigenvalues --   -0.05244  -0.05114  -0.04472  -0.03203  -0.03105
 Alpha virt. eigenvalues --   -0.02782  -0.01368  -0.00958  -0.00104  -0.00049
 Alpha virt. eigenvalues --    0.00050   0.00362   0.00842   0.00940   0.00965

  Beta  occ. eigenvalues --  -38.43675 -38.43653 -38.43595 -38.43590 -38.43167
  Beta  occ. eigenvalues --  -38.43163 -38.43119  -2.19536  -2.19509  -2.19447
  Beta  occ. eigenvalues --   -2.19441  -2.19150  -2.19105  -2.19015  -1.13253
  Beta  occ. eigenvalues --   -1.13226  -1.13202  -1.13194  -1.13181  -1.13161
  Beta  occ. eigenvalues --   -1.13151  -1.13122  -1.13111  -1.13088  -1.13084
  Beta  occ. eigenvalues --   -1.13061  -1.12949  -1.12839  -1.12784  -1.12759
  Beta  occ. eigenvalues --   -1.12718  -1.12707  -1.12691  -1.12658  -1.12641
  Beta  occ. eigenvalues --   -0.18413  -0.12774  -0.12386
  Beta virt. eigenvalues --   -0.07159  -0.05201  -0.05118  -0.04445  -0.02421
  Beta virt. eigenvalues --   -0.02280  -0.01688  -0.01273  -0.00908  -0.00099
  Beta virt. eigenvalues --   -0.00062   0.00122   0.00387   0.00912   0.00925

 Mulliken charges and spin densities:
               1          2
     1  Na  -0.494773   0.418600
     2  Na   0.207202  -0.014577
     3  Na   0.162228  -0.065784
     4  Na  -0.606550   0.640584
     5  Na   0.045265  -0.078730
     6  Na   0.409218   0.093761
     7  Na   0.277410   0.006147
 Sum of Mulliken charges =  -0.00000   1.00000

 Dipole moment (field-independent basis, Debye):
    X=              0.1067    Y=              0.0531    Z=              0.1808  Tot=              0.2165
 Quadrupole moment (field-independent basis, Debye-Ang):
   XX=            -57.6081   YY=            -64.6667   ZZ=            -72.1004
   XY=             -0.2782   XZ=              1.1248   YZ=             -0.9299

 Normal termination of Gaussian 16 at Wed Dec  6 00:47:13 2023.
