 Gaussian 16, Revision B.01,
 Gaussian 16:  ES64L-G16RevB.01 20-Dec-2017

 -------------------------
 #P B3LYP/6-311+g(d) force
 -------------------------

 -----
 DPGEN
 -----
 Symbolic Z-matrix:
 Charge =  0 Multiplicity = 2

                         Standard orientation:
 ---------------------------------------------------------------------
 Center     Atomic      Atomic             Coordinates (Angstroms)
 Number     Number       Type             X           Y           Z
 ---------------------------------------------------------------------
      1         11           0       -0.528493   -2.036769   -0.029325
      2         11           0       -2.059319    0.881019   -1.298268
      3         11           0       -3.899699   -0.426030    0.779522
      4         11           0        1.302042    0.504849   -1.371483
      5         11           0        1.305198    0.350903    1.959502
      6         11           0        1.297940    3.047114    0.247428
      7         11           0        2.582331   -2.321086   -0.287377
 ---------------------------------------------------------------------

 SCF Done:  E(UB3LYP) =  -1136.12713974     A.U. after   20 cycles

 The electronic state is 2-A.
 Alpha  occ. eigenvalues --  -38.44274 -38.43896 -38.43774 -38.43761 -38.43710
 Alpha  occ. eigenvalues --  -38.43251 -38.43077  -2.20091  -2.19798  -2.19644
 Alpha  occ. eigenvalues --   -2.19641  -2.19611  -2.19127  -2.19102  -1.13793
 Alpha  occ. eigenvalues --   -1.13736  -1.13721  -1.13476  -1.13447  -1.13415
 Alpha  occ. eigenvalues --   -1.13364  -1.13352  -1.13324  -1.13308  -1.13297
 Alpha  occ. eigenvalues --   -1.13290  -1.13274  -1.13249  -1.13157  -1.12912
 Alpha  occ. eigenvalues --   -1.12799  -1.12778  -1.12752  -1.12734  -1.12647
 Alpha  occ. eigenvalues --   -0.18511  -0.13453  -0.12442  -0.10815
 Alpha virt. eigenvalues --   -0.06153  -0.04851  -0.04439  -0.03480  -0.02927
 Alpha virt. eigenvalues --   -0.02516  -0.01863  -0.01140  -0.00444  -0.00123
 Alpha virt. eigenvalues --    0.00232   0.00313   0.00614   0.00801   0.00828

  Beta  occ. eigenvalues --  -38.44260 -38.43819 -38.43771 -38.43734 -38.43699
  Beta  occ. eigenvalues --  -38.43249 -38.43024  -2.20064  -2.19656  -2.19640
  Beta  occ. eigenvalues --   -2.19596  -2.19593  -2.19126  -2.19010  -1.13777
  Beta  occ. eigenvalues --   -1.13717  -1.13702  -1.13390  -1.13362  -1.13350
  Beta  occ. eigenvalues --   -1.13335  -1.13314  -1.13305  -1.13282  -1.13262
  Beta  occ. eigenvalues --   -1.13257  -1.13244  -1.13211  -1.13152  -1.12893
  Beta  occ. eigenvalues --   -1.12773  -1.12744  -1.12724  -1.12653  -1.12598
  Beta  occ. eigenvalues --   -0.17792  -0.13264  -0.12197
  Beta virt. eigenvalues --   -0.07015  -0.05882  -0.04668  -0.04314  -0.03075
  Beta virt. eigenvalues --   -0.02277  -0.01797  -0.01614  -0.01030  -0.00241
  Beta virt. eigenvalues --    0.00003   0.00292   0.00419   0.00803   0.00828

 Mulliken charges and spin densities:
               1          2
     1  Na  -0.764610   0.212077
     2  Na  -0.093664  -0.040593
     3  Na   0.322940   0.059137
     4  Na  -0.185398   0.322251
     5  Na  -0.482997   0.521183
     6  Na   0.271659  -0.036413
     7  Na   0.932070  -0.037641
 Sum of Mulliken charges =  -0.00000   1.00000

 Dipole moment (field-independent basis, Debye):
    X=             -0.1902    Y=             -0.2341    Z=              0.3728  Tot=              0.4795
 Quadrupole moment (field-independent basis, Debye-Ang):
   XX=            -57.2436   YY=            -65.6193   ZZ=            -71.1428
   XY=             -2.4622   XZ=             -3.0585   YZ=             -0.9322

 Normal termination of Gaussian 16 at Tue Dec  5 11:46:14 2023.
