 Gaussian 16, Revision B.01,
 Gaussian 16:  ES64L-G16RevB.01 20-Dec-2017

 -------------------------
 #P B3LYP/6-311+g(d) force
 -------------------------

 -----
 DPGEN
 -----
 Symbolic Z-matrix:
 Charge =  0 Multiplicity = 2

                         Standard orientation:
 ---------------------------------------------------------------------
 Center     Atomic      Atomic             Coordinates (Angstroms)
 Number     Number       Type             X           Y           Z
 ---------------------------------------------------------------------
      1         11           0       -2.484565    2.149176   -0.200205
      2         11           0        0.507866   -0.388893   -1.544228
      3         11           0        3.215350   -0.134459    0.169291
      4         11           0        1.063526    2.779344   -0.293959
      5         11           0       -0.104857    0.168382    2.028874
      6         11           0       -2.665790   -1.650766   -0.109350
      7         11           0        0.468470   -2.922785   -0.050422
 ---------------------------------------------------------------------

 SCF Done:  E(UB3LYP) =  -1136.13542527     A.U. after   19 cycles

 The electronic state is 2-A.
 Alpha  occ. eigenvalues --  -38.44025 -38.43940 -38.43888 -38.43769 -38.43725
 Alpha  occ. eigenvalues --  -38.43416 -38.43200  -2.19854  -2.19752  -2.19669
 Alpha  occ. eigenvalues --   -2.19611  -2.19598  -2.19289  -2.19192  -1.13545
 Alpha  occ. eigenvalues --   -1.13510  -1.13491  -1.13430  -1.13426  -1.13400
 Alpha  occ. eigenvalues --   -1.13383  -1.13343  -1.13327  -1.13318  -1.13284
 Alpha  occ. eigenvalues --   -1.13265  -1.13253  -1.13216  -1.13212  -1.12962
 Alpha  occ. eigenvalues --   -1.12914  -1.12903  -1.12859  -1.12824  -1.12797
 Alpha  occ. eigenvalues --   -0.18427  -0.12864  -0.12628  -0.10422
 Alpha virt. eigenvalues --   -0.05564  -0.05450  -0.05010  -0.02995  -0.02948
 Alpha virt. eigenvalues --   -0.02307  -0.01526  -0.01250  -0.00646  -0.00533
 Alpha virt. eigenvalues --    0.00002   0.00343   0.00798   0.00836   0.00847

  Beta  occ. eigenvalues --  -38.44020 -38.43938 -38.43886 -38.43761 -38.43718
  Beta  occ. eigenvalues --  -38.43319 -38.43145  -2.19849  -2.19751  -2.19668
  Beta  occ. eigenvalues --   -2.19602  -2.19586  -2.19111  -2.19092  -1.13538
  Beta  occ. eigenvalues --   -1.13492  -1.13486  -1.13429  -1.13411  -1.13397
  Beta  occ. eigenvalues --   -1.13369  -1.13330  -1.13327  -1.13318  -1.13271
  Beta  occ. eigenvalues --   -1.13240  -1.13225  -1.13212  -1.13209  -1.12846
  Beta  occ. eigenvalues --   -1.12789  -1.12786  -1.12774  -1.12752  -1.12727
  Beta  occ. eigenvalues --   -0.17717  -0.12632  -0.12429
  Beta virt. eigenvalues --   -0.06536  -0.05540  -0.05453  -0.04907  -0.02235
  Beta virt. eigenvalues --   -0.02201  -0.01447  -0.01283  -0.01175  -0.00684
  Beta virt. eigenvalues --   -0.00583   0.00153   0.00383   0.00829   0.00836

 Mulliken charges and spin densities:
               1          2
     1  Na  -0.090803  -0.063652
     2  Na  -0.109516   0.450376
     3  Na   0.224192  -0.036698
     4  Na   0.039794  -0.048817
     5  Na  -0.434325   0.790407
     6  Na  -0.020308  -0.072092
     7  Na   0.390966  -0.019524
 Sum of Mulliken charges =  -0.00000   1.00000

 Dipole moment (field-independent basis, Debye):
    X=              0.0818    Y=             -0.0088    Z=              0.1290  Tot=              0.1530
 Quadrupole moment (field-independent basis, Debye-Ang):
   XX=            -56.2508   YY=            -60.5065   ZZ=            -76.1214
   XY=              0.2091   XZ=              1.3920   YZ=             -1.1775

 Normal termination of Gaussian 16 at Thu Dec  7 12:08:16 2023.
