 Gaussian 16, Revision B.01,
 Gaussian 16:  ES64L-G16RevB.01 20-Dec-2017

 -------------------------
 #P B3LYP/6-311+g(d) force
 -------------------------

 -----
 DPGEN
 -----
 Symbolic Z-matrix:
 Charge =  0 Multiplicity = 2

                         Standard orientation:
 ---------------------------------------------------------------------
 Center     Atomic      Atomic             Coordinates (Angstroms)
 Number     Number       Type             X           Y           Z
 ---------------------------------------------------------------------
      1         11           0        1.193577    2.163868    0.520291
      2         11           0        3.929297   -0.306736   -1.278360
      3         11           0       -2.151808    1.939210   -0.771079
      4         11           0        0.117388   -0.949791   -1.237818
      5         11           0        1.976706   -1.473950    1.550544
      6         11           0       -1.201822    0.194459    1.699263
      7         11           0       -3.863339   -1.567061   -0.482842
 ---------------------------------------------------------------------

 SCF Done:  E(UB3LYP) =  -1136.12434950     A.U. after   25 cycles

 The electronic state is 2-A.
 Alpha  occ. eigenvalues --  -38.44816 -38.44549 -38.44144 -38.44010 -38.43668
 Alpha  occ. eigenvalues --  -38.43658 -38.42845  -2.20651  -2.20336  -2.19998
 Alpha  occ. eigenvalues --   -2.19869  -2.19605  -2.19424  -2.18700  -1.14387
 Alpha  occ. eigenvalues --   -1.14333  -1.14236  -1.14000  -1.13989  -1.13948
 Alpha  occ. eigenvalues --   -1.13683  -1.13643  -1.13608  -1.13582  -1.13552
 Alpha  occ. eigenvalues --   -1.13446  -1.13308  -1.13250  -1.13203  -1.13105
 Alpha  occ. eigenvalues --   -1.13094  -1.13052  -1.12384  -1.12380  -1.12311
 Alpha  occ. eigenvalues --   -0.18264  -0.13704  -0.11205  -0.10941
 Alpha virt. eigenvalues --   -0.06639  -0.05280  -0.04870  -0.03007  -0.02750
 Alpha virt. eigenvalues --   -0.02299  -0.02216  -0.01291  -0.01069  -0.00258
 Alpha virt. eigenvalues --    0.00042   0.00232   0.00345   0.00511   0.00564

  Beta  occ. eigenvalues --  -38.44805 -38.44502 -38.44090 -38.43986 -38.43673
  Beta  occ. eigenvalues --  -38.43613 -38.42837  -2.20634  -2.20247  -2.19902
  Beta  occ. eigenvalues --   -2.19824  -2.19528  -2.19435  -2.18687  -1.14353
  Beta  occ. eigenvalues --   -1.14316  -1.14226  -1.13937  -1.13925  -1.13894
  Beta  occ. eigenvalues --   -1.13616  -1.13579  -1.13552  -1.13519  -1.13518
  Beta  occ. eigenvalues --   -1.13414  -1.13258  -1.13167  -1.13153  -1.13111
  Beta  occ. eigenvalues --   -1.13099  -1.13058  -1.12378  -1.12346  -1.12307
  Beta  occ. eigenvalues --   -0.17560  -0.13422  -0.10833
  Beta virt. eigenvalues --   -0.07347  -0.06387  -0.05109  -0.04347  -0.02862
  Beta virt. eigenvalues --   -0.02408  -0.01781  -0.01672  -0.01179  -0.00615
  Beta virt. eigenvalues --   -0.00151   0.00096   0.00340   0.00444   0.00583

 Mulliken charges and spin densities:
               1          2
     1  Na  -0.345196   0.151769
     2  Na   0.323868   0.232541
     3  Na   0.268194   0.089596
     4  Na  -0.699062   0.285516
     5  Na   0.051944   0.023576
     6  Na   0.367752   0.279653
     7  Na   0.032500  -0.062651
 Sum of Mulliken charges =  -0.00000   1.00000

 Dipole moment (field-independent basis, Debye):
    X=              0.5518    Y=              0.2971    Z=              0.0263  Tot=              0.6272
 Quadrupole moment (field-independent basis, Debye-Ang):
   XX=            -54.2178   YY=            -73.8006   ZZ=            -67.6948
   XY=             -1.0889   XZ=              0.1580   YZ=             -3.3933

 Normal termination of Gaussian 16 at Tue Dec  5 09:54:12 2023.
