 Gaussian 16, Revision B.01,
 Gaussian 16:  ES64L-G16RevB.01 20-Dec-2017

 -------------------------
 #P B3LYP/6-311+g(d) force
 -------------------------

 -----
 DPGEN
 -----
 Symbolic Z-matrix:
 Charge =  0 Multiplicity = 2

                         Standard orientation:
 ---------------------------------------------------------------------
 Center     Atomic      Atomic             Coordinates (Angstroms)
 Number     Number       Type             X           Y           Z
 ---------------------------------------------------------------------
      1         11           0        0.117067   -0.190095   -1.657382
      2         11           0       -2.043308    2.006775    0.178819
      3         11           0       -2.544578   -1.191304   -0.683789
      4         11           0       -0.345474   -0.034192    2.004851
      5         11           0        1.350498    2.571319   -0.124891
      6         11           0        0.349579   -2.697142    0.433470
      7         11           0        3.116216   -0.465361   -0.151078
 ---------------------------------------------------------------------

 SCF Done:  E(UB3LYP) =  -1136.13742816     A.U. after   19 cycles

 The electronic state is 2-A.
 Alpha  occ. eigenvalues --  -38.43807 -38.43704 -38.43536 -38.43399 -38.43313
 Alpha  occ. eigenvalues --  -38.43272 -38.43220  -2.19652  -2.19635  -2.19459
 Alpha  occ. eigenvalues --   -2.19303  -2.19248  -2.19207  -2.19130  -1.13330
 Alpha  occ. eigenvalues --   -1.13323  -1.13313  -1.13295  -1.13275  -1.13261
 Alpha  occ. eigenvalues --   -1.13243  -1.13096  -1.13086  -1.12984  -1.12964
 Alpha  occ. eigenvalues --   -1.12919  -1.12912  -1.12899  -1.12884  -1.12879
 Alpha  occ. eigenvalues --   -1.12854  -1.12821  -1.12815  -1.12778  -1.12738
 Alpha  occ. eigenvalues --   -0.19149  -0.12971  -0.12653  -0.11221
 Alpha virt. eigenvalues --   -0.05313  -0.04856  -0.04617  -0.03212  -0.03131
 Alpha virt. eigenvalues --   -0.02787  -0.01322  -0.00979  -0.00161  -0.00055
 Alpha virt. eigenvalues --    0.00094   0.00360   0.00882   0.00938   0.00957

  Beta  occ. eigenvalues --  -38.43806 -38.43610 -38.43513 -38.43397 -38.43306
  Beta  occ. eigenvalues --  -38.43206 -38.43205  -2.19637  -2.19479  -2.19420
  Beta  occ. eigenvalues --   -2.19247  -2.19199  -2.19181  -2.19107  -1.13315
  Beta  occ. eigenvalues --   -1.13294  -1.13274  -1.13226  -1.13191  -1.13184
  Beta  occ. eigenvalues --   -1.13144  -1.13070  -1.13044  -1.12953  -1.12907
  Beta  occ. eigenvalues --   -1.12897  -1.12889  -1.12869  -1.12850  -1.12825
  Beta  occ. eigenvalues --   -1.12817  -1.12810  -1.12783  -1.12735  -1.12727
  Beta  occ. eigenvalues --   -0.18410  -0.12710  -0.12384
  Beta virt. eigenvalues --   -0.07225  -0.05293  -0.04834  -0.04583  -0.02451
  Beta virt. eigenvalues --   -0.02318  -0.01701  -0.01231  -0.00907  -0.00108
  Beta virt. eigenvalues --   -0.00088   0.00147   0.00390   0.00912   0.00952

 Mulliken charges and spin densities:
               1          2
     1  Na  -0.268289   0.450438
     2  Na   0.172067  -0.000613
     3  Na   0.321204   0.060623
     4  Na  -0.343335   0.625085
     5  Na  -0.055622  -0.086436
     6  Na   0.199039   0.040774
     7  Na  -0.025064  -0.089871
 Sum of Mulliken charges =  -0.00000   1.00000

 Dipole moment (field-independent basis, Debye):
    X=              0.1750    Y=              0.0130    Z=              0.1512  Tot=              0.2316
 Quadrupole moment (field-independent basis, Debye-Ang):
   XX=            -58.6200   YY=            -63.4242   ZZ=            -72.2756
   XY=             -0.2310   XZ=              0.9966   YZ=             -0.1763

 Normal termination of Gaussian 16 at Tue Dec  5 13:57:50 2023.
