 Gaussian 16, Revision B.01,
 Gaussian 16:  ES64L-G16RevB.01 20-Dec-2017

 -------------------------
 #P B3LYP/6-311+g(d) force
 -------------------------

 -----
 DPGEN
 -----
 Symbolic Z-matrix:
 Charge =  0 Multiplicity = 2

                         Standard orientation:
 ---------------------------------------------------------------------
 Center     Atomic      Atomic             Coordinates (Angstroms)
 Number     Number       Type             X           Y           Z
 ---------------------------------------------------------------------
      1         11           0        3.767947   -0.323102   -0.112954
      2         11           0        1.353322   -3.023675   -0.208698
      3         11           0       -2.210649   -2.674328    0.310797
      4         11           0        0.099474   -0.033916   -0.401846
      5         11           0       -3.609079    0.295635    0.283198
      6         11           0       -1.926986    3.162004   -0.478342
      7         11           0        2.525972    2.597382    0.607846
 ---------------------------------------------------------------------

 SCF Done:  E(UB3LYP) =  -1136.12790578     A.U. after   22 cycles

 The electronic state is 2-A.
 Alpha  occ. eigenvalues --  -38.44684 -38.44272 -38.44178 -38.43952 -38.43529
 Alpha  occ. eigenvalues --  -38.43439 -38.43383  -2.20506  -2.20110  -2.20051
 Alpha  occ. eigenvalues --   -2.19772  -2.19341  -2.19292  -2.19237  -1.14188
 Alpha  occ. eigenvalues --   -1.14172  -1.14148  -1.13790  -1.13787  -1.13784
 Alpha  occ. eigenvalues --   -1.13747  -1.13704  -1.13677  -1.13430  -1.13414
 Alpha  occ. eigenvalues --   -1.13404  -1.12996  -1.12985  -1.12967  -1.12959
 Alpha  occ. eigenvalues --   -1.12957  -1.12921  -1.12901  -1.12893  -1.12850
 Alpha  occ. eigenvalues --   -0.17129  -0.14139  -0.12959  -0.09973
 Alpha virt. eigenvalues --   -0.06655  -0.05529  -0.04246  -0.03162  -0.02984
 Alpha virt. eigenvalues --   -0.02290  -0.02044  -0.01667  -0.01399  -0.00240
 Alpha virt. eigenvalues --    0.00141   0.00189   0.00553   0.00624   0.00703

  Beta  occ. eigenvalues --  -38.44672 -38.44248 -38.44184 -38.43903 -38.43476
  Beta  occ. eigenvalues --  -38.43396 -38.43346  -2.20491  -2.20072  -2.20058
  Beta  occ. eigenvalues --   -2.19683  -2.19242  -2.19217  -2.19168  -1.14184
  Beta  occ. eigenvalues --   -1.14166  -1.14092  -1.13788  -1.13770  -1.13761
  Beta  occ. eigenvalues --   -1.13719  -1.13687  -1.13673  -1.13371  -1.13358
  Beta  occ. eigenvalues --   -1.13329  -1.12929  -1.12920  -1.12909  -1.12909
  Beta  occ. eigenvalues --   -1.12903  -1.12864  -1.12847  -1.12845  -1.12803
  Beta  occ. eigenvalues --   -0.16834  -0.13339  -0.12409
  Beta virt. eigenvalues --   -0.06743  -0.06586  -0.05288  -0.04096  -0.02684
  Beta virt. eigenvalues --   -0.02440  -0.02111  -0.01775  -0.01416  -0.01199
  Beta virt. eigenvalues --   -0.00072   0.00349   0.00411   0.00592   0.00693

 Mulliken charges and spin densities:
               1          2
     1  Na   0.219913   0.078391
     2  Na   1.662924   0.135783
     3  Na   0.087797   0.260019
     4  Na  -3.737771  -0.130497
     5  Na   0.605113   0.113270
     6  Na   0.720666   0.289498
     7  Na   0.441358   0.253536
 Sum of Mulliken charges =  -0.00000   1.00000

 Dipole moment (field-independent basis, Debye):
    X=              0.5881    Y=             -0.1385    Z=              0.1089  Tot=              0.6139
 Quadrupole moment (field-independent basis, Debye-Ang):
   XX=            -61.4816   YY=            -62.8491   ZZ=            -72.6457
   XY=             -5.1034   XZ=             -1.0863   YZ=              0.5004

 Normal termination of Gaussian 16 at Fri Dec  8 18:15:46 2023.
