 Gaussian 16, Revision B.01,
 Gaussian 16:  ES64L-G16RevB.01 20-Dec-2017

 -------------------------
 #P B3LYP/6-311+g(d) force
 -------------------------

 -----
 DPGEN
 -----
 Symbolic Z-matrix:
 Charge =  0 Multiplicity = 2

                         Standard orientation:
 ---------------------------------------------------------------------
 Center     Atomic      Atomic             Coordinates (Angstroms)
 Number     Number       Type             X           Y           Z
 ---------------------------------------------------------------------
      1         11           0        1.786710   -2.449012    0.049103
      2         11           0        0.129893    2.834038    0.139618
      3         11           0        0.113370   -0.224678   -1.788992
      4         11           0        0.008628    0.011317    1.958206
      5         11           0       -3.223539    0.863569   -0.292949
      6         11           0       -1.935105   -1.987411    0.130861
      7         11           0        3.120043    0.952176   -0.195846
 ---------------------------------------------------------------------

 SCF Done:  E(UB3LYP) =  -1136.13748544     A.U. after   19 cycles

 The electronic state is 2-A.
 Alpha  occ. eigenvalues --  -38.44343 -38.44214 -38.43509 -38.43465 -38.43414
 Alpha  occ. eigenvalues --  -38.43361 -38.43152  -2.20150  -2.20032  -2.19442
 Alpha  occ. eigenvalues --   -2.19384  -2.19318  -2.19204  -2.18988  -1.13828
 Alpha  occ. eigenvalues --   -1.13804  -1.13789  -1.13722  -1.13691  -1.13664
 Alpha  occ. eigenvalues --   -1.13149  -1.13089  -1.13073  -1.13069  -1.13037
 Alpha  occ. eigenvalues --   -1.13004  -1.12975  -1.12963  -1.12937  -1.12874
 Alpha  occ. eigenvalues --   -1.12864  -1.12835  -1.12673  -1.12658  -1.12609
 Alpha  occ. eigenvalues --   -0.18624  -0.13185  -0.12196  -0.10774
 Alpha virt. eigenvalues --   -0.05967  -0.05149  -0.04408  -0.03278  -0.02814
 Alpha virt. eigenvalues --   -0.02578  -0.01786  -0.01129  -0.00360  -0.00222
 Alpha virt. eigenvalues --   -0.00033   0.00346   0.00760   0.00876   0.00896

  Beta  occ. eigenvalues --  -38.44340 -38.44210 -38.43440 -38.43405 -38.43372
  Beta  occ. eigenvalues --  -38.43358 -38.43146  -2.20147  -2.20027  -2.19316
  Beta  occ. eigenvalues --   -2.19306  -2.19213  -2.19200  -2.18981  -1.13810
  Beta  occ. eigenvalues --   -1.13804  -1.13788  -1.13722  -1.13672  -1.13661
  Beta  occ. eigenvalues --   -1.13077  -1.13011  -1.12999  -1.12982  -1.12941
  Beta  occ. eigenvalues --   -1.12930  -1.12928  -1.12891  -1.12875  -1.12856
  Beta  occ. eigenvalues --   -1.12847  -1.12827  -1.12664  -1.12632  -1.12609
  Beta  occ. eigenvalues --   -0.17881  -0.12955  -0.11952
  Beta virt. eigenvalues --   -0.06877  -0.05900  -0.05156  -0.04372  -0.02510
  Beta virt. eigenvalues --   -0.02029  -0.01679  -0.01531  -0.01081  -0.00402
  Beta virt. eigenvalues --   -0.00265   0.00104   0.00366   0.00819   0.00876

 Mulliken charges and spin densities:
               1          2
     1  Na   0.176065  -0.109794
     2  Na   0.021509  -0.110669
     3  Na  -0.306961   0.657800
     4  Na  -0.291648   0.712487
     5  Na  -0.027401  -0.041845
     6  Na   0.370052  -0.011485
     7  Na   0.058384  -0.096493
 Sum of Mulliken charges =  -0.00000   1.00000

 Dipole moment (field-independent basis, Debye):
    X=              0.1647    Y=              0.1043    Z=             -0.0420  Tot=              0.1994
 Quadrupole moment (field-independent basis, Debye-Ang):
   XX=            -53.8060   YY=            -65.3275   ZZ=            -74.1328
   XY=             -0.9720   XZ=              0.3602   YZ=             -0.8711

 Normal termination of Gaussian 16 at Thu Dec  7 20:03:31 2023.
