 Gaussian 16, Revision B.01,
 Gaussian 16:  ES64L-G16RevB.01 20-Dec-2017

 -------------------------
 #P B3LYP/6-311+g(d) force
 -------------------------

 -----
 DPGEN
 -----
 Symbolic Z-matrix:
 Charge =  0 Multiplicity = 2

                         Standard orientation:
 ---------------------------------------------------------------------
 Center     Atomic      Atomic             Coordinates (Angstroms)
 Number     Number       Type             X           Y           Z
 ---------------------------------------------------------------------
      1         11           0        3.561136   -2.580916   -0.406347
      2         11           0        4.542565    0.858115    0.560398
      3         11           0       -0.005577   -2.867001   -0.123180
      4         11           0       -3.842189   -2.113616    0.441620
      5         11           0       -4.715014    0.711149   -0.188196
      6         11           0        1.867830    2.731732   -0.210687
      7         11           0       -1.408751    3.260537   -0.073608
 ---------------------------------------------------------------------

 SCF Done:  E(UB3LYP) =  -1136.10610923     A.U. after   23 cycles

 The electronic state is 2-A.
 Alpha  occ. eigenvalues --  -38.45175 -38.45110 -38.44808 -38.44642 -38.44312
 Alpha  occ. eigenvalues --  -38.44114 -38.44061  -2.20978  -2.20847  -2.20613
 Alpha  occ. eigenvalues --   -2.20402  -2.20122  -2.19901  -2.19849  -1.14694
 Alpha  occ. eigenvalues --   -1.14629  -1.14608  -1.14536  -1.14515  -1.14495
 Alpha  occ. eigenvalues --   -1.14268  -1.14261  -1.14250  -1.14068  -1.14060
 Alpha  occ. eigenvalues --   -1.14008  -1.13781  -1.13769  -1.13740  -1.13590
 Alpha  occ. eigenvalues --   -1.13582  -1.13564  -1.13502  -1.13490  -1.13457
 Alpha  occ. eigenvalues --   -0.15491  -0.14239  -0.13022  -0.11016
 Alpha virt. eigenvalues --   -0.07750  -0.04808  -0.04667  -0.03611  -0.03494
 Alpha virt. eigenvalues --   -0.02647  -0.02102  -0.01800  -0.01123  -0.00875
 Alpha virt. eigenvalues --   -0.00806  -0.00235  -0.00026   0.00396   0.00552

  Beta  occ. eigenvalues --  -38.45145 -38.45124 -38.44794 -38.44580 -38.44236
  Beta  occ. eigenvalues --  -38.44114 -38.44003  -2.20925  -2.20878  -2.20591
  Beta  occ. eigenvalues --   -2.20286  -2.19980  -2.19909  -2.19742  -1.14650
  Beta  occ. eigenvalues --   -1.14595  -1.14566  -1.14561  -1.14539  -1.14487
  Beta  occ. eigenvalues --   -1.14256  -1.14248  -1.14214  -1.13990  -1.13982
  Beta  occ. eigenvalues --   -1.13931  -1.13691  -1.13672  -1.13649  -1.13594
  Beta  occ. eigenvalues --   -1.13589  -1.13523  -1.13430  -1.13420  -1.13387
  Beta  occ. eigenvalues --   -0.14929  -0.13605  -0.12249
  Beta virt. eigenvalues --   -0.07920  -0.07834  -0.04327  -0.04164  -0.03391
  Beta virt. eigenvalues --   -0.03183  -0.02455  -0.02035  -0.01638  -0.00885
  Beta virt. eigenvalues --   -0.00573  -0.00489  -0.00020   0.00219   0.00432

 Mulliken charges and spin densities:
               1          2
     1  Na   0.185951  -0.161696
     2  Na   0.290496   0.344078
     3  Na  -0.226704   0.296509
     4  Na   0.266495   0.135385
     5  Na  -0.097603   0.146997
     6  Na  -0.608738  -0.025700
     7  Na   0.190103   0.264427
 Sum of Mulliken charges =  -0.00000   1.00000

 Dipole moment (field-independent basis, Debye):
    X=             -0.6049    Y=             -0.6427    Z=              0.0198  Tot=              0.8828
 Quadrupole moment (field-independent basis, Debye-Ang):
   XX=            -55.0560   YY=            -69.1789   ZZ=            -73.8936
   XY=             -5.2531   XZ=              0.1097   YZ=             -0.6104

 Normal termination of Gaussian 16 at Sun Dec  3 21:55:44 2023.
