 Gaussian 16, Revision B.01,
 Gaussian 16:  ES64L-G16RevB.01 20-Dec-2017

 -------------------------
 #P B3LYP/6-311+g(d) force
 -------------------------

 -----
 DPGEN
 -----
 Symbolic Z-matrix:
 Charge =  0 Multiplicity = 2

                         Standard orientation:
 ---------------------------------------------------------------------
 Center     Atomic      Atomic             Coordinates (Angstroms)
 Number     Number       Type             X           Y           Z
 ---------------------------------------------------------------------
      1         11           0       -7.249528    0.708627   -0.188736
      2         11           0        4.521779    2.178928    0.182923
      3         11           0       -1.920216   -0.737939   -0.565523
      4         11           0       -4.428221   -0.489090    1.300870
      5         11           0        2.305009   -1.698268   -1.335638
      6         11           0        5.229638   -1.204381    1.253641
      7         11           0        1.541539    1.242122   -0.647537
 ---------------------------------------------------------------------

 SCF Done:  E(UB3LYP) =  -1136.10314647     A.U. after   27 cycles

 The electronic state is 2-A.
 Alpha  occ. eigenvalues --  -38.45357 -38.45227 -38.44527 -38.44385 -38.44302
 Alpha  occ. eigenvalues --  -38.44072 -38.43802  -2.21106  -2.21016  -2.20336
 Alpha  occ. eigenvalues --   -2.20153  -2.20087  -2.19939  -2.19630  -1.14769
 Alpha  occ. eigenvalues --   -1.14768  -1.14735  -1.14734  -1.14688  -1.14597
 Alpha  occ. eigenvalues --   -1.14055  -1.14000  -1.13964  -1.13825  -1.13800
 Alpha  occ. eigenvalues --   -1.13782  -1.13768  -1.13760  -1.13682  -1.13645
 Alpha  occ. eigenvalues --   -1.13606  -1.13554  -1.13291  -1.13285  -1.13241
 Alpha  occ. eigenvalues --   -0.16163  -0.14418  -0.11442  -0.10900
 Alpha virt. eigenvalues --   -0.07913  -0.05091  -0.04414  -0.03455  -0.02843
 Alpha virt. eigenvalues --   -0.02699  -0.02619  -0.02032  -0.00948  -0.00852
 Alpha virt. eigenvalues --   -0.00583  -0.00240   0.00072   0.00291   0.00430

  Beta  occ. eigenvalues --  -38.45337 -38.45194 -38.44532 -38.44343 -38.44291
  Beta  occ. eigenvalues --  -38.44031 -38.43752  -2.21068  -2.20954  -2.20347
  Beta  occ. eigenvalues --   -2.20075  -2.20065  -2.19866  -2.19540  -1.14743
  Beta  occ. eigenvalues --   -1.14742  -1.14711  -1.14693  -1.14644  -1.14546
  Beta  occ. eigenvalues --   -1.14057  -1.14009  -1.13967  -1.13773  -1.13753
  Beta  occ. eigenvalues --   -1.13743  -1.13737  -1.13733  -1.13675  -1.13598
  Beta  occ. eigenvalues --   -1.13561  -1.13473  -1.13231  -1.13216  -1.13172
  Beta  occ. eigenvalues --   -0.15596  -0.14187  -0.11372
  Beta virt. eigenvalues --   -0.07767  -0.06867  -0.04880  -0.04125  -0.03231
  Beta virt. eigenvalues --   -0.02733  -0.02470  -0.01914  -0.01809  -0.00782
  Beta virt. eigenvalues --   -0.00610  -0.00416   0.00067   0.00135   0.00396

 Mulliken charges and spin densities:
               1          2
     1  Na   0.238088   0.103679
     2  Na   0.503781   0.037162
     3  Na  -0.352261   0.017305
     4  Na   0.047114  -0.009765
     5  Na   0.032113   0.319078
     6  Na  -0.035709   0.194837
     7  Na  -0.433126   0.337705
 Sum of Mulliken charges =  -0.00000   1.00000

 Dipole moment (field-independent basis, Debye):
    X=             -1.3943    Y=             -0.0990    Z=             -0.0577  Tot=              1.3990
 Quadrupole moment (field-independent basis, Debye-Ang):
   XX=            -52.7159   YY=            -71.5261   ZZ=            -67.5085
   XY=             -3.3726   XZ=              3.9957   YZ=             -0.4715

 Normal termination of Gaussian 16 at Mon Dec  4 02:15:12 2023.
