 Gaussian 16, Revision B.01,
 Gaussian 16:  ES64L-G16RevB.01 20-Dec-2017

 -------------------------
 #P B3LYP/6-311+g(d) force
 -------------------------

 -----
 DPGEN
 -----
 Symbolic Z-matrix:
 Charge =  0 Multiplicity = 2

                         Standard orientation:
 ---------------------------------------------------------------------
 Center     Atomic      Atomic             Coordinates (Angstroms)
 Number     Number       Type             X           Y           Z
 ---------------------------------------------------------------------
      1         11           0        1.800122    2.240501   -0.295830
      2         11           0        2.816715   -1.014348   -1.059139
      3         11           0       -1.537491    1.625881    0.819247
      4         11           0       -3.602691    0.036130   -0.782054
      5         11           0        0.020599   -0.596360   -1.769075
      6         11           0       -1.022287   -1.947638    1.065119
      7         11           0        1.525034   -0.344165    2.021731
 ---------------------------------------------------------------------

 SCF Done:  E(UB3LYP) =  -1136.12521936     A.U. after   25 cycles

 The electronic state is 2-A.
 Alpha  occ. eigenvalues --  -38.44772 -38.44406 -38.44341 -38.44141 -38.43329
 Alpha  occ. eigenvalues --  -38.43088 -38.42665  -2.20605  -2.20306  -2.20255
 Alpha  occ. eigenvalues --   -2.20088  -2.19222  -2.18975  -2.18520  -1.14297
 Alpha  occ. eigenvalues --   -1.14260  -1.14220  -1.14120  -1.13964  -1.13952
 Alpha  occ. eigenvalues --   -1.13902  -1.13866  -1.13857  -1.13750  -1.13702
 Alpha  occ. eigenvalues --   -1.13688  -1.12931  -1.12878  -1.12821  -1.12655
 Alpha  occ. eigenvalues --   -1.12654  -1.12605  -1.12197  -1.12186  -1.12156
 Alpha  occ. eigenvalues --   -0.18893  -0.13878  -0.12082  -0.11106
 Alpha virt. eigenvalues --   -0.06260  -0.04807  -0.04451  -0.03479  -0.02863
 Alpha virt. eigenvalues --   -0.02780  -0.02023  -0.00834  -0.00529   0.00099
 Alpha virt. eigenvalues --    0.00245   0.00302   0.00467   0.00824   0.00939

  Beta  occ. eigenvalues --  -38.44761 -38.44376 -38.44261 -38.44084 -38.43295
  Beta  occ. eigenvalues --  -38.43080 -38.42661  -2.20584  -2.20254  -2.20111
  Beta  occ. eigenvalues --   -2.19985  -2.19164  -2.18965  -2.18515  -1.14286
  Beta  occ. eigenvalues --   -1.14239  -1.14208  -1.14061  -1.13916  -1.13866
  Beta  occ. eigenvalues --   -1.13843  -1.13779  -1.13751  -1.13681  -1.13632
  Beta  occ. eigenvalues --   -1.13613  -1.12886  -1.12819  -1.12781  -1.12651
  Beta  occ. eigenvalues --   -1.12620  -1.12603  -1.12192  -1.12179  -1.12145
  Beta  occ. eigenvalues --   -0.18127  -0.13637  -0.10881
  Beta virt. eigenvalues --   -0.07997  -0.06117  -0.04629  -0.03984  -0.03040
  Beta virt. eigenvalues --   -0.02201  -0.02072  -0.01862  -0.00604  -0.00337
  Beta virt. eigenvalues --    0.00158   0.00280   0.00394   0.00516   0.00867

 Mulliken charges and spin densities:
               1          2
     1  Na  -0.320671  -0.013713
     2  Na   0.400242  -0.033422
     3  Na  -0.623525   0.041393
     4  Na   0.795220  -0.051607
     5  Na  -0.212818   0.540771
     6  Na  -0.397455   0.039853
     7  Na   0.359008   0.476725
 Sum of Mulliken charges =  -0.00000   1.00000

 Dipole moment (field-independent basis, Debye):
    X=             -0.3256    Y=             -0.4564    Z=             -0.2611  Tot=              0.6184
 Quadrupole moment (field-independent basis, Debye-Ang):
   XX=            -50.9279   YY=            -77.8137   ZZ=            -66.1307
   XY=             -0.0113   XZ=              1.9829   YZ=             -1.1025

 Normal termination of Gaussian 16 at Thu Dec  7 04:24:49 2023.
