 Gaussian 16, Revision B.01,
 Gaussian 16:  ES64L-G16RevB.01 20-Dec-2017

 -------------------------
 #P B3LYP/6-311+g(d) force
 -------------------------

 -----
 DPGEN
 -----
 Symbolic Z-matrix:
 Charge =  0 Multiplicity = 2

                         Standard orientation:
 ---------------------------------------------------------------------
 Center     Atomic      Atomic             Coordinates (Angstroms)
 Number     Number       Type             X           Y           Z
 ---------------------------------------------------------------------
      1         11           0        4.288696   -0.075561   -0.656648
      2         11           0       -3.932709   -1.260438   -1.225282
      3         11           0       -2.239689    1.315753    1.203490
      4         11           0       -1.425394   -2.536497    0.312662
      5         11           0        2.289416   -2.170032    1.060937
      6         11           0       -0.397084    3.875808    0.168400
      7         11           0        1.416764    0.850967   -0.863558
 ---------------------------------------------------------------------

 SCF Done:  E(UB3LYP) =  -1136.12254249     A.U. after   20 cycles

 The electronic state is 2-A.
 Alpha  occ. eigenvalues --  -38.44938 -38.44622 -38.44006 -38.43896 -38.43699
 Alpha  occ. eigenvalues --  -38.43591 -38.43555  -2.20717  -2.20464  -2.19835
 Alpha  occ. eigenvalues --   -2.19769  -2.19515  -2.19417  -2.19353  -1.14415
 Alpha  occ. eigenvalues --   -1.14392  -1.14322  -1.14175  -1.14146  -1.14091
 Alpha  occ. eigenvalues --   -1.13507  -1.13495  -1.13474  -1.13436  -1.13402
 Alpha  occ. eigenvalues --   -1.13363  -1.13215  -1.13192  -1.13178  -1.13062
 Alpha  occ. eigenvalues --   -1.13056  -1.13018  -1.13017  -1.13013  -1.12994
 Alpha  occ. eigenvalues --   -0.16675  -0.14003  -0.12716  -0.10291
 Alpha virt. eigenvalues --   -0.06328  -0.05488  -0.04559  -0.03747  -0.02693
 Alpha virt. eigenvalues --   -0.02521  -0.01775  -0.01463  -0.00936  -0.00669
 Alpha virt. eigenvalues --   -0.00500   0.00026   0.00341   0.00478   0.00643

  Beta  occ. eigenvalues --  -38.44932 -38.44607 -38.43955 -38.43850 -38.43681
  Beta  occ. eigenvalues --  -38.43557 -38.43534  -2.20707  -2.20440  -2.19742
  Beta  occ. eigenvalues --   -2.19685  -2.19489  -2.19358  -2.19309  -1.14405
  Beta  occ. eigenvalues --   -1.14387  -1.14312  -1.14153  -1.14109  -1.14078
  Beta  occ. eigenvalues --   -1.13447  -1.13433  -1.13399  -1.13370  -1.13344
  Beta  occ. eigenvalues --   -1.13303  -1.13198  -1.13179  -1.13117  -1.13021
  Beta  occ. eigenvalues --   -1.13019  -1.12997  -1.12988  -1.12981  -1.12947
  Beta  occ. eigenvalues --   -0.16218  -0.13605  -0.12285
  Beta virt. eigenvalues --   -0.06742  -0.06245  -0.05268  -0.04103  -0.03488
  Beta virt. eigenvalues --   -0.02418  -0.02224  -0.01556  -0.01077  -0.00880
  Beta virt. eigenvalues --   -0.00317  -0.00186   0.00249   0.00406   0.00659

 Mulliken charges and spin densities:
               1          2
     1  Na   0.441163   0.184642
     2  Na   0.327293   0.353898
     3  Na  -0.015760   0.070582
     4  Na  -0.325833   0.053940
     5  Na   0.094144   0.244721
     6  Na   0.508269  -0.009038
     7  Na  -1.029276   0.101256
 Sum of Mulliken charges =  -0.00000   1.00000

 Dipole moment (field-independent basis, Debye):
    X=              0.4759    Y=              0.6293    Z=              0.1633  Tot=              0.8057
 Quadrupole moment (field-independent basis, Debye-Ang):
   XX=            -61.4483   YY=            -67.7179   ZZ=            -68.8993
   XY=             -3.9004   XZ=              0.5780   YZ=             -0.4125

 Normal termination of Gaussian 16 at Mon Dec  4 00:58:08 2023.
