 Gaussian 16, Revision B.01,
 Gaussian 16:  ES64L-G16RevB.01 20-Dec-2017

 -------------------------
 #P B3LYP/6-311+g(d) force
 -------------------------

 -----
 DPGEN
 -----
 Symbolic Z-matrix:
 Charge =  0 Multiplicity = 2

                         Standard orientation:
 ---------------------------------------------------------------------
 Center     Atomic      Atomic             Coordinates (Angstroms)
 Number     Number       Type             X           Y           Z
 ---------------------------------------------------------------------
      1         11           0        0.116805   -0.380648    2.154432
      2         11           0        3.068131    0.415577   -0.207390
      3         11           0       -3.003251    1.780567   -0.002337
      4         11           0        1.412945   -2.782742   -0.235013
      5         11           0        1.092349    3.036534   -0.054054
      6         11           0       -2.391866   -1.965487   -0.133605
      7         11           0       -0.295113   -0.103801   -1.522032
 ---------------------------------------------------------------------

 SCF Done:  E(UB3LYP) =  -1136.13394383     A.U. after   20 cycles

 The electronic state is 2-A.
 Alpha  occ. eigenvalues --  -38.44433 -38.44216 -38.43811 -38.43789 -38.43634
 Alpha  occ. eigenvalues --  -38.43573 -38.43225  -2.20188  -2.20047  -2.19647
 Alpha  occ. eigenvalues --   -2.19584  -2.19462  -2.19425  -2.19173  -1.13866
 Alpha  occ. eigenvalues --   -1.13842  -1.13832  -1.13764  -1.13708  -1.13654
 Alpha  occ. eigenvalues --   -1.13344  -1.13317  -1.13300  -1.13253  -1.13234
 Alpha  occ. eigenvalues --   -1.13210  -1.13141  -1.13129  -1.13101  -1.13081
 Alpha  occ. eigenvalues --   -1.13046  -1.13039  -1.12865  -1.12821  -1.12786
 Alpha  occ. eigenvalues --   -0.18116  -0.12937  -0.12291  -0.10429
 Alpha virt. eigenvalues --   -0.05945  -0.05370  -0.04985  -0.03044  -0.02721
 Alpha virt. eigenvalues --   -0.02473  -0.01641  -0.01390  -0.00736  -0.00674
 Alpha virt. eigenvalues --   -0.00024   0.00326   0.00738   0.00774   0.00843

  Beta  occ. eigenvalues --  -38.44435 -38.44209 -38.43806 -38.43790 -38.43627
  Beta  occ. eigenvalues --  -38.43468 -38.43173  -2.20194  -2.20038  -2.19641
  Beta  occ. eigenvalues --   -2.19586  -2.19454  -2.19230  -2.19080  -1.13859
  Beta  occ. eigenvalues --   -1.13846  -1.13838  -1.13752  -1.13681  -1.13652
  Beta  occ. eigenvalues --   -1.13344  -1.13301  -1.13289  -1.13242  -1.13235
  Beta  occ. eigenvalues --   -1.13212  -1.13131  -1.13099  -1.13096  -1.12953
  Beta  occ. eigenvalues --   -1.12909  -1.12905  -1.12798  -1.12751  -1.12716
  Beta  occ. eigenvalues --   -0.17410  -0.12741  -0.12113
  Beta virt. eigenvalues --   -0.06482  -0.05948  -0.05318  -0.04924  -0.02304
  Beta virt. eigenvalues --   -0.02036  -0.01569  -0.01384  -0.01302  -0.00766
  Beta virt. eigenvalues --   -0.00734   0.00148   0.00374   0.00757   0.00838

 Mulliken charges and spin densities:
               1          2
     1  Na  -0.524998   0.826499
     2  Na   0.131186  -0.001147
     3  Na  -0.052849  -0.074782
     4  Na   0.307424  -0.001010
     5  Na  -0.061762  -0.073466
     6  Na   0.270025  -0.051295
     7  Na  -0.069026   0.375201
 Sum of Mulliken charges =  -0.00000   1.00000

 Dipole moment (field-independent basis, Debye):
    X=             -0.3793    Y=             -0.0365    Z=              0.0718  Tot=              0.3878
 Quadrupole moment (field-independent basis, Debye-Ang):
   XX=            -56.7718   YY=            -59.4477   ZZ=            -76.6656
   XY=             -1.1336   XZ=             -0.9630   YZ=              0.8285

 Normal termination of Gaussian 16 at Fri Dec  8 02:25:39 2023.
