 Gaussian 16, Revision B.01,
 Gaussian 16:  ES64L-G16RevB.01 20-Dec-2017

 -------------------------
 #P B3LYP/6-311+g(d) force
 -------------------------

 -----
 DPGEN
 -----
 Symbolic Z-matrix:
 Charge =  0 Multiplicity = 2

                         Standard orientation:
 ---------------------------------------------------------------------
 Center     Atomic      Atomic             Coordinates (Angstroms)
 Number     Number       Type             X           Y           Z
 ---------------------------------------------------------------------
      1         11           0        1.540263   -0.154707   -1.445358
      2         11           0        1.218495    3.451541   -0.183654
      3         11           0        2.857569   -2.751861    0.194216
      4         11           0       -1.207364   -1.987386   -0.425229
      5         11           0        1.461814    0.761597    1.885798
      6         11           0       -1.794693    1.384455   -0.648778
      7         11           0       -4.076085   -0.703639    0.623005
 ---------------------------------------------------------------------

 SCF Done:  E(UB3LYP) =  -1136.13007723     A.U. after   20 cycles

 The electronic state is 2-A.
 Alpha  occ. eigenvalues --  -38.44205 -38.44172 -38.43933 -38.43887 -38.43857
 Alpha  occ. eigenvalues --  -38.43747 -38.43292  -2.20050  -2.19948  -2.19769
 Alpha  occ. eigenvalues --   -2.19743  -2.19691  -2.19551  -2.19200  -1.13768
 Alpha  occ. eigenvalues --   -1.13739  -1.13651  -1.13633  -1.13602  -1.13583
 Alpha  occ. eigenvalues --   -1.13448  -1.13437  -1.13433  -1.13433  -1.13382
 Alpha  occ. eigenvalues --   -1.13372  -1.13339  -1.13336  -1.13287  -1.13224
 Alpha  occ. eigenvalues --   -1.13211  -1.13183  -1.12902  -1.12869  -1.12790
 Alpha  occ. eigenvalues --   -0.17709  -0.13492  -0.12416  -0.10058
 Alpha virt. eigenvalues --   -0.06162  -0.05421  -0.04979  -0.03280  -0.02861
 Alpha virt. eigenvalues --   -0.02129  -0.01855  -0.01654  -0.00800  -0.00491
 Alpha virt. eigenvalues --    0.00029   0.00190   0.00662   0.00681   0.00707

  Beta  occ. eigenvalues --  -38.44193 -38.44172 -38.43868 -38.43860 -38.43834
  Beta  occ. eigenvalues --  -38.43749 -38.43246  -2.20031  -2.19949  -2.19713
  Beta  occ. eigenvalues --   -2.19647  -2.19633  -2.19557  -2.19119  -1.13752
  Beta  occ. eigenvalues --   -1.13706  -1.13638  -1.13635  -1.13592  -1.13585
  Beta  occ. eigenvalues --   -1.13429  -1.13388  -1.13361  -1.13344  -1.13341
  Beta  occ. eigenvalues --   -1.13310  -1.13304  -1.13282  -1.13262  -1.13231
  Beta  occ. eigenvalues --   -1.13189  -1.13184  -1.12849  -1.12789  -1.12732
  Beta  occ. eigenvalues --   -0.17048  -0.13202  -0.12273
  Beta virt. eigenvalues --   -0.06437  -0.05877  -0.05284  -0.04858  -0.02802
  Beta virt. eigenvalues --   -0.02294  -0.01868  -0.01628  -0.01218  -0.00714
  Beta virt. eigenvalues --   -0.00254   0.00177   0.00281   0.00725   0.00735

 Mulliken charges and spin densities:
               1          2
     1  Na   0.011793   0.388767
     2  Na   0.434818  -0.020435
     3  Na   0.261894  -0.026617
     4  Na  -0.347413  -0.043882
     5  Na  -0.485230   0.538445
     6  Na  -0.438661   0.043941
     7  Na   0.562799   0.119781
 Sum of Mulliken charges =  -0.00000   1.00000

 Dipole moment (field-independent basis, Debye):
    X=             -0.2290    Y=             -0.1534    Z=             -0.1275  Tot=              0.3037
 Quadrupole moment (field-independent basis, Debye-Ang):
   XX=            -59.3097   YY=            -59.3556   ZZ=            -74.5882
   XY=             -1.6502   XZ=             -2.9002   YZ=             -2.9639

 Normal termination of Gaussian 16 at Sun Dec  3 20:47:19 2023.
