 Gaussian 16, Revision B.01,
 Gaussian 16:  ES64L-G16RevB.01 20-Dec-2017

 -------------------------
 #P B3LYP/6-311+g(d) force
 -------------------------

 -----
 DPGEN
 -----
 Symbolic Z-matrix:
 Charge =  0 Multiplicity = 2

                         Standard orientation:
 ---------------------------------------------------------------------
 Center     Atomic      Atomic             Coordinates (Angstroms)
 Number     Number       Type             X           Y           Z
 ---------------------------------------------------------------------
      1         11           0        0.348079    0.036244   -1.814954
      2         11           0       -1.868291   -2.185985   -0.215616
      3         11           0        1.701351   -2.181514    0.030231
      4         11           0       -0.291465    2.967981    0.087620
      5         11           0       -0.047987   -0.297641    1.944976
      6         11           0        2.956437    0.888525    0.035814
      7         11           0       -2.798125    0.772389   -0.068070
 ---------------------------------------------------------------------

 SCF Done:  E(UB3LYP) =  -1136.13856090     A.U. after   19 cycles

 The electronic state is 2-A.
 Alpha  occ. eigenvalues --  -38.43983 -38.43623 -38.43522 -38.43393 -38.43376
 Alpha  occ. eigenvalues --  -38.43317 -38.43305  -2.19832  -2.19512  -2.19462
 Alpha  occ. eigenvalues --   -2.19345  -2.19318  -2.19204  -2.19148  -1.13521
 Alpha  occ. eigenvalues --   -1.13495  -1.13469  -1.13224  -1.13179  -1.13170
 Alpha  occ. eigenvalues --   -1.13166  -1.13097  -1.13082  -1.13079  -1.12997
 Alpha  occ. eigenvalues --   -1.12972  -1.12968  -1.12931  -1.12926  -1.12863
 Alpha  occ. eigenvalues --   -1.12853  -1.12833  -1.12816  -1.12812  -1.12785
 Alpha  occ. eigenvalues --   -0.19067  -0.13234  -0.12476  -0.10976
 Alpha virt. eigenvalues --   -0.05528  -0.04961  -0.04654  -0.03344  -0.02933
 Alpha virt. eigenvalues --   -0.02650  -0.01376  -0.00986  -0.00213  -0.00112
 Alpha virt. eigenvalues --   -0.00021   0.00379   0.00850   0.00924   0.00950

  Beta  occ. eigenvalues --  -38.43980 -38.43619 -38.43434 -38.43383 -38.43316
  Beta  occ. eigenvalues --  -38.43299 -38.43297  -2.19829  -2.19508  -2.19306
  Beta  occ. eigenvalues --   -2.19300  -2.19205  -2.19194  -2.19148  -1.13515
  Beta  occ. eigenvalues --   -1.13476  -1.13468  -1.13222  -1.13173  -1.13142
  Beta  occ. eigenvalues --   -1.13093  -1.13015  -1.12994  -1.12971  -1.12930
  Beta  occ. eigenvalues --   -1.12911  -1.12911  -1.12877  -1.12855  -1.12850
  Beta  occ. eigenvalues --   -1.12829  -1.12813  -1.12809  -1.12795  -1.12787
  Beta  occ. eigenvalues --   -0.18304  -0.12981  -0.12236
  Beta virt. eigenvalues --   -0.07027  -0.05504  -0.04952  -0.04621  -0.02501
  Beta virt. eigenvalues --   -0.02144  -0.01588  -0.01294  -0.00922  -0.00265
  Beta virt. eigenvalues --   -0.00174   0.00118   0.00396   0.00889   0.00933

 Mulliken charges and spin densities:
               1          2
     1  Na  -0.385739   0.633883
     2  Na   0.285465  -0.025977
     3  Na   0.461598  -0.036541
     4  Na  -0.025878  -0.119154
     5  Na  -0.485662   0.716325
     6  Na   0.114970  -0.115876
     7  Na   0.035245  -0.052660
 Sum of Mulliken charges =  -0.00000   1.00000

 Dipole moment (field-independent basis, Debye):
    X=              0.2682    Y=              0.0872    Z=              0.0688  Tot=              0.2903
 Quadrupole moment (field-independent basis, Debye-Ang):
   XX=            -58.2481   YY=            -63.2461   ZZ=            -73.0134
   XY=              0.8270   XZ=              0.8440   YZ=              0.8259

 Normal termination of Gaussian 16 at Tue Dec  5 19:30:43 2023.
