 Gaussian 16, Revision B.01,
 Gaussian 16:  ES64L-G16RevB.01 20-Dec-2017

 -------------------------
 #P B3LYP/6-311+g(d) force
 -------------------------

 -----
 DPGEN
 -----
 Symbolic Z-matrix:
 Charge =  0 Multiplicity = 2

                         Standard orientation:
 ---------------------------------------------------------------------
 Center     Atomic      Atomic             Coordinates (Angstroms)
 Number     Number       Type             X           Y           Z
 ---------------------------------------------------------------------
      1         11           0        1.174132    3.021796   -0.253212
      2         11           0       -3.089128    1.529922    0.244535
      3         11           0        1.045552   -2.919609    0.017301
      4         11           0       -0.370051   -0.205945    2.052018
      5         11           0       -2.661097   -1.553806   -0.702402
      6         11           0        0.501593    0.142939   -1.567424
      7         11           0        3.399001   -0.015297    0.209184
 ---------------------------------------------------------------------

 SCF Done:  E(UB3LYP) =  -1136.13114009     A.U. after   19 cycles

 The electronic state is 2-A.
 Alpha  occ. eigenvalues --  -38.45011 -38.44366 -38.43950 -38.43743 -38.43554
 Alpha  occ. eigenvalues --  -38.43328 -38.43267  -2.20797  -2.20158  -2.19777
 Alpha  occ. eigenvalues --   -2.19586  -2.19351  -2.19255  -2.19078  -1.14485
 Alpha  occ. eigenvalues --   -1.14457  -1.14420  -1.13839  -1.13821  -1.13801
 Alpha  occ. eigenvalues --   -1.13447  -1.13429  -1.13411  -1.13257  -1.13221
 Alpha  occ. eigenvalues --   -1.13196  -1.13071  -1.13011  -1.12981  -1.12941
 Alpha  occ. eigenvalues --   -1.12896  -1.12867  -1.12750  -1.12742  -1.12717
 Alpha  occ. eigenvalues --   -0.17912  -0.13257  -0.11917  -0.10401
 Alpha virt. eigenvalues --   -0.06324  -0.05265  -0.04772  -0.03342  -0.02626
 Alpha virt. eigenvalues --   -0.02403  -0.01955  -0.01227  -0.00823  -0.00547
 Alpha virt. eigenvalues --   -0.00058   0.00316   0.00705   0.00732   0.00770

  Beta  occ. eigenvalues --  -38.45010 -38.44364 -38.43929 -38.43652 -38.43553
  Beta  occ. eigenvalues --  -38.43277 -38.43264  -2.20796  -2.20157  -2.19740
  Beta  occ. eigenvalues --   -2.19417  -2.19350  -2.19161  -2.19077  -1.14474
  Beta  occ. eigenvalues --   -1.14454  -1.14420  -1.13838  -1.13804  -1.13801
  Beta  occ. eigenvalues --   -1.13417  -1.13395  -1.13386  -1.13143  -1.13104
  Beta  occ. eigenvalues --   -1.13072  -1.13058  -1.13001  -1.12981  -1.12875
  Beta  occ. eigenvalues --   -1.12835  -1.12800  -1.12741  -1.12734  -1.12710
  Beta  occ. eigenvalues --   -0.17231  -0.13071  -0.11703
  Beta virt. eigenvalues --   -0.06603  -0.06222  -0.05174  -0.04710  -0.02654
  Beta virt. eigenvalues --   -0.01955  -0.01859  -0.01415  -0.01109  -0.00862
  Beta virt. eigenvalues --   -0.00543   0.00105   0.00359   0.00765   0.00798

 Mulliken charges and spin densities:
               1          2
     1  Na  -0.049236  -0.100547
     2  Na   0.032256  -0.011571
     3  Na   0.011645  -0.028401
     4  Na  -0.318028   0.742555
     5  Na   0.080150   0.087245
     6  Na   0.171060   0.347801
     7  Na   0.072153  -0.037083
 Sum of Mulliken charges =  -0.00000   1.00000

 Dipole moment (field-independent basis, Debye):
    X=              0.3136    Y=              0.1353    Z=              0.1745  Tot=              0.3836
 Quadrupole moment (field-independent basis, Debye-Ang):
   XX=            -53.0257   YY=            -63.5477   ZZ=            -76.2092
   XY=             -1.4400   XZ=              2.0416   YZ=              1.3125

 Normal termination of Gaussian 16 at Thu Dec  7 23:47:36 2023.
