 Gaussian 16, Revision B.01,
 Gaussian 16:  ES64L-G16RevB.01 20-Dec-2017

 -------------------------
 #P B3LYP/6-311+g(d) force
 -------------------------

 -----
 DPGEN
 -----
 Symbolic Z-matrix:
 Charge =  0 Multiplicity = 2

                         Standard orientation:
 ---------------------------------------------------------------------
 Center     Atomic      Atomic             Coordinates (Angstroms)
 Number     Number       Type             X           Y           Z
 ---------------------------------------------------------------------
      1         11           0        1.614489    0.000385   -2.334027
      2         11           0        0.781044    2.957677    0.833173
      3         11           0        4.522326   -0.190507   -0.181862
      4         11           0        1.601847   -1.141792    2.513567
      5         11           0       -1.028565   -2.713645   -0.555974
      6         11           0       -2.553128    1.241415   -0.845157
      7         11           0       -4.938013   -0.153532    0.570279
 ---------------------------------------------------------------------

 SCF Done:  E(UB3LYP) =  -1136.08639635     A.U. after   29 cycles

 The electronic state is 2-A.
 Alpha  occ. eigenvalues --  -38.46869 -38.46018 -38.44845 -38.44833 -38.44128
 Alpha  occ. eigenvalues --  -38.43970 -38.43859  -2.22568  -2.21782  -2.20607
 Alpha  occ. eigenvalues --   -2.20602  -2.19914  -2.19681  -2.19583  -1.16242
 Alpha  occ. eigenvalues --   -1.16238  -1.16215  -1.15461  -1.15438  -1.15409
 Alpha  occ. eigenvalues --   -1.14257  -1.14256  -1.14244  -1.14230  -1.14223
 Alpha  occ. eigenvalues --   -1.14223  -1.13609  -1.13585  -1.13539  -1.13370
 Alpha  occ. eigenvalues --   -1.13359  -1.13321  -1.13262  -1.13245  -1.13219
 Alpha  occ. eigenvalues --   -0.15954  -0.13569  -0.11206  -0.10500
 Alpha virt. eigenvalues --   -0.08451  -0.05296  -0.05075  -0.03483  -0.03095
 Alpha virt. eigenvalues --   -0.02962  -0.02403  -0.01911  -0.01252  -0.00893
 Alpha virt. eigenvalues --   -0.00633  -0.00152  -0.00096   0.00489   0.00576

  Beta  occ. eigenvalues --  -38.46886 -38.46010 -38.44755 -38.44733 -38.44130
  Beta  occ. eigenvalues --  -38.43981 -38.43845  -2.22603  -2.21766  -2.20455
  Beta  occ. eigenvalues --   -2.20398  -2.19919  -2.19703  -2.19557  -1.16266
  Beta  occ. eigenvalues --   -1.16243  -1.16239  -1.15451  -1.15427  -1.15400
  Beta  occ. eigenvalues --   -1.14155  -1.14149  -1.14119  -1.14114  -1.14093
  Beta  occ. eigenvalues --   -1.14076  -1.13607  -1.13589  -1.13544  -1.13384
  Beta  occ. eigenvalues --   -1.13365  -1.13337  -1.13243  -1.13225  -1.13203
  Beta  occ. eigenvalues --   -0.15371  -0.13352  -0.10405
  Beta virt. eigenvalues --   -0.08417  -0.07253  -0.05014  -0.04663  -0.03208
  Beta virt. eigenvalues --   -0.02915  -0.02379  -0.01878  -0.01675  -0.01251
  Beta virt. eigenvalues --   -0.00611  -0.00543  -0.00105   0.00158   0.00570

 Mulliken charges and spin densities:
               1          2
     1  Na   0.214900   0.414796
     2  Na  -0.150580   0.091403
     3  Na   0.136064  -0.112880
     4  Na   0.023624   0.620450
     5  Na  -0.243074  -0.020801
     6  Na  -0.341300   0.019203
     7  Na   0.360365  -0.012172
 Sum of Mulliken charges =  -0.00000   1.00000

 Dipole moment (field-independent basis, Debye):
    X=              0.2133    Y=             -0.4318    Z=              0.3106  Tot=              0.5731
 Quadrupole moment (field-independent basis, Debye-Ang):
   XX=            -37.2108   YY=            -83.4052   ZZ=            -71.9082
   XY=              2.0286   XZ=             -3.8019   YZ=             -1.4185

 Normal termination of Gaussian 16 at Sun Dec  3 21:24:53 2023.
