 Gaussian 16, Revision B.01,
 Gaussian 16:  ES64L-G16RevB.01 20-Dec-2017

 -------------------------
 #P B3LYP/6-311+g(d) force
 -------------------------

 -----
 DPGEN
 -----
 Symbolic Z-matrix:
 Charge =  0 Multiplicity = 2

                         Standard orientation:
 ---------------------------------------------------------------------
 Center     Atomic      Atomic             Coordinates (Angstroms)
 Number     Number       Type             X           Y           Z
 ---------------------------------------------------------------------
      1         11           0        0.589581    1.106580    0.919724
      2         11           0        2.067928    3.815266   -0.404266
      3         11           0        3.245745    0.267155   -0.735738
      4         11           0        0.287317   -1.663717    0.200151
      5         11           0       -3.103692    0.554453    0.756148
      6         11           0        3.924006   -3.275107   -0.017288
      7         11           0       -7.010886   -0.804631   -0.718731
 ---------------------------------------------------------------------

 SCF Done:  E(UB3LYP) =  -1136.10987720     A.U. after   22 cycles

 The electronic state is 2-A.
 Alpha  occ. eigenvalues --  -38.45523 -38.44751 -38.44413 -38.44298 -38.44288
 Alpha  occ. eigenvalues --  -38.43735 -38.43610  -2.21294  -2.20605  -2.20170
 Alpha  occ. eigenvalues --   -2.20127  -2.20019  -2.19689  -2.19406  -1.14921
 Alpha  occ. eigenvalues --   -1.14921  -1.14893  -1.14417  -1.14279  -1.14134
 Alpha  occ. eigenvalues --   -1.13862  -1.13842  -1.13840  -1.13831  -1.13786
 Alpha  occ. eigenvalues --   -1.13719  -1.13709  -1.13679  -1.13646  -1.13422
 Alpha  occ. eigenvalues --   -1.13346  -1.13260  -1.13073  -1.13069  -1.13022
 Alpha  occ. eigenvalues --   -0.16909  -0.13249  -0.12219  -0.11571
 Alpha virt. eigenvalues --   -0.06498  -0.05338  -0.04761  -0.03617  -0.02774
 Alpha virt. eigenvalues --   -0.02308  -0.02081  -0.01852  -0.01485  -0.01010
 Alpha virt. eigenvalues --   -0.00529  -0.00139   0.00015   0.00282   0.00534

  Beta  occ. eigenvalues --  -38.45376 -38.44723 -38.44399 -38.44325 -38.44277
  Beta  occ. eigenvalues --  -38.43715 -38.43598  -2.21018  -2.20555  -2.20143
  Beta  occ. eigenvalues --   -2.20106  -2.20074  -2.19655  -2.19384  -1.14734
  Beta  occ. eigenvalues --   -1.14734  -1.14708  -1.14377  -1.14247  -1.14095
  Beta  occ. eigenvalues --   -1.13848  -1.13824  -1.13820  -1.13815  -1.13770
  Beta  occ. eigenvalues --   -1.13761  -1.13750  -1.13661  -1.13656  -1.13399
  Beta  occ. eigenvalues --   -1.13327  -1.13217  -1.13057  -1.13054  -1.13007
  Beta  occ. eigenvalues --   -0.16604  -0.12380  -0.11899
  Beta virt. eigenvalues --   -0.07940  -0.06174  -0.05068  -0.04580  -0.03446
  Beta virt. eigenvalues --   -0.02423  -0.01961  -0.01724  -0.01543  -0.01038
  Beta virt. eigenvalues --   -0.00586  -0.00192  -0.00050   0.00151   0.00408

 Mulliken charges and spin densities:
               1          2
     1  Na  -0.975815   0.049518
     2  Na   0.646205   0.045568
     3  Na  -0.063956   0.193632
     4  Na  -0.297023   0.007059
     5  Na   0.255793  -0.105079
     6  Na   0.413863   0.078089
     7  Na   0.020934   0.731214
 Sum of Mulliken charges =  -0.00000   1.00000

 Dipole moment (field-independent basis, Debye):
    X=              0.4605    Y=             -0.3672    Z=             -0.3128  Tot=              0.6669
 Quadrupole moment (field-independent basis, Debye-Ang):
   XX=            -61.6564   YY=            -60.6439   ZZ=            -72.1106
   XY=             -3.2611   XZ=              0.4891   YZ=             -0.3720

 Normal termination of Gaussian 16 at Wed Nov 29 00:35:17 2023.
