 Gaussian 16, Revision B.01,
 Gaussian 16:  ES64L-G16RevB.01 20-Dec-2017

 -------------------------
 #P B3LYP/6-311+g(d) force
 -------------------------

 -----
 DPGEN
 -----
 Symbolic Z-matrix:
 Charge =  0 Multiplicity = 2

                         Standard orientation:
 ---------------------------------------------------------------------
 Center     Atomic      Atomic             Coordinates (Angstroms)
 Number     Number       Type             X           Y           Z
 ---------------------------------------------------------------------
      1         11           0        3.670765    0.138869   -1.172898
      2         11           0        1.077174    1.999218    0.745585
      3         11           0       -3.503321   -1.420129   -0.771389
      4         11           0        1.724687   -1.923922    1.330921
      5         11           0        0.246036   -0.659014   -1.620039
      6         11           0       -1.038426   -0.086276    1.881364
      7         11           0       -2.176915    1.951255   -0.393543
 ---------------------------------------------------------------------

 SCF Done:  E(UB3LYP) =  -1136.12714508     A.U. after   24 cycles

 The electronic state is 2-A.
 Alpha  occ. eigenvalues --  -38.44726 -38.44504 -38.44232 -38.43825 -38.43748
 Alpha  occ. eigenvalues --  -38.43515 -38.42388  -2.20526  -2.20349  -2.20074
 Alpha  occ. eigenvalues --   -2.19695  -2.19692  -2.19290  -2.18281  -1.14194
 Alpha  occ. eigenvalues --   -1.14177  -1.14146  -1.14036  -1.13989  -1.13954
 Alpha  occ. eigenvalues --   -1.13782  -1.13758  -1.13663  -1.13421  -1.13397
 Alpha  occ. eigenvalues --   -1.13377  -1.13305  -1.13296  -1.13278  -1.12967
 Alpha  occ. eigenvalues --   -1.12956  -1.12925  -1.11981  -1.11961  -1.11885
 Alpha  occ. eigenvalues --   -0.18406  -0.13601  -0.11828  -0.10911
 Alpha virt. eigenvalues --   -0.06380  -0.05155  -0.04607  -0.03226  -0.02802
 Alpha virt. eigenvalues --   -0.02519  -0.02206  -0.01020  -0.00904  -0.00122
 Alpha virt. eigenvalues --    0.00155   0.00280   0.00406   0.00618   0.00728

  Beta  occ. eigenvalues --  -38.44693 -38.44433 -38.44211 -38.43809 -38.43690
  Beta  occ. eigenvalues --  -38.43521 -38.42378  -2.20464  -2.20220  -2.20036
  Beta  occ. eigenvalues --   -2.19663  -2.19592  -2.19302  -2.18267  -1.14145
  Beta  occ. eigenvalues --   -1.14131  -1.14110  -1.13942  -1.13898  -1.13856
  Beta  occ. eigenvalues --   -1.13751  -1.13721  -1.13635  -1.13386  -1.13357
  Beta  occ. eigenvalues --   -1.13320  -1.13266  -1.13235  -1.13213  -1.12973
  Beta  occ. eigenvalues --   -1.12963  -1.12933  -1.11974  -1.11925  -1.11880
  Beta  occ. eigenvalues --   -0.17653  -0.13362  -0.10798
  Beta virt. eigenvalues --   -0.07772  -0.06151  -0.04906  -0.04216  -0.02877
  Beta virt. eigenvalues --   -0.02273  -0.01982  -0.01847  -0.00875  -0.00545
  Beta virt. eigenvalues --   -0.00017   0.00204   0.00339   0.00489   0.00693

 Mulliken charges and spin densities:
               1          2
     1  Na   0.560850   0.071231
     2  Na  -0.467695   0.132023
     3  Na  -0.042678  -0.060086
     4  Na  -0.183090   0.067962
     5  Na  -0.635169   0.393581
     6  Na   0.440531   0.349488
     7  Na   0.327250   0.045801
 Sum of Mulliken charges =  -0.00000   1.00000

 Dipole moment (field-independent basis, Debye):
    X=              0.7778    Y=              0.0616    Z=             -0.0631  Tot=              0.7828
 Quadrupole moment (field-independent basis, Debye-Ang):
   XX=            -52.6284   YY=            -72.6062   ZZ=            -69.5823
   XY=             -1.1593   XZ=             -1.0381   YZ=             -6.1110

 Normal termination of Gaussian 16 at Thu Dec  7 09:39:11 2023.
