 Gaussian 16, Revision B.01,
 Gaussian 16:  ES64L-G16RevB.01 20-Dec-2017

 -------------------------
 #P B3LYP/6-311+g(d) force
 -------------------------

 -----
 DPGEN
 -----
 Symbolic Z-matrix:
 Charge =  0 Multiplicity = 2

                         Standard orientation:
 ---------------------------------------------------------------------
 Center     Atomic      Atomic             Coordinates (Angstroms)
 Number     Number       Type             X           Y           Z
 ---------------------------------------------------------------------
      1         11           0        1.407381   -0.411744    0.899930
      2         11           0       -3.998950   -0.109344   -0.918725
      3         11           0       -0.707802    1.575672   -0.853798
      4         11           0        4.206398   -1.481772   -0.391383
      5         11           0       -1.016931   -2.079896   -0.466182
      6         11           0       -2.303725    0.143275    1.812143
      7         11           0        2.413630    2.363809   -0.081985
 ---------------------------------------------------------------------

 SCF Done:  E(UB3LYP) =  -1136.11435987     A.U. after   27 cycles

 The electronic state is 2-A.
 Alpha  occ. eigenvalues --  -38.45624 -38.44389 -38.44194 -38.44145 -38.43657
 Alpha  occ. eigenvalues --  -38.43439 -38.42718  -2.21497  -2.20229  -2.20017
 Alpha  occ. eigenvalues --   -2.19994  -2.19499  -2.19339  -2.18709  -1.15166
 Alpha  occ. eigenvalues --   -1.15159  -1.15131  -1.13946  -1.13911  -1.13845
 Alpha  occ. eigenvalues --   -1.13682  -1.13649  -1.13640  -1.13635  -1.13626
 Alpha  occ. eigenvalues --   -1.13619  -1.13208  -1.13170  -1.13121  -1.13037
 Alpha  occ. eigenvalues --   -1.13021  -1.12927  -1.12427  -1.12365  -1.12335
 Alpha  occ. eigenvalues --   -0.18467  -0.14480  -0.11150  -0.10733
 Alpha virt. eigenvalues --   -0.07301  -0.05682  -0.04376  -0.03100  -0.02955
 Alpha virt. eigenvalues --   -0.01954  -0.01878  -0.01606  -0.01257  -0.00299
 Alpha virt. eigenvalues --   -0.00201   0.00081   0.00311   0.00538   0.00600

  Beta  occ. eigenvalues --  -38.45600 -38.44408 -38.44119 -38.44070 -38.43653
  Beta  occ. eigenvalues --  -38.43419 -38.42695  -2.21459  -2.20270  -2.19877
  Beta  occ. eigenvalues --   -2.19855  -2.19494  -2.19306  -2.18674  -1.15140
  Beta  occ. eigenvalues --   -1.15126  -1.15080  -1.13975  -1.13903  -1.13884
  Beta  occ. eigenvalues --   -1.13587  -1.13555  -1.13547  -1.13541  -1.13536
  Beta  occ. eigenvalues --   -1.13523  -1.13207  -1.13163  -1.13106  -1.13022
  Beta  occ. eigenvalues --   -1.12984  -1.12899  -1.12409  -1.12330  -1.12275
  Beta  occ. eigenvalues --   -0.17894  -0.13876  -0.10910
  Beta virt. eigenvalues --   -0.07272  -0.06965  -0.05482  -0.03760  -0.02958
  Beta virt. eigenvalues --   -0.02778  -0.01631  -0.01479  -0.01327  -0.00702
  Beta virt. eigenvalues --   -0.00165  -0.00043   0.00161   0.00467   0.00600

 Mulliken charges and spin densities:
               1          2
     1  Na  -0.480936  -0.099078
     2  Na   0.606296   0.509384
     3  Na  -0.849480   0.121217
     4  Na   0.349889   0.373963
     5  Na  -0.388081   0.046635
     6  Na   0.465326  -0.055894
     7  Na   0.296985   0.103774
 Sum of Mulliken charges =  -0.00000   1.00000

 Dipole moment (field-independent basis, Debye):
    X=             -0.9681    Y=              0.0359    Z=              0.6328  Tot=              1.1571
 Quadrupole moment (field-independent basis, Debye-Ang):
   XX=            -59.0953   YY=            -75.4210   ZZ=            -64.6921
   XY=              3.6868   XZ=             -4.9158   YZ=              4.1589

 Normal termination of Gaussian 16 at Tue Dec  5 18:30:39 2023.
