 Gaussian 16, Revision B.01,
 Gaussian 16:  ES64L-G16RevB.01 20-Dec-2017

 -------------------------
 #P B3LYP/6-311+g(d) force
 -------------------------

 -----
 DPGEN
 -----
 Symbolic Z-matrix:
 Charge =  0 Multiplicity = 2

                         Standard orientation:
 ---------------------------------------------------------------------
 Center     Atomic      Atomic             Coordinates (Angstroms)
 Number     Number       Type             X           Y           Z
 ---------------------------------------------------------------------
      1         11           0       -5.700925    0.236947   -0.219165
      2         11           0        1.867896    0.273887    1.927554
      3         11           0       -8.621051   -1.210039   -0.198806
      4         11           0        1.811331    2.346659   -1.010027
      5         11           0        4.691878    0.299858    0.155397
      6         11           0        7.115856   -2.115564   -0.751910
      7         11           0       -1.164985    0.168252    0.096958
 ---------------------------------------------------------------------

 SCF Done:  E(UB3LYP) =  -1136.10241993     A.U. after   24 cycles

 The electronic state is 2-A.
 Alpha  occ. eigenvalues --  -38.46758 -38.46164 -38.44221 -38.44075 -38.44022
 Alpha  occ. eigenvalues --  -38.43839 -38.43415  -2.22555  -2.21952  -2.19999
 Alpha  occ. eigenvalues --   -2.19876  -2.19797  -2.19595  -2.19233  -1.16245
 Alpha  occ. eigenvalues --   -1.16214  -1.16178  -1.15633  -1.15588  -1.15571
 Alpha  occ. eigenvalues --   -1.13645  -1.13644  -1.13611  -1.13542  -1.13537
 Alpha  occ. eigenvalues --   -1.13482  -1.13453  -1.13453  -1.13448  -1.13272
 Alpha  occ. eigenvalues --   -1.13270  -1.13218  -1.12947  -1.12922  -1.12854
 Alpha  occ. eigenvalues --   -0.16718  -0.13231  -0.12423  -0.10806
 Alpha virt. eigenvalues --   -0.07935  -0.06000  -0.04637  -0.03308  -0.02927
 Alpha virt. eigenvalues --   -0.02660  -0.02328  -0.02009  -0.01564  -0.01404
 Alpha virt. eigenvalues --   -0.01192  -0.00497  -0.00151   0.00140   0.00206

  Beta  occ. eigenvalues --  -38.46757 -38.46123 -38.44141 -38.44012 -38.43997
  Beta  occ. eigenvalues --  -38.43848 -38.43422  -2.22557  -2.21878  -2.19849
  Beta  occ. eigenvalues --   -2.19759  -2.19750  -2.19614  -2.19252  -1.16250
  Beta  occ. eigenvalues --   -1.16193  -1.16182  -1.15583  -1.15527  -1.15520
  Beta  occ. eigenvalues --   -1.13543  -1.13542  -1.13514  -1.13459  -1.13456
  Beta  occ. eigenvalues --   -1.13422  -1.13421  -1.13420  -1.13409  -1.13287
  Beta  occ. eigenvalues --   -1.13284  -1.13212  -1.12969  -1.12940  -1.12820
  Beta  occ. eigenvalues --   -0.16299  -0.12775  -0.11827
  Beta virt. eigenvalues --   -0.07757  -0.07531  -0.05580  -0.04356  -0.03020
  Beta virt. eigenvalues --   -0.02734  -0.02417  -0.02137  -0.01885  -0.01277
  Beta virt. eigenvalues --   -0.01069  -0.00834  -0.00182  -0.00070   0.00236

 Mulliken charges and spin densities:
               1          2
     1  Na  -0.531522  -0.077269
     2  Na   0.485913   0.029443
     3  Na   0.479586   0.091097
     4  Na   0.497677   0.233610
     5  Na  -0.548029   0.007641
     6  Na   0.049151   0.390859
     7  Na  -0.432775   0.324619
 Sum of Mulliken charges =  -0.00000   1.00000

 Dipole moment (field-independent basis, Debye):
    X=              0.7840    Y=              1.0908    Z=              0.2126  Tot=              1.3600
 Quadrupole moment (field-independent basis, Debye-Ang):
   XX=            -80.7802   YY=            -67.0718   ZZ=            -65.0450
   XY=              3.7804   XZ=              0.4191   YZ=             -3.4684

 Normal termination of Gaussian 16 at Sun Dec  3 15:22:58 2023.
