 Gaussian 16, Revision B.01,
 Gaussian 16:  ES64L-G16RevB.01 20-Dec-2017

 -------------------------
 #P B3LYP/6-311+g(d) force
 -------------------------

 -----
 DPGEN
 -----
 Symbolic Z-matrix:
 Charge =  0 Multiplicity = 2

                         Standard orientation:
 ---------------------------------------------------------------------
 Center     Atomic      Atomic             Coordinates (Angstroms)
 Number     Number       Type             X           Y           Z
 ---------------------------------------------------------------------
      1         11           0       -0.922308   -0.027764    1.865855
      2         11           0       -2.215346   -2.161878   -0.219727
      3         11           0       -0.014719   -0.121437   -1.495919
      4         11           0       -2.950580    1.214613   -0.604024
      5         11           0        3.850698    0.284426   -0.413439
      6         11           0        1.959218   -1.540101    0.460797
      7         11           0        0.293037    2.352141    0.406456
 ---------------------------------------------------------------------

 SCF Done:  E(UB3LYP) =  -1136.11894978     A.U. after   22 cycles

 The electronic state is 2-A.
 Alpha  occ. eigenvalues --  -38.45321 -38.44484 -38.44035 -38.43841 -38.43271
 Alpha  occ. eigenvalues --  -38.42997 -38.42566  -2.21165  -2.20360  -2.20047
 Alpha  occ. eigenvalues --   -2.19784  -2.19281  -2.18877  -2.18482  -1.14955
 Alpha  occ. eigenvalues --   -1.14791  -1.14763  -1.14044  -1.14026  -1.13968
 Alpha  occ. eigenvalues --   -1.13785  -1.13707  -1.13665  -1.13443  -1.13434
 Alpha  occ. eigenvalues --   -1.13405  -1.12980  -1.12919  -1.12893  -1.12550
 Alpha  occ. eigenvalues --   -1.12546  -1.12506  -1.12196  -1.12157  -1.12061
 Alpha  occ. eigenvalues --   -0.19181  -0.14137  -0.11500  -0.10940
 Alpha virt. eigenvalues --   -0.06907  -0.04943  -0.03754  -0.03337  -0.02569
 Alpha virt. eigenvalues --   -0.02420  -0.02350  -0.01163  -0.00416  -0.00068
 Alpha virt. eigenvalues --    0.00121   0.00282   0.00570   0.00784   0.00834

  Beta  occ. eigenvalues --  -38.45315 -38.44457 -38.43994 -38.43829 -38.43180
  Beta  occ. eigenvalues --  -38.42992 -38.42553  -2.21154  -2.20312  -2.19974
  Beta  occ. eigenvalues --   -2.19766  -2.19115  -2.18872  -2.18462  -1.14950
  Beta  occ. eigenvalues --   -1.14777  -1.14756  -1.14000  -1.13991  -1.13931
  Beta  occ. eigenvalues --   -1.13721  -1.13661  -1.13612  -1.13427  -1.13414
  Beta  occ. eigenvalues --   -1.13369  -1.12867  -1.12806  -1.12769  -1.12545
  Beta  occ. eigenvalues --   -1.12535  -1.12482  -1.12186  -1.12107  -1.12053
  Beta  occ. eigenvalues --   -0.18451  -0.13882  -0.11249
  Beta virt. eigenvalues --   -0.07037  -0.06693  -0.04874  -0.03499  -0.03003
  Beta virt. eigenvalues --   -0.02408  -0.01683  -0.01400  -0.01044  -0.00252
  Beta virt. eigenvalues --    0.00025   0.00167   0.00307   0.00731   0.00820

 Mulliken charges and spin densities:
               1          2
     1  Na   0.071288   0.512962
     2  Na   0.062515  -0.025473
     3  Na  -0.445148   0.451208
     4  Na   0.177391   0.101857
     5  Na   0.122819   0.057418
     6  Na   0.167014  -0.032412
     7  Na  -0.155879  -0.065559
 Sum of Mulliken charges =  -0.00000   1.00000

 Dipole moment (field-independent basis, Debye):
    X=              0.3829    Y=              0.3845    Z=             -0.0891  Tot=              0.5499
 Quadrupole moment (field-independent basis, Debye-Ang):
   XX=            -47.6672   YY=            -72.6196   ZZ=            -72.3389
   XY=              1.1223   XZ=             -0.2741   YZ=             -1.1635

 Normal termination of Gaussian 16 at Wed Dec  6 00:57:05 2023.
