 Gaussian 16, Revision B.01,
 Gaussian 16:  ES64L-G16RevB.01 20-Dec-2017

 -------------------------
 #P B3LYP/6-311+g(d) force
 -------------------------

 -----
 DPGEN
 -----
 Symbolic Z-matrix:
 Charge =  0 Multiplicity = 2

                         Standard orientation:
 ---------------------------------------------------------------------
 Center     Atomic      Atomic             Coordinates (Angstroms)
 Number     Number       Type             X           Y           Z
 ---------------------------------------------------------------------
      1         11           0        4.658151   -0.768124   -0.420167
      2         11           0       -1.050134    2.613693   -0.453869
      3         11           0        1.242433   -2.227198   -0.273278
      4         11           0       -0.335864    0.393223    2.003401
      5         11           0       -4.593581    0.372222   -0.635388
      6         11           0       -2.556307   -2.300497   -0.030025
      7         11           0        2.635302    1.916680   -0.190673
 ---------------------------------------------------------------------

 SCF Done:  E(UB3LYP) =  -1136.12024968     A.U. after   20 cycles

 The electronic state is 2-A.
 Alpha  occ. eigenvalues --  -38.45175 -38.44527 -38.44396 -38.44164 -38.43970
 Alpha  occ. eigenvalues --  -38.43872 -38.43762  -2.20976  -2.20323  -2.20183
 Alpha  occ. eigenvalues --   -2.19933  -2.19775  -2.19646  -2.19544  -1.14640
 Alpha  occ. eigenvalues --   -1.14639  -1.14580  -1.13972  -1.13957  -1.13944
 Alpha  occ. eigenvalues --   -1.13886  -1.13855  -1.13801  -1.13631  -1.13614
 Alpha  occ. eigenvalues --   -1.13537  -1.13431  -1.13427  -1.13396  -1.13338
 Alpha  occ. eigenvalues --   -1.13313  -1.13290  -1.13228  -1.13218  -1.13166
 Alpha  occ. eigenvalues --   -0.16701  -0.13857  -0.11808  -0.11169
 Alpha virt. eigenvalues --   -0.06207  -0.06089  -0.04612  -0.03425  -0.02906
 Alpha virt. eigenvalues --   -0.02615  -0.01898  -0.01727  -0.01097  -0.00877
 Alpha virt. eigenvalues --   -0.00280   0.00014   0.00480   0.00506   0.00586

  Beta  occ. eigenvalues --  -38.45122 -38.44438 -38.44384 -38.44145 -38.43929
  Beta  occ. eigenvalues --  -38.43875 -38.43765  -2.20876  -2.20164  -2.20156
  Beta  occ. eigenvalues --   -2.19900  -2.19699  -2.19658  -2.19550  -1.14577
  Beta  occ. eigenvalues --   -1.14570  -1.14505  -1.13876  -1.13858  -1.13846
  Beta  occ. eigenvalues --   -1.13846  -1.13832  -1.13767  -1.13611  -1.13588
  Beta  occ. eigenvalues --   -1.13504  -1.13380  -1.13368  -1.13352  -1.13351
  Beta  occ. eigenvalues --   -1.13327  -1.13258  -1.13233  -1.13221  -1.13163
  Beta  occ. eigenvalues --   -0.16124  -0.13070  -0.11662
  Beta virt. eigenvalues --   -0.07777  -0.05993  -0.05843  -0.03987  -0.03292
  Beta virt. eigenvalues --   -0.02390  -0.02287  -0.01771  -0.01333  -0.00968
  Beta virt. eigenvalues --   -0.00577  -0.00192   0.00143   0.00561   0.00638

 Mulliken charges and spin densities:
               1          2
     1  Na   0.568971   0.249536
     2  Na  -0.004133   0.044496
     3  Na  -0.323403   0.020119
     4  Na  -0.170919   0.148866
     5  Na   0.106679   0.461290
     6  Na  -0.021017  -0.050663
     7  Na  -0.156177   0.126356
 Sum of Mulliken charges =  -0.00000   1.00000

 Dipole moment (field-independent basis, Debye):
    X=              0.2228    Y=              0.3219    Z=              0.4282  Tot=              0.5802
 Quadrupole moment (field-independent basis, Debye-Ang):
   XX=            -62.9864   YY=            -70.7942   ZZ=            -67.4228
   XY=             -2.0156   XZ=              0.0385   YZ=             -1.3876

 Normal termination of Gaussian 16 at Sun Dec  3 23:11:35 2023.
