 Gaussian 16, Revision B.01,
 Gaussian 16:  ES64L-G16RevB.01 20-Dec-2017

 -------------------------
 #P B3LYP/6-311+g(d) force
 -------------------------

 -----
 DPGEN
 -----
 Symbolic Z-matrix:
 Charge =  0 Multiplicity = 2

                         Standard orientation:
 ---------------------------------------------------------------------
 Center     Atomic      Atomic             Coordinates (Angstroms)
 Number     Number       Type             X           Y           Z
 ---------------------------------------------------------------------
      1         11           0        3.338311    0.492586   -1.157659
      2         11           0        2.013209    3.200552   -0.090901
      3         11           0        2.840938   -2.542951    0.942922
      4         11           0       -0.098250   -3.487083   -0.130798
      5         11           0       -1.164600    3.247822    1.187089
      6         11           0       -3.633945    1.258482   -0.782127
      7         11           0       -3.295664   -2.169408    0.031474
 ---------------------------------------------------------------------

 SCF Done:  E(UB3LYP) =  -1136.10957173     A.U. after   23 cycles

 The electronic state is 2-A.
 Alpha  occ. eigenvalues --  -38.45514 -38.44770 -38.44593 -38.44300 -38.44207
 Alpha  occ. eigenvalues --  -38.44088 -38.43805  -2.21248  -2.20558  -2.20400
 Alpha  occ. eigenvalues --   -2.20108  -2.20013  -2.19879  -2.19605  -1.14937
 Alpha  occ. eigenvalues --   -1.14918  -1.14887  -1.14240  -1.14226  -1.14209
 Alpha  occ. eigenvalues --   -1.14079  -1.14060  -1.14026  -1.13776  -1.13772
 Alpha  occ. eigenvalues --   -1.13755  -1.13669  -1.13658  -1.13648  -1.13535
 Alpha  occ. eigenvalues --   -1.13523  -1.13506  -1.13260  -1.13257  -1.13237
 Alpha  occ. eigenvalues --   -0.15678  -0.13728  -0.13586  -0.10524
 Alpha virt. eigenvalues --   -0.07694  -0.04851  -0.04476  -0.03568  -0.03253
 Alpha virt. eigenvalues --   -0.02337  -0.02215  -0.01645  -0.01433  -0.01065
 Alpha virt. eigenvalues --   -0.00455   0.00020   0.00132   0.00397   0.00730

  Beta  occ. eigenvalues --  -38.45520 -38.44756 -38.44542 -38.44286 -38.44164
  Beta  occ. eigenvalues --  -38.44030 -38.43755  -2.21264  -2.20538  -2.20309
  Beta  occ. eigenvalues --   -2.20088  -2.19935  -2.19772  -2.19513  -1.14951
  Beta  occ. eigenvalues --   -1.14933  -1.14869  -1.14230  -1.14219  -1.14156
  Beta  occ. eigenvalues --   -1.14014  -1.14002  -1.13953  -1.13767  -1.13763
  Beta  occ. eigenvalues --   -1.13702  -1.13616  -1.13605  -1.13589  -1.13461
  Beta  occ. eigenvalues --   -1.13454  -1.13435  -1.13196  -1.13196  -1.13178
  Beta  occ. eigenvalues --   -0.15157  -0.12991  -0.12914
  Beta virt. eigenvalues --   -0.07838  -0.07372  -0.04509  -0.04029  -0.03317
  Beta virt. eigenvalues --   -0.02838  -0.02142  -0.01939  -0.01499  -0.01317
  Beta virt. eigenvalues --   -0.00751  -0.00243   0.00217   0.00326   0.00378

 Mulliken charges and spin densities:
               1          2
     1  Na  -0.021493   0.214026
     2  Na   0.099805   0.042142
     3  Na   0.201107   0.182263
     4  Na  -0.187680   0.059368
     5  Na  -0.125004   0.294439
     6  Na   0.039810  -0.035308
     7  Na  -0.006545   0.243070
 Sum of Mulliken charges =  -0.00000   1.00000

 Dipole moment (field-independent basis, Debye):
    X=             -0.0079    Y=              0.0086    Z=             -0.1804  Tot=              0.1808
 Quadrupole moment (field-independent basis, Debye-Ang):
   XX=            -64.2101   YY=            -68.7840   ZZ=            -68.7612
   XY=             -2.0396   XZ=              2.4968   YZ=              0.1483

 Normal termination of Gaussian 16 at Sun Dec  3 23:21:54 2023.
