 Gaussian 16, Revision B.01,
 Gaussian 16:  ES64L-G16RevB.01 20-Dec-2017

 -------------------------
 #P B3LYP/6-311+g(d) force
 -------------------------

 -----
 DPGEN
 -----
 Symbolic Z-matrix:
 Charge =  0 Multiplicity = 2

                         Standard orientation:
 ---------------------------------------------------------------------
 Center     Atomic      Atomic             Coordinates (Angstroms)
 Number     Number       Type             X           Y           Z
 ---------------------------------------------------------------------
      1         11           0       -0.231544    3.400229   -0.436835
      2         11           0        5.197547   -0.600600    0.500603
      3         11           0        2.748279   -2.500457   -0.731703
      4         11           0        2.064821    1.437775    0.509353
      5         11           0       -2.472077    1.223323   -1.016773
      6         11           0       -3.666716   -2.272547   -0.805283
      7         11           0       -3.640309   -0.687722    1.980638
 ---------------------------------------------------------------------

 SCF Done:  E(UB3LYP) =  -1136.10967154     A.U. after   21 cycles

 The electronic state is 2-A.
 Alpha  occ. eigenvalues --  -38.45189 -38.44918 -38.44752 -38.44340 -38.43727
 Alpha  occ. eigenvalues --  -38.43616 -38.42808  -2.20977  -2.20730  -2.20523
 Alpha  occ. eigenvalues --   -2.20128  -2.19571  -2.19439  -2.18660  -1.14655
 Alpha  occ. eigenvalues --   -1.14645  -1.14627  -1.14387  -1.14379  -1.14337
 Alpha  occ. eigenvalues --   -1.14199  -1.14188  -1.14169  -1.13787  -1.13784
 Alpha  occ. eigenvalues --   -1.13738  -1.13257  -1.13233  -1.13186  -1.13122
 Alpha  occ. eigenvalues --   -1.13107  -1.13053  -1.12334  -1.12318  -1.12309
 Alpha  occ. eigenvalues --   -0.15930  -0.14414  -0.12465  -0.09394
 Alpha virt. eigenvalues --   -0.06733  -0.06431  -0.04695  -0.03281  -0.02975
 Alpha virt. eigenvalues --   -0.02524  -0.02041  -0.01586  -0.01437  -0.00910
 Alpha virt. eigenvalues --   -0.00407  -0.00030   0.00142   0.00219   0.00501

  Beta  occ. eigenvalues --  -38.45197 -38.44872 -38.44762 -38.44286 -38.43677
  Beta  occ. eigenvalues --  -38.43566 -38.42810  -2.20995  -2.20644  -2.20544
  Beta  occ. eigenvalues --   -2.20026  -2.19479  -2.19346  -2.18668  -1.14662
  Beta  occ. eigenvalues --   -1.14647  -1.14635  -1.14327  -1.14315  -1.14284
  Beta  occ. eigenvalues --   -1.14216  -1.14185  -1.14180  -1.13717  -1.13712
  Beta  occ. eigenvalues --   -1.13671  -1.13192  -1.13171  -1.13125  -1.13059
  Beta  occ. eigenvalues --   -1.13035  -1.12998  -1.12331  -1.12324  -1.12296
  Beta  occ. eigenvalues --   -0.15524  -0.14020  -0.12150
  Beta virt. eigenvalues --   -0.06475  -0.06231  -0.05850  -0.04462  -0.03189
  Beta virt. eigenvalues --   -0.02768  -0.02127  -0.01658  -0.01487  -0.01284
  Beta virt. eigenvalues --   -0.00687  -0.00052   0.00135   0.00277   0.00405

 Mulliken charges and spin densities:
               1          2
     1  Na   1.013028  -0.112701
     2  Na   0.372905  -0.009355
     3  Na  -0.094981   0.267127
     4  Na  -1.003497   0.268492
     5  Na  -0.771995   0.345510
     6  Na   0.297230   0.083272
     7  Na   0.187309   0.157655
 Sum of Mulliken charges =  -0.00000   1.00000

 Dipole moment (field-independent basis, Debye):
    X=             -0.4479    Y=             -1.3612    Z=              0.2961  Tot=              1.4633
 Quadrupole moment (field-independent basis, Debye-Ang):
   XX=            -57.3824   YY=            -69.8194   ZZ=            -69.9780
   XY=              2.9801   XZ=              3.3285   YZ=              4.6710

 Normal termination of Gaussian 16 at Mon Dec  4 00:14:09 2023.
