 Gaussian 16, Revision B.01,
 Gaussian 16:  ES64L-G16RevB.01 20-Dec-2017

 -------------------------
 #P B3LYP/6-311+g(d) force
 -------------------------

 -----
 DPGEN
 -----
 Symbolic Z-matrix:
 Charge =  0 Multiplicity = 2

                         Standard orientation:
 ---------------------------------------------------------------------
 Center     Atomic      Atomic             Coordinates (Angstroms)
 Number     Number       Type             X           Y           Z
 ---------------------------------------------------------------------
      1         11           0       -0.842827   -2.429817   -0.217352
      2         11           0        0.099727    0.105413    2.475368
      3         11           0       -3.427024   -0.315483    0.178038
      4         11           0        1.847520    2.053685   -0.075815
      5         11           0        0.417996   -0.382520   -1.808757
      6         11           0       -1.527703    2.036060   -0.598601
      7         11           0        3.432310   -1.067337    0.047119
 ---------------------------------------------------------------------

 SCF Done:  E(UB3LYP) =  -1136.12383882     A.U. after   22 cycles

 The electronic state is 2-A.
 Alpha  occ. eigenvalues --  -38.44995 -38.44829 -38.44819 -38.43906 -38.43162
 Alpha  occ. eigenvalues --  -38.43080 -38.42798  -2.20762  -2.20655  -2.20631
 Alpha  occ. eigenvalues --   -2.19879  -2.19035  -2.18962  -2.18692  -1.14436
 Alpha  occ. eigenvalues --   -1.14422  -1.14401  -1.14346  -1.14308  -1.14294
 Alpha  occ. eigenvalues --   -1.14277  -1.14258  -1.14248  -1.13629  -1.13531
 Alpha  occ. eigenvalues --   -1.13473  -1.12729  -1.12703  -1.12683  -1.12663
 Alpha  occ. eigenvalues --   -1.12604  -1.12556  -1.12377  -1.12351  -1.12327
 Alpha  occ. eigenvalues --   -0.18492  -0.13369  -0.11570  -0.11482
 Alpha virt. eigenvalues --   -0.06730  -0.04879  -0.03759  -0.03452  -0.03413
 Alpha virt. eigenvalues --   -0.02804  -0.02234  -0.00958  -0.00248  -0.00092
 Alpha virt. eigenvalues --    0.00080   0.00257   0.00453   0.00757   0.00852

  Beta  occ. eigenvalues --  -38.44998 -38.44831 -38.44708 -38.43842 -38.43157
  Beta  occ. eigenvalues --  -38.43073 -38.42786  -2.20769  -2.20660  -2.20425
  Beta  occ. eigenvalues --   -2.19763  -2.19030  -2.18952  -2.18673  -1.14433
  Beta  occ. eigenvalues --   -1.14423  -1.14406  -1.14351  -1.14300  -1.14297
  Beta  occ. eigenvalues --   -1.14140  -1.14114  -1.14102  -1.13549  -1.13450
  Beta  occ. eigenvalues --   -1.13388  -1.12723  -1.12676  -1.12665  -1.12661
  Beta  occ. eigenvalues --   -1.12580  -1.12554  -1.12359  -1.12333  -1.12306
  Beta  occ. eigenvalues --   -0.17734  -0.13242  -0.11339
  Beta virt. eigenvalues --   -0.07459  -0.06587  -0.04865  -0.03532  -0.02940
  Beta virt. eigenvalues --   -0.02383  -0.02096  -0.01945  -0.00901  -0.00190
  Beta virt. eigenvalues --    0.00009   0.00063   0.00294   0.00641   0.00831

 Mulliken charges and spin densities:
               1          2
     1  Na   0.202778   0.086700
     2  Na  -0.552850   0.645214
     3  Na  -0.001846  -0.002921
     4  Na   0.062388   0.089680
     5  Na   0.086819   0.119428
     6  Na   0.079732   0.111966
     7  Na   0.122978  -0.050066
 Sum of Mulliken charges =  -0.00000   1.00000

 Dipole moment (field-independent basis, Debye):
    X=              0.3457    Y=             -0.2713    Z=              0.5886  Tot=              0.7346
 Quadrupole moment (field-independent basis, Debye-Ang):
   XX=            -50.2960   YY=            -74.0296   ZZ=            -70.2923
   XY=             -0.7866   XZ=              0.0241   YZ=             -1.2827

 Normal termination of Gaussian 16 at Fri Dec  8 04:34:58 2023.
