 Gaussian 16, Revision B.01,
 Gaussian 16:  ES64L-G16RevB.01 20-Dec-2017

 -------------------------
 #P B3LYP/6-311+g(d) force
 -------------------------

 -----
 DPGEN
 -----
 Symbolic Z-matrix:
 Charge =  0 Multiplicity = 2

                         Standard orientation:
 ---------------------------------------------------------------------
 Center     Atomic      Atomic             Coordinates (Angstroms)
 Number     Number       Type             X           Y           Z
 ---------------------------------------------------------------------
      1         11           0       -1.297263    2.474750   -0.694806
      2         11           0       -1.081250   -2.717036   -0.014300
      3         11           0       -0.055117    0.329258    2.018856
      4         11           0        3.045203   -1.520486    0.122126
      5         11           0        2.524321    2.088682    0.026781
      6         11           0        0.341605   -0.688621   -1.654187
      7         11           0       -3.477499    0.033452    0.195531
 ---------------------------------------------------------------------

 SCF Done:  E(UB3LYP) =  -1136.13054152     A.U. after   20 cycles

 The electronic state is 2-A.
 Alpha  occ. eigenvalues --  -38.44710 -38.44696 -38.44077 -38.43768 -38.43488
 Alpha  occ. eigenvalues --  -38.43295 -38.43289  -2.20497  -2.20486  -2.19861
 Alpha  occ. eigenvalues --   -2.19616  -2.19338  -2.19232  -2.19116  -1.14182
 Alpha  occ. eigenvalues --   -1.14158  -1.14152  -1.14147  -1.14132  -1.14127
 Alpha  occ. eigenvalues --   -1.13538  -1.13519  -1.13505  -1.13291  -1.13251
 Alpha  occ. eigenvalues --   -1.13228  -1.13156  -1.12990  -1.12949  -1.12887
 Alpha  occ. eigenvalues --   -1.12848  -1.12829  -1.12787  -1.12775  -1.12749
 Alpha  occ. eigenvalues --   -0.18080  -0.13154  -0.12063  -0.10462
 Alpha virt. eigenvalues --   -0.06342  -0.05596  -0.04277  -0.03272  -0.02872
 Alpha virt. eigenvalues --   -0.02365  -0.02027  -0.01335  -0.00664  -0.00296
 Alpha virt. eigenvalues --   -0.00060   0.00310   0.00668   0.00726   0.00789

  Beta  occ. eigenvalues --  -38.44708 -38.44696 -38.44076 -38.43683 -38.43483
  Beta  occ. eigenvalues --  -38.43268 -38.43236  -2.20497  -2.20487  -2.19863
  Beta  occ. eigenvalues --   -2.19459  -2.19332  -2.19123  -2.19079  -1.14172
  Beta  occ. eigenvalues --   -1.14153  -1.14148  -1.14140  -1.14132  -1.14129
  Beta  occ. eigenvalues --   -1.13524  -1.13521  -1.13506  -1.13186  -1.13142
  Beta  occ. eigenvalues --   -1.13128  -1.13113  -1.12967  -1.12945  -1.12817
  Beta  occ. eigenvalues --   -1.12777  -1.12768  -1.12750  -1.12733  -1.12727
  Beta  occ. eigenvalues --   -0.17378  -0.12983  -0.11827
  Beta virt. eigenvalues --   -0.06648  -0.06257  -0.05575  -0.04163  -0.02592
  Beta virt. eigenvalues --   -0.02152  -0.01910  -0.01380  -0.01261  -0.00705
  Beta virt. eigenvalues --   -0.00289   0.00102   0.00340   0.00744   0.00758

 Mulliken charges and spin densities:
               1          2
     1  Na  -0.077718   0.056915
     2  Na   0.077299  -0.113562
     3  Na  -0.313942   0.718972
     4  Na   0.059459  -0.117121
     5  Na   0.009313  -0.033681
     6  Na   0.171726   0.476386
     7  Na   0.073863   0.012091
 Sum of Mulliken charges =  -0.00000   1.00000

 Dipole moment (field-independent basis, Debye):
    X=              0.2338    Y=             -0.1680    Z=              0.2474  Tot=              0.3796
 Quadrupole moment (field-independent basis, Debye-Ang):
   XX=            -50.7244   YY=            -66.2092   ZZ=            -75.6717
   XY=              0.1048   XZ=              0.2784   YZ=             -2.1863

 Normal termination of Gaussian 16 at Thu Dec  7 22:37:44 2023.
