 Gaussian 16, Revision B.01,
 Gaussian 16:  ES64L-G16RevB.01 20-Dec-2017

 -------------------------
 #P B3LYP/6-311+g(d) force
 -------------------------

 -----
 DPGEN
 -----
 Symbolic Z-matrix:
 Charge =  0 Multiplicity = 2

                         Standard orientation:
 ---------------------------------------------------------------------
 Center     Atomic      Atomic             Coordinates (Angstroms)
 Number     Number       Type             X           Y           Z
 ---------------------------------------------------------------------
      1         11           0       -0.138300    0.041641    2.054056
      2         11           0        0.717895   -2.804153    0.032017
      3         11           0       -0.281549   -0.066293   -1.643687
      4         11           0       -1.671166    2.640685   -0.179683
      5         11           0        3.204630   -0.561664   -0.259299
      6         11           0        1.620625    2.129311    0.062538
      7         11           0       -3.452135   -1.379528   -0.065942
 ---------------------------------------------------------------------

 SCF Done:  E(UB3LYP) =  -1136.13114832     A.U. after   22 cycles

 The electronic state is 2-A.
 Alpha  occ. eigenvalues --  -38.44865 -38.43956 -38.43873 -38.43794 -38.43559
 Alpha  occ. eigenvalues --  -38.43343 -38.43142  -2.20592  -2.19809  -2.19702
 Alpha  occ. eigenvalues --   -2.19627  -2.19441  -2.19279  -2.19069  -1.14272
 Alpha  occ. eigenvalues --   -1.14251  -1.14228  -1.13509  -1.13461  -1.13457
 Alpha  occ. eigenvalues --   -1.13388  -1.13362  -1.13340  -1.13318  -1.13299
 Alpha  occ. eigenvalues --   -1.13241  -1.13117  -1.13065  -1.13055  -1.12974
 Alpha  occ. eigenvalues --   -1.12923  -1.12893  -1.12743  -1.12723  -1.12703
 Alpha  occ. eigenvalues --   -0.18470  -0.12835  -0.12348  -0.10603
 Alpha virt. eigenvalues --   -0.06354  -0.05305  -0.04349  -0.03033  -0.02862
 Alpha virt. eigenvalues --   -0.02524  -0.01977  -0.01327  -0.00510  -0.00265
 Alpha virt. eigenvalues --   -0.00045   0.00295   0.00694   0.00794   0.00820

  Beta  occ. eigenvalues --  -38.44870 -38.43951 -38.43869 -38.43787 -38.43459
  Beta  occ. eigenvalues --  -38.43284 -38.43132  -2.20603  -2.19802  -2.19698
  Beta  occ. eigenvalues --   -2.19618  -2.19256  -2.19170  -2.19054  -1.14270
  Beta  occ. eigenvalues --   -1.14260  -1.14236  -1.13507  -1.13458  -1.13433
  Beta  occ. eigenvalues --   -1.13380  -1.13341  -1.13341  -1.13311  -1.13269
  Beta  occ. eigenvalues --   -1.13239  -1.12997  -1.12932  -1.12926  -1.12900
  Beta  occ. eigenvalues --   -1.12845  -1.12813  -1.12732  -1.12699  -1.12671
  Beta  occ. eigenvalues --   -0.17717  -0.12631  -0.12134
  Beta virt. eigenvalues --   -0.06667  -0.06344  -0.05241  -0.04333  -0.02328
  Beta virt. eigenvalues --   -0.02078  -0.01958  -0.01400  -0.01253  -0.00561
  Beta virt. eigenvalues --   -0.00298   0.00104   0.00323   0.00723   0.00847

 Mulliken charges and spin densities:
               1          2
     1  Na  -0.457714   0.669716
     2  Na   0.163822  -0.057521
     3  Na  -0.303945   0.460333
     4  Na   0.192275  -0.094443
     5  Na   0.045236   0.025359
     6  Na   0.403249   0.141922
     7  Na  -0.042924  -0.145366
 Sum of Mulliken charges =  -0.00000   1.00000

 Dipole moment (field-independent basis, Debye):
    X=             -0.5913    Y=             -0.2151    Z=              0.0747  Tot=              0.6336
 Quadrupole moment (field-independent basis, Debye-Ang):
   XX=            -53.8043   YY=            -63.2032   ZZ=            -75.4829
   XY=             -0.7878   XZ=             -0.6042   YZ=             -0.2829

 Normal termination of Gaussian 16 at Fri Dec  8 03:46:02 2023.
