 Gaussian 16, Revision B.01,
 Gaussian 16:  ES64L-G16RevB.01 20-Dec-2017

 -------------------------
 #P B3LYP/6-311+g(d) force
 -------------------------

 -----
 DPGEN
 -----
 Symbolic Z-matrix:
 Charge =  0 Multiplicity = 2

                         Standard orientation:
 ---------------------------------------------------------------------
 Center     Atomic      Atomic             Coordinates (Angstroms)
 Number     Number       Type             X           Y           Z
 ---------------------------------------------------------------------
      1         11           0       -0.001037   -3.045233   -0.325854
      2         11           0        2.218878    2.082597    0.404536
      3         11           0       -0.773862   -0.668040    2.402211
      4         11           0       -3.032210   -0.683596   -0.663384
      5         11           0       -0.009738    0.357459   -1.095812
      6         11           0       -1.466069    2.915215   -0.253888
      7         11           0        3.064038   -0.958401   -0.467808
 ---------------------------------------------------------------------

 SCF Done:  E(UB3LYP) =  -1136.13152493     A.U. after   19 cycles

 The electronic state is 2-A.
 Alpha  occ. eigenvalues --  -38.44279 -38.43964 -38.43828 -38.43825 -38.43819
 Alpha  occ. eigenvalues --  -38.43690 -38.42730  -2.20096  -2.19781  -2.19670
 Alpha  occ. eigenvalues --   -2.19648  -2.19636  -2.19524  -2.18786  -1.13794
 Alpha  occ. eigenvalues --   -1.13752  -1.13711  -1.13501  -1.13434  -1.13399
 Alpha  occ. eigenvalues --   -1.13379  -1.13327  -1.13317  -1.13313  -1.13308
 Alpha  occ. eigenvalues --   -1.13287  -1.13274  -1.13271  -1.13252  -1.13198
 Alpha  occ. eigenvalues --   -1.13175  -1.13148  -1.12478  -1.12435  -1.12430
 Alpha  occ. eigenvalues --   -0.18113  -0.12945  -0.12491  -0.10549
 Alpha virt. eigenvalues --   -0.05852  -0.05162  -0.04932  -0.03203  -0.02693
 Alpha virt. eigenvalues --   -0.02463  -0.01515  -0.01373  -0.00642  -0.00524
 Alpha virt. eigenvalues --   -0.00056   0.00313   0.00748   0.00799   0.00823

  Beta  occ. eigenvalues --  -38.44263 -38.43963 -38.43822 -38.43821 -38.43704
  Beta  occ. eigenvalues --  -38.43686 -38.42701  -2.20070  -2.19782  -2.19663
  Beta  occ. eigenvalues --   -2.19629  -2.19516  -2.19434  -2.18735  -1.13769
  Beta  occ. eigenvalues --   -1.13724  -1.13694  -1.13499  -1.13427  -1.13398
  Beta  occ. eigenvalues --   -1.13374  -1.13314  -1.13310  -1.13304  -1.13285
  Beta  occ. eigenvalues --   -1.13263  -1.13186  -1.13168  -1.13144  -1.13143
  Beta  occ. eigenvalues --   -1.13128  -1.13110  -1.12423  -1.12401  -1.12392
  Beta  occ. eigenvalues --   -0.17496  -0.12734  -0.12290
  Beta virt. eigenvalues --   -0.06599  -0.05821  -0.05063  -0.04810  -0.02491
  Beta virt. eigenvalues --   -0.02061  -0.01481  -0.01403  -0.01314  -0.00644
  Beta virt. eigenvalues --   -0.00508   0.00166   0.00382   0.00772   0.00849

 Mulliken charges and spin densities:
               1          2
     1  Na   0.254628   0.057224
     2  Na   0.059912   0.090915
     3  Na  -0.656565   0.665212
     4  Na   0.143172   0.029704
     5  Na  -0.058811   0.111983
     6  Na   0.109806   0.018698
     7  Na   0.147858   0.026265
 Sum of Mulliken charges =  -0.00000   1.00000

 Dipole moment (field-independent basis, Debye):
    X=             -0.2279    Y=              0.0551    Z=              0.0819  Tot=              0.2483
 Quadrupole moment (field-independent basis, Debye-Ang):
   XX=            -57.5873   YY=            -59.6752   ZZ=            -75.5286
   XY=             -0.3821   XZ=              1.5567   YZ=              2.5221

 Normal termination of Gaussian 16 at Thu Dec  7 23:38:42 2023.
