 Gaussian 16, Revision B.01,
 Gaussian 16:  ES64L-G16RevB.01 20-Dec-2017

 -------------------------
 #P B3LYP/6-311+g(d) force
 -------------------------

 -----
 DPGEN
 -----
 Symbolic Z-matrix:
 Charge =  0 Multiplicity = 2

                         Standard orientation:
 ---------------------------------------------------------------------
 Center     Atomic      Atomic             Coordinates (Angstroms)
 Number     Number       Type             X           Y           Z
 ---------------------------------------------------------------------
      1         11           0       -3.885553    1.615385    0.646110
      2         11           0        5.317671   -0.864324    1.191113
      3         11           0       -5.005718   -1.281875   -0.353173
      4         11           0       -1.587816   -1.221606    0.736357
      5         11           0        3.376146    1.586348   -0.642197
      6         11           0       -0.000601    1.755334   -0.315983
      7         11           0        1.785871   -1.589262   -1.262228
 ---------------------------------------------------------------------

 SCF Done:  E(UB3LYP) =  -1136.11191284     A.U. after   97 cycles

 The electronic state is 2-A.
 Alpha  occ. eigenvalues --  -38.45139 -38.45038 -38.44584 -38.44328 -38.44243
 Alpha  occ. eigenvalues --  -38.43620 -38.42757  -2.20917  -2.20850  -2.20412
 Alpha  occ. eigenvalues --   -2.20148  -2.20056  -2.19347  -2.18592  -1.14601
 Alpha  occ. eigenvalues --   -1.14563  -1.14531  -1.14526  -1.14498  -1.14480
 Alpha  occ. eigenvalues --   -1.14105  -1.14079  -1.14012  -1.13836  -1.13807
 Alpha  occ. eigenvalues --   -1.13749  -1.13718  -1.13712  -1.13685  -1.13037
 Alpha  occ. eigenvalues --   -1.13031  -1.12991  -1.12273  -1.12262  -1.12220
 Alpha  occ. eigenvalues --   -0.16777  -0.14459  -0.10957  -0.10775
 Alpha virt. eigenvalues --   -0.06997  -0.06243  -0.04310  -0.03522  -0.02946
 Alpha virt. eigenvalues --   -0.02730  -0.01867  -0.01386  -0.01193  -0.00910
 Alpha virt. eigenvalues --   -0.00326  -0.00043   0.00072   0.00311   0.00446

  Beta  occ. eigenvalues --  -38.45084 -38.45007 -38.44535 -38.44296 -38.44219
  Beta  occ. eigenvalues --  -38.43662 -38.42730  -2.20817  -2.20793  -2.20325
  Beta  occ. eigenvalues --   -2.20086  -2.20011  -2.19426  -2.18544  -1.14531
  Beta  occ. eigenvalues --   -1.14498  -1.14494  -1.14464  -1.14442  -1.14420
  Beta  occ. eigenvalues --   -1.14044  -1.14011  -1.13939  -1.13790  -1.13770
  Beta  occ. eigenvalues --   -1.13712  -1.13684  -1.13676  -1.13659  -1.13091
  Beta  occ. eigenvalues --   -1.13083  -1.13042  -1.12243  -1.12218  -1.12182
  Beta  occ. eigenvalues --   -0.16089  -0.14230  -0.10754
  Beta virt. eigenvalues --   -0.07357  -0.06714  -0.05558  -0.04173  -0.03289
  Beta virt. eigenvalues --   -0.02476  -0.02087  -0.01723  -0.01239  -0.00816
  Beta virt. eigenvalues --   -0.00714  -0.00228   0.00083   0.00233   0.00421

 Mulliken charges and spin densities:
               1          2
     1  Na   0.262461   0.090816
     2  Na   0.108616  -0.277938
     3  Na   0.433208   0.103743
     4  Na  -0.607092   0.394119
     5  Na   0.483616   0.284190
     6  Na  -0.652149   0.152820
     7  Na  -0.028659   0.252252
 Sum of Mulliken charges =  -0.00000   1.00000

 Dipole moment (field-independent basis, Debye):
    X=             -1.5879    Y=             -0.2524    Z=             -0.2144  Tot=              1.6221
 Quadrupole moment (field-independent basis, Debye-Ang):
   XX=            -70.0632   YY=            -65.5974   ZZ=            -67.0924
   XY=             -1.3520   XZ=             -0.2833   YZ=              1.0852

 Normal termination of Gaussian 16 at Sun Dec  3 16:29:24 2023.
