 Gaussian 16, Revision B.01,
 Gaussian 16:  ES64L-G16RevB.01 20-Dec-2017

 -------------------------
 #P B3LYP/6-311+g(d) force
 -------------------------

 -----
 DPGEN
 -----
 Symbolic Z-matrix:
 Charge =  0 Multiplicity = 2

                         Standard orientation:
 ---------------------------------------------------------------------
 Center     Atomic      Atomic             Coordinates (Angstroms)
 Number     Number       Type             X           Y           Z
 ---------------------------------------------------------------------
      1         11           0        0.119626    2.720410   -0.840890
      2         11           0        2.831575    0.510452    0.301603
      3         11           0       -3.301909   -0.663033   -1.813181
      4         11           0       -2.458623    1.426895    1.846650
      5         11           0        6.037241   -1.169142    0.082749
      6         11           0       -3.043929   -2.128237    0.916766
      7         11           0       -0.183980   -0.697345   -0.493697
 ---------------------------------------------------------------------

 SCF Done:  E(UB3LYP) =  -1136.11190885     A.U. after   26 cycles

 The electronic state is 2-A.
 Alpha  occ. eigenvalues --  -38.45349 -38.44732 -38.44654 -38.44521 -38.43873
 Alpha  occ. eigenvalues --  -38.43771 -38.43364  -2.21201  -2.20627  -2.20505
 Alpha  occ. eigenvalues --   -2.20329  -2.19629  -2.19567  -2.19168  -1.14861
 Alpha  occ. eigenvalues --   -1.14854  -1.14833  -1.14339  -1.14285  -1.14248
 Alpha  occ. eigenvalues --   -1.14187  -1.14152  -1.14137  -1.13997  -1.13964
 Alpha  occ. eigenvalues --   -1.13927  -1.13287  -1.13286  -1.13248  -1.13246
 Alpha  occ. eigenvalues --   -1.13221  -1.13213  -1.12890  -1.12857  -1.12761
 Alpha  occ. eigenvalues --   -0.17772  -0.13723  -0.11536  -0.10996
 Alpha virt. eigenvalues --   -0.07405  -0.05597  -0.04614  -0.03433  -0.03154
 Alpha virt. eigenvalues --   -0.02185  -0.02160  -0.01933  -0.01138  -0.00890
 Alpha virt. eigenvalues --   -0.00537  -0.00001   0.00169   0.00422   0.00539

  Beta  occ. eigenvalues --  -38.45303 -38.44709 -38.44651 -38.44428 -38.43824
  Beta  occ. eigenvalues --  -38.43781 -38.43375  -2.21116  -2.20587  -2.20504
  Beta  occ. eigenvalues --   -2.20155  -2.19585  -2.19538  -2.19192  -1.14805
  Beta  occ. eigenvalues --   -1.14790  -1.14770  -1.14294  -1.14269  -1.14221
  Beta  occ. eigenvalues --   -1.14186  -1.14153  -1.14101  -1.13879  -1.13850
  Beta  occ. eigenvalues --   -1.13804  -1.13261  -1.13228  -1.13225  -1.13224
  Beta  occ. eigenvalues --   -1.13223  -1.13187  -1.12909  -1.12874  -1.12762
  Beta  occ. eigenvalues --   -0.17201  -0.13500  -0.11035
  Beta virt. eigenvalues --   -0.07367  -0.07122  -0.05451  -0.04478  -0.02935
  Beta virt. eigenvalues --   -0.02686  -0.01960  -0.01786  -0.01607  -0.00899
  Beta virt. eigenvalues --   -0.00659  -0.00368   0.00168   0.00259   0.00479

 Mulliken charges and spin densities:
               1          2
     1  Na   0.558783  -0.222823
     2  Na  -0.293256   0.091530
     3  Na   0.693870  -0.087421
     4  Na  -0.154037   0.477654
     5  Na  -0.114821   0.220772
     6  Na   0.412231   0.103145
     7  Na  -1.102771   0.417143
 Sum of Mulliken charges =  -0.00000   1.00000

 Dipole moment (field-independent basis, Debye):
    X=             -2.7061    Y=              0.1445    Z=             -0.7007  Tot=              2.7991
 Quadrupole moment (field-independent basis, Debye-Ang):
   XX=            -65.5394   YY=            -65.8123   ZZ=            -70.2439
   XY=              0.3486   XZ=              2.6754   YZ=             -5.0195

 Normal termination of Gaussian 16 at Tue Dec  5 11:48:49 2023.
