 Gaussian 16, Revision B.01,
 Gaussian 16:  ES64L-G16RevB.01 20-Dec-2017

 -------------------------
 #P B3LYP/6-311+g(d) force
 -------------------------

 -----
 DPGEN
 -----
 Symbolic Z-matrix:
 Charge =  0 Multiplicity = 2

                         Standard orientation:
 ---------------------------------------------------------------------
 Center     Atomic      Atomic             Coordinates (Angstroms)
 Number     Number       Type             X           Y           Z
 ---------------------------------------------------------------------
      1         11           0        3.192461   -1.097703    1.631020
      2         11           0       -2.771828    1.518457    0.303207
      3         11           0       -4.002464   -1.887997    0.028115
      4         11           0        0.571071    1.481666    1.601046
      5         11           0       -0.478135   -1.387886   -0.606426
      6         11           0        0.066889    1.804141   -1.389067
      7         11           0        3.422007   -0.430677   -1.567896
 ---------------------------------------------------------------------

 SCF Done:  E(UB3LYP) =  -1136.12108431     A.U. after   22 cycles

 The electronic state is 2-A.
 Alpha  occ. eigenvalues --  -38.44877 -38.44740 -38.44731 -38.44157 -38.43727
 Alpha  occ. eigenvalues --  -38.43381 -38.43054  -2.20689  -2.20569  -2.20534
 Alpha  occ. eigenvalues --   -2.19978  -2.19618  -2.19314  -2.18835  -1.14405
 Alpha  occ. eigenvalues --   -1.14387  -1.14280  -1.14268  -1.14237  -1.14203
 Alpha  occ. eigenvalues --   -1.14192  -1.14170  -1.14161  -1.13639  -1.13624
 Alpha  occ. eigenvalues --   -1.13608  -1.13340  -1.13294  -1.13214  -1.12993
 Alpha  occ. eigenvalues --   -1.12970  -1.12900  -1.12505  -1.12505  -1.12472
 Alpha  occ. eigenvalues --   -0.18026  -0.13834  -0.11350  -0.11126
 Alpha virt. eigenvalues --   -0.06830  -0.05375  -0.04884  -0.03131  -0.02795
 Alpha virt. eigenvalues --   -0.02664  -0.02226  -0.01278  -0.00945  -0.00175
 Alpha virt. eigenvalues --    0.00000   0.00069   0.00291   0.00322   0.00611

  Beta  occ. eigenvalues --  -38.44859 -38.44727 -38.44714 -38.44111 -38.43680
  Beta  occ. eigenvalues --  -38.43344 -38.43058  -2.20658  -2.20561  -2.20487
  Beta  occ. eigenvalues --   -2.19894  -2.19532  -2.19247  -2.18842  -1.14372
  Beta  occ. eigenvalues --   -1.14361  -1.14266  -1.14248  -1.14231  -1.14170
  Beta  occ. eigenvalues --   -1.14158  -1.14157  -1.14129  -1.13583  -1.13561
  Beta  occ. eigenvalues --   -1.13546  -1.13281  -1.13235  -1.13145  -1.12946
  Beta  occ. eigenvalues --   -1.12926  -1.12833  -1.12510  -1.12509  -1.12477
  Beta  occ. eigenvalues --   -0.17383  -0.13574  -0.11310
  Beta virt. eigenvalues --   -0.07255  -0.06659  -0.05148  -0.04182  -0.03023
  Beta virt. eigenvalues --   -0.02588  -0.01970  -0.01848  -0.01195  -0.00450
  Beta virt. eigenvalues --   -0.00152   0.00043   0.00193   0.00457   0.00516

 Mulliken charges and spin densities:
               1          2
     1  Na   0.316929   0.171733
     2  Na   0.159777   0.012010
     3  Na   0.356662  -0.010175
     4  Na  -0.267945   0.273175
     5  Na  -1.183487   0.230724
     6  Na   0.313765   0.341692
     7  Na   0.304298  -0.019158
 Sum of Mulliken charges =  -0.00000   1.00000

 Dipole moment (field-independent basis, Debye):
    X=              0.4656    Y=              0.7843    Z=             -0.1645  Tot=              0.9268
 Quadrupole moment (field-independent basis, Debye-Ang):
   XX=            -57.3207   YY=            -71.5604   ZZ=            -69.2110
   XY=             -5.0370   XZ=             -2.9562   YZ=             -1.5042

 Normal termination of Gaussian 16 at Thu Dec  7 01:40:13 2023.
