 Gaussian 16, Revision B.01,
 Gaussian 16:  ES64L-G16RevB.01 20-Dec-2017

 -------------------------
 #P B3LYP/6-311+g(d) force
 -------------------------

 -----
 DPGEN
 -----
 Symbolic Z-matrix:
 Charge =  0 Multiplicity = 2

                         Standard orientation:
 ---------------------------------------------------------------------
 Center     Atomic      Atomic             Coordinates (Angstroms)
 Number     Number       Type             X           Y           Z
 ---------------------------------------------------------------------
      1         11           0        0.935917   -1.545216    0.761400
      2         11           0        0.750123    1.576284    0.848900
      3         11           0        2.994780    0.176080   -0.366200
      4         11           0        0.400620   -0.222315   -1.620900
      5         11           0       -1.261580   -0.168212    1.721500
      6         11           0       -1.898183   -1.459410   -0.658000
      7         11           0       -1.921677    1.642790   -0.686700
 ---------------------------------------------------------------------

 SCF Done:  E(UB3LYP) =  -1136.08352427     A.U. after   22 cycles

 The electronic state is 2-A.
 Alpha  occ. eigenvalues --  -38.44592 -38.44419 -38.44226 -38.43537 -38.43297
 Alpha  occ. eigenvalues --  -38.43292 -38.42968  -2.20802  -2.20497  -2.20432
 Alpha  occ. eigenvalues --   -2.19647  -2.19510  -2.19320  -2.19136  -1.14616
 Alpha  occ. eigenvalues --   -1.14516  -1.14403  -1.14393  -1.14297  -1.14122
 Alpha  occ. eigenvalues --   -1.14093  -1.14043  -1.14002  -1.13325  -1.13303
 Alpha  occ. eigenvalues --   -1.13243  -1.13204  -1.13149  -1.13040  -1.13030
 Alpha  occ. eigenvalues --   -1.12967  -1.12936  -1.12836  -1.12775  -1.12685
 Alpha  occ. eigenvalues --   -0.21459  -0.14271  -0.12755  -0.11926
 Alpha virt. eigenvalues --   -0.05657  -0.04193  -0.04012  -0.03681  -0.02918
 Alpha virt. eigenvalues --   -0.02794  -0.01357  -0.00399  -0.00272   0.00297
 Alpha virt. eigenvalues --    0.00698   0.00899   0.00946   0.01038   0.01089

  Beta  occ. eigenvalues --  -38.44509 -38.44413 -38.44149 -38.43516 -38.43272
  Beta  occ. eigenvalues --  -38.43262 -38.42937  -2.20656  -2.20432  -2.20353
  Beta  occ. eigenvalues --   -2.19616  -2.19454  -2.19287  -2.19087  -1.14513
  Beta  occ. eigenvalues --   -1.14406  -1.14334  -1.14294  -1.14214  -1.14096
  Beta  occ. eigenvalues --   -1.14067  -1.13971  -1.13945  -1.13305  -1.13246
  Beta  occ. eigenvalues --   -1.13210  -1.13166  -1.13063  -1.13014  -1.13001
  Beta  occ. eigenvalues --   -1.12923  -1.12903  -1.12794  -1.12715  -1.12644
  Beta  occ. eigenvalues --   -0.20611  -0.14003  -0.11668
  Beta virt. eigenvalues --   -0.08339  -0.05578  -0.04022  -0.03427  -0.03231
  Beta virt. eigenvalues --   -0.02141  -0.01913  -0.01283  -0.00337  -0.00065
  Beta virt. eigenvalues --    0.00332   0.00750   0.00911   0.01054   0.01081

 Mulliken charges and spin densities:
               1          2
     1  Na  -0.717794   0.202548
     2  Na  -0.661266   0.173581
     3  Na   0.955651  -0.032175
     4  Na  -0.005768   0.409931
     5  Na   0.807286   0.253911
     6  Na  -0.041805  -0.035634
     7  Na  -0.336304   0.027839
 Sum of Mulliken charges =  -0.00000   1.00000

 Dipole moment (field-independent basis, Debye):
    X=              0.1737    Y=              0.1951    Z=             -0.2207  Tot=              0.3420
 Quadrupole moment (field-independent basis, Debye-Ang):
   XX=            -55.7416   YY=            -75.0960   ZZ=            -65.5715
   XY=              0.1144   XZ=              0.4518   YZ=             -1.2264

 Normal termination of Gaussian 16 at Sat Dec  9 07:17:10 2023.
