 Gaussian 16, Revision B.01,
 Gaussian 16:  ES64L-G16RevB.01 20-Dec-2017

 -------------------------
 #P B3LYP/6-311+g(d) force
 -------------------------

 -----
 DPGEN
 -----
 Symbolic Z-matrix:
 Charge =  0 Multiplicity = 2

                         Standard orientation:
 ---------------------------------------------------------------------
 Center     Atomic      Atomic             Coordinates (Angstroms)
 Number     Number       Type             X           Y           Z
 ---------------------------------------------------------------------
      1         11           0        3.138274    0.872022   -0.205771
      2         11           0       -2.999226    0.814900   -0.439176
      3         11           0       -0.004218    0.132857   -1.571823
      4         11           0       -0.138514    2.838992    0.221808
      5         11           0        2.185695   -2.113779   -0.120184
      6         11           0       -0.235353   -0.136110    2.181271
      7         11           0       -1.946658   -2.408883   -0.066125
 ---------------------------------------------------------------------

 SCF Done:  E(UB3LYP) =  -1136.13648370     A.U. after   20 cycles

 The electronic state is 2-A.
 Alpha  occ. eigenvalues --  -38.44189 -38.44141 -38.43757 -38.43711 -38.43466
 Alpha  occ. eigenvalues --  -38.43328 -38.42950  -2.20025  -2.19997  -2.19621
 Alpha  occ. eigenvalues --   -2.19553  -2.19306  -2.19292  -2.18807  -1.13716
 Alpha  occ. eigenvalues --   -1.13692  -1.13690  -1.13659  -1.13651  -1.13625
 Alpha  occ. eigenvalues --   -1.13281  -1.13248  -1.13240  -1.13230  -1.13215
 Alpha  occ. eigenvalues --   -1.13184  -1.13002  -1.12978  -1.12958  -1.12944
 Alpha  occ. eigenvalues --   -1.12933  -1.12921  -1.12489  -1.12471  -1.12434
 Alpha  occ. eigenvalues --   -0.18524  -0.13356  -0.12063  -0.10846
 Alpha virt. eigenvalues --   -0.05784  -0.05312  -0.04421  -0.03287  -0.02830
 Alpha virt. eigenvalues --   -0.02670  -0.01718  -0.01088  -0.00415  -0.00333
 Alpha virt. eigenvalues --   -0.00030   0.00341   0.00739   0.00868   0.00888

  Beta  occ. eigenvalues --  -38.44186 -38.44128 -38.43708 -38.43650 -38.43463
  Beta  occ. eigenvalues --  -38.43277 -38.42943  -2.20022  -2.19976  -2.19551
  Beta  occ. eigenvalues --   -2.19424  -2.19290  -2.19213  -2.18798  -1.13717
  Beta  occ. eigenvalues --   -1.13678  -1.13667  -1.13655  -1.13626  -1.13612
  Beta  occ. eigenvalues --   -1.13227  -1.13209  -1.13177  -1.13148  -1.13111
  Beta  occ. eigenvalues --   -1.13095  -1.12967  -1.12948  -1.12932  -1.12924
  Beta  occ. eigenvalues --   -1.12881  -1.12858  -1.12485  -1.12439  -1.12430
  Beta  occ. eigenvalues --   -0.17811  -0.13115  -0.11849
  Beta virt. eigenvalues --   -0.06894  -0.05707  -0.05331  -0.04377  -0.02550
  Beta virt. eigenvalues --   -0.02024  -0.01642  -0.01580  -0.01030  -0.00463
  Beta virt. eigenvalues --   -0.00355   0.00122   0.00382   0.00823   0.00862

 Mulliken charges and spin densities:
               1          2
     1  Na   0.155471  -0.012496
     2  Na   0.332723   0.039663
     3  Na  -0.242353   0.269826
     4  Na   0.119505   0.013529
     5  Na   0.111477  -0.040199
     6  Na  -0.553864   0.770913
     7  Na   0.077042  -0.041235
 Sum of Mulliken charges =  -0.00000   1.00000

 Dipole moment (field-independent basis, Debye):
    X=              0.0522    Y=             -0.0193    Z=              0.0994  Tot=              0.1139
 Quadrupole moment (field-independent basis, Debye-Ang):
   XX=            -55.2894   YY=            -64.6136   ZZ=            -74.0427
   XY=              0.4201   XZ=              0.6044   YZ=              0.3809

 Normal termination of Gaussian 16 at Thu Dec  7 08:39:37 2023.
