 Gaussian 16, Revision B.01,
 Gaussian 16:  ES64L-G16RevB.01 20-Dec-2017

 -------------------------
 #P B3LYP/6-311+g(d) force
 -------------------------

 -----
 DPGEN
 -----
 Symbolic Z-matrix:
 Charge =  0 Multiplicity = 2

                         Standard orientation:
 ---------------------------------------------------------------------
 Center     Atomic      Atomic             Coordinates (Angstroms)
 Number     Number       Type             X           Y           Z
 ---------------------------------------------------------------------
      1         11           0        0.181911    3.188318    0.289869
      2         11           0       -3.324151    2.321084   -0.961133
      3         11           0        3.287481    2.526363    0.885400
      4         11           0        3.810825   -1.240916   -1.120320
      5         11           0       -3.825982   -1.078274   -0.283272
      6         11           0       -1.389712   -2.504202    1.687641
      7         11           0        1.259627   -3.212373   -0.498185
 ---------------------------------------------------------------------

 SCF Done:  E(UB3LYP) =  -1136.10930456     A.U. after   20 cycles

 The electronic state is 2-A.
 Alpha  occ. eigenvalues --  -38.45115 -38.44672 -38.44503 -38.44407 -38.44319
 Alpha  occ. eigenvalues --  -38.44311 -38.44105  -2.20875  -2.20457  -2.20270
 Alpha  occ. eigenvalues --   -2.20190  -2.20117  -2.20107  -2.19895  -1.14562
 Alpha  occ. eigenvalues --   -1.14547  -1.14521  -1.14119  -1.14110  -1.14083
 Alpha  occ. eigenvalues --   -1.13955  -1.13950  -1.13928  -1.13871  -1.13863
 Alpha  occ. eigenvalues --   -1.13834  -1.13764  -1.13763  -1.13754  -1.13744
 Alpha  occ. eigenvalues --   -1.13744  -1.13735  -1.13550  -1.13534  -1.13527
 Alpha  occ. eigenvalues --   -0.15533  -0.13602  -0.13399  -0.10957
 Alpha virt. eigenvalues --   -0.07304  -0.04894  -0.04649  -0.03571  -0.03471
 Alpha virt. eigenvalues --   -0.02141  -0.01992  -0.01616  -0.01392  -0.01095
 Alpha virt. eigenvalues --   -0.00924  -0.00288   0.00026   0.00458   0.00714

  Beta  occ. eigenvalues --  -38.45120 -38.44611 -38.44495 -38.44404 -38.44282
  Beta  occ. eigenvalues --  -38.44251 -38.44043  -2.20890  -2.20347  -2.20261
  Beta  occ. eigenvalues --   -2.20191  -2.20041  -2.20005  -2.19778  -1.14576
  Beta  occ. eigenvalues --   -1.14561  -1.14496  -1.14044  -1.14038  -1.14004
  Beta  occ. eigenvalues --   -1.13949  -1.13945  -1.13894  -1.13875  -1.13868
  Beta  occ. eigenvalues --   -1.13793  -1.13718  -1.13702  -1.13688  -1.13683
  Beta  occ. eigenvalues --   -1.13679  -1.13675  -1.13470  -1.13457  -1.13449
  Beta  occ. eigenvalues --   -0.15009  -0.12829  -0.12676
  Beta virt. eigenvalues --   -0.07906  -0.07403  -0.04471  -0.04148  -0.03347
  Beta virt. eigenvalues --   -0.03181  -0.02031  -0.01719  -0.01313  -0.01152
  Beta virt. eigenvalues --   -0.00981  -0.00594  -0.00047   0.00217   0.00470

 Mulliken charges and spin densities:
               1          2
     1  Na  -0.352059   0.062576
     2  Na   0.366684   0.346568
     3  Na   0.143477   0.073893
     4  Na   0.110542   0.225385
     5  Na  -0.093893  -0.026760
     6  Na  -0.173675   0.294038
     7  Na  -0.001076   0.024301
 Sum of Mulliken charges =  -0.00000   1.00000

 Dipole moment (field-independent basis, Debye):
    X=              0.0573    Y=             -0.3201    Z=              0.0220  Tot=              0.3259
 Quadrupole moment (field-independent basis, Debye-Ang):
   XX=            -59.1993   YY=            -71.2829   ZZ=            -70.1508
   XY=              3.1424   XZ=              1.4623   YZ=             -0.2191

 Normal termination of Gaussian 16 at Sun Dec  3 17:03:17 2023.
