 Gaussian 16, Revision B.01,
 Gaussian 16:  ES64L-G16RevB.01 20-Dec-2017

 -------------------------
 #P B3LYP/6-311+g(d) force
 -------------------------

 -----
 DPGEN
 -----
 Symbolic Z-matrix:
 Charge =  0 Multiplicity = 2

                         Standard orientation:
 ---------------------------------------------------------------------
 Center     Atomic      Atomic             Coordinates (Angstroms)
 Number     Number       Type             X           Y           Z
 ---------------------------------------------------------------------
      1         11           0       -0.721861   -0.960052   -1.340179
      2         11           0       -3.092962    1.786815   -0.530554
      3         11           0       -1.024089   -0.068904    2.258728
      4         11           0        5.745573   -0.397498   -0.211940
      5         11           0        2.720187   -0.356788    0.175870
      6         11           0       -3.760416   -2.059030   -0.126106
      7         11           0        0.133567    2.055457   -0.225819
 ---------------------------------------------------------------------

 SCF Done:  E(UB3LYP) =  -1136.11054927     A.U. after   32 cycles

 The electronic state is 2-A.
 Alpha  occ. eigenvalues --  -38.46075 -38.45604 -38.44814 -38.44127 -38.43225
 Alpha  occ. eigenvalues --  -38.43090 -38.42875  -2.21916  -2.21423  -2.20666
 Alpha  occ. eigenvalues --   -2.19928  -2.19079  -2.19004  -2.18669  -1.15607
 Alpha  occ. eigenvalues --   -1.15584  -1.15534  -1.15088  -1.15058  -1.15032
 Alpha  occ. eigenvalues --   -1.14339  -1.14316  -1.14262  -1.13613  -1.13570
 Alpha  occ. eigenvalues --   -1.13569  -1.12771  -1.12756  -1.12712  -1.12699
 Alpha  occ. eigenvalues --   -1.12660  -1.12632  -1.12345  -1.12330  -1.12315
 Alpha  occ. eigenvalues --   -0.18257  -0.13584  -0.11482  -0.11034
 Alpha virt. eigenvalues --   -0.08256  -0.04780  -0.04335  -0.03227  -0.03110
 Alpha virt. eigenvalues --   -0.02694  -0.02325  -0.01637  -0.01516  -0.00962
 Alpha virt. eigenvalues --   -0.00317   0.00122   0.00197   0.00531   0.00591

  Beta  occ. eigenvalues --  -38.46066 -38.45525 -38.44737 -38.44106 -38.43223
  Beta  occ. eigenvalues --  -38.43082 -38.42879  -2.21904  -2.21278  -2.20525
  Beta  occ. eigenvalues --   -2.19889  -2.19078  -2.18994  -2.18678  -1.15584
  Beta  occ. eigenvalues --   -1.15566  -1.15531  -1.14980  -1.14963  -1.14928
  Beta  occ. eigenvalues --   -1.14236  -1.14226  -1.14157  -1.13589  -1.13543
  Beta  occ. eigenvalues --   -1.13543  -1.12773  -1.12758  -1.12702  -1.12683
  Beta  occ. eigenvalues --   -1.12657  -1.12587  -1.12352  -1.12327  -1.12322
  Beta  occ. eigenvalues --   -0.17589  -0.13299  -0.11072
  Beta virt. eigenvalues --   -0.08012  -0.07360  -0.04744  -0.03903  -0.02894
  Beta virt. eigenvalues --   -0.02848  -0.02141  -0.01775  -0.01445  -0.01117
  Beta virt. eigenvalues --   -0.00765  -0.00258   0.00208   0.00318   0.00588

 Mulliken charges and spin densities:
               1          2
     1  Na   0.281121   0.057369
     2  Na   0.038037   0.318565
     3  Na   0.279147   0.109983
     4  Na   0.274410   0.199090
     5  Na  -1.062210   0.365005
     6  Na   0.021695  -0.086510
     7  Na   0.167800   0.036500
 Sum of Mulliken charges =  -0.00000   1.00000

 Dipole moment (field-independent basis, Debye):
    X=             -0.7739    Y=              0.6728    Z=              0.6959  Tot=              1.2393
 Quadrupole moment (field-independent basis, Debye-Ang):
   XX=            -63.1148   YY=            -74.5093   ZZ=            -65.6367
   XY=             -2.5355   XZ=             -4.9551   YZ=              1.6537

 Normal termination of Gaussian 16 at Thu Dec  7 08:24:52 2023.
