 Gaussian 16, Revision B.01,
 Gaussian 16:  ES64L-G16RevB.01 20-Dec-2017

 -------------------------
 #P B3LYP/6-311+g(d) force
 -------------------------

 -----
 DPGEN
 -----
 Symbolic Z-matrix:
 Charge =  0 Multiplicity = 2

                         Standard orientation:
 ---------------------------------------------------------------------
 Center     Atomic      Atomic             Coordinates (Angstroms)
 Number     Number       Type             X           Y           Z
 ---------------------------------------------------------------------
      1         11           0       -0.864117    1.825890    0.074279
      2         11           0       -1.196924   -0.852869    1.814578
      3         11           0       -4.384548    0.261769    0.220529
      4         11           0       -2.271053   -1.016731   -1.742398
      5         11           0        1.346924   -1.357816   -0.105756
      6         11           0        4.810578   -0.751639    0.025278
      7         11           0        2.559139    1.891395   -0.286510
 ---------------------------------------------------------------------

 SCF Done:  E(UB3LYP) =  -1136.11157617     A.U. after   30 cycles

 The electronic state is 2-A.
 Alpha  occ. eigenvalues --  -38.45348 -38.44723 -38.44243 -38.43952 -38.43781
 Alpha  occ. eigenvalues --  -38.43156 -38.42943  -2.21183  -2.20627  -2.20085
 Alpha  occ. eigenvalues --   -2.19788  -2.19682  -2.19064  -2.18739  -1.14861
 Alpha  occ. eigenvalues --   -1.14838  -1.14816  -1.14314  -1.14274  -1.14241
 Alpha  occ. eigenvalues --   -1.13774  -1.13749  -1.13682  -1.13455  -1.13437
 Alpha  occ. eigenvalues --   -1.13434  -1.13391  -1.13328  -1.13289  -1.12759
 Alpha  occ. eigenvalues --   -1.12716  -1.12674  -1.12412  -1.12408  -1.12379
 Alpha  occ. eigenvalues --   -0.18305  -0.14249  -0.11561  -0.10512
 Alpha virt. eigenvalues --   -0.07830  -0.05288  -0.04272  -0.03431  -0.03096
 Alpha virt. eigenvalues --   -0.02253  -0.02094  -0.01664  -0.01167  -0.00704
 Alpha virt. eigenvalues --   -0.00163   0.00108   0.00213   0.00515   0.00701

  Beta  occ. eigenvalues --  -38.45335 -38.44675 -38.44198 -38.43944 -38.43729
  Beta  occ. eigenvalues --  -38.43117 -38.42951  -2.21161  -2.20542  -2.20002
  Beta  occ. eigenvalues --   -2.19775  -2.19590  -2.18992  -2.18755  -1.14848
  Beta  occ. eigenvalues --   -1.14822  -1.14784  -1.14233  -1.14213  -1.14187
  Beta  occ. eigenvalues --   -1.13720  -1.13698  -1.13612  -1.13444  -1.13430
  Beta  occ. eigenvalues --   -1.13421  -1.13329  -1.13266  -1.13201  -1.12710
  Beta  occ. eigenvalues --   -1.12663  -1.12617  -1.12422  -1.12416  -1.12389
  Beta  occ. eigenvalues --   -0.17635  -0.14036  -0.10326
  Beta virt. eigenvalues --   -0.07692  -0.07535  -0.04735  -0.04130  -0.03226
  Beta virt. eigenvalues --   -0.02661  -0.01816  -0.01483  -0.01234  -0.01115
  Beta virt. eigenvalues --   -0.00678  -0.00008   0.00201   0.00278   0.00629

 Mulliken charges and spin densities:
               1          2
     1  Na  -0.546071   0.440790
     2  Na   0.264649   0.083136
     3  Na   0.548105   0.069533
     4  Na  -0.062706  -0.068176
     5  Na  -0.414009   0.373872
     6  Na   0.252608   0.025330
     7  Na  -0.042576   0.075514
 Sum of Mulliken charges =  -0.00000   1.00000

 Dipole moment (field-independent basis, Debye):
    X=             -1.0204    Y=              0.0687    Z=              0.6709  Tot=              1.2231
 Quadrupole moment (field-independent basis, Debye-Ang):
   XX=            -73.4730   YY=            -70.2650   ZZ=            -64.3396
   XY=             -0.0822   XZ=             -5.5935   YZ=             -0.7446

 Normal termination of Gaussian 16 at Fri Dec  8 20:10:48 2023.
