 Gaussian 16, Revision B.01,
 Gaussian 16:  ES64L-G16RevB.01 20-Dec-2017

 -------------------------
 #P B3LYP/6-311+g(d) force
 -------------------------

 -----
 DPGEN
 -----
 Symbolic Z-matrix:
 Charge =  0 Multiplicity = 2

                         Standard orientation:
 ---------------------------------------------------------------------
 Center     Atomic      Atomic             Coordinates (Angstroms)
 Number     Number       Type             X           Y           Z
 ---------------------------------------------------------------------
      1         11           0       -0.636560    2.679555   -0.241225
      2         11           0       -0.015946    0.198828   -1.534699
      3         11           0        2.879751    1.448023    0.151700
      4         11           0        0.086102   -0.167882    2.191329
      5         11           0        2.223097   -2.042268   -0.456501
      6         11           0       -1.237308   -2.370850   -0.074501
      7         11           0       -3.299136    0.254593   -0.036102
 ---------------------------------------------------------------------

 SCF Done:  E(UB3LYP) =  -1136.13458449     A.U. after   19 cycles

 The electronic state is 2-A.
 Alpha  occ. eigenvalues --  -38.44249 -38.44138 -38.43844 -38.43545 -38.43327
 Alpha  occ. eigenvalues --  -38.43205 -38.43055  -2.20070  -2.19943  -2.19712
 Alpha  occ. eigenvalues --   -2.19390  -2.19254  -2.19205  -2.18961  -1.13743
 Alpha  occ. eigenvalues --   -1.13729  -1.13714  -1.13617  -1.13602  -1.13585
 Alpha  occ. eigenvalues --   -1.13376  -1.13340  -1.13325  -1.13165  -1.13080
 Alpha  occ. eigenvalues --   -1.13043  -1.13027  -1.12930  -1.12855  -1.12843
 Alpha  occ. eigenvalues --   -1.12787  -1.12772  -1.12642  -1.12625  -1.12577
 Alpha  occ. eigenvalues --   -0.18757  -0.13054  -0.12343  -0.10888
 Alpha virt. eigenvalues --   -0.05895  -0.05110  -0.04296  -0.03189  -0.02874
 Alpha virt. eigenvalues --   -0.02688  -0.01781  -0.01080  -0.00259  -0.00153
 Alpha virt. eigenvalues --   -0.00025   0.00330   0.00773   0.00881   0.00917

  Beta  occ. eigenvalues --  -38.44249 -38.44136 -38.43740 -38.43535 -38.43319
  Beta  occ. eigenvalues --  -38.43146 -38.43048  -2.20072  -2.19941  -2.19520
  Beta  occ. eigenvalues --   -2.19375  -2.19206  -2.19138  -2.18951  -1.13745
  Beta  occ. eigenvalues --   -1.13720  -1.13713  -1.13604  -1.13595  -1.13587
  Beta  occ. eigenvalues --   -1.13249  -1.13205  -1.13189  -1.13121  -1.13059
  Beta  occ. eigenvalues --   -1.13022  -1.13017  -1.12869  -1.12817  -1.12806
  Beta  occ. eigenvalues --   -1.12758  -1.12719  -1.12632  -1.12588  -1.12570
  Beta  occ. eigenvalues --   -0.18028  -0.12853  -0.12080
  Beta virt. eigenvalues --   -0.06919  -0.05847  -0.05106  -0.04272  -0.02442
  Beta virt. eigenvalues --   -0.02063  -0.01691  -0.01591  -0.01012  -0.00302
  Beta virt. eigenvalues --   -0.00187   0.00119   0.00355   0.00834   0.00881

 Mulliken charges and spin densities:
               1          2
     1  Na   0.341762  -0.015751
     2  Na  -0.469247   0.245645
     3  Na   0.112167   0.002225
     4  Na  -0.669809   0.756445
     5  Na   0.210143  -0.001571
     6  Na   0.352206   0.038942
     7  Na   0.122779  -0.025936
 Sum of Mulliken charges =  -0.00000   1.00000

 Dipole moment (field-independent basis, Debye):
    X=              0.0522    Y=              0.1315    Z=              0.3073  Tot=              0.3383
 Quadrupole moment (field-independent basis, Debye-Ang):
   XX=            -53.2264   YY=            -65.8376   ZZ=            -73.9193
   XY=             -0.0002   XZ=             -0.2005   YZ=              1.0871

 Normal termination of Gaussian 16 at Thu Dec  7 20:48:56 2023.
