 Gaussian 16, Revision B.01,
 Gaussian 16:  ES64L-G16RevB.01 20-Dec-2017

 -------------------------
 #P B3LYP/6-311+g(d) force
 -------------------------

 -----
 DPGEN
 -----
 Symbolic Z-matrix:
 Charge =  0 Multiplicity = 2

                         Standard orientation:
 ---------------------------------------------------------------------
 Center     Atomic      Atomic             Coordinates (Angstroms)
 Number     Number       Type             X           Y           Z
 ---------------------------------------------------------------------
      1         11           0       -2.999104   -1.123193    0.468733
      2         11           0        0.184779    0.156937   -1.863971
      3         11           0       -0.053297   -2.776096   -0.275123
      4         11           0        1.274663    2.684550    0.130933
      5         11           0       -2.272729    1.851430   -0.270402
      6         11           0        0.632851    0.074601    1.883391
      7         11           0        3.232837   -0.868229   -0.073562
 ---------------------------------------------------------------------

 SCF Done:  E(UB3LYP) =  -1136.13575550     A.U. after   18 cycles

 The electronic state is 2-A.
 Alpha  occ. eigenvalues --  -38.44586 -38.43774 -38.43646 -38.43602 -38.43499
 Alpha  occ. eigenvalues --  -38.43397 -38.43373  -2.20386  -2.19608  -2.19515
 Alpha  occ. eigenvalues --   -2.19501  -2.19353  -2.19332  -2.19217  -1.14069
 Alpha  occ. eigenvalues --   -1.14040  -1.14022  -1.13335  -1.13263  -1.13254
 Alpha  occ. eigenvalues --   -1.13212  -1.13186  -1.13164  -1.13151  -1.13133
 Alpha  occ. eigenvalues --   -1.13119  -1.13042  -1.13019  -1.13012  -1.12968
 Alpha  occ. eigenvalues --   -1.12957  -1.12948  -1.12886  -1.12885  -1.12832
 Alpha  occ. eigenvalues --   -0.18531  -0.13089  -0.12364  -0.10790
 Alpha virt. eigenvalues --   -0.06032  -0.05075  -0.04475  -0.03299  -0.02956
 Alpha virt. eigenvalues --   -0.02595  -0.01762  -0.01043  -0.00393  -0.00212
 Alpha virt. eigenvalues --   -0.00022   0.00351   0.00804   0.00841   0.00865

  Beta  occ. eigenvalues --  -38.44584 -38.43768 -38.43641 -38.43527 -38.43492
  Beta  occ. eigenvalues --  -38.43366 -38.43313  -2.20385  -2.19597  -2.19497
  Beta  occ. eigenvalues --   -2.19376  -2.19345  -2.19207  -2.19177  -1.14052
  Beta  occ. eigenvalues --   -1.14040  -1.14018  -1.13331  -1.13249  -1.13242
  Beta  occ. eigenvalues --   -1.13170  -1.13142  -1.13130  -1.13116  -1.13070
  Beta  occ. eigenvalues --   -1.13036  -1.13012  -1.12983  -1.12957  -1.12935
  Beta  occ. eigenvalues --   -1.12879  -1.12863  -1.12845  -1.12834  -1.12813
  Beta  occ. eigenvalues --   -0.17806  -0.12866  -0.12105
  Beta virt. eigenvalues --   -0.06930  -0.05991  -0.05002  -0.04440  -0.02558
  Beta virt. eigenvalues --   -0.02163  -0.01696  -0.01559  -0.00978  -0.00419
  Beta virt. eigenvalues --   -0.00244   0.00109   0.00381   0.00825   0.00873

 Mulliken charges and spin densities:
               1          2
     1  Na  -0.106263  -0.006780
     2  Na  -0.039506   0.584311
     3  Na   0.019671  -0.009158
     4  Na   0.111270  -0.169693
     5  Na   0.114561   0.003100
     6  Na  -0.224418   0.756656
     7  Na   0.124684  -0.158437
 Sum of Mulliken charges =  -0.00000   1.00000

 Dipole moment (field-independent basis, Debye):
    X=              0.5759    Y=             -0.0277    Z=              0.0324  Tot=              0.5774
 Quadrupole moment (field-independent basis, Debye-Ang):
   XX=            -55.3376   YY=            -64.5606   ZZ=            -73.9421
   XY=             -0.4243   XZ=             -1.2780   YZ=             -0.1689

 Normal termination of Gaussian 16 at Tue Dec  5 19:04:27 2023.
