 Gaussian 16, Revision B.01,
 Gaussian 16:  ES64L-G16RevB.01 20-Dec-2017

 -------------------------
 #P B3LYP/6-311+g(d) force
 -------------------------

 -----
 DPGEN
 -----
 Symbolic Z-matrix:
 Charge =  0 Multiplicity = 2

                         Standard orientation:
 ---------------------------------------------------------------------
 Center     Atomic      Atomic             Coordinates (Angstroms)
 Number     Number       Type             X           Y           Z
 ---------------------------------------------------------------------
      1         11           0       -4.255437    0.729329   -0.943645
      2         11           0       -0.556099   -0.199600   -1.820753
      3         11           0        0.166626    2.819744    1.690471
      4         11           0        2.422884    1.630538   -0.687731
      5         11           0       -2.951425   -2.031919    1.027537
      6         11           0        1.292147   -1.551685    1.336410
      7         11           0        3.881303   -1.396407   -0.602288
 ---------------------------------------------------------------------

 SCF Done:  E(UB3LYP) =  -1136.10868755     A.U. after   24 cycles

 The electronic state is 2-A.
 Alpha  occ. eigenvalues --  -38.46254 -38.45225 -38.44775 -38.44131 -38.43882
 Alpha  occ. eigenvalues --  -38.43679 -38.43263  -2.21990  -2.20981  -2.20527
 Alpha  occ. eigenvalues --   -2.19943  -2.19708  -2.19520  -2.19044  -1.15683
 Alpha  occ. eigenvalues --   -1.15653  -1.15603  -1.14649  -1.14634  -1.14602
 Alpha  occ. eigenvalues --   -1.14211  -1.14184  -1.14152  -1.13633  -1.13595
 Alpha  occ. eigenvalues --   -1.13587  -1.13389  -1.13361  -1.13344  -1.13213
 Alpha  occ. eigenvalues --   -1.13190  -1.13140  -1.12702  -1.12693  -1.12662
 Alpha  occ. eigenvalues --   -0.16932  -0.13778  -0.11219  -0.10681
 Alpha virt. eigenvalues --   -0.07338  -0.06144  -0.04278  -0.03404  -0.03028
 Alpha virt. eigenvalues --   -0.02805  -0.02101  -0.01771  -0.00908  -0.00803
 Alpha virt. eigenvalues --   -0.00159   0.00024   0.00154   0.00281   0.00558

  Beta  occ. eigenvalues --  -38.46234 -38.45195 -38.44752 -38.44097 -38.43885
  Beta  occ. eigenvalues --  -38.43676 -38.43208  -2.21953  -2.20924  -2.20487
  Beta  occ. eigenvalues --   -2.19880  -2.19714  -2.19517  -2.18941  -1.15644
  Beta  occ. eigenvalues --   -1.15633  -1.15575  -1.14607  -1.14595  -1.14566
  Beta  occ. eigenvalues --   -1.14185  -1.14154  -1.14113  -1.13591  -1.13555
  Beta  occ. eigenvalues --   -1.13539  -1.13390  -1.13359  -1.13345  -1.13212
  Beta  occ. eigenvalues --   -1.13188  -1.13119  -1.12629  -1.12622  -1.12598
  Beta  occ. eigenvalues --   -0.16465  -0.13563  -0.10899
  Beta virt. eigenvalues --   -0.07286  -0.07053  -0.05691  -0.03927  -0.03129
  Beta virt. eigenvalues --   -0.02747  -0.02413  -0.01647  -0.01482  -0.00810
  Beta virt. eigenvalues --   -0.00605  -0.00075   0.00141   0.00334   0.00381

 Mulliken charges and spin densities:
               1          2
     1  Na   0.201655   0.140442
     2  Na  -0.271182   0.133549
     3  Na  -0.164801   0.326107
     4  Na   0.203394  -0.011379
     5  Na  -0.056446   0.124468
     6  Na  -0.346060   0.202935
     7  Na   0.433439   0.083876
 Sum of Mulliken charges =  -0.00000   1.00000

 Dipole moment (field-independent basis, Debye):
    X=             -1.1522    Y=             -0.2162    Z=             -0.6402  Tot=              1.3357
 Quadrupole moment (field-independent basis, Debye-Ang):
   XX=            -53.1646   YY=            -76.2195   ZZ=            -69.2501
   XY=             -2.0373   XZ=             -3.7315   YZ=              0.2044

 Normal termination of Gaussian 16 at Sun Dec  3 18:30:22 2023.
