 Gaussian 16, Revision B.01,
 Gaussian 16:  ES64L-G16RevB.01 20-Dec-2017

 -------------------------
 #P B3LYP/6-311+g(d) force
 -------------------------

 -----
 DPGEN
 -----
 Symbolic Z-matrix:
 Charge =  0 Multiplicity = 2

                         Standard orientation:
 ---------------------------------------------------------------------
 Center     Atomic      Atomic             Coordinates (Angstroms)
 Number     Number       Type             X           Y           Z
 ---------------------------------------------------------------------
      1         11           0        2.398547    2.080415    0.341135
      2         11           0       -0.169197   -0.060683    1.922792
      3         11           0       -1.906877    2.284145   -0.212744
      4         11           0       -0.017425   -2.607733    0.062821
      5         11           0        2.898966   -1.085946   -0.281792
      6         11           0        0.059899    0.140318   -1.823436
      7         11           0       -3.263911   -0.750516   -0.008776
 ---------------------------------------------------------------------

 SCF Done:  E(UB3LYP) =  -1136.13463119     A.U. after   20 cycles

 The electronic state is 2-A.
 Alpha  occ. eigenvalues --  -38.44680 -38.44052 -38.43684 -38.43619 -38.43568
 Alpha  occ. eigenvalues --  -38.43555 -38.42591  -2.20491  -2.19924  -2.19538
 Alpha  occ. eigenvalues --   -2.19503  -2.19488  -2.19413  -2.18503  -1.14163
 Alpha  occ. eigenvalues --   -1.14150  -1.14132  -1.13599  -1.13586  -1.13576
 Alpha  occ. eigenvalues --   -1.13232  -1.13191  -1.13175  -1.13168  -1.13163
 Alpha  occ. eigenvalues --   -1.13154  -1.13148  -1.13133  -1.13102  -1.13071
 Alpha  occ. eigenvalues --   -1.13060  -1.13041  -1.12202  -1.12169  -1.12121
 Alpha  occ. eigenvalues --   -0.18709  -0.13494  -0.11933  -0.10840
 Alpha virt. eigenvalues --   -0.06138  -0.05324  -0.04058  -0.03431  -0.02734
 Alpha virt. eigenvalues --   -0.02588  -0.01936  -0.01095  -0.00365  -0.00135
 Alpha virt. eigenvalues --   -0.00037   0.00338   0.00718   0.00845   0.00861

  Beta  occ. eigenvalues --  -38.44679 -38.44046 -38.43678 -38.43562 -38.43533
  Beta  occ. eigenvalues --  -38.43480 -38.42583  -2.20492  -2.19916  -2.19494
  Beta  occ. eigenvalues --   -2.19405  -2.19380  -2.19350  -2.18493  -1.14159
  Beta  occ. eigenvalues --   -1.14143  -1.14131  -1.13593  -1.13578  -1.13556
  Beta  occ. eigenvalues --   -1.13166  -1.13146  -1.13140  -1.13130  -1.13113
  Beta  occ. eigenvalues --   -1.13075  -1.13069  -1.13048  -1.13034  -1.13025
  Beta  occ. eigenvalues --   -1.13010  -1.12991  -1.12198  -1.12133  -1.12110
  Beta  occ. eigenvalues --   -0.17964  -0.13277  -0.11667
  Beta virt. eigenvalues --   -0.06941  -0.06069  -0.05318  -0.04023  -0.02672
  Beta virt. eigenvalues --   -0.01950  -0.01837  -0.01549  -0.01009  -0.00414
  Beta virt. eigenvalues --   -0.00167   0.00097   0.00361   0.00791   0.00856

 Mulliken charges and spin densities:
               1          2
     1  Na   0.001317  -0.067723
     2  Na  -0.368075   0.756657
     3  Na   0.083375  -0.099371
     4  Na   0.154143  -0.089794
     5  Na   0.243641   0.007519
     6  Na  -0.221295   0.570373
     7  Na   0.106894  -0.077661
 Sum of Mulliken charges =  -0.00000   1.00000

 Dipole moment (field-independent basis, Debye):
    X=             -0.3521    Y=              0.0601    Z=             -0.0038  Tot=              0.3572
 Quadrupole moment (field-independent basis, Debye-Ang):
   XX=            -52.3100   YY=            -67.2711   ZZ=            -73.8977
   XY=              0.6184   XZ=              0.0966   YZ=              0.8770

 Normal termination of Gaussian 16 at Thu Dec  7 19:43:33 2023.
