 Gaussian 16, Revision B.01,
 Gaussian 16:  ES64L-G16RevB.01 20-Dec-2017

 -------------------------
 #P B3LYP/6-311+g(d) force
 -------------------------

 -----
 DPGEN
 -----
 Symbolic Z-matrix:
 Charge =  0 Multiplicity = 2

                         Standard orientation:
 ---------------------------------------------------------------------
 Center     Atomic      Atomic             Coordinates (Angstroms)
 Number     Number       Type             X           Y           Z
 ---------------------------------------------------------------------
      1         11           0       -2.218256   -2.089132    0.182191
      2         11           0        0.805821    2.773011   -0.079053
      3         11           0       -0.350226    0.157874    2.084328
      4         11           0        3.225224    0.260223    0.056536
      5         11           0        1.331221   -2.485580   -0.232959
      6         11           0       -2.690839    1.623510   -0.432237
      7         11           0       -0.102946   -0.239905   -1.578806
 ---------------------------------------------------------------------

 SCF Done:  E(UB3LYP) =  -1136.13777741     A.U. after   18 cycles

 The electronic state is 2-A.
 Alpha  occ. eigenvalues --  -38.43942 -38.43908 -38.43729 -38.43619 -38.43436
 Alpha  occ. eigenvalues --  -38.43372 -38.43144  -2.19765  -2.19730  -2.19579
 Alpha  occ. eigenvalues --   -2.19501  -2.19274  -2.19266  -2.19154  -1.13449
 Alpha  occ. eigenvalues --   -1.13419  -1.13401  -1.13399  -1.13393  -1.13381
 Alpha  occ. eigenvalues --   -1.13266  -1.13255  -1.13209  -1.13164  -1.13124
 Alpha  occ. eigenvalues --   -1.13118  -1.13073  -1.12962  -1.12945  -1.12914
 Alpha  occ. eigenvalues --   -1.12899  -1.12873  -1.12814  -1.12762  -1.12753
 Alpha  occ. eigenvalues --   -0.18668  -0.12949  -0.12544  -0.10744
 Alpha virt. eigenvalues --   -0.05555  -0.05338  -0.04603  -0.03112  -0.02938
 Alpha virt. eigenvalues --   -0.02549  -0.01527  -0.01199  -0.00368  -0.00287
 Alpha virt. eigenvalues --   -0.00010   0.00347   0.00795   0.00871   0.00899

  Beta  occ. eigenvalues --  -38.43930 -38.43909 -38.43722 -38.43523 -38.43433
  Beta  occ. eigenvalues --  -38.43365 -38.43084  -2.19746  -2.19734  -2.19570
  Beta  occ. eigenvalues --   -2.19323  -2.19271  -2.19256  -2.19045  -1.13425
  Beta  occ. eigenvalues --   -1.13405  -1.13397  -1.13391  -1.13389  -1.13376
  Beta  occ. eigenvalues --   -1.13260  -1.13216  -1.13207  -1.13053  -1.13040
  Beta  occ. eigenvalues --   -1.13002  -1.12994  -1.12954  -1.12921  -1.12898
  Beta  occ. eigenvalues --   -1.12891  -1.12866  -1.12742  -1.12689  -1.12679
  Beta  occ. eigenvalues --   -0.17952  -0.12725  -0.12296
  Beta virt. eigenvalues --   -0.06818  -0.05524  -0.05309  -0.04567  -0.02364
  Beta virt. eigenvalues --   -0.02152  -0.01494  -0.01426  -0.01122  -0.00413
  Beta virt. eigenvalues --   -0.00331   0.00133   0.00377   0.00847   0.00877

 Mulliken charges and spin densities:
               1          2
     1  Na   0.246430  -0.006216
     2  Na   0.094784  -0.045307
     3  Na  -0.531389   0.756118
     4  Na  -0.032552  -0.042271
     5  Na   0.378418   0.004361
     6  Na   0.144602  -0.050217
     7  Na  -0.300292   0.383532
 Sum of Mulliken charges =  -0.00000   1.00000

 Dipole moment (field-independent basis, Debye):
    X=             -0.1872    Y=              0.0834    Z=              0.1871  Tot=              0.2776
 Quadrupole moment (field-independent basis, Debye-Ang):
   XX=            -55.9120   YY=            -62.7871   ZZ=            -74.5293
   XY=              0.3301   XZ=              0.7168   YZ=             -0.9117

 Normal termination of Gaussian 16 at Thu Dec  7 02:40:53 2023.
