 Gaussian 16, Revision B.01,
 Gaussian 16:  ES64L-G16RevB.01 20-Dec-2017

 -------------------------
 #P B3LYP/6-311+g(d) force
 -------------------------

 -----
 DPGEN
 -----
 Symbolic Z-matrix:
 Charge =  0 Multiplicity = 2

                         Standard orientation:
 ---------------------------------------------------------------------
 Center     Atomic      Atomic             Coordinates (Angstroms)
 Number     Number       Type             X           Y           Z
 ---------------------------------------------------------------------
      1         11           0       -3.946068   -1.257722    0.474507
      2         11           0       -0.726060   -0.966790   -1.394026
      3         11           0        0.796196    1.544112   -0.949873
      4         11           0       -2.393601    2.167675   -0.269339
      5         11           0       -0.509034   -0.372601    2.054791
      6         11           0        2.510391   -1.628235   -0.944127
      7         11           0        4.268176    0.513561    1.028068
 ---------------------------------------------------------------------

 SCF Done:  E(UB3LYP) =  -1136.11260706     A.U. after   35 cycles

 The electronic state is 2-A.
 Alpha  occ. eigenvalues --  -38.46354 -38.44640 -38.44187 -38.43888 -38.43888
 Alpha  occ. eigenvalues --  -38.43849 -38.42462  -2.22110  -2.20428  -2.20037
 Alpha  occ. eigenvalues --   -2.19823  -2.19725  -2.19656  -2.18394  -1.15810
 Alpha  occ. eigenvalues --   -1.15773  -1.15706  -1.14083  -1.14079  -1.14052
 Alpha  occ. eigenvalues --   -1.13725  -1.13698  -1.13672  -1.13543  -1.13456
 Alpha  occ. eigenvalues --   -1.13430  -1.13406  -1.13365  -1.13351  -1.13339
 Alpha  occ. eigenvalues --   -1.13328  -1.13282  -1.12125  -1.12068  -1.11975
 Alpha  occ. eigenvalues --   -0.18215  -0.13944  -0.11331  -0.10754
 Alpha virt. eigenvalues --   -0.07541  -0.05380  -0.04501  -0.03116  -0.03049
 Alpha virt. eigenvalues --   -0.02417  -0.02285  -0.01533  -0.01233  -0.00330
 Alpha virt. eigenvalues --   -0.00220   0.00140   0.00275   0.00515   0.00553

  Beta  occ. eigenvalues --  -38.46332 -38.44586 -38.44156 -38.43902 -38.43864
  Beta  occ. eigenvalues --  -38.43775 -38.42456  -2.22070  -2.20325  -2.19988
  Beta  occ. eigenvalues --   -2.19692  -2.19684  -2.19679  -2.18387  -1.15779
  Beta  occ. eigenvalues --   -1.15739  -1.15679  -1.14014  -1.14007  -1.13985
  Beta  occ. eigenvalues --   -1.13680  -1.13668  -1.13608  -1.13464  -1.13373
  Beta  occ. eigenvalues --   -1.13367  -1.13361  -1.13348  -1.13341  -1.13317
  Beta  occ. eigenvalues --   -1.13305  -1.13292  -1.12112  -1.12042  -1.11974
  Beta  occ. eigenvalues --   -0.17546  -0.13616  -0.10580
  Beta virt. eigenvalues --   -0.07573  -0.07319  -0.04942  -0.04228  -0.02861
  Beta virt. eigenvalues --   -0.02781  -0.01926  -0.01721  -0.01233  -0.01003
  Beta virt. eigenvalues --   -0.00188  -0.00145   0.00254   0.00343   0.00576

 Mulliken charges and spin densities:
               1          2
     1  Na   0.339338  -0.110053
     2  Na  -0.157229   0.378338
     3  Na  -0.251277   0.215512
     4  Na   0.129262   0.063558
     5  Na  -0.375653   0.182163
     6  Na   0.230055  -0.056239
     7  Na   0.085504   0.326722
 Sum of Mulliken charges =  -0.00000   1.00000

 Dipole moment (field-independent basis, Debye):
    X=             -0.0418    Y=              0.2877    Z=              0.3666  Tot=              0.4679
 Quadrupole moment (field-independent basis, Debye-Ang):
   XX=            -55.9207   YY=            -74.0455   ZZ=            -69.7590
   XY=             -2.7439   XZ=              2.4214   YZ=              5.6524

 Normal termination of Gaussian 16 at Thu Dec  7 02:27:43 2023.
