 Gaussian 16, Revision B.01,
 Gaussian 16:  ES64L-G16RevB.01 20-Dec-2017

 -------------------------
 #P B3LYP/6-311+g(d) force
 -------------------------

 -----
 DPGEN
 -----
 Symbolic Z-matrix:
 Charge =  0 Multiplicity = 2

                         Standard orientation:
 ---------------------------------------------------------------------
 Center     Atomic      Atomic             Coordinates (Angstroms)
 Number     Number       Type             X           Y           Z
 ---------------------------------------------------------------------
      1         11           0        2.315470   -2.502788    0.118192
      2         11           0        4.817549   -0.158536   -0.195086
      3         11           0       -4.277168   -1.640471   -0.915333
      4         11           0       -0.754762   -2.827421    0.343148
      5         11           0        2.399490    2.484381   -0.060398
      6         11           0       -1.430517    3.480824   -0.406704
      7         11           0       -3.070062    1.164010    1.116181
 ---------------------------------------------------------------------

 SCF Done:  E(UB3LYP) =  -1136.11105385     A.U. after   22 cycles

 The electronic state is 2-A.
 Alpha  occ. eigenvalues --  -38.45588 -38.45150 -38.44403 -38.44342 -38.44151
 Alpha  occ. eigenvalues --  -38.43945 -38.43737  -2.21308  -2.20926  -2.20200
 Alpha  occ. eigenvalues --   -2.20128  -2.19957  -2.19780  -2.19536  -1.15007
 Alpha  occ. eigenvalues --   -1.14991  -1.14920  -1.14619  -1.14602  -1.14554
 Alpha  occ. eigenvalues --   -1.13860  -1.13855  -1.13834  -1.13780  -1.13770
 Alpha  occ. eigenvalues --   -1.13743  -1.13679  -1.13627  -1.13594  -1.13437
 Alpha  occ. eigenvalues --   -1.13431  -1.13388  -1.13201  -1.13190  -1.13167
 Alpha  occ. eigenvalues --   -0.15712  -0.14058  -0.13063  -0.10819
 Alpha virt. eigenvalues --   -0.07244  -0.05375  -0.04086  -0.03583  -0.03086
 Alpha virt. eigenvalues --   -0.02649  -0.02367  -0.01862  -0.01174  -0.00877
 Alpha virt. eigenvalues --   -0.00346  -0.00198   0.00267   0.00437   0.00578

  Beta  occ. eigenvalues --  -38.45584 -38.45144 -38.44369 -38.44265 -38.44113
  Beta  occ. eigenvalues --  -38.43904 -38.43706  -2.21303  -2.20920  -2.20137
  Beta  occ. eigenvalues --   -2.19985  -2.19895  -2.19712  -2.19478  -1.15007
  Beta  occ. eigenvalues --   -1.14990  -1.14895  -1.14617  -1.14599  -1.14523
  Beta  occ. eigenvalues --   -1.13817  -1.13816  -1.13784  -1.13681  -1.13672
  Beta  occ. eigenvalues --   -1.13650  -1.13615  -1.13591  -1.13535  -1.13396
  Beta  occ. eigenvalues --   -1.13384  -1.13314  -1.13162  -1.13150  -1.13130
  Beta  occ. eigenvalues --   -0.15200  -0.13421  -0.12257
  Beta virt. eigenvalues --   -0.07576  -0.07401  -0.05023  -0.03673  -0.03345
  Beta virt. eigenvalues --   -0.02759  -0.02372  -0.02093  -0.01686  -0.00959
  Beta virt. eigenvalues --   -0.00566  -0.00127   0.00067   0.00358   0.00450

 Mulliken charges and spin densities:
               1          2
     1  Na  -0.630439   0.138982
     2  Na   0.283760   0.243695
     3  Na   0.395683   0.407209
     4  Na   0.448948  -0.050720
     5  Na  -0.305921   0.065080
     6  Na  -0.076246   0.154378
     7  Na  -0.115785   0.041376
 Sum of Mulliken charges =  -0.00000   1.00000

 Dipole moment (field-independent basis, Debye):
    X=              0.2563    Y=              0.4054    Z=             -0.1176  Tot=              0.4939
 Quadrupole moment (field-independent basis, Debye-Ang):
   XX=            -59.0778   YY=            -70.4086   ZZ=            -69.9347
   XY=             -1.0597   XZ=             -0.1723   YZ=              0.3267

 Normal termination of Gaussian 16 at Sun Dec  3 22:18:08 2023.
