 Gaussian 16, Revision B.01,
 Gaussian 16:  ES64L-G16RevB.01 20-Dec-2017

 -------------------------
 #P B3LYP/6-311+g(d) force
 -------------------------

 -----
 DPGEN
 -----
 Symbolic Z-matrix:
 Charge =  0 Multiplicity = 2

                         Standard orientation:
 ---------------------------------------------------------------------
 Center     Atomic      Atomic             Coordinates (Angstroms)
 Number     Number       Type             X           Y           Z
 ---------------------------------------------------------------------
      1         11           0        2.447113   -1.000167   -1.441911
      2         11           0        5.005740   -1.834642    0.538865
      3         11           0        3.689302    1.079406    0.656360
      4         11           0        0.444095    3.008106    0.031237
      5         11           0       -1.018280    0.099169   -0.722727
      6         11           0       -3.967042   -0.952779    1.462705
      7         11           0       -6.600928   -0.399094   -0.524531
 ---------------------------------------------------------------------

 SCF Done:  E(UB3LYP) =  -1136.11373045     A.U. after   20 cycles

 The electronic state is 2-A.
 Alpha  occ. eigenvalues --  -38.44703 -38.44475 -38.44464 -38.44221 -38.44167
 Alpha  occ. eigenvalues --  -38.43611 -38.43457  -2.20460  -2.20334  -2.20230
 Alpha  occ. eigenvalues --   -2.20054  -2.20039  -2.19408  -2.19269  -1.14123
 Alpha  occ. eigenvalues --   -1.14121  -1.14097  -1.14042  -1.14010  -1.13934
 Alpha  occ. eigenvalues --   -1.13903  -1.13893  -1.13858  -1.13759  -1.13725
 Alpha  occ. eigenvalues --   -1.13712  -1.13699  -1.13691  -1.13589  -1.13077
 Alpha  occ. eigenvalues --   -1.13066  -1.13050  -1.12950  -1.12927  -1.12883
 Alpha  occ. eigenvalues --   -0.16507  -0.13846  -0.12089  -0.10431
 Alpha virt. eigenvalues --   -0.06758  -0.05510  -0.04587  -0.03671  -0.02903
 Alpha virt. eigenvalues --   -0.02396  -0.01972  -0.01564  -0.01265  -0.00837
 Alpha virt. eigenvalues --   -0.00476   0.00015   0.00342   0.00491   0.00517

  Beta  occ. eigenvalues --  -38.44688 -38.44469 -38.44425 -38.44218 -38.44116
  Beta  occ. eigenvalues --  -38.43578 -38.43427  -2.20431  -2.20243  -2.20240
  Beta  occ. eigenvalues --   -2.20050  -2.19946  -2.19347  -2.19216  -1.14104
  Beta  occ. eigenvalues --   -1.14101  -1.14080  -1.13974  -1.13947  -1.13911
  Beta  occ. eigenvalues --   -1.13899  -1.13866  -1.13860  -1.13737  -1.13707
  Beta  occ. eigenvalues --   -1.13683  -1.13661  -1.13639  -1.13524  -1.13038
  Beta  occ. eigenvalues --   -1.13023  -1.13001  -1.12915  -1.12875  -1.12852
  Beta  occ. eigenvalues --   -0.15880  -0.13747  -0.11824
  Beta virt. eigenvalues --   -0.06961  -0.06286  -0.05331  -0.04095  -0.03442
  Beta virt. eigenvalues --   -0.02626  -0.02133  -0.01542  -0.01470  -0.01041
  Beta virt. eigenvalues --   -0.00644  -0.00169   0.00216   0.00468   0.00563

 Mulliken charges and spin densities:
               1          2
     1  Na   0.012430   0.290082
     2  Na   0.694320  -0.018061
     3  Na  -0.422006   0.287480
     4  Na   0.390730   0.178041
     5  Na  -0.926563   0.233455
     6  Na   0.078149  -0.042035
     7  Na   0.172941   0.071037
 Sum of Mulliken charges =  -0.00000   1.00000

 Dipole moment (field-independent basis, Debye):
    X=              0.1155    Y=             -0.7181    Z=              0.1418  Tot=              0.7410
 Quadrupole moment (field-independent basis, Debye-Ang):
   XX=            -54.7218   YY=            -69.4647   ZZ=            -67.0492
   XY=             -8.1719   XZ=              5.8718   YZ=             -3.1258

 Normal termination of Gaussian 16 at Tue Nov 28 21:46:50 2023.
