 Gaussian 16, Revision B.01,
 Gaussian 16:  ES64L-G16RevB.01 20-Dec-2017

 -------------------------
 #P B3LYP/6-311+g(d) force
 -------------------------

 -----
 DPGEN
 -----
 Symbolic Z-matrix:
 Charge =  0 Multiplicity = 2

                         Standard orientation:
 ---------------------------------------------------------------------
 Center     Atomic      Atomic             Coordinates (Angstroms)
 Number     Number       Type             X           Y           Z
 ---------------------------------------------------------------------
      1         11           0        2.158124   -2.398407   -0.004985
      2         11           0       -0.184983   -0.054185   -1.599706
      3         11           0        0.436390    2.645388    0.195326
      4         11           0       -2.771743    1.361433   -0.155100
      5         11           0        3.440564    0.560800   -0.369117
      6         11           0       -3.096348   -1.892454   -0.139637
      7         11           0        0.017996   -0.222575    2.073219
 ---------------------------------------------------------------------

 SCF Done:  E(UB3LYP) =  -1136.12916821     A.U. after   22 cycles

 The electronic state is 2-A.
 Alpha  occ. eigenvalues --  -38.44913 -38.44174 -38.44120 -38.44014 -38.43728
 Alpha  occ. eigenvalues --  -38.43643 -38.42385  -2.20720  -2.20049  -2.19926
 Alpha  occ. eigenvalues --   -2.19912  -2.19548  -2.19511  -2.18267  -1.14388
 Alpha  occ. eigenvalues --   -1.14379  -1.14358  -1.13762  -1.13720  -1.13690
 Alpha  occ. eigenvalues --   -1.13624  -1.13581  -1.13571  -1.13562  -1.13549
 Alpha  occ. eigenvalues --   -1.13529  -1.13212  -1.13211  -1.13201  -1.13173
 Alpha  occ. eigenvalues --   -1.13132  -1.13123  -1.11956  -1.11929  -1.11903
 Alpha  occ. eigenvalues --   -0.18306  -0.13714  -0.11624  -0.10619
 Alpha virt. eigenvalues --   -0.06503  -0.05650  -0.03998  -0.03444  -0.02646
 Alpha virt. eigenvalues --   -0.02418  -0.02234  -0.01330  -0.00710  -0.00230
 Alpha virt. eigenvalues --   -0.00071   0.00238   0.00624   0.00722   0.00777

  Beta  occ. eigenvalues --  -38.44901 -38.44167 -38.44122 -38.43969 -38.43726
  Beta  occ. eigenvalues --  -38.43534 -38.42378  -2.20700  -2.20040  -2.19919
  Beta  occ. eigenvalues --   -2.19844  -2.19545  -2.19310  -2.18258  -1.14369
  Beta  occ. eigenvalues --   -1.14360  -1.14346  -1.13749  -1.13712  -1.13673
  Beta  occ. eigenvalues --   -1.13581  -1.13565  -1.13557  -1.13552  -1.13513
  Beta  occ. eigenvalues --   -1.13471  -1.13210  -1.13210  -1.13180  -1.13042
  Beta  occ. eigenvalues --   -1.12992  -1.12980  -1.11954  -1.11905  -1.11888
  Beta  occ. eigenvalues --   -0.17600  -0.13491  -0.11425
  Beta virt. eigenvalues --   -0.06754  -0.06346  -0.05628  -0.03978  -0.02743
  Beta virt. eigenvalues --   -0.02145  -0.01774  -0.01540  -0.01210  -0.00734
  Beta virt. eigenvalues --   -0.00220   0.00079   0.00291   0.00713   0.00752

 Mulliken charges and spin densities:
               1          2
     1  Na   0.058466  -0.006272
     2  Na  -0.127559   0.229717
     3  Na  -0.064534   0.057156
     4  Na   0.333719   0.059555
     5  Na   0.118814   0.071116
     6  Na   0.037406  -0.042974
     7  Na  -0.356313   0.631702
 Sum of Mulliken charges =  -0.00000   1.00000

 Dipole moment (field-independent basis, Debye):
    X=              0.1319    Y=             -0.1085    Z=             -0.0245  Tot=              0.1725
 Quadrupole moment (field-independent basis, Debye-Ang):
   XX=            -52.3957   YY=            -66.7351   ZZ=            -74.9813
   XY=              1.1853   XZ=             -0.8049   YZ=              0.2364

 Normal termination of Gaussian 16 at Thu Dec  7 08:26:12 2023.
