 Gaussian 16, Revision B.01,
 Gaussian 16:  ES64L-G16RevB.01 20-Dec-2017

 -------------------------
 #P B3LYP/6-311+g(d) force
 -------------------------

 -----
 DPGEN
 -----
 Symbolic Z-matrix:
 Charge =  0 Multiplicity = 2

                         Standard orientation:
 ---------------------------------------------------------------------
 Center     Atomic      Atomic             Coordinates (Angstroms)
 Number     Number       Type             X           Y           Z
 ---------------------------------------------------------------------
      1         11           0       -4.161594    0.579115   -0.416865
      2         11           0       -1.951275   -2.282028   -0.202214
      3         11           0        0.654116   -0.897589    2.182605
      4         11           0       -1.335103    1.689796    0.364613
      5         11           0        2.106429    2.255460    0.031036
      6         11           0        0.860508   -0.403065   -1.470446
      7         11           0        3.826918   -0.941689   -0.488729
 ---------------------------------------------------------------------

 SCF Done:  E(UB3LYP) =  -1136.11878121     A.U. after   27 cycles

 The electronic state is 2-A.
 Alpha  occ. eigenvalues --  -38.44910 -38.44679 -38.44653 -38.44327 -38.43607
 Alpha  occ. eigenvalues --  -38.43455 -38.42770  -2.20737  -2.20585  -2.20467
 Alpha  occ. eigenvalues --   -2.20158  -2.19397  -2.19301  -2.18653  -1.14440
 Alpha  occ. eigenvalues --   -1.14376  -1.14361  -1.14273  -1.14229  -1.14207
 Alpha  occ. eigenvalues --   -1.14144  -1.14118  -1.14089  -1.13815  -1.13788
 Alpha  occ. eigenvalues --   -1.13765  -1.13096  -1.13065  -1.13029  -1.12993
 Alpha  occ. eigenvalues --   -1.12959  -1.12929  -1.12354  -1.12327  -1.12283
 Alpha  occ. eigenvalues --   -0.18119  -0.14073  -0.11134  -0.11015
 Alpha virt. eigenvalues --   -0.07282  -0.05450  -0.03937  -0.03263  -0.03118
 Alpha virt. eigenvalues --   -0.02480  -0.02203  -0.01400  -0.00770  -0.00584
 Alpha virt. eigenvalues --   -0.00251   0.00147   0.00383   0.00623   0.00667

  Beta  occ. eigenvalues --  -38.44856 -38.44671 -38.44625 -38.44227 -38.43619
  Beta  occ. eigenvalues --  -38.43444 -38.42760  -2.20639  -2.20572  -2.20414
  Beta  occ. eigenvalues --   -2.19972  -2.19422  -2.19285  -2.18640  -1.14380
  Beta  occ. eigenvalues --   -1.14311  -1.14291  -1.14246  -1.14210  -1.14196
  Beta  occ. eigenvalues --   -1.14114  -1.14080  -1.14052  -1.13682  -1.13666
  Beta  occ. eigenvalues --   -1.13635  -1.13117  -1.13077  -1.13034  -1.12982
  Beta  occ. eigenvalues --   -1.12947  -1.12899  -1.12351  -1.12295  -1.12262
  Beta  occ. eigenvalues --   -0.17495  -0.13593  -0.10922
  Beta virt. eigenvalues --   -0.07438  -0.06879  -0.05409  -0.03455  -0.02947
  Beta virt. eigenvalues --   -0.02778  -0.01957  -0.01534  -0.01377  -0.00633
  Beta virt. eigenvalues --   -0.00293  -0.00110   0.00172   0.00513   0.00691

 Mulliken charges and spin densities:
               1          2
     1  Na   0.109164   0.225171
     2  Na   0.254729   0.025886
     3  Na  -0.282488   0.470092
     4  Na  -0.196903  -0.007513
     5  Na   0.040834  -0.063922
     6  Na  -0.208682   0.135601
     7  Na   0.283347   0.214686
 Sum of Mulliken charges =  -0.00000   1.00000

 Dipole moment (field-independent basis, Debye):
    X=              0.6062    Y=             -0.4226    Z=              0.3749  Tot=              0.8286
 Quadrupole moment (field-independent basis, Debye-Ang):
   XX=            -50.6762   YY=            -75.9158   ZZ=            -68.9663
   XY=              1.3040   XZ=              3.4619   YZ=              0.3196

 Normal termination of Gaussian 16 at Thu Dec  7 15:18:53 2023.
