 Gaussian 16, Revision B.01,
 Gaussian 16:  ES64L-G16RevB.01 20-Dec-2017

 -------------------------
 #P B3LYP/6-311+g(d) force
 -------------------------

 -----
 DPGEN
 -----
 Symbolic Z-matrix:
 Charge =  0 Multiplicity = 2

                         Standard orientation:
 ---------------------------------------------------------------------
 Center     Atomic      Atomic             Coordinates (Angstroms)
 Number     Number       Type             X           Y           Z
 ---------------------------------------------------------------------
      1         11           0       -0.310508   -0.096501    1.988070
      2         11           0        0.049881    2.623449   -0.139443
      3         11           0       -4.138552   -1.133344    0.630949
      4         11           0       -2.608373    0.226127   -1.355671
      5         11           0        2.540047    1.678109    0.287061
      6         11           0        3.233319   -2.227833    0.355971
      7         11           0        1.234186   -1.070007   -1.766937
 ---------------------------------------------------------------------

 SCF Done:  E(UB3LYP) =  -1136.11193378     A.U. after   20 cycles

 The electronic state is 2-A.
 Alpha  occ. eigenvalues --  -38.44950 -38.44911 -38.44892 -38.44097 -38.43927
 Alpha  occ. eigenvalues --  -38.43454 -38.43217  -2.20797  -2.20755  -2.20732
 Alpha  occ. eigenvalues --   -2.19967  -2.19771  -2.19263  -2.19144  -1.14614
 Alpha  occ. eigenvalues --   -1.14503  -1.14436  -1.14427  -1.14403  -1.14397
 Alpha  occ. eigenvalues --   -1.14371  -1.14359  -1.14349  -1.13620  -1.13613
 Alpha  occ. eigenvalues --   -1.13599  -1.13445  -1.13427  -1.13410  -1.12930
 Alpha  occ. eigenvalues --   -1.12917  -1.12905  -1.12859  -1.12767  -1.12744
 Alpha  occ. eigenvalues --   -0.17899  -0.13868  -0.11804  -0.10892
 Alpha virt. eigenvalues --   -0.06949  -0.05304  -0.04471  -0.03339  -0.02877
 Alpha virt. eigenvalues --   -0.02761  -0.02394  -0.01339  -0.00638  -0.00403
 Alpha virt. eigenvalues --    0.00101   0.00144   0.00264   0.00470   0.00682

  Beta  occ. eigenvalues --  -38.44912 -38.44890 -38.44869 -38.44070 -38.43886
  Beta  occ. eigenvalues --  -38.43456 -38.43206  -2.20795  -2.20733  -2.20607
  Beta  occ. eigenvalues --   -2.19918  -2.19695  -2.19268  -2.19127  -1.14615
  Beta  occ. eigenvalues --   -1.14503  -1.14408  -1.14400  -1.14372  -1.14344
  Beta  occ. eigenvalues --   -1.14326  -1.14300  -1.14249  -1.13582  -1.13571
  Beta  occ. eigenvalues --   -1.13566  -1.13393  -1.13377  -1.13349  -1.12932
  Beta  occ. eigenvalues --   -1.12916  -1.12905  -1.12852  -1.12757  -1.12705
  Beta  occ. eigenvalues --   -0.17176  -0.13786  -0.11707
  Beta virt. eigenvalues --   -0.07116  -0.06646  -0.04978  -0.04016  -0.03222
  Beta virt. eigenvalues --   -0.02355  -0.02328  -0.01816  -0.01144  -0.00409
  Beta virt. eigenvalues --   -0.00344   0.00175   0.00227   0.00436   0.00605

 Mulliken charges and spin densities:
               1          2
     1  Na  -0.532604   0.440287
     2  Na  -0.009952   0.134887
     3  Na   0.152284   0.101731
     4  Na   0.163303  -0.021460
     5  Na   0.413919   0.139192
     6  Na   0.394505   0.037063
     7  Na  -0.581456   0.168300
 Sum of Mulliken charges =  -0.00000   1.00000

 Dipole moment (field-independent basis, Debye):
    X=             -0.3278    Y=             -0.1356    Z=              0.5712  Tot=              0.6724
 Quadrupole moment (field-independent basis, Debye-Ang):
   XX=            -54.6374   YY=            -71.9005   ZZ=            -71.1835
   XY=              3.5390   XZ=              0.8677   YZ=             -3.6479

 Normal termination of Gaussian 16 at Sun Dec  3 16:09:15 2023.
