 Gaussian 16, Revision B.01,
 Gaussian 16:  ES64L-G16RevB.01 20-Dec-2017

 -------------------------
 #P B3LYP/6-311+g(d) force
 -------------------------

 -----
 DPGEN
 -----
 Symbolic Z-matrix:
 Charge =  0 Multiplicity = 2

                         Standard orientation:
 ---------------------------------------------------------------------
 Center     Atomic      Atomic             Coordinates (Angstroms)
 Number     Number       Type             X           Y           Z
 ---------------------------------------------------------------------
      1         11           0        2.775523   -1.418784   -0.070801
      2         11           0        0.254125   -0.104594   -1.439383
      3         11           0        2.371717    1.804680    0.067545
      4         11           0       -1.119872    2.594797   -0.101634
      5         11           0       -0.898519   -2.562092   -0.117359
      6         11           0       -0.128627   -0.234787    1.788503
      7         11           0       -3.254347   -0.079220   -0.126870
 ---------------------------------------------------------------------

 SCF Done:  E(UB3LYP) =  -1136.13356648     A.U. after   19 cycles

 The electronic state is 2-A.
 Alpha  occ. eigenvalues --  -38.44441 -38.44059 -38.43707 -38.43213 -38.43114
 Alpha  occ. eigenvalues --  -38.42977 -38.42854  -2.20275  -2.19936  -2.19591
 Alpha  occ. eigenvalues --   -2.19145  -2.18983  -2.18967  -2.18947  -1.13941
 Alpha  occ. eigenvalues --   -1.13931  -1.13925  -1.13640  -1.13597  -1.13568
 Alpha  occ. eigenvalues --   -1.13283  -1.13246  -1.13222  -1.12939  -1.12845
 Alpha  occ. eigenvalues --   -1.12739  -1.12719  -1.12670  -1.12647  -1.12613
 Alpha  occ. eigenvalues --   -1.12592  -1.12569  -1.12559  -1.12552  -1.12542
 Alpha  occ. eigenvalues --   -0.19249  -0.13524  -0.12433  -0.10357
 Alpha virt. eigenvalues --   -0.06013  -0.05205  -0.04383  -0.03143  -0.02542
 Alpha virt. eigenvalues --   -0.02011  -0.01892  -0.01104  -0.00314  -0.00205
 Alpha virt. eigenvalues --    0.00032   0.00335   0.00771   0.00884   0.00914

  Beta  occ. eigenvalues --  -38.44438 -38.44053 -38.43702 -38.43202 -38.43109
  Beta  occ. eigenvalues --  -38.42888 -38.42792  -2.20272  -2.19929  -2.19585
  Beta  occ. eigenvalues --   -2.19129  -2.18977  -2.18838  -2.18804  -1.13933
  Beta  occ. eigenvalues --   -1.13925  -1.13916  -1.13634  -1.13579  -1.13553
  Beta  occ. eigenvalues --   -1.13277  -1.13225  -1.13214  -1.12918  -1.12788
  Beta  occ. eigenvalues --   -1.12734  -1.12689  -1.12623  -1.12612  -1.12592
  Beta  occ. eigenvalues --   -1.12496  -1.12480  -1.12467  -1.12457  -1.12442
  Beta  occ. eigenvalues --   -0.18527  -0.13270  -0.12158
  Beta virt. eigenvalues --   -0.06438  -0.05973  -0.05205  -0.04381  -0.02341
  Beta virt. eigenvalues --   -0.01808  -0.01766  -0.01059  -0.00980  -0.00364
  Beta virt. eigenvalues --   -0.00249   0.00176   0.00375   0.00812   0.00888

 Mulliken charges and spin densities:
               1          2
     1  Na   0.487996  -0.028313
     2  Na  -0.766291   0.467146
     3  Na   0.174740  -0.012140
     4  Na   0.104867  -0.067545
     5  Na   0.435833  -0.072870
     6  Na  -0.546480   0.741728
     7  Na   0.109335  -0.028007
 Sum of Mulliken charges =  -0.00000   1.00000

 Dipole moment (field-independent basis, Debye):
    X=             -0.0607    Y=             -0.0568    Z=              0.1604  Tot=              0.1806
 Quadrupole moment (field-independent basis, Debye-Ang):
   XX=            -50.9239   YY=            -63.6909   ZZ=            -76.6091
   XY=             -0.1915   XZ=              0.8585   YZ=              0.3644

 Normal termination of Gaussian 16 at Thu Dec  7 19:07:23 2023.
