 Gaussian 16, Revision B.01,
 Gaussian 16:  ES64L-G16RevB.01 20-Dec-2017

 -------------------------
 #P B3LYP/6-311+g(d) force
 -------------------------

 -----
 DPGEN
 -----
 Symbolic Z-matrix:
 Charge =  0 Multiplicity = 2

                         Standard orientation:
 ---------------------------------------------------------------------
 Center     Atomic      Atomic             Coordinates (Angstroms)
 Number     Number       Type             X           Y           Z
 ---------------------------------------------------------------------
      1         11           0       -2.710270    0.962678   -0.210575
      2         11           0       -1.780086   -2.174571    0.025715
      3         11           0        0.184835    2.809708    0.250298
      4         11           0       -0.086169    0.069906    1.854086
      5         11           0       -0.056956   -0.022997   -1.819905
      6         11           0        2.853353    0.673573   -0.283113
      7         11           0        1.595293   -2.318298    0.183495
 ---------------------------------------------------------------------

 SCF Done:  E(UB3LYP) =  -1136.14041272     A.U. after   18 cycles

 The electronic state is 2-A.
 Alpha  occ. eigenvalues --  -38.43550 -38.43505 -38.43350 -38.43333 -38.43273
 Alpha  occ. eigenvalues --  -38.43263 -38.43239  -2.19429  -2.19409  -2.19343
 Alpha  occ. eigenvalues --   -2.19330  -2.19188  -2.19163  -2.19131  -1.13140
 Alpha  occ. eigenvalues --   -1.13131  -1.13096  -1.13086  -1.13077  -1.13057
 Alpha  occ. eigenvalues --   -1.13026  -1.13014  -1.12992  -1.12963  -1.12958
 Alpha  occ. eigenvalues --   -1.12940  -1.12858  -1.12843  -1.12832  -1.12824
 Alpha  occ. eigenvalues --   -1.12813  -1.12796  -1.12783  -1.12770  -1.12751
 Alpha  occ. eigenvalues --   -0.19384  -0.13077  -0.12752  -0.11112
 Alpha virt. eigenvalues --   -0.05145  -0.04902  -0.04706  -0.03233  -0.03071
 Alpha virt. eigenvalues --   -0.02671  -0.01212  -0.01008  -0.00093   0.00035
 Alpha virt. eigenvalues --    0.00051   0.00378   0.00908   0.00966   0.00974

  Beta  occ. eigenvalues --  -38.43544 -38.43497 -38.43267 -38.43265 -38.43257
  Beta  occ. eigenvalues --  -38.43252 -38.43231  -2.19420  -2.19399  -2.19188
  Beta  occ. eigenvalues --   -2.19182  -2.19180  -2.19156  -2.19121  -1.13118
  Beta  occ. eigenvalues --   -1.13116  -1.13082  -1.13061  -1.13059  -1.13036
  Beta  occ. eigenvalues --   -1.12956  -1.12929  -1.12897  -1.12876  -1.12869
  Beta  occ. eigenvalues --   -1.12846  -1.12835  -1.12819  -1.12805  -1.12792
  Beta  occ. eigenvalues --   -1.12782  -1.12768  -1.12765  -1.12750  -1.12742
  Beta  occ. eigenvalues --   -0.18626  -0.12800  -0.12470
  Beta virt. eigenvalues --   -0.07148  -0.05127  -0.04913  -0.04685  -0.02398
  Beta virt. eigenvalues --   -0.02237  -0.01592  -0.01130  -0.00941  -0.00095
  Beta virt. eigenvalues --   -0.00027   0.00124   0.00389   0.00945   0.00952

 Mulliken charges and spin densities:
               1          2
     1  Na   0.256255  -0.059209
     2  Na   0.201848  -0.075191
     3  Na   0.187256  -0.066762
     4  Na  -0.446130   0.669942
     5  Na  -0.446563   0.645016
     6  Na   0.106467  -0.050302
     7  Na   0.140867  -0.063494
 Sum of Mulliken charges =  -0.00000   1.00000

 Dipole moment (field-independent basis, Debye):
    X=              0.0045    Y=              0.0580    Z=             -0.0126  Tot=              0.0595
 Quadrupole moment (field-independent basis, Debye-Ang):
   XX=            -59.3544   YY=            -62.3912   ZZ=            -72.5608
   XY=              0.0438   XZ=              0.0025   YZ=             -0.3244

 Normal termination of Gaussian 16 at Thu Dec  7 06:16:36 2023.
