 Gaussian 16, Revision B.01,
 Gaussian 16:  ES64L-G16RevB.01 20-Dec-2017

 -------------------------
 #P B3LYP/6-311+g(d) force
 -------------------------

 -----
 DPGEN
 -----
 Symbolic Z-matrix:
 Charge =  0 Multiplicity = 2

                         Standard orientation:
 ---------------------------------------------------------------------
 Center     Atomic      Atomic             Coordinates (Angstroms)
 Number     Number       Type             X           Y           Z
 ---------------------------------------------------------------------
      1         11           0       -1.243564   -1.700946   -0.519468
      2         11           0        1.876970   -2.794658    0.271720
      3         11           0        3.996732   -0.470130   -0.373621
      4         11           0       -4.370458   -0.191905   -0.971064
      5         11           0        1.768637    3.554347   -0.657671
      6         11           0        0.527327    0.642763    0.975331
      7         11           0       -2.555644    0.960529    1.274774
 ---------------------------------------------------------------------

 SCF Done:  E(UB3LYP) =  -1136.11657017     A.U. after   22 cycles

 The electronic state is 2-A.
 Alpha  occ. eigenvalues --  -38.44908 -38.44577 -38.44337 -38.44239 -38.44017
 Alpha  occ. eigenvalues --  -38.43322 -38.43128  -2.20799  -2.20384  -2.20219
 Alpha  occ. eigenvalues --   -2.19964  -2.19886  -2.19167  -2.19063  -1.14518
 Alpha  occ. eigenvalues --   -1.14460  -1.14428  -1.14045  -1.14033  -1.13999
 Alpha  occ. eigenvalues --   -1.13924  -1.13898  -1.13822  -1.13649  -1.13624
 Alpha  occ. eigenvalues --   -1.13615  -1.13540  -1.13514  -1.13497  -1.12838
 Alpha  occ. eigenvalues --   -1.12834  -1.12819  -1.12767  -1.12736  -1.12657
 Alpha  occ. eigenvalues --   -0.17653  -0.14321  -0.11739  -0.10682
 Alpha virt. eigenvalues --   -0.07112  -0.05055  -0.04295  -0.04114  -0.02929
 Alpha virt. eigenvalues --   -0.02385  -0.01564  -0.01524  -0.00979  -0.00571
 Alpha virt. eigenvalues --   -0.00425   0.00160   0.00382   0.00547   0.00615

  Beta  occ. eigenvalues --  -38.44889 -38.44512 -38.44311 -38.44260 -38.43938
  Beta  occ. eigenvalues --  -38.43319 -38.43079  -2.20773  -2.20261  -2.20176
  Beta  occ. eigenvalues --   -2.20003  -2.19736  -2.19167  -2.18978  -1.14454
  Beta  occ. eigenvalues --   -1.14436  -1.14414  -1.13962  -1.13953  -1.13913
  Beta  occ. eigenvalues --   -1.13888  -1.13854  -1.13788  -1.13676  -1.13646
  Beta  occ. eigenvalues --   -1.13642  -1.13438  -1.13412  -1.13403  -1.12839
  Beta  occ. eigenvalues --   -1.12832  -1.12794  -1.12710  -1.12660  -1.12594
  Beta  occ. eigenvalues --   -0.16928  -0.13650  -0.11690
  Beta virt. eigenvalues --   -0.07199  -0.06759  -0.04870  -0.03893  -0.03673
  Beta virt. eigenvalues --   -0.02515  -0.02235  -0.01133  -0.01071  -0.00940
  Beta virt. eigenvalues --   -0.00395  -0.00216   0.00307   0.00539   0.00645

 Mulliken charges and spin densities:
               1          2
     1  Na  -0.829189   0.155317
     2  Na   0.631600   0.008921
     3  Na   0.412968   0.422194
     4  Na   0.575565   0.420261
     5  Na   0.239498  -0.051830
     6  Na  -1.038019   0.000417
     7  Na   0.007576   0.044721
 Sum of Mulliken charges =  -0.00000   1.00000

 Dipole moment (field-independent basis, Debye):
    X=             -0.5463    Y=             -0.0565    Z=             -0.1727  Tot=              0.5757
 Quadrupole moment (field-independent basis, Debye-Ang):
   XX=            -65.0030   YY=            -66.8228   ZZ=            -67.4557
   XY=             -1.0665   XZ=             -1.8210   YZ=             -0.9515

 Normal termination of Gaussian 16 at Wed Nov 29 04:06:16 2023.
