 Gaussian 16, Revision B.01,
 Gaussian 16:  ES64L-G16RevB.01 20-Dec-2017

 -------------------------
 #P B3LYP/6-311+g(d) force
 -------------------------

 -----
 DPGEN
 -----
 Symbolic Z-matrix:
 Charge =  0 Multiplicity = 2

                         Standard orientation:
 ---------------------------------------------------------------------
 Center     Atomic      Atomic             Coordinates (Angstroms)
 Number     Number       Type             X           Y           Z
 ---------------------------------------------------------------------
      1         11           0       -0.788502    3.575427    0.826905
      2         11           0        1.339660    1.911977   -1.500476
      3         11           0       -2.040208    0.191723   -1.379631
      4         11           0        4.298959   -1.098370    0.400258
      5         11           0        0.743076   -1.324215    0.131091
      6         11           0       -2.029213   -2.755223   -0.689027
      7         11           0       -1.523773   -0.501319    2.210879
 ---------------------------------------------------------------------

 SCF Done:  E(UB3LYP) =  -1136.11884332     A.U. after   21 cycles

 The electronic state is 2-A.
 Alpha  occ. eigenvalues --  -38.44568 -38.44413 -38.44385 -38.44368 -38.44334
 Alpha  occ. eigenvalues --  -38.43749 -38.43025  -2.20426  -2.20306  -2.20229
 Alpha  occ. eigenvalues --   -2.20165  -2.20116  -2.19485  -2.18954  -1.14118
 Alpha  occ. eigenvalues --   -1.14072  -1.14049  -1.14016  -1.13976  -1.13919
 Alpha  occ. eigenvalues --   -1.13906  -1.13871  -1.13857  -1.13839  -1.13795
 Alpha  occ. eigenvalues --   -1.13791  -1.13781  -1.13767  -1.13734  -1.13161
 Alpha  occ. eigenvalues --   -1.13155  -1.13118  -1.12673  -1.12640  -1.12546
 Alpha  occ. eigenvalues --   -0.18066  -0.12955  -0.11659  -0.11275
 Alpha virt. eigenvalues --   -0.06232  -0.05743  -0.04765  -0.03225  -0.03017
 Alpha virt. eigenvalues --   -0.02506  -0.01763  -0.01625  -0.00540  -0.00371
 Alpha virt. eigenvalues --    0.00048   0.00176   0.00287   0.00387   0.00670

  Beta  occ. eigenvalues --  -38.44467 -38.44393 -38.44366 -38.44365 -38.44287
  Beta  occ. eigenvalues --  -38.43762 -38.43008  -2.20271  -2.20239  -2.20146
  Beta  occ. eigenvalues --   -2.20128  -2.20112  -2.19509  -2.18927  -1.14031
  Beta  occ. eigenvalues --   -1.13987  -1.13953  -1.13924  -1.13896  -1.13867
  Beta  occ. eigenvalues --   -1.13851  -1.13825  -1.13816  -1.13802  -1.13790
  Beta  occ. eigenvalues --   -1.13767  -1.13758  -1.13734  -1.13722  -1.13177
  Beta  occ. eigenvalues --   -1.13171  -1.13133  -1.12639  -1.12597  -1.12540
  Beta  occ. eigenvalues --   -0.17286  -0.12779  -0.11622
  Beta virt. eigenvalues --   -0.07342  -0.05892  -0.05596  -0.04410  -0.02817
  Beta virt. eigenvalues --   -0.02350  -0.02006  -0.01537  -0.01441  -0.00397
  Beta virt. eigenvalues --   -0.00201   0.00210   0.00266   0.00390   0.00561

 Mulliken charges and spin densities:
               1          2
     1  Na  -0.113331   0.009382
     2  Na   0.253414  -0.004668
     3  Na   0.137556   0.403177
     4  Na   0.016370  -0.154638
     5  Na  -1.429738   0.433960
     6  Na   1.318868   0.002998
     7  Na  -0.183139   0.309788
 Sum of Mulliken charges =  -0.00000   1.00000

 Dipole moment (field-independent basis, Debye):
    X=             -1.0499    Y=              0.1838    Z=              0.0685  Tot=              1.0681
 Quadrupole moment (field-independent basis, Debye-Ang):
   XX=            -62.9873   YY=            -61.1324   ZZ=            -69.7593
   XY=              4.2783   XZ=             -0.5314   YZ=              1.5162

 Normal termination of Gaussian 16 at Fri Dec  8 20:21:04 2023.
