 Gaussian 16, Revision B.01,
 Gaussian 16:  ES64L-G16RevB.01 20-Dec-2017

 -------------------------
 #P B3LYP/6-311+g(d) force
 -------------------------

 -----
 DPGEN
 -----
 Symbolic Z-matrix:
 Charge =  0 Multiplicity = 2

                         Standard orientation:
 ---------------------------------------------------------------------
 Center     Atomic      Atomic             Coordinates (Angstroms)
 Number     Number       Type             X           Y           Z
 ---------------------------------------------------------------------
      1         11           0       -0.157283   -1.579033    0.259987
      2         11           0        1.161039    1.835229   -1.543019
      3         11           0       -2.196620    0.444176   -1.569890
      4         11           0       -1.001178    2.372948    1.458217
      5         11           0        2.713833   -0.220023    2.254908
      6         11           0       -3.529023   -1.553265    0.563914
      7         11           0        3.009233   -1.300032   -1.424116
 ---------------------------------------------------------------------

 SCF Done:  E(UB3LYP) =  -1136.12421464     A.U. after   22 cycles

 The electronic state is 2-A.
 Alpha  occ. eigenvalues --  -38.44881 -38.44263 -38.44207 -38.44118 -38.43658
 Alpha  occ. eigenvalues --  -38.43582 -38.43261  -2.20651  -2.20072  -2.20059
 Alpha  occ. eigenvalues --   -2.19892  -2.19510  -2.19411  -2.19073  -1.14317
 Alpha  occ. eigenvalues --   -1.14296  -1.14259  -1.13780  -1.13745  -1.13733
 Alpha  occ. eigenvalues --   -1.13716  -1.13679  -1.13674  -1.13557  -1.13545
 Alpha  occ. eigenvalues --   -1.13508  -1.13230  -1.13202  -1.13128  -1.13079
 Alpha  occ. eigenvalues --   -1.13062  -1.13031  -1.12762  -1.12737  -1.12689
 Alpha  occ. eigenvalues --   -0.17475  -0.13469  -0.11299  -0.11231
 Alpha virt. eigenvalues --   -0.05869  -0.05786  -0.04879  -0.03173  -0.02951
 Alpha virt. eigenvalues --   -0.02705  -0.01966  -0.01141  -0.00973  -0.00217
 Alpha virt. eigenvalues --    0.00084   0.00231   0.00258   0.00432   0.00584

  Beta  occ. eigenvalues --  -38.44814 -38.44235 -38.44197 -38.44073 -38.43650
  Beta  occ. eigenvalues --  -38.43586 -38.43238  -2.20526  -2.20053  -2.20009
  Beta  occ. eigenvalues --   -2.19809  -2.19498  -2.19421  -2.19032  -1.14228
  Beta  occ. eigenvalues --   -1.14208  -1.14175  -1.13764  -1.13727  -1.13699
  Beta  occ. eigenvalues --   -1.13675  -1.13665  -1.13642  -1.13497  -1.13486
  Beta  occ. eigenvalues --   -1.13452  -1.13202  -1.13188  -1.13128  -1.13084
  Beta  occ. eigenvalues --   -1.13066  -1.13035  -1.12728  -1.12711  -1.12652
  Beta  occ. eigenvalues --   -0.16901  -0.13185  -0.11098
  Beta virt. eigenvalues --   -0.07619  -0.05627  -0.05073  -0.04750  -0.02959
  Beta virt. eigenvalues --   -0.02475  -0.02135  -0.01786  -0.00897  -0.00553
  Beta virt. eigenvalues --   -0.00130   0.00246   0.00309   0.00398   0.00546

 Mulliken charges and spin densities:
               1          2
     1  Na  -0.672707   0.298159
     2  Na   0.034716   0.265677
     3  Na   0.225667  -0.035168
     4  Na  -0.321798   0.327144
     5  Na  -0.026360   0.249773
     6  Na   0.366164  -0.103903
     7  Na   0.394317  -0.001682
 Sum of Mulliken charges =  -0.00000   1.00000

 Dipole moment (field-independent basis, Debye):
    X=              0.0598    Y=              0.0719    Z=              0.1993  Tot=              0.2201
 Quadrupole moment (field-independent basis, Debye-Ang):
   XX=            -55.3155   YY=            -76.0374   ZZ=            -64.0904
   XY=             -0.7649   XZ=             -1.5832   YZ=              2.4609

 Normal termination of Gaussian 16 at Tue Dec  5 10:43:04 2023.
