 Gaussian 16, Revision B.01,
 Gaussian 16:  ES64L-G16RevB.01 20-Dec-2017

 -------------------------
 #P B3LYP/6-311+g(d) force
 -------------------------

 -----
 DPGEN
 -----
 Symbolic Z-matrix:
 Charge =  0 Multiplicity = 2

                         Standard orientation:
 ---------------------------------------------------------------------
 Center     Atomic      Atomic             Coordinates (Angstroms)
 Number     Number       Type             X           Y           Z
 ---------------------------------------------------------------------
      1         11           0       -1.873090    2.482571   -0.040372
      2         11           0       -3.452857   -0.438436   -0.338640
      3         11           0        0.609650    0.765815    1.529827
      4         11           0        2.772514   -2.070707   -0.125034
      5         11           0       -1.313561   -1.987440    0.828240
      6         11           0        3.427978    1.670857   -0.294367
      7         11           0       -0.170634   -0.422660   -1.559653
 ---------------------------------------------------------------------

 SCF Done:  E(UB3LYP) =  -1136.11710566     A.U. after   26 cycles

 The electronic state is 2-A.
 Alpha  occ. eigenvalues --  -38.45124 -38.44742 -38.44681 -38.44407 -38.43505
 Alpha  occ. eigenvalues --  -38.43178 -38.42766  -2.20885  -2.20642  -2.20447
 Alpha  occ. eigenvalues --   -2.20321  -2.19333  -2.19132  -2.18699  -1.14564
 Alpha  occ. eigenvalues --   -1.14535  -1.14518  -1.14380  -1.14279  -1.14262
 Alpha  occ. eigenvalues --   -1.14133  -1.14099  -1.14085  -1.14059  -1.13969
 Alpha  occ. eigenvalues --   -1.13919  -1.13003  -1.13000  -1.12982  -1.12820
 Alpha  occ. eigenvalues --   -1.12785  -1.12745  -1.12400  -1.12323  -1.12310
 Alpha  occ. eigenvalues --   -0.18487  -0.13919  -0.11501  -0.10168
 Alpha virt. eigenvalues --   -0.06975  -0.06114  -0.03779  -0.03379  -0.02677
 Alpha virt. eigenvalues --   -0.02370  -0.01832  -0.01611  -0.00908  -0.00219
 Alpha virt. eigenvalues --    0.00002   0.00150   0.00475   0.00564   0.00657

  Beta  occ. eigenvalues --  -38.45113 -38.44726 -38.44676 -38.44375 -38.43500
  Beta  occ. eigenvalues --  -38.43147 -38.42692  -2.20865  -2.20614  -2.20441
  Beta  occ. eigenvalues --   -2.20263  -2.19327  -2.19079  -2.18563  -1.14545
  Beta  occ. eigenvalues --   -1.14520  -1.14503  -1.14359  -1.14247  -1.14244
  Beta  occ. eigenvalues --   -1.14121  -1.14095  -1.14074  -1.14005  -1.13932
  Beta  occ. eigenvalues --   -1.13873  -1.13002  -1.12993  -1.12958  -1.12788
  Beta  occ. eigenvalues --   -1.12749  -1.12677  -1.12312  -1.12221  -1.12208
  Beta  occ. eigenvalues --   -0.17805  -0.13620  -0.11315
  Beta virt. eigenvalues --   -0.06852  -0.06430  -0.06002  -0.03575  -0.02868
  Beta virt. eigenvalues --   -0.02453  -0.01844  -0.01554  -0.00995  -0.00852
  Beta virt. eigenvalues --   -0.00041   0.00056   0.00215   0.00584   0.00635

 Mulliken charges and spin densities:
               1          2
     1  Na  -0.055474   0.033719
     2  Na   0.406838   0.173675
     3  Na   0.003199   0.199279
     4  Na   0.046342   0.052594
     5  Na  -0.032282   0.123192
     6  Na  -0.073923   0.038405
     7  Na  -0.294700   0.379136
 Sum of Mulliken charges =  -0.00000   1.00000

 Dipole moment (field-independent basis, Debye):
    X=              0.7256    Y=             -0.0202    Z=             -0.0900  Tot=              0.7314
 Quadrupole moment (field-independent basis, Debye-Ang):
   XX=            -49.0657   YY=            -68.3788   ZZ=            -75.0643
   XY=              0.3500   XZ=             -1.0820   YZ=             -2.4352

 Normal termination of Gaussian 16 at Tue Dec  5 12:30:04 2023.
