 Gaussian 16, Revision B.01,
 Gaussian 16:  ES64L-G16RevB.01 20-Dec-2017

 -------------------------
 #P B3LYP/6-311+g(d) force
 -------------------------

 -----
 DPGEN
 -----
 Symbolic Z-matrix:
 Charge =  0 Multiplicity = 2

                         Standard orientation:
 ---------------------------------------------------------------------
 Center     Atomic      Atomic             Coordinates (Angstroms)
 Number     Number       Type             X           Y           Z
 ---------------------------------------------------------------------
      1         11           0        3.192210   -0.252013   -0.452814
      2         11           0       -0.104910   -0.355546    2.164932
      3         11           0       -0.303005   -0.044637   -1.532929
      4         11           0       -2.985961   -1.460970   -0.206081
      5         11           0        1.344439    2.411672    0.227898
      6         11           0        0.860979   -2.600322   -0.040631
      7         11           0       -2.003752    2.301818   -0.160375
 ---------------------------------------------------------------------

 SCF Done:  E(UB3LYP) =  -1136.13590489     A.U. after   19 cycles

 The electronic state is 2-A.
 Alpha  occ. eigenvalues --  -38.44268 -38.43893 -38.43722 -38.43689 -38.43414
 Alpha  occ. eigenvalues --  -38.43154 -38.43145  -2.20066  -2.19737  -2.19604
 Alpha  occ. eigenvalues --   -2.19533  -2.19305  -2.19162  -2.19021  -1.13752
 Alpha  occ. eigenvalues --   -1.13720  -1.13700  -1.13406  -1.13398  -1.13388
 Alpha  occ. eigenvalues --   -1.13275  -1.13245  -1.13234  -1.13215  -1.13189
 Alpha  occ. eigenvalues --   -1.13161  -1.13031  -1.12973  -1.12909  -1.12842
 Alpha  occ. eigenvalues --   -1.12797  -1.12779  -1.12690  -1.12681  -1.12658
 Alpha  occ. eigenvalues --   -0.18694  -0.13006  -0.12455  -0.10851
 Alpha virt. eigenvalues --   -0.05810  -0.05195  -0.04404  -0.03110  -0.02963
 Alpha virt. eigenvalues --   -0.02648  -0.01710  -0.01136  -0.00330  -0.00153
 Alpha virt. eigenvalues --   -0.00025   0.00324   0.00776   0.00858   0.00915

  Beta  occ. eigenvalues --  -38.44264 -38.43884 -38.43687 -38.43615 -38.43405
  Beta  occ. eigenvalues --  -38.43139 -38.43102  -2.20062  -2.19724  -2.19532
  Beta  occ. eigenvalues --   -2.19407  -2.19293  -2.19067  -2.19013  -1.13737
  Beta  occ. eigenvalues --   -1.13717  -1.13696  -1.13400  -1.13386  -1.13368
  Beta  occ. eigenvalues --   -1.13238  -1.13176  -1.13163  -1.13150  -1.13095
  Beta  occ. eigenvalues --   -1.13077  -1.13013  -1.12933  -1.12902  -1.12777
  Beta  occ. eigenvalues --   -1.12740  -1.12712  -1.12676  -1.12658  -1.12647
  Beta  occ. eigenvalues --   -0.17974  -0.12762  -0.12226
  Beta virt. eigenvalues --   -0.06904  -0.05780  -0.05157  -0.04363  -0.02390
  Beta virt. eigenvalues --   -0.02147  -0.01657  -0.01531  -0.01086  -0.00360
  Beta virt. eigenvalues --   -0.00181   0.00121   0.00359   0.00821   0.00886

 Mulliken charges and spin densities:
               1          2
     1  Na   0.042779   0.035528
     2  Na  -0.559481   0.680645
     3  Na  -0.420478   0.279492
     4  Na   0.183126  -0.071354
     5  Na   0.196131   0.080846
     6  Na   0.413655   0.034344
     7  Na   0.144268  -0.039501
 Sum of Mulliken charges =  -0.00000   1.00000

 Dipole moment (field-independent basis, Debye):
    X=             -0.3776    Y=             -0.1746    Z=              0.1530  Tot=              0.4433
 Quadrupole moment (field-independent basis, Debye-Ang):
   XX=            -54.9380   YY=            -64.4512   ZZ=            -73.9508
   XY=              0.2989   XZ=             -0.7532   YZ=              0.6803

 Normal termination of Gaussian 16 at Fri Dec  8 05:58:59 2023.
