 Gaussian 16, Revision B.01,
 Gaussian 16:  ES64L-G16RevB.01 20-Dec-2017

 -------------------------
 #P B3LYP/6-311+g(d) force
 -------------------------

 -----
 DPGEN
 -----
 Symbolic Z-matrix:
 Charge =  0 Multiplicity = 2

                         Standard orientation:
 ---------------------------------------------------------------------
 Center     Atomic      Atomic             Coordinates (Angstroms)
 Number     Number       Type             X           Y           Z
 ---------------------------------------------------------------------
      1         11           0       -0.492241   -0.307806    2.320969
      2         11           0       -3.011611   -1.265828   -0.027946
      3         11           0        0.008789    0.097304   -1.676733
      4         11           0        1.019064   -2.889921   -0.431736
      5         11           0        2.948611   -0.316296    0.075836
      6         11           0        1.420163    2.649038    0.240436
      7         11           0       -1.892775    2.033509   -0.500826
 ---------------------------------------------------------------------

 SCF Done:  E(UB3LYP) =  -1136.13445880     A.U. after   19 cycles

 The electronic state is 2-A.
 Alpha  occ. eigenvalues --  -38.44294 -38.44062 -38.43691 -38.43604 -38.43531
 Alpha  occ. eigenvalues --  -38.43475 -38.43204  -2.20118  -2.19862  -2.19555
 Alpha  occ. eigenvalues --   -2.19504  -2.19457  -2.19362  -2.19055  -1.13766
 Alpha  occ. eigenvalues --   -1.13750  -1.13741  -1.13532  -1.13520  -1.13513
 Alpha  occ. eigenvalues --   -1.13355  -1.13248  -1.13220  -1.13215  -1.13155
 Alpha  occ. eigenvalues --   -1.13116  -1.13104  -1.13069  -1.13049  -1.13017
 Alpha  occ. eigenvalues --   -1.13005  -1.12989  -1.12722  -1.12713  -1.12702
 Alpha  occ. eigenvalues --   -0.18446  -0.13017  -0.12330  -0.11135
 Alpha virt. eigenvalues --   -0.05625  -0.04951  -0.04686  -0.03393  -0.03162
 Alpha virt. eigenvalues --   -0.02834  -0.01419  -0.01065  -0.00344  -0.00184
 Alpha virt. eigenvalues --   -0.00053   0.00359   0.00797   0.00861   0.00880

  Beta  occ. eigenvalues --  -38.44192 -38.44063 -38.43688 -38.43589 -38.43523
  Beta  occ. eigenvalues --  -38.43414 -38.43201  -2.19929  -2.19866  -2.19553
  Beta  occ. eigenvalues --   -2.19478  -2.19350  -2.19349  -2.19050  -1.13641
  Beta  occ. eigenvalues --   -1.13619  -1.13607  -1.13524  -1.13519  -1.13508
  Beta  occ. eigenvalues --   -1.13308  -1.13242  -1.13223  -1.13195  -1.13118
  Beta  occ. eigenvalues --   -1.13091  -1.13055  -1.13023  -1.13001  -1.12986
  Beta  occ. eigenvalues --   -1.12980  -1.12958  -1.12721  -1.12706  -1.12685
  Beta  occ. eigenvalues --   -0.17735  -0.12790  -0.12109
  Beta virt. eigenvalues --   -0.07198  -0.05551  -0.04892  -0.04631  -0.02607
  Beta virt. eigenvalues --   -0.02336  -0.01892  -0.01316  -0.00984  -0.00381
  Beta virt. eigenvalues --   -0.00212   0.00105   0.00393   0.00849   0.00890

 Mulliken charges and spin densities:
               1          2
     1  Na  -0.668189   0.707547
     2  Na   0.122617  -0.059066
     3  Na  -0.130433   0.164545
     4  Na   0.186387  -0.030673
     5  Na   0.043062   0.043398
     6  Na  -0.006233   0.080584
     7  Na   0.452789   0.093665
 Sum of Mulliken charges =  -0.00000   1.00000

 Dipole moment (field-independent basis, Debye):
    X=             -0.2841    Y=             -0.2523    Z=              0.2675  Tot=              0.4647
 Quadrupole moment (field-independent basis, Debye-Ang):
   XX=            -59.6180   YY=            -63.3516   ZZ=            -72.3005
   XY=              1.1641   XZ=              1.3400   YZ=              0.9563

 Normal termination of Gaussian 16 at Fri Dec  8 03:20:47 2023.
