 Gaussian 16, Revision B.01,
 Gaussian 16:  ES64L-G16RevB.01 20-Dec-2017

 -------------------------
 #P B3LYP/6-311+g(d) force
 -------------------------

 -----
 DPGEN
 -----
 Symbolic Z-matrix:
 Charge =  0 Multiplicity = 2

                         Standard orientation:
 ---------------------------------------------------------------------
 Center     Atomic      Atomic             Coordinates (Angstroms)
 Number     Number       Type             X           Y           Z
 ---------------------------------------------------------------------
      1         11           0        1.396503    2.697496   -0.040818
      2         11           0        0.665787   -2.818729    0.120518
      3         11           0       -2.693057   -1.297973   -0.093859
      4         11           0        2.975439   -0.358906   -0.133681
      5         11           0       -2.237507    1.933941    0.138201
      6         11           0       -0.170689   -0.081575   -1.837509
      7         11           0        0.063525   -0.074255    1.847149
 ---------------------------------------------------------------------

 SCF Done:  E(UB3LYP) =  -1136.14177626     A.U. after   19 cycles

 The electronic state is 2-A.
 Alpha  occ. eigenvalues --  -38.43773 -38.43673 -38.43613 -38.43420 -38.43316
 Alpha  occ. eigenvalues --  -38.43291 -38.43253  -2.19633  -2.19548  -2.19475
 Alpha  occ. eigenvalues --   -2.19266  -2.19251  -2.19240  -2.19130  -1.13308
 Alpha  occ. eigenvalues --   -1.13303  -1.13277  -1.13258  -1.13223  -1.13194
 Alpha  occ. eigenvalues --   -1.13145  -1.13139  -1.13091  -1.12957  -1.12926
 Alpha  occ. eigenvalues --   -1.12925  -1.12918  -1.12894  -1.12889  -1.12881
 Alpha  occ. eigenvalues --   -1.12878  -1.12857  -1.12787  -1.12783  -1.12758
 Alpha  occ. eigenvalues --   -0.18914  -0.13119  -0.12508  -0.10790
 Alpha virt. eigenvalues --   -0.05353  -0.05187  -0.04773  -0.03228  -0.02883
 Alpha virt. eigenvalues --   -0.02538  -0.01358  -0.01114  -0.00295  -0.00262
 Alpha virt. eigenvalues --   -0.00001   0.00380   0.00843   0.00910   0.00920

  Beta  occ. eigenvalues --  -38.43769 -38.43667 -38.43607 -38.43418 -38.43246
  Beta  occ. eigenvalues --  -38.43235 -38.43209  -2.19628  -2.19541  -2.19469
  Beta  occ. eigenvalues --   -2.19250  -2.19123  -2.19119  -2.19090  -1.13306
  Beta  occ. eigenvalues --   -1.13281  -1.13271  -1.13254  -1.13202  -1.13177
  Beta  occ. eigenvalues --   -1.13137  -1.13112  -1.13091  -1.12921  -1.12903
  Beta  occ. eigenvalues --   -1.12892  -1.12871  -1.12830  -1.12802  -1.12789
  Beta  occ. eigenvalues --   -1.12778  -1.12763  -1.12751  -1.12746  -1.12723
  Beta  occ. eigenvalues --   -0.18165  -0.12870  -0.12260
  Beta virt. eigenvalues --   -0.06868  -0.05328  -0.05197  -0.04738  -0.02397
  Beta virt. eigenvalues --   -0.02099  -0.01479  -0.01271  -0.01044  -0.00356
  Beta virt. eigenvalues --   -0.00325   0.00128   0.00393   0.00892   0.00900

 Mulliken charges and spin densities:
               1          2
     1  Na  -0.017457  -0.122505
     2  Na   0.224149  -0.093239
     3  Na   0.281509  -0.067826
     4  Na   0.095806  -0.077654
     5  Na   0.076646  -0.096342
     6  Na  -0.332118   0.722777
     7  Na  -0.328536   0.734789
 Sum of Mulliken charges =  -0.00000   1.00000

 Dipole moment (field-independent basis, Debye):
    X=             -0.0273    Y=              0.0165    Z=             -0.0106  Tot=              0.0336
 Quadrupole moment (field-independent basis, Debye-Ang):
   XX=            -57.9103   YY=            -61.5685   ZZ=            -74.1162
   XY=              0.0579   XZ=             -0.5661   YZ=              0.0474

 Normal termination of Gaussian 16 at Fri Dec  8 02:03:34 2023.
