 Gaussian 16, Revision B.01,
 Gaussian 16:  ES64L-G16RevB.01 20-Dec-2017

 -------------------------
 #P B3LYP/6-311+g(d) force
 -------------------------

 -----
 DPGEN
 -----
 Symbolic Z-matrix:
 Charge =  0 Multiplicity = 2

                         Standard orientation:
 ---------------------------------------------------------------------
 Center     Atomic      Atomic             Coordinates (Angstroms)
 Number     Number       Type             X           Y           Z
 ---------------------------------------------------------------------
      1         11           0       -0.247691    0.659608    1.922806
      2         11           0        1.269035    2.848087   -0.207175
      3         11           0       -2.585328   -1.800525    0.106570
      4         11           0        1.049760   -2.777822    0.244678
      5         11           0       -2.382086    1.846529   -0.343446
      6         11           0       -0.147722   -0.492062   -1.624784
      7         11           0        3.044033   -0.283816   -0.098650
 ---------------------------------------------------------------------

 SCF Done:  E(UB3LYP) =  -1136.13795541     A.U. after   19 cycles

 The electronic state is 2-A.
 Alpha  occ. eigenvalues --  -38.43975 -38.43932 -38.43783 -38.43716 -38.43617
 Alpha  occ. eigenvalues --  -38.43279 -38.43066  -2.19816  -2.19758  -2.19599
 Alpha  occ. eigenvalues --   -2.19560  -2.19484  -2.19178  -2.19035  -1.13501
 Alpha  occ. eigenvalues --   -1.13494  -1.13451  -1.13437  -1.13417  -1.13387
 Alpha  occ. eigenvalues --   -1.13279  -1.13277  -1.13265  -1.13242  -1.13227
 Alpha  occ. eigenvalues --   -1.13196  -1.13174  -1.13132  -1.13094  -1.12849
 Alpha  occ. eigenvalues --   -1.12810  -1.12794  -1.12716  -1.12669  -1.12657
 Alpha  occ. eigenvalues --   -0.18534  -0.12976  -0.12680  -0.10380
 Alpha virt. eigenvalues --   -0.05651  -0.05255  -0.04982  -0.03116  -0.02946
 Alpha virt. eigenvalues --   -0.02228  -0.01412  -0.01286  -0.00540  -0.00459
 Alpha virt. eigenvalues --    0.00009   0.00367   0.00817   0.00839   0.00874

  Beta  occ. eigenvalues --  -38.43965 -38.43928 -38.43779 -38.43713 -38.43611
  Beta  occ. eigenvalues --  -38.43197 -38.43004  -2.19802  -2.19754  -2.19594
  Beta  occ. eigenvalues --   -2.19558  -2.19476  -2.19027  -2.18923  -1.13493
  Beta  occ. eigenvalues --   -1.13454  -1.13444  -1.13431  -1.13396  -1.13387
  Beta  occ. eigenvalues --   -1.13277  -1.13272  -1.13246  -1.13241  -1.13207
  Beta  occ. eigenvalues --   -1.13194  -1.13165  -1.13110  -1.13092  -1.12748
  Beta  occ. eigenvalues --   -1.12702  -1.12685  -1.12636  -1.12587  -1.12575
  Beta  occ. eigenvalues --   -0.17829  -0.12747  -0.12472
  Beta virt. eigenvalues --   -0.06527  -0.05647  -0.05240  -0.04867  -0.02347
  Beta virt. eigenvalues --   -0.02204  -0.01335  -0.01231  -0.01199  -0.00588
  Beta virt. eigenvalues --   -0.00496   0.00159   0.00401   0.00827   0.00867

 Mulliken charges and spin densities:
               1          2
     1  Na  -0.442762   0.757920
     2  Na   0.099003  -0.072415
     3  Na   0.172732  -0.048387
     4  Na   0.084574  -0.009379
     5  Na   0.182240  -0.098956
     6  Na  -0.144152   0.534655
     7  Na   0.048364  -0.063440
 Sum of Mulliken charges =  -0.00000   1.00000

 Dipole moment (field-independent basis, Debye):
    X=             -0.2096    Y=              0.0776    Z=              0.0491  Tot=              0.2288
 Quadrupole moment (field-independent basis, Debye-Ang):
   XX=            -57.7003   YY=            -59.4646   ZZ=            -75.7611
   XY=              0.6500   XZ=              0.0686   YZ=             -2.5693

 Normal termination of Gaussian 16 at Fri Dec  8 00:08:17 2023.
