 Gaussian 16, Revision B.01,
 Gaussian 16:  ES64L-G16RevB.01 20-Dec-2017

 -------------------------
 #P B3LYP/6-311+g(d) force
 -------------------------

 -----
 DPGEN
 -----
 Symbolic Z-matrix:
 Charge =  0 Multiplicity = 2

                         Standard orientation:
 ---------------------------------------------------------------------
 Center     Atomic      Atomic             Coordinates (Angstroms)
 Number     Number       Type             X           Y           Z
 ---------------------------------------------------------------------
      1         11           0        1.304504   -0.189493    2.091098
      2         11           0        1.620912   -1.200731   -1.510168
      3         11           0        0.987545    2.119219   -0.828340
      4         11           0        4.295497   -0.306837    0.266092
      5         11           0       -2.088275    1.607422    0.064745
      6         11           0       -1.560185   -1.493254   -0.283413
      7         11           0       -4.559998   -0.536327    0.199987
 ---------------------------------------------------------------------

 SCF Done:  E(UB3LYP) =  -1136.11268909     A.U. after   27 cycles

 The electronic state is 2-A.
 Alpha  occ. eigenvalues --  -38.46372 -38.44484 -38.44043 -38.43961 -38.43864
 Alpha  occ. eigenvalues --  -38.43268 -38.42568  -2.22165  -2.20299  -2.19948
 Alpha  occ. eigenvalues --   -2.19861  -2.19714  -2.19181  -2.18430  -1.15856
 Alpha  occ. eigenvalues --   -1.15804  -1.15771  -1.13974  -1.13953  -1.13934
 Alpha  occ. eigenvalues --   -1.13644  -1.13635  -1.13609  -1.13526  -1.13500
 Alpha  occ. eigenvalues --   -1.13469  -1.13383  -1.13359  -1.13335  -1.12883
 Alpha  occ. eigenvalues --   -1.12857  -1.12787  -1.12104  -1.12086  -1.12078
 Alpha  occ. eigenvalues --   -0.18256  -0.14533  -0.11179  -0.10751
 Alpha virt. eigenvalues --   -0.08021  -0.04806  -0.04301  -0.03659  -0.03099
 Alpha virt. eigenvalues --   -0.02422  -0.02040  -0.01326  -0.01290  -0.00770
 Alpha virt. eigenvalues --   -0.00080   0.00151   0.00238   0.00673   0.00744

  Beta  occ. eigenvalues --  -38.46325 -38.44463 -38.44009 -38.43887 -38.43846
  Beta  occ. eigenvalues --  -38.43261 -38.42571  -2.22081  -2.20260  -2.19892
  Beta  occ. eigenvalues --   -2.19728  -2.19681  -2.19169  -2.18439  -1.15783
  Beta  occ. eigenvalues --   -1.15751  -1.15706  -1.13945  -1.13925  -1.13902
  Beta  occ. eigenvalues --   -1.13612  -1.13597  -1.13533  -1.13437  -1.13412
  Beta  occ. eigenvalues --   -1.13367  -1.13357  -1.13335  -1.13310  -1.12874
  Beta  occ. eigenvalues --   -1.12846  -1.12775  -1.12102  -1.12090  -1.12080
  Beta  occ. eigenvalues --   -0.17572  -0.14248  -0.10651
  Beta virt. eigenvalues --   -0.07754  -0.07228  -0.04701  -0.03878  -0.03307
  Beta virt. eigenvalues --   -0.02892  -0.01896  -0.01548  -0.01103  -0.00862
  Beta virt. eigenvalues --   -0.00564  -0.00054   0.00283   0.00343   0.00778

 Mulliken charges and spin densities:
               1          2
     1  Na  -0.024040   0.263575
     2  Na   0.107845   0.017652
     3  Na  -0.224306   0.120780
     4  Na   0.312885   0.247513
     5  Na  -0.196961  -0.001701
     6  Na  -0.476339   0.179353
     7  Na   0.500917   0.172828
 Sum of Mulliken charges =  -0.00000   1.00000

 Dipole moment (field-independent basis, Debye):
    X=              0.4081    Y=              0.1597    Z=              0.5411  Tot=              0.6963
 Quadrupole moment (field-independent basis, Debye-Ang):
   XX=            -56.5331   YY=            -77.5062   ZZ=            -66.6539
   XY=              1.3499   XZ=             -4.1655   YZ=             -1.9446

 Normal termination of Gaussian 16 at Thu Dec  7 15:01:48 2023.
