 Gaussian 16, Revision B.01,
 Gaussian 16:  ES64L-G16RevB.01 20-Dec-2017

 -------------------------
 #P B3LYP/6-311+g(d) force
 -------------------------

 -----
 DPGEN
 -----
 Symbolic Z-matrix:
 Charge =  0 Multiplicity = 2

                         Standard orientation:
 ---------------------------------------------------------------------
 Center     Atomic      Atomic             Coordinates (Angstroms)
 Number     Number       Type             X           Y           Z
 ---------------------------------------------------------------------
      1         11           0        0.740550   -1.854891    1.853873
      2         11           0        3.307219    0.884430    0.128385
      3         11           0       -1.399655   -2.605497   -0.201428
      4         11           0        2.459131   -2.050737   -1.438513
      5         11           0        1.282381    3.389006    0.062781
      6         11           0       -2.092519    2.319922   -0.164738
      7         11           0       -4.297106   -0.082232   -0.240360
 ---------------------------------------------------------------------

 SCF Done:  E(UB3LYP) =  -1136.11579500     A.U. after   20 cycles

 The electronic state is 2-A.
 Alpha  occ. eigenvalues --  -38.44705 -38.44603 -38.44449 -38.44445 -38.44376
 Alpha  occ. eigenvalues --  -38.43842 -38.43476  -2.20541  -2.20415  -2.20259
 Alpha  occ. eigenvalues --   -2.20225  -2.20190  -2.19648  -2.19290  -1.14291
 Alpha  occ. eigenvalues --   -1.14184  -1.14157  -1.14077  -1.14063  -1.14012
 Alpha  occ. eigenvalues --   -1.13928  -1.13922  -1.13913  -1.13898  -1.13874
 Alpha  occ. eigenvalues --   -1.13872  -1.13869  -1.13856  -1.13821  -1.13302
 Alpha  occ. eigenvalues --   -1.13298  -1.13280  -1.12948  -1.12942  -1.12934
 Alpha  occ. eigenvalues --   -0.16596  -0.13616  -0.13201  -0.10290
 Alpha virt. eigenvalues --   -0.06711  -0.06389  -0.04081  -0.03120  -0.02869
 Alpha virt. eigenvalues --   -0.02544  -0.02176  -0.01846  -0.01335  -0.00874
 Alpha virt. eigenvalues --   -0.00112   0.00078   0.00336   0.00580   0.00601

  Beta  occ. eigenvalues --  -38.44655 -38.44585 -38.44444 -38.44378 -38.44365
  Beta  occ. eigenvalues --  -38.43803 -38.43449  -2.20451  -2.20386  -2.20222
  Beta  occ. eigenvalues --   -2.20174  -2.20136  -2.19577  -2.19240  -1.14228
  Beta  occ. eigenvalues --   -1.14124  -1.14092  -1.14053  -1.14038  -1.13977
  Beta  occ. eigenvalues --   -1.13915  -1.13900  -1.13870  -1.13859  -1.13841
  Beta  occ. eigenvalues --   -1.13839  -1.13832  -1.13784  -1.13764  -1.13254
  Beta  occ. eigenvalues --   -1.13247  -1.13233  -1.12918  -1.12908  -1.12899
  Beta  occ. eigenvalues --   -0.16117  -0.12973  -0.12772
  Beta virt. eigenvalues --   -0.06934  -0.06623  -0.06199  -0.03819  -0.02600
  Beta virt. eigenvalues --   -0.02463  -0.02380  -0.01904  -0.01474  -0.01184
  Beta virt. eigenvalues --   -0.00742   0.00172   0.00330   0.00414   0.00623

 Mulliken charges and spin densities:
               1          2
     1  Na   0.229405   0.256299
     2  Na  -0.550173   0.109148
     3  Na  -0.495509   0.063199
     4  Na   0.314918   0.283475
     5  Na   0.435473   0.071029
     6  Na  -0.749875   0.056519
     7  Na   0.815761   0.160330
 Sum of Mulliken charges =  -0.00000   1.00000

 Dipole moment (field-independent basis, Debye):
    X=              0.0298    Y=             -0.9855    Z=              0.1707  Tot=              1.0006
 Quadrupole moment (field-independent basis, Debye-Ang):
   XX=            -67.4050   YY=            -67.3160   ZZ=            -68.6029
   XY=              2.9896   XZ=              3.0768   YZ=              2.6890

 Normal termination of Gaussian 16 at Sun Dec  3 22:02:31 2023.
