 Gaussian 16, Revision B.01,
 Gaussian 16:  ES64L-G16RevB.01 20-Dec-2017

 -------------------------
 #P B3LYP/6-311+g(d) force
 -------------------------

 -----
 DPGEN
 -----
 Symbolic Z-matrix:
 Charge =  0 Multiplicity = 2

                         Standard orientation:
 ---------------------------------------------------------------------
 Center     Atomic      Atomic             Coordinates (Angstroms)
 Number     Number       Type             X           Y           Z
 ---------------------------------------------------------------------
      1         11           0       -5.005336    0.367677   -0.715187
      2         11           0        0.296124   -1.383138    1.411101
      3         11           0        4.157267    1.094315   -1.047259
      4         11           0        1.306460    2.899068    0.280606
      5         11           0       -2.538697   -2.397243   -0.571762
      6         11           0        3.841736   -2.265967   -0.023736
      7         11           0       -2.057555    1.685289    0.666237
 ---------------------------------------------------------------------

 SCF Done:  E(UB3LYP) =  -1136.11212972     A.U. after   23 cycles

 The electronic state is 2-A.
 Alpha  occ. eigenvalues --  -38.45355 -38.44816 -38.44669 -38.44572 -38.44464
 Alpha  occ. eigenvalues --  -38.44286 -38.43313  -2.21108  -2.20590  -2.20476
 Alpha  occ. eigenvalues --   -2.20353  -2.20206  -2.20078  -2.19076  -1.14795
 Alpha  occ. eigenvalues --   -1.14769  -1.14737  -1.14264  -1.14238  -1.14213
 Alpha  occ. eigenvalues --   -1.14124  -1.14122  -1.14087  -1.14025  -1.13992
 Alpha  occ. eigenvalues --   -1.13977  -1.13890  -1.13866  -1.13857  -1.13771
 Alpha  occ. eigenvalues --   -1.13756  -1.13690  -1.12761  -1.12747  -1.12721
 Alpha  occ. eigenvalues --   -0.16310  -0.14025  -0.11688  -0.11374
 Alpha virt. eigenvalues --   -0.07276  -0.05030  -0.04885  -0.03678  -0.03362
 Alpha virt. eigenvalues --   -0.02327  -0.02034  -0.01817  -0.01044  -0.00816
 Alpha virt. eigenvalues --   -0.00519  -0.00154   0.00104   0.00359   0.00546

  Beta  occ. eigenvalues --  -38.45337 -38.44777 -38.44585 -38.44509 -38.44477
  Beta  occ. eigenvalues --  -38.44258 -38.43321  -2.21078  -2.20517  -2.20319
  Beta  occ. eigenvalues --   -2.20239  -2.20232  -2.20031  -2.19093  -1.14778
  Beta  occ. eigenvalues --   -1.14743  -1.14694  -1.14213  -1.14191  -1.14166
  Beta  occ. eigenvalues --   -1.14016  -1.14013  -1.13986  -1.13947  -1.13911
  Beta  occ. eigenvalues --   -1.13908  -1.13901  -1.13884  -1.13860  -1.13742
  Beta  occ. eigenvalues --   -1.13711  -1.13639  -1.12775  -1.12760  -1.12719
  Beta  occ. eigenvalues --   -0.15521  -0.13460  -0.11430
  Beta virt. eigenvalues --   -0.07976  -0.07246  -0.04580  -0.04370  -0.03459
  Beta virt. eigenvalues --   -0.02875  -0.02090  -0.01853  -0.01416  -0.00949
  Beta virt. eigenvalues --   -0.00527  -0.00437   0.00064   0.00210   0.00473

 Mulliken charges and spin densities:
               1          2
     1  Na   0.479911   0.439076
     2  Na  -0.420963   0.356879
     3  Na  -0.098814   0.237489
     4  Na  -0.047568  -0.155454
     5  Na   0.198799   0.034612
     6  Na   0.174744  -0.064508
     7  Na  -0.286111   0.151907
 Sum of Mulliken charges =  -0.00000   1.00000

 Dipole moment (field-independent basis, Debye):
    X=             -0.5968    Y=             -0.8977    Z=             -0.5281  Tot=              1.2004
 Quadrupole moment (field-independent basis, Debye-Ang):
   XX=            -57.8058   YY=            -69.2071   ZZ=            -70.0192
   XY=              1.3621   XZ=              0.0062   YZ=              1.0513

 Normal termination of Gaussian 16 at Sun Dec  3 15:48:05 2023.
