 Gaussian 16, Revision B.01,
 Gaussian 16:  ES64L-G16RevB.01 20-Dec-2017

 -------------------------
 #P B3LYP/6-311+g(d) force
 -------------------------

 -----
 DPGEN
 -----
 Symbolic Z-matrix:
 Charge =  0 Multiplicity = 2

                         Standard orientation:
 ---------------------------------------------------------------------
 Center     Atomic      Atomic             Coordinates (Angstroms)
 Number     Number       Type             X           Y           Z
 ---------------------------------------------------------------------
      1         11           0       -1.006035    1.161013    1.478822
      2         11           0       -0.587041   -0.583706   -1.733392
      3         11           0        2.327680   -2.202268   -1.110525
      4         11           0        2.169303    0.460191    1.349403
      5         11           0       -3.735126    0.495022   -0.812154
      6         11           0        1.782852    2.720646   -0.774491
      7         11           0       -0.951633   -2.050897    1.602337
 ---------------------------------------------------------------------

 SCF Done:  E(UB3LYP) =  -1136.12683809     A.U. after   20 cycles

 The electronic state is 2-A.
 Alpha  occ. eigenvalues --  -38.44679 -38.44316 -38.43791 -38.43712 -38.43711
 Alpha  occ. eigenvalues --  -38.43564 -38.43227  -2.20508  -2.20106  -2.19664
 Alpha  occ. eigenvalues --   -2.19602  -2.19522  -2.19470  -2.19027  -1.14207
 Alpha  occ. eigenvalues --   -1.14142  -1.14108  -1.13778  -1.13762  -1.13730
 Alpha  occ. eigenvalues --   -1.13349  -1.13331  -1.13325  -1.13321  -1.13278
 Alpha  occ. eigenvalues --   -1.13225  -1.13177  -1.13174  -1.13161  -1.13125
 Alpha  occ. eigenvalues --   -1.13121  -1.13062  -1.12704  -1.12683  -1.12656
 Alpha  occ. eigenvalues --   -0.18103  -0.12932  -0.11782  -0.11539
 Alpha virt. eigenvalues --   -0.05870  -0.05108  -0.04531  -0.03251  -0.03008
 Alpha virt. eigenvalues --   -0.02875  -0.01797  -0.01110  -0.00795   0.00036
 Alpha virt. eigenvalues --    0.00218   0.00246   0.00403   0.00683   0.00779

  Beta  occ. eigenvalues --  -38.44613 -38.44295 -38.43742 -38.43701 -38.43698
  Beta  occ. eigenvalues --  -38.43527 -38.43217  -2.20390  -2.20068  -2.19584
  Beta  occ. eigenvalues --   -2.19574  -2.19498  -2.19408  -2.19009  -1.14117
  Beta  occ. eigenvalues --   -1.14052  -1.14032  -1.13743  -1.13734  -1.13710
  Beta  occ. eigenvalues --   -1.13322  -1.13288  -1.13281  -1.13262  -1.13218
  Beta  occ. eigenvalues --   -1.13206  -1.13155  -1.13142  -1.13129  -1.13107
  Beta  occ. eigenvalues --   -1.13048  -1.13029  -1.12682  -1.12672  -1.12646
  Beta  occ. eigenvalues --   -0.17306  -0.12688  -0.11385
  Beta virt. eigenvalues --   -0.07865  -0.05661  -0.04784  -0.04181  -0.02936
  Beta virt. eigenvalues --   -0.02617  -0.02044  -0.01635  -0.00881  -0.00537
  Beta virt. eigenvalues --    0.00107   0.00305   0.00330   0.00444   0.00784

 Mulliken charges and spin densities:
               1          2
     1  Na   0.103578   0.398866
     2  Na  -0.398569   0.532524
     3  Na   0.023703  -0.042320
     4  Na   0.423874  -0.017291
     5  Na   0.115695  -0.040968
     6  Na  -0.132903   0.022399
     7  Na  -0.135378   0.146789
 Sum of Mulliken charges =  -0.00000   1.00000

 Dipole moment (field-independent basis, Debye):
    X=             -0.6536    Y=             -0.0891    Z=             -0.0005  Tot=              0.6597
 Quadrupole moment (field-independent basis, Debye-Ang):
   XX=            -58.2530   YY=            -69.8950   ZZ=            -66.7026
   XY=             -0.4065   XZ=             -0.2129   YZ=             -5.3276

 Normal termination of Gaussian 16 at Sun Dec  3 15:50:20 2023.
