 Gaussian 16, Revision B.01,
 Gaussian 16:  ES64L-G16RevB.01 20-Dec-2017

 -------------------------
 #P B3LYP/6-311+g(d) force
 -------------------------

 -----
 DPGEN
 -----
 Symbolic Z-matrix:
 Charge =  0 Multiplicity = 2

                         Standard orientation:
 ---------------------------------------------------------------------
 Center     Atomic      Atomic             Coordinates (Angstroms)
 Number     Number       Type             X           Y           Z
 ---------------------------------------------------------------------
      1         11           0        0.329847    0.291793   -1.647720
      2         11           0       -1.855012   -2.306804   -0.262844
      3         11           0       -3.474874    0.795638   -0.148161
      4         11           0        0.341498    3.073620    0.120561
      5         11           0        1.954595   -2.601177    0.032919
      6         11           0        2.838998    0.848954   -0.103270
      7         11           0       -0.135052   -0.102023    2.008516
 ---------------------------------------------------------------------

 SCF Done:  E(UB3LYP) =  -1136.13373432     A.U. after   21 cycles

 The electronic state is 2-A.
 Alpha  occ. eigenvalues --  -38.44473 -38.43951 -38.43861 -38.43595 -38.43529
 Alpha  occ. eigenvalues --  -38.43503 -38.43422  -2.20232  -2.19850  -2.19678
 Alpha  occ. eigenvalues --   -2.19435  -2.19379  -2.19372  -2.19333  -1.13905
 Alpha  occ. eigenvalues --   -1.13889  -1.13874  -1.13610  -1.13501  -1.13463
 Alpha  occ. eigenvalues --   -1.13361  -1.13356  -1.13296  -1.13139  -1.13097
 Alpha  occ. eigenvalues --   -1.13071  -1.13059  -1.13035  -1.13010  -1.13005
 Alpha  occ. eigenvalues --   -1.12998  -1.12997  -1.12988  -1.12977  -1.12966
 Alpha  occ. eigenvalues --   -0.18307  -0.13055  -0.12255  -0.10464
 Alpha virt. eigenvalues --   -0.05914  -0.05158  -0.05014  -0.03184  -0.02736
 Alpha virt. eigenvalues --   -0.02393  -0.01698  -0.01292  -0.00632  -0.00498
 Alpha virt. eigenvalues --   -0.00019   0.00330   0.00745   0.00817   0.00830

  Beta  occ. eigenvalues --  -38.44474 -38.43941 -38.43855 -38.43591 -38.43528
  Beta  occ. eigenvalues --  -38.43409 -38.43361  -2.20235  -2.19837  -2.19668
  Beta  occ. eigenvalues --   -2.19430  -2.19334  -2.19267  -2.19197  -1.13898
  Beta  occ. eigenvalues --   -1.13892  -1.13877  -1.13591  -1.13467  -1.13460
  Beta  occ. eigenvalues --   -1.13352  -1.13332  -1.13293  -1.13125  -1.13077
  Beta  occ. eigenvalues --   -1.13062  -1.12999  -1.12993  -1.12980  -1.12975
  Beta  occ. eigenvalues --   -1.12932  -1.12918  -1.12898  -1.12874  -1.12859
  Beta  occ. eigenvalues --   -0.17582  -0.12834  -0.12062
  Beta virt. eigenvalues --   -0.06577  -0.05881  -0.05146  -0.04930  -0.02405
  Beta virt. eigenvalues --   -0.02033  -0.01633  -0.01365  -0.01206  -0.00674
  Beta virt. eigenvalues --   -0.00534   0.00130   0.00364   0.00773   0.00820

 Mulliken charges and spin densities:
               1          2
     1  Na  -0.121790   0.505036
     2  Na   0.009161  -0.064393
     3  Na  -0.050780  -0.100639
     4  Na   0.026710  -0.105775
     5  Na   0.017257  -0.068108
     6  Na   0.481740   0.050445
     7  Na  -0.362297   0.783434
 Sum of Mulliken charges =  -0.00000   1.00000

 Dipole moment (field-independent basis, Debye):
    X=             -0.2696    Y=              0.1537    Z=              0.0786  Tot=              0.3201
 Quadrupole moment (field-independent basis, Debye-Ang):
   XX=            -56.5090   YY=            -60.4975   ZZ=            -75.9711
   XY=             -1.5070   XZ=              0.8958   YZ=              0.8412

 Normal termination of Gaussian 16 at Fri Dec  8 02:47:13 2023.
