 Gaussian 16, Revision B.01,
 Gaussian 16:  ES64L-G16RevB.01 20-Dec-2017

 -------------------------
 #P B3LYP/6-311+g(d) force
 -------------------------

 -----
 DPGEN
 -----
 Symbolic Z-matrix:
 Charge =  0 Multiplicity = 2

                         Standard orientation:
 ---------------------------------------------------------------------
 Center     Atomic      Atomic             Coordinates (Angstroms)
 Number     Number       Type             X           Y           Z
 ---------------------------------------------------------------------
      1         11           0       -2.440702   -1.292045    0.533005
      2         11           0       -5.836784   -0.486673   -0.389178
      3         11           0       -2.734796    2.300886   -0.148361
      4         11           0        0.382376    1.155463   -0.094263
      5         11           0        0.634372   -2.078630   -0.232229
      6         11           0        3.281061    0.441934    0.994834
      7         11           0        6.714473   -0.040935   -0.663809
 ---------------------------------------------------------------------

 SCF Done:  E(UB3LYP) =  -1136.11019838     A.U. after   25 cycles

 The electronic state is 2-A.
 Alpha  occ. eigenvalues --  -38.44941 -38.44543 -38.44449 -38.44355 -38.44308
 Alpha  occ. eigenvalues --  -38.44154 -38.44086  -2.20761  -2.20413  -2.20304
 Alpha  occ. eigenvalues --   -2.20083  -2.20079  -2.20040  -2.19902  -1.14435
 Alpha  occ. eigenvalues --   -1.14426  -1.14355  -1.14103  -1.14073  -1.14038
 Alpha  occ. eigenvalues --   -1.13994  -1.13970  -1.13900  -1.13788  -1.13743
 Alpha  occ. eigenvalues --   -1.13742  -1.13739  -1.13739  -1.13738  -1.13704
 Alpha  occ. eigenvalues --   -1.13697  -1.13689  -1.13583  -1.13555  -1.13484
 Alpha  occ. eigenvalues --   -0.17543  -0.13817  -0.12202  -0.11188
 Alpha virt. eigenvalues --   -0.07103  -0.05384  -0.04744  -0.03534  -0.03400
 Alpha virt. eigenvalues --   -0.02575  -0.02044  -0.01317  -0.01187  -0.00768
 Alpha virt. eigenvalues --   -0.00513  -0.00263  -0.00100   0.00178   0.00403

  Beta  occ. eigenvalues --  -38.44869 -38.44489 -38.44433 -38.44405 -38.44251
  Beta  occ. eigenvalues --  -38.44114 -38.44052  -2.20633  -2.20316  -2.20229
  Beta  occ. eigenvalues --   -2.20187  -2.20012  -2.19976  -2.19837  -1.14344
  Beta  occ. eigenvalues --   -1.14341  -1.14250  -1.14030  -1.14002  -1.13972
  Beta  occ. eigenvalues --   -1.13943  -1.13913  -1.13840  -1.13839  -1.13820
  Beta  occ. eigenvalues --   -1.13792  -1.13731  -1.13691  -1.13669  -1.13660
  Beta  occ. eigenvalues --   -1.13641  -1.13623  -1.13529  -1.13508  -1.13461
  Beta  occ. eigenvalues --   -0.16652  -0.13517  -0.11420
  Beta virt. eigenvalues --   -0.07958  -0.06908  -0.04981  -0.04359  -0.03206
  Beta virt. eigenvalues --   -0.02665  -0.02448  -0.01738  -0.01250  -0.00866
  Beta virt. eigenvalues --   -0.00620  -0.00227  -0.00164   0.00054   0.00339

 Mulliken charges and spin densities:
               1          2
     1  Na  -0.410823   0.211613
     2  Na   0.067894   0.313886
     3  Na   0.304424  -0.072985
     4  Na  -1.066442   0.732105
     5  Na   0.526860   0.171398
     6  Na   0.449046   0.054846
     7  Na   0.129041  -0.410863
 Sum of Mulliken charges =  -0.00000   1.00000

 Dipole moment (field-independent basis, Debye):
    X=             -1.2353    Y=             -0.2815    Z=             -0.3247  Tot=              1.3079
 Quadrupole moment (field-independent basis, Debye-Ang):
   XX=            -68.1145   YY=            -66.3295   ZZ=            -70.4060
   XY=             -4.7149   XZ=             -1.3400   YZ=              0.6599

 Normal termination of Gaussian 16 at Tue Nov 28 21:36:40 2023.
