 Gaussian 16, Revision B.01,
 Gaussian 16:  ES64L-G16RevB.01 20-Dec-2017

 -------------------------
 #P B3LYP/6-311+g(d) force
 -------------------------

 -----
 DPGEN
 -----
 Symbolic Z-matrix:
 Charge =  0 Multiplicity = 2

                         Standard orientation:
 ---------------------------------------------------------------------
 Center     Atomic      Atomic             Coordinates (Angstroms)
 Number     Number       Type             X           Y           Z
 ---------------------------------------------------------------------
      1         11           0        0.128994   -0.105105   -1.540893
      2         11           0        2.154290    2.005656    0.362994
      3         11           0        2.803912   -1.477077   -0.772501
      4         11           0       -3.128200   -0.072184   -0.116859
      5         11           0        0.460692   -0.205958    2.194299
      6         11           0       -1.298085    2.603912   -0.361806
      7         11           0       -1.121604   -2.749244    0.234766
 ---------------------------------------------------------------------

 SCF Done:  E(UB3LYP) =  -1136.13587496     A.U. after   19 cycles

 The electronic state is 2-A.
 Alpha  occ. eigenvalues --  -38.44075 -38.44047 -38.43825 -38.43696 -38.43435
 Alpha  occ. eigenvalues --  -38.43237 -38.43104  -2.19915  -2.19908  -2.19675
 Alpha  occ. eigenvalues --   -2.19550  -2.19274  -2.19239  -2.18967  -1.13625
 Alpha  occ. eigenvalues --   -1.13575  -1.13546  -1.13543  -1.13531  -1.13531
 Alpha  occ. eigenvalues --   -1.13349  -1.13345  -1.13324  -1.13231  -1.13215
 Alpha  occ. eigenvalues --   -1.13174  -1.12966  -1.12942  -1.12917  -1.12908
 Alpha  occ. eigenvalues --   -1.12888  -1.12856  -1.12645  -1.12628  -1.12594
 Alpha  occ. eigenvalues --   -0.18553  -0.13104  -0.12323  -0.11121
 Alpha virt. eigenvalues --   -0.05525  -0.05226  -0.04509  -0.03316  -0.02938
 Alpha virt. eigenvalues --   -0.02798  -0.01529  -0.01110  -0.00309  -0.00225
 Alpha virt. eigenvalues --   -0.00025   0.00335   0.00787   0.00875   0.00891

  Beta  occ. eigenvalues --  -38.44047 -38.43949 -38.43825 -38.43685 -38.43431
  Beta  occ. eigenvalues --  -38.43183 -38.43100  -2.19859  -2.19732  -2.19677
  Beta  occ. eigenvalues --   -2.19533  -2.19268  -2.19142  -2.18963  -1.13578
  Beta  occ. eigenvalues --   -1.13501  -1.13500  -1.13454  -1.13417  -1.13407
  Beta  occ. eigenvalues --   -1.13352  -1.13343  -1.13316  -1.13214  -1.13182
  Beta  occ. eigenvalues --   -1.13165  -1.12956  -1.12919  -1.12904  -1.12849
  Beta  occ. eigenvalues --   -1.12821  -1.12792  -1.12633  -1.12623  -1.12585
  Beta  occ. eigenvalues --   -0.17869  -0.12836  -0.12067
  Beta virt. eigenvalues --   -0.07192  -0.05457  -0.05137  -0.04466  -0.02595
  Beta virt. eigenvalues --   -0.02230  -0.01763  -0.01392  -0.01013  -0.00335
  Beta virt. eigenvalues --   -0.00227   0.00111   0.00380   0.00857   0.00892

 Mulliken charges and spin densities:
               1          2
     1  Na  -0.275983   0.271330
     2  Na   0.224277   0.111326
     3  Na   0.151204   0.026305
     4  Na   0.012993  -0.011314
     5  Na  -0.411978   0.579179
     6  Na   0.149639  -0.008134
     7  Na   0.149848   0.031308
 Sum of Mulliken charges =  -0.00000   1.00000

 Dipole moment (field-independent basis, Debye):
    X=              0.2515    Y=             -0.1934    Z=              0.2776  Tot=              0.4215
 Quadrupole moment (field-independent basis, Debye-Ang):
   XX=            -57.5813   YY=            -64.0038   ZZ=            -72.8543
   XY=              0.1585   XZ=             -0.6582   YZ=              0.3530

 Normal termination of Gaussian 16 at Thu Dec  7 07:39:09 2023.
