 Gaussian 16, Revision B.01,
 Gaussian 16:  ES64L-G16RevB.01 20-Dec-2017

 -------------------------
 #P B3LYP/6-311+g(d) force
 -------------------------

 -----
 DPGEN
 -----
 Symbolic Z-matrix:
 Charge =  0 Multiplicity = 2

                         Standard orientation:
 ---------------------------------------------------------------------
 Center     Atomic      Atomic             Coordinates (Angstroms)
 Number     Number       Type             X           Y           Z
 ---------------------------------------------------------------------
      1         11           0        3.724160    2.242249   -0.431780
      2         11           0       -1.691504   -1.233709    1.832808
      3         11           0       -4.163354   -1.084857   -0.902908
      4         11           0       -3.215924    2.280197    0.304263
      5         11           0        0.078882    1.330425   -0.366970
      6         11           0        1.245798   -2.337345   -1.335569
      7         11           0        4.021942   -1.196961    0.900157
 ---------------------------------------------------------------------

 SCF Done:  E(UB3LYP) =  -1136.10176967     A.U. after   29 cycles

 The electronic state is 2-A.
 Alpha  occ. eigenvalues --  -38.45801 -38.45100 -38.44656 -38.44405 -38.44318
 Alpha  occ. eigenvalues --  -38.43934 -38.43640  -2.21546  -2.20855  -2.20448
 Alpha  occ. eigenvalues --   -2.20207  -2.20048  -2.19676  -2.19454  -1.15229
 Alpha  occ. eigenvalues --   -1.15200  -1.15171  -1.14537  -1.14494  -1.14477
 Alpha  occ. eigenvalues --   -1.14126  -1.14097  -1.14074  -1.13861  -1.13843
 Alpha  occ. eigenvalues --   -1.13816  -1.13741  -1.13706  -1.13697  -1.13365
 Alpha  occ. eigenvalues --   -1.13342  -1.13328  -1.13159  -1.13100  -1.13064
 Alpha  occ. eigenvalues --   -0.16568  -0.13904  -0.11042  -0.10319
 Alpha virt. eigenvalues --   -0.07152  -0.06858  -0.04408  -0.03147  -0.03092
 Alpha virt. eigenvalues --   -0.02546  -0.02134  -0.01536  -0.01466  -0.01042
 Alpha virt. eigenvalues --   -0.00543  -0.00143   0.00102   0.00206   0.00370

  Beta  occ. eigenvalues --  -38.45777 -38.45063 -38.44616 -38.44339 -38.44308
  Beta  occ. eigenvalues --  -38.43962 -38.43596  -2.21505  -2.20786  -2.20376
  Beta  occ. eigenvalues --   -2.20089  -2.20026  -2.19728  -2.19374  -1.15183
  Beta  occ. eigenvalues --   -1.15170  -1.15140  -1.14490  -1.14448  -1.14429
  Beta  occ. eigenvalues --   -1.14079  -1.14041  -1.14005  -1.13770  -1.13736
  Beta  occ. eigenvalues --   -1.13736  -1.13717  -1.13708  -1.13700  -1.13401
  Beta  occ. eigenvalues --   -1.13381  -1.13352  -1.13105  -1.13038  -1.13014
  Beta  occ. eigenvalues --   -0.15875  -0.13464  -0.10933
  Beta virt. eigenvalues --   -0.06980  -0.06897  -0.06387  -0.04249  -0.02950
  Beta virt. eigenvalues --   -0.02661  -0.02162  -0.01847  -0.01450  -0.01047
  Beta virt. eigenvalues --   -0.00589  -0.00367   0.00013   0.00135   0.00252

 Mulliken charges and spin densities:
               1          2
     1  Na   0.567686   0.125527
     2  Na   0.228863   0.230498
     3  Na   0.121754   0.622232
     4  Na   0.512681   0.249952
     5  Na  -1.409173  -0.217447
     6  Na   0.072528  -0.261324
     7  Na  -0.094340   0.250562
 Sum of Mulliken charges =  -0.00000   1.00000

 Dipole moment (field-independent basis, Debye):
    X=             -0.2485    Y=             -0.4800    Z=              0.7946  Tot=              0.9610
 Quadrupole moment (field-independent basis, Debye-Ang):
   XX=            -70.0184   YY=            -73.2497   ZZ=            -61.2960
   XY=             -5.0609   XZ=             -0.2527   YZ=             -0.8596

 Normal termination of Gaussian 16 at Fri Dec  8 19:27:41 2023.
