 Gaussian 16, Revision B.01,
 Gaussian 16:  ES64L-G16RevB.01 20-Dec-2017

 -------------------------
 #P B3LYP/6-311+g(d) force
 -------------------------

 -----
 DPGEN
 -----
 Symbolic Z-matrix:
 Charge =  0 Multiplicity = 2

                         Standard orientation:
 ---------------------------------------------------------------------
 Center     Atomic      Atomic             Coordinates (Angstroms)
 Number     Number       Type             X           Y           Z
 ---------------------------------------------------------------------
      1         11           0        1.071822   -1.882803   -0.529420
      2         11           0        4.567178   -0.621997   -0.755364
      3         11           0        2.256855    2.035570   -0.402819
      4         11           0       -0.797355    2.396588    0.430999
      5         11           0       -2.116336   -0.790960   -0.598368
      6         11           0        0.532135   -0.953394    2.353884
      7         11           0       -5.514299   -0.183005   -0.498913
 ---------------------------------------------------------------------

 SCF Done:  E(UB3LYP) =  -1136.11136057     A.U. after   30 cycles

 The electronic state is 2-A.
 Alpha  occ. eigenvalues --  -38.45858 -38.45230 -38.44799 -38.43945 -38.43508
 Alpha  occ. eigenvalues --  -38.43140 -38.42895  -2.21664  -2.21013  -2.20595
 Alpha  occ. eigenvalues --   -2.19766  -2.19376  -2.18970  -2.18714  -1.15341
 Alpha  occ. eigenvalues --   -1.15295  -1.15291  -1.14652  -1.14649  -1.14626
 Alpha  occ. eigenvalues --   -1.14248  -1.14227  -1.14214  -1.13476  -1.13447
 Alpha  occ. eigenvalues --   -1.13398  -1.13079  -1.13052  -1.12984  -1.12656
 Alpha  occ. eigenvalues --   -1.12631  -1.12608  -1.12401  -1.12385  -1.12342
 Alpha  occ. eigenvalues --   -0.17242  -0.13751  -0.11853  -0.11302
 Alpha virt. eigenvalues --   -0.07063  -0.05210  -0.04474  -0.03226  -0.02916
 Alpha virt. eigenvalues --   -0.02449  -0.02147  -0.01844  -0.01366  -0.00714
 Alpha virt. eigenvalues --   -0.00385   0.00141   0.00376   0.00519   0.00614

  Beta  occ. eigenvalues --  -38.45822 -38.45137 -38.44720 -38.43956 -38.43511
  Beta  occ. eigenvalues --  -38.43116 -38.42897  -2.21596  -2.20839  -2.20450
  Beta  occ. eigenvalues --   -2.19790  -2.19384  -2.18927  -2.18722  -1.15300
  Beta  occ. eigenvalues --   -1.15246  -1.15240  -1.14533  -1.14529  -1.14511
  Beta  occ. eigenvalues --   -1.14148  -1.14127  -1.14119  -1.13494  -1.13461
  Beta  occ. eigenvalues --   -1.13391  -1.13085  -1.13055  -1.12979  -1.12628
  Beta  occ. eigenvalues --   -1.12596  -1.12585  -1.12410  -1.12392  -1.12320
  Beta  occ. eigenvalues --   -0.16831  -0.12651  -0.11141
  Beta virt. eigenvalues --   -0.08539  -0.06730  -0.04711  -0.04176  -0.03138
  Beta virt. eigenvalues --   -0.02598  -0.02169  -0.01745  -0.01334  -0.01115
  Beta virt. eigenvalues --   -0.00495  -0.00178   0.00190   0.00471   0.00644

 Mulliken charges and spin densities:
               1          2
     1  Na   0.936118   0.306320
     2  Na   0.173793   0.271807
     3  Na  -0.133938   0.062768
     4  Na  -0.065563   0.028000
     5  Na  -1.240559   0.290892
     6  Na   0.173356   0.100633
     7  Na   0.156794  -0.060419
 Sum of Mulliken charges =  -0.00000   1.00000

 Dipole moment (field-independent basis, Debye):
    X=             -0.2579    Y=             -0.8704    Z=              1.1847  Tot=              1.4925
 Quadrupole moment (field-independent basis, Debye-Ang):
   XX=            -52.3170   YY=            -80.7563   ZZ=            -62.4828
   XY=             -4.5002   XZ=             -0.1621   YZ=              2.2654

 Normal termination of Gaussian 16 at Wed Nov 29 01:53:52 2023.
