 Gaussian 16, Revision B.01,
 Gaussian 16:  ES64L-G16RevB.01 20-Dec-2017

 -------------------------
 #P B3LYP/6-311+g(d) force
 -------------------------

 -----
 DPGEN
 -----
 Symbolic Z-matrix:
 Charge =  0 Multiplicity = 2

                         Standard orientation:
 ---------------------------------------------------------------------
 Center     Atomic      Atomic             Coordinates (Angstroms)
 Number     Number       Type             X           Y           Z
 ---------------------------------------------------------------------
      1         11           0        0.193203   -0.222162    2.036732
      2         11           0       -2.259396    2.309873   -0.006558
      3         11           0        0.078782    0.225890   -1.604502
      4         11           0       -0.143292   -2.752623   -0.114584
      5         11           0       -3.038602   -1.042720   -0.134944
      6         11           0        1.850487    2.204154    0.084300
      7         11           0        3.318818   -0.722412   -0.260444
 ---------------------------------------------------------------------

 SCF Done:  E(UB3LYP) =  -1136.13483837     A.U. after   20 cycles

 The electronic state is 2-A.
 Alpha  occ. eigenvalues --  -38.44645 -38.44265 -38.43655 -38.43593 -38.43467
 Alpha  occ. eigenvalues --  -38.43342 -38.42882  -2.20456  -2.20094  -2.19531
 Alpha  occ. eigenvalues --   -2.19396  -2.19359  -2.19307  -2.18757  -1.14123
 Alpha  occ. eigenvalues --   -1.14120  -1.14094  -1.13767  -1.13752  -1.13739
 Alpha  occ. eigenvalues --   -1.13262  -1.13196  -1.13148  -1.13072  -1.13061
 Alpha  occ. eigenvalues --   -1.13041  -1.13035  -1.12988  -1.12987  -1.12970
 Alpha  occ. eigenvalues --   -1.12952  -1.12906  -1.12444  -1.12424  -1.12380
 Alpha  occ. eigenvalues --   -0.18562  -0.13385  -0.12042  -0.10584
 Alpha virt. eigenvalues --   -0.06150  -0.05384  -0.04276  -0.03279  -0.02653
 Alpha virt. eigenvalues --   -0.02434  -0.01989  -0.01186  -0.00432  -0.00313
 Alpha virt. eigenvalues --   -0.00040   0.00315   0.00709   0.00841   0.00874

  Beta  occ. eigenvalues --  -38.44639 -38.44263 -38.43647 -38.43593 -38.43367
  Beta  occ. eigenvalues --  -38.43284 -38.42875  -2.20448  -2.20092  -2.19520
  Beta  occ. eigenvalues --   -2.19399  -2.19202  -2.19175  -2.18748  -1.14120
  Beta  occ. eigenvalues --   -1.14097  -1.14088  -1.13755  -1.13750  -1.13738
  Beta  occ. eigenvalues --   -1.13248  -1.13162  -1.13141  -1.13067  -1.13058
  Beta  occ. eigenvalues --   -1.13039  -1.12936  -1.12895  -1.12880  -1.12855
  Beta  occ. eigenvalues --   -1.12842  -1.12828  -1.12440  -1.12385  -1.12379
  Beta  occ. eigenvalues --   -0.17834  -0.13170  -0.11818
  Beta virt. eigenvalues --   -0.06664  -0.06079  -0.05387  -0.04257  -0.02514
  Beta virt. eigenvalues --   -0.01899  -0.01882  -0.01385  -0.01121  -0.00482
  Beta virt. eigenvalues --   -0.00343   0.00119   0.00348   0.00772   0.00841

 Mulliken charges and spin densities:
               1          2
     1  Na  -0.454716   0.748916
     2  Na   0.073737  -0.068018
     3  Na  -0.281998   0.484997
     4  Na   0.147814  -0.078503
     5  Na   0.098763  -0.046202
     6  Na   0.202015  -0.014802
     7  Na   0.214385  -0.026388
 Sum of Mulliken charges =  -0.00000   1.00000

 Dipole moment (field-independent basis, Debye):
    X=              0.2571    Y=             -0.0470    Z=              0.0773  Tot=              0.2726
 Quadrupole moment (field-independent basis, Debye-Ang):
   XX=            -51.7198   YY=            -65.6092   ZZ=            -75.3517
   XY=             -0.6121   XZ=             -0.4715   YZ=              1.1730

 Normal termination of Gaussian 16 at Fri Dec  8 06:49:58 2023.
