 Gaussian 16, Revision B.01,
 Gaussian 16:  ES64L-G16RevB.01 20-Dec-2017

 -------------------------
 #P B3LYP/6-311+g(d) force
 -------------------------

 -----
 DPGEN
 -----
 Symbolic Z-matrix:
 Charge =  0 Multiplicity = 2

                         Standard orientation:
 ---------------------------------------------------------------------
 Center     Atomic      Atomic             Coordinates (Angstroms)
 Number     Number       Type             X           Y           Z
 ---------------------------------------------------------------------
      1         11           0        0.240672    0.068488   -1.503874
      2         11           0       -0.476271   -0.170749    2.091349
      3         11           0       -2.868738    1.064649   -0.092777
      4         11           0       -2.003535   -2.219759   -0.481571
      5         11           0        1.843324   -2.366386    0.094950
      6         11           0        3.109021    0.781262   -0.010571
      7         11           0        0.155527    2.842494   -0.097505
 ---------------------------------------------------------------------

 SCF Done:  E(UB3LYP) =  -1136.13843897     A.U. after   19 cycles

 The electronic state is 2-A.
 Alpha  occ. eigenvalues --  -38.44075 -38.43928 -38.43604 -38.43575 -38.43543
 Alpha  occ. eigenvalues --  -38.43158 -38.42979  -2.19911  -2.19787  -2.19444
 Alpha  occ. eigenvalues --   -2.19428  -2.19422  -2.19029  -2.19003  -1.13595
 Alpha  occ. eigenvalues --   -1.13571  -1.13551  -1.13460  -1.13456  -1.13429
 Alpha  occ. eigenvalues --   -1.13135  -1.13114  -1.13108  -1.13094  -1.13078
 Alpha  occ. eigenvalues --   -1.13075  -1.13052  -1.13045  -1.13038  -1.12807
 Alpha  occ. eigenvalues --   -1.12691  -1.12667  -1.12651  -1.12619  -1.12600
 Alpha  occ. eigenvalues --   -0.18727  -0.13217  -0.12375  -0.10653
 Alpha virt. eigenvalues --   -0.05638  -0.05329  -0.04572  -0.03213  -0.02777
 Alpha virt. eigenvalues --   -0.02468  -0.01567  -0.01125  -0.00398  -0.00327
 Alpha virt. eigenvalues --   -0.00009   0.00353   0.00785   0.00879   0.00887

  Beta  occ. eigenvalues --  -38.44075 -38.43922 -38.43600 -38.43561 -38.43445
  Beta  occ. eigenvalues --  -38.43153 -38.42924  -2.19913  -2.19780  -2.19440
  Beta  occ. eigenvalues --   -2.19402  -2.19246  -2.19023  -2.18903  -1.13592
  Beta  occ. eigenvalues --   -1.13561  -1.13555  -1.13458  -1.13431  -1.13420
  Beta  occ. eigenvalues --   -1.13130  -1.13090  -1.13086  -1.13075  -1.13051
  Beta  occ. eigenvalues --   -1.13039  -1.12968  -1.12923  -1.12913  -1.12780
  Beta  occ. eigenvalues --   -1.12663  -1.12645  -1.12604  -1.12549  -1.12540
  Beta  occ. eigenvalues --   -0.18014  -0.12996  -0.12134
  Beta virt. eigenvalues --   -0.06721  -0.05580  -0.05328  -0.04537  -0.02446
  Beta virt. eigenvalues --   -0.02016  -0.01486  -0.01388  -0.01054  -0.00442
  Beta virt. eigenvalues --   -0.00373   0.00150   0.00387   0.00856   0.00871

 Mulliken charges and spin densities:
               1          2
     1  Na  -0.313678   0.321247
     2  Na  -0.596400   0.766353
     3  Na   0.330869   0.028200
     4  Na   0.164189   0.001855
     5  Na   0.132899  -0.030491
     6  Na   0.115803  -0.031638
     7  Na   0.166318  -0.055526
 Sum of Mulliken charges =  -0.00000   1.00000

 Dipole moment (field-independent basis, Debye):
    X=              0.0744    Y=             -0.0541    Z=              0.1920  Tot=              0.2129
 Quadrupole moment (field-independent basis, Debye-Ang):
   XX=            -55.1422   YY=            -62.9331   ZZ=            -74.8958
   XY=              0.0066   XZ=              1.4839   YZ=              0.5621

 Normal termination of Gaussian 16 at Thu Dec  7 17:05:36 2023.
