 Gaussian 16, Revision B.01,
 Gaussian 16:  ES64L-G16RevB.01 20-Dec-2017

 -------------------------
 #P B3LYP/6-311+g(d) force
 -------------------------

 -----
 DPGEN
 -----
 Symbolic Z-matrix:
 Charge =  0 Multiplicity = 2

                         Standard orientation:
 ---------------------------------------------------------------------
 Center     Atomic      Atomic             Coordinates (Angstroms)
 Number     Number       Type             X           Y           Z
 ---------------------------------------------------------------------
      1         11           0       -3.379938   -1.088200   -1.508769
      2         11           0        1.611554    0.886482    1.483730
      3         11           0        0.118565   -0.997566   -0.842753
      4         11           0        2.692380   -2.188502    0.409433
      5         11           0       -2.133235   -0.159723    2.143250
      6         11           0       -1.644970    2.086820   -0.157109
      7         11           0        2.735644    1.460689   -1.527783
 ---------------------------------------------------------------------

 SCF Done:  E(UB3LYP) =  -1136.12147173     A.U. after   25 cycles

 The electronic state is 2-A.
 Alpha  occ. eigenvalues --  -38.44796 -38.44670 -38.44036 -38.43872 -38.43620
 Alpha  occ. eigenvalues --  -38.43552 -38.43056  -2.20620  -2.20492  -2.19860
 Alpha  occ. eigenvalues --   -2.19661  -2.19513  -2.19403  -2.18993  -1.14285
 Alpha  occ. eigenvalues --   -1.14278  -1.14229  -1.14159  -1.14135  -1.14100
 Alpha  occ. eigenvalues --   -1.13552  -1.13538  -1.13472  -1.13329  -1.13317
 Alpha  occ. eigenvalues --   -1.13286  -1.13229  -1.13183  -1.13139  -1.13100
 Alpha  occ. eigenvalues --   -1.13049  -1.13019  -1.12702  -1.12666  -1.12599
 Alpha  occ. eigenvalues --   -0.18126  -0.13928  -0.11183  -0.10899
 Alpha virt. eigenvalues --   -0.06012  -0.05544  -0.05281  -0.03096  -0.02599
 Alpha virt. eigenvalues --   -0.02263  -0.01929  -0.01268  -0.01016   0.00018
 Alpha virt. eigenvalues --    0.00041   0.00210   0.00307   0.00335   0.00474

  Beta  occ. eigenvalues --  -38.44745 -38.44608 -38.44039 -38.43847 -38.43606
  Beta  occ. eigenvalues --  -38.43529 -38.43045  -2.20526  -2.20374  -2.19868
  Beta  occ. eigenvalues --   -2.19614  -2.19492  -2.19361  -2.18977  -1.14222
  Beta  occ. eigenvalues --   -1.14213  -1.14158  -1.14079  -1.14056  -1.14020
  Beta  occ. eigenvalues --   -1.13559  -1.13523  -1.13479  -1.13292  -1.13287
  Beta  occ. eigenvalues --   -1.13258  -1.13219  -1.13131  -1.13124  -1.13075
  Beta  occ. eigenvalues --   -1.13012  -1.12992  -1.12675  -1.12640  -1.12592
  Beta  occ. eigenvalues --   -0.17506  -0.13612  -0.10600
  Beta virt. eigenvalues --   -0.07617  -0.05731  -0.05166  -0.04867  -0.02850
  Beta virt. eigenvalues --   -0.02242  -0.01725  -0.01642  -0.00952  -0.00732
  Beta virt. eigenvalues --    0.00087   0.00246   0.00328   0.00382   0.00395

 Mulliken charges and spin densities:
               1          2
     1  Na   0.137935  -0.075889
     2  Na   0.524345   0.373410
     3  Na  -0.978430   0.270421
     4  Na   0.273793  -0.005804
     5  Na   0.056956   0.137218
     6  Na   0.063193   0.103959
     7  Na  -0.077793   0.196685
 Sum of Mulliken charges =  -0.00000   1.00000

 Dipole moment (field-independent basis, Debye):
    X=             -0.1123    Y=              0.3781    Z=              0.3105  Tot=              0.5020
 Quadrupole moment (field-independent basis, Debye-Ang):
   XX=            -53.1398   YY=            -74.5988   ZZ=            -66.2927
   XY=             -0.2377   XZ=             -1.8680   YZ=             -5.6248

 Normal termination of Gaussian 16 at Mon Dec  4 03:32:34 2023.
