 Gaussian 16, Revision B.01,
 Gaussian 16:  ES64L-G16RevB.01 20-Dec-2017

 -------------------------
 #P B3LYP/6-311+g(d) force
 -------------------------

 -----
 DPGEN
 -----
 Symbolic Z-matrix:
 Charge =  0 Multiplicity = 2

                         Standard orientation:
 ---------------------------------------------------------------------
 Center     Atomic      Atomic             Coordinates (Angstroms)
 Number     Number       Type             X           Y           Z
 ---------------------------------------------------------------------
      1         11           0       -3.138063   -0.193589   -0.036874
      2         11           0        0.130249   -0.168048    1.948094
      3         11           0        0.495351    0.011653   -1.755198
      4         11           0       -1.106969   -2.701497   -0.063946
      5         11           0        2.761872   -1.723075   -0.128764
      6         11           0       -1.108924    2.670224   -0.231736
      7         11           0        1.966484    2.104331    0.268425
 ---------------------------------------------------------------------

 SCF Done:  E(UB3LYP) =  -1136.13809012     A.U. after   19 cycles

 The electronic state is 2-A.
 Alpha  occ. eigenvalues --  -38.43930 -38.43715 -38.43715 -38.43678 -38.43487
 Alpha  occ. eigenvalues --  -38.43332 -38.43291  -2.19744  -2.19576  -2.19565
 Alpha  occ. eigenvalues --   -2.19546  -2.19399  -2.19246  -2.19205  -1.13433
 Alpha  occ. eigenvalues --   -1.13399  -1.13383  -1.13293  -1.13287  -1.13250
 Alpha  occ. eigenvalues --   -1.13243  -1.13222  -1.13211  -1.13206  -1.13198
 Alpha  occ. eigenvalues --   -1.13145  -1.13065  -1.13024  -1.13012  -1.12924
 Alpha  occ. eigenvalues --   -1.12892  -1.12877  -1.12858  -1.12845  -1.12840
 Alpha  occ. eigenvalues --   -0.18721  -0.12963  -0.12634  -0.10766
 Alpha virt. eigenvalues --   -0.05567  -0.05155  -0.04801  -0.03163  -0.02973
 Alpha virt. eigenvalues --   -0.02562  -0.01453  -0.01168  -0.00357  -0.00265
 Alpha virt. eigenvalues --   -0.00008   0.00361   0.00845   0.00883   0.00898

  Beta  occ. eigenvalues --  -38.43926 -38.43714 -38.43711 -38.43667 -38.43398
  Beta  occ. eigenvalues --  -38.43326 -38.43220  -2.19740  -2.19562  -2.19560
  Beta  occ. eigenvalues --   -2.19548  -2.19235  -2.19198  -2.19116  -1.13419
  Beta  occ. eigenvalues --   -1.13385  -1.13383  -1.13294  -1.13278  -1.13227
  Beta  occ. eigenvalues --   -1.13212  -1.13207  -1.13202  -1.13200  -1.13188
  Beta  occ. eigenvalues --   -1.13147  -1.12960  -1.12906  -1.12898  -1.12878
  Beta  occ. eigenvalues --   -1.12845  -1.12833  -1.12825  -1.12786  -1.12760
  Beta  occ. eigenvalues --   -0.17983  -0.12737  -0.12393
  Beta virt. eigenvalues --   -0.06847  -0.05567  -0.05087  -0.04777  -0.02360
  Beta virt. eigenvalues --   -0.02215  -0.01513  -0.01377  -0.01084  -0.00407
  Beta virt. eigenvalues --   -0.00311   0.00127   0.00385   0.00853   0.00890

 Mulliken charges and spin densities:
               1          2
     1  Na  -0.058109  -0.052109
     2  Na  -0.336088   0.693719
     3  Na  -0.273290   0.658677
     4  Na   0.107814  -0.109769
     5  Na   0.161571  -0.146371
     6  Na   0.049178  -0.029966
     7  Na   0.348923  -0.014181
 Sum of Mulliken charges =  -0.00000   1.00000

 Dipole moment (field-independent basis, Debye):
    X=              0.2046    Y=             -0.2187    Z=              0.0750  Tot=              0.3088
 Quadrupole moment (field-independent basis, Debye-Ang):
   XX=            -58.0877   YY=            -61.5505   ZZ=            -74.3351
   XY=             -0.8669   XZ=              0.8475   YZ=              0.2944

 Normal termination of Gaussian 16 at Thu Dec  7 14:58:37 2023.
