 Gaussian 16, Revision B.01,
 Gaussian 16:  ES64L-G16RevB.01 20-Dec-2017

 -------------------------
 #P B3LYP/6-311+g(d) force
 -------------------------

 -----
 DPGEN
 -----
 Symbolic Z-matrix:
 Charge =  0 Multiplicity = 2

                         Standard orientation:
 ---------------------------------------------------------------------
 Center     Atomic      Atomic             Coordinates (Angstroms)
 Number     Number       Type             X           Y           Z
 ---------------------------------------------------------------------
      1         11           0        3.133960   -0.557644   -0.353190
      2         11           0        0.566252   -2.612308    0.018801
      3         11           0       -2.828522   -1.650722   -0.026716
      4         11           0       -2.087978    2.187410   -0.274220
      5         11           0        0.005809    0.112819    2.076478
      6         11           0       -0.119765    0.157548   -1.622836
      7         11           0        1.330245    2.362897    0.181684
 ---------------------------------------------------------------------

 SCF Done:  E(UB3LYP) =  -1136.13772007     A.U. after   19 cycles

 The electronic state is 2-A.
 Alpha  occ. eigenvalues --  -38.43923 -38.43721 -38.43697 -38.43665 -38.43288
 Alpha  occ. eigenvalues --  -38.43208 -38.43198  -2.19720  -2.19577  -2.19567
 Alpha  occ. eigenvalues --   -2.19554  -2.19211  -2.19204  -2.19098  -1.13395
 Alpha  occ. eigenvalues --   -1.13374  -1.13368  -1.13281  -1.13258  -1.13238
 Alpha  occ. eigenvalues --   -1.13231  -1.13219  -1.13213  -1.13206  -1.13180
 Alpha  occ. eigenvalues --   -1.13177  -1.12954  -1.12898  -1.12877  -1.12842
 Alpha  occ. eigenvalues --   -1.12809  -1.12798  -1.12771  -1.12759  -1.12710
 Alpha  occ. eigenvalues --   -0.18898  -0.12863  -0.12630  -0.10919
 Alpha virt. eigenvalues --   -0.05464  -0.05260  -0.04475  -0.03054  -0.03017
 Alpha virt. eigenvalues --   -0.02659  -0.01537  -0.01168  -0.00211  -0.00127
 Alpha virt. eigenvalues --   -0.00003   0.00342   0.00798   0.00883   0.00939

  Beta  occ. eigenvalues --  -38.43924 -38.43715 -38.43690 -38.43564 -38.43277
  Beta  occ. eigenvalues --  -38.43201 -38.43136  -2.19724  -2.19559  -2.19544
  Beta  occ. eigenvalues --   -2.19390  -2.19190  -2.19097  -2.19089  -1.13388
  Beta  occ. eigenvalues --   -1.13376  -1.13370  -1.13263  -1.13234  -1.13222
  Beta  occ. eigenvalues --   -1.13199  -1.13186  -1.13174  -1.13132  -1.13079
  Beta  occ. eigenvalues --   -1.13056  -1.12921  -1.12840  -1.12829  -1.12807
  Beta  occ. eigenvalues --   -1.12778  -1.12747  -1.12727  -1.12714  -1.12705
  Beta  occ. eigenvalues --   -0.18154  -0.12617  -0.12384
  Beta virt. eigenvalues --   -0.06959  -0.05446  -0.05226  -0.04454  -0.02309
  Beta virt. eigenvalues --   -0.02193  -0.01586  -0.01440  -0.01109  -0.00244
  Beta virt. eigenvalues --   -0.00162   0.00120   0.00366   0.00857   0.00871

 Mulliken charges and spin densities:
               1          2
     1  Na   0.096934  -0.011369
     2  Na   0.173563  -0.013468
     3  Na   0.001767  -0.100769
     4  Na   0.200418  -0.090100
     5  Na  -0.490557   0.673756
     6  Na  -0.420497   0.481498
     7  Na   0.438372   0.060451
 Sum of Mulliken charges =  -0.00000   1.00000

 Dipole moment (field-independent basis, Debye):
    X=             -0.2348    Y=              0.0283    Z=              0.1418  Tot=              0.2758
 Quadrupole moment (field-independent basis, Debye-Ang):
   XX=            -55.8013   YY=            -63.9019   ZZ=            -73.6360
   XY=             -0.0688   XZ=             -0.5403   YZ=              0.0254

 Normal termination of Gaussian 16 at Thu Dec  7 19:30:03 2023.
