 Gaussian 16, Revision B.01,
 Gaussian 16:  ES64L-G16RevB.01 20-Dec-2017

 -------------------------
 #P B3LYP/6-311+g(d) force
 -------------------------

 -----
 DPGEN
 -----
 Symbolic Z-matrix:
 Charge =  0 Multiplicity = 2

                         Standard orientation:
 ---------------------------------------------------------------------
 Center     Atomic      Atomic             Coordinates (Angstroms)
 Number     Number       Type             X           Y           Z
 ---------------------------------------------------------------------
      1         11           0        2.689700   -1.535670    0.142809
      2         11           0       -1.016802   -2.844097   -0.078979
      3         11           0        2.424824    1.776546   -0.448341
      4         11           0       -0.024297    0.034872    2.171613
      5         11           0       -3.129592    0.037873   -0.263768
      6         11           0       -1.008122    2.902351    0.048547
      7         11           0        0.064288   -0.371874   -1.571882
 ---------------------------------------------------------------------

 SCF Done:  E(UB3LYP) =  -1136.13847224     A.U. after   18 cycles

 The electronic state is 2-A.
 Alpha  occ. eigenvalues --  -38.44007 -38.43857 -38.43751 -38.43642 -38.43585
 Alpha  occ. eigenvalues --  -38.43433 -38.43174  -2.19826  -2.19697  -2.19609
 Alpha  occ. eigenvalues --   -2.19485  -2.19437  -2.19244  -2.19161  -1.13510
 Alpha  occ. eigenvalues --   -1.13488  -1.13461  -1.13382  -1.13364  -1.13337
 Alpha  occ. eigenvalues --   -1.13269  -1.13236  -1.13226  -1.13182  -1.13167
 Alpha  occ. eigenvalues --   -1.13138  -1.13114  -1.13091  -1.13054  -1.12916
 Alpha  occ. eigenvalues --   -1.12908  -1.12887  -1.12836  -1.12790  -1.12778
 Alpha  occ. eigenvalues --   -0.18473  -0.12953  -0.12425  -0.10767
 Alpha virt. eigenvalues --   -0.05548  -0.05173  -0.04881  -0.03138  -0.02923
 Alpha virt. eigenvalues --   -0.02651  -0.01462  -0.01166  -0.00442  -0.00439
 Alpha virt. eigenvalues --   -0.00019   0.00354   0.00809   0.00857   0.00886

  Beta  occ. eigenvalues --  -38.44002 -38.43852 -38.43647 -38.43632 -38.43581
  Beta  occ. eigenvalues --  -38.43432 -38.43119  -2.19821  -2.19692  -2.19470
  Beta  occ. eigenvalues --   -2.19433  -2.19417  -2.19245  -2.19062  -1.13497
  Beta  occ. eigenvalues --   -1.13478  -1.13457  -1.13379  -1.13347  -1.13327
  Beta  occ. eigenvalues --   -1.13169  -1.13155  -1.13138  -1.13120  -1.13108
  Beta  occ. eigenvalues --   -1.13101  -1.13088  -1.13071  -1.13048  -1.12909
  Beta  occ. eigenvalues --   -1.12899  -1.12890  -1.12767  -1.12722  -1.12705
  Beta  occ. eigenvalues --   -0.17755  -0.12720  -0.12217
  Beta virt. eigenvalues --   -0.06827  -0.05536  -0.05168  -0.04793  -0.02376
  Beta virt. eigenvalues --   -0.02154  -0.01574  -0.01376  -0.01090  -0.00498
  Beta virt. eigenvalues --   -0.00476   0.00131   0.00388   0.00843   0.00876

 Mulliken charges and spin densities:
               1          2
     1  Na   0.225832   0.021269
     2  Na   0.252868  -0.025829
     3  Na   0.106341  -0.007734
     4  Na  -0.542883   0.796402
     5  Na   0.092939  -0.050747
     6  Na   0.030623  -0.038237
     7  Na  -0.165721   0.304876
 Sum of Mulliken charges =  -0.00000   1.00000

 Dipole moment (field-independent basis, Debye):
    X=             -0.0375    Y=             -0.1566    Z=              0.1553  Tot=              0.2237
 Quadrupole moment (field-independent basis, Debye-Ang):
   XX=            -57.5849   YY=            -61.5540   ZZ=            -74.4714
   XY=             -0.2852   XZ=              0.2527   YZ=             -1.0705

 Normal termination of Gaussian 16 at Fri Dec  8 03:33:35 2023.
