 Gaussian 16, Revision B.01,
 Gaussian 16:  ES64L-G16RevB.01 20-Dec-2017

 -------------------------
 #P B3LYP/6-311+g(d) force
 -------------------------

 -----
 DPGEN
 -----
 Symbolic Z-matrix:
 Charge =  0 Multiplicity = 2

                         Standard orientation:
 ---------------------------------------------------------------------
 Center     Atomic      Atomic             Coordinates (Angstroms)
 Number     Number       Type             X           Y           Z
 ---------------------------------------------------------------------
      1         11           0        1.055484   -1.700493   -2.223751
      2         11           0        1.413160   -0.972318    2.457707
      3         11           0        2.677138    0.541333   -0.480550
      4         11           0        0.769071    3.345475    0.082206
      5         11           0       -1.566605   -2.610496    0.443128
      6         11           0       -0.385422    0.165266   -0.087525
      7         11           0       -3.962826    1.231234   -0.191215
 ---------------------------------------------------------------------

 SCF Done:  E(UB3LYP) =  -1136.11534196     A.U. after   21 cycles

 The electronic state is 2-A.
 Alpha  occ. eigenvalues --  -38.44922 -38.44383 -38.44304 -38.44240 -38.43942
 Alpha  occ. eigenvalues --  -38.43468 -38.42451  -2.20760  -2.20114  -2.20109
 Alpha  occ. eigenvalues --   -2.20095  -2.19730  -2.19389  -2.18535  -1.14422
 Alpha  occ. eigenvalues --   -1.14384  -1.14356  -1.13832  -1.13803  -1.13779
 Alpha  occ. eigenvalues --   -1.13768  -1.13754  -1.13745  -1.13736  -1.13721
 Alpha  occ. eigenvalues --   -1.13703  -1.13401  -1.13396  -1.13366  -1.13108
 Alpha  occ. eigenvalues --   -1.13051  -1.12997  -1.12273  -1.12191  -1.12157
 Alpha  occ. eigenvalues --   -0.18195  -0.12473  -0.11828  -0.11602
 Alpha virt. eigenvalues --   -0.06420  -0.04949  -0.04519  -0.03235  -0.03014
 Alpha virt. eigenvalues --   -0.02606  -0.01563  -0.01330  -0.00656  -0.00290
 Alpha virt. eigenvalues --   -0.00179   0.00286   0.00355   0.00664   0.00853

  Beta  occ. eigenvalues --  -38.44811 -38.44399 -38.44301 -38.44160 -38.43941
  Beta  occ. eigenvalues --  -38.43454 -38.42435  -2.20553  -2.20125  -2.20106
  Beta  occ. eigenvalues --   -2.19964  -2.19728  -2.19367  -2.18511  -1.14279
  Beta  occ. eigenvalues --   -1.14246  -1.14212  -1.13831  -1.13799  -1.13775
  Beta  occ. eigenvalues --   -1.13755  -1.13747  -1.13719  -1.13699  -1.13643
  Beta  occ. eigenvalues --   -1.13606  -1.13400  -1.13391  -1.13367  -1.13099
  Beta  occ. eigenvalues --   -1.13004  -1.12976  -1.12200  -1.12179  -1.12154
  Beta  occ. eigenvalues --   -0.17378  -0.12334  -0.11481
  Beta virt. eigenvalues --   -0.07670  -0.06323  -0.04813  -0.04048  -0.02501
  Beta virt. eigenvalues --   -0.02372  -0.02106  -0.01481  -0.01267  -0.00356
  Beta virt. eigenvalues --   -0.00231  -0.00108   0.00339   0.00463   0.00663

 Mulliken charges and spin densities:
               1          2
     1  Na   0.012609   0.288874
     2  Na   0.137647   0.440982
     3  Na   1.458590   0.409719
     4  Na   0.063449  -0.092718
     5  Na   0.522548   0.142743
     6  Na  -2.480212   0.046906
     7  Na   0.285370  -0.236506
 Sum of Mulliken charges =  -0.00000   1.00000

 Dipole moment (field-independent basis, Debye):
    X=              0.3414    Y=             -0.5781    Z=              0.2324  Tot=              0.7105
 Quadrupole moment (field-independent basis, Debye-Ang):
   XX=            -62.0060   YY=            -62.1641   ZZ=            -67.2411
   XY=              1.3719   XZ=              0.4808   YZ=              0.1650

 Normal termination of Gaussian 16 at Fri Dec  8 18:45:10 2023.
