 Gaussian 16, Revision B.01,
 Gaussian 16:  ES64L-G16RevB.01 20-Dec-2017

 -------------------------
 #P B3LYP/6-311+g(d) force
 -------------------------

 -----
 DPGEN
 -----
 Symbolic Z-matrix:
 Charge =  0 Multiplicity = 2

                         Standard orientation:
 ---------------------------------------------------------------------
 Center     Atomic      Atomic             Coordinates (Angstroms)
 Number     Number       Type             X           Y           Z
 ---------------------------------------------------------------------
      1         11           0       -0.168134   -2.014804   -0.355238
      2         11           0       -0.084024    0.499278   -1.803591
      3         11           0        1.490519    1.662502    0.221617
      4         11           0       -1.279576    1.812438    0.231760
      5         11           0        2.498822   -0.872926   -0.131179
      6         11           0       -2.507336   -0.695982    0.003357
      7         11           0        0.049729   -0.390505    1.833273
 ---------------------------------------------------------------------

 SCF Done:  E(UB3LYP) =  -1136.07765740     A.U. after   19 cycles

 The electronic state is 2-A.
 Alpha  occ. eigenvalues --  -38.44361 -38.44226 -38.43977 -38.43860 -38.43628
 Alpha  occ. eigenvalues --  -38.43581 -38.43486  -2.20590  -2.20433  -2.20079
 Alpha  occ. eigenvalues --   -2.19925  -2.19820  -2.19756  -2.19683  -1.14482
 Alpha  occ. eigenvalues --   -1.14303  -1.14240  -1.14239  -1.14134  -1.14071
 Alpha  occ. eigenvalues --   -1.13939  -1.13885  -1.13811  -1.13662  -1.13656
 Alpha  occ. eigenvalues --   -1.13615  -1.13521  -1.13401  -1.13355  -1.13326
 Alpha  occ. eigenvalues --   -1.13317  -1.13280  -1.13273  -1.13196  -1.13151
 Alpha  occ. eigenvalues --   -0.21788  -0.13947  -0.12863  -0.12483
 Alpha virt. eigenvalues --   -0.05237  -0.04220  -0.04011  -0.03803  -0.03234
 Alpha virt. eigenvalues --   -0.02987  -0.01091  -0.00396  -0.00137   0.00337
 Alpha virt. eigenvalues --    0.00792   0.00844   0.01073   0.01169   0.01253

  Beta  occ. eigenvalues --  -38.44270 -38.44132 -38.43967 -38.43852 -38.43611
  Beta  occ. eigenvalues --  -38.43563 -38.43464  -2.20427  -2.20265  -2.20067
  Beta  occ. eigenvalues --   -2.19915  -2.19796  -2.19732  -2.19651  -1.14395
  Beta  occ. eigenvalues --   -1.14205  -1.14131  -1.14126  -1.14018  -1.13979
  Beta  occ. eigenvalues --   -1.13915  -1.13873  -1.13785  -1.13644  -1.13603
  Beta  occ. eigenvalues --   -1.13596  -1.13473  -1.13329  -1.13318  -1.13307
  Beta  occ. eigenvalues --   -1.13266  -1.13257  -1.13190  -1.13186  -1.13141
  Beta  occ. eigenvalues --   -0.20910  -0.13575  -0.12490
  Beta virt. eigenvalues --   -0.08251  -0.05252  -0.04205  -0.03950  -0.02835
  Beta virt. eigenvalues --   -0.02383  -0.01871  -0.01017  -0.00348   0.00021
  Beta virt. eigenvalues --    0.00366   0.00796   0.00830   0.01092   0.01187

 Mulliken charges and spin densities:
               1          2
     1  Na   0.153422   0.114470
     2  Na  -0.142847   0.445059
     3  Na   0.111310   0.046833
     4  Na   0.159008   0.058184
     5  Na  -0.119033  -0.065357
     6  Na   0.000734  -0.051637
     7  Na  -0.162594   0.452447
 Sum of Mulliken charges =  -0.00000   1.00000

 Dipole moment (field-independent basis, Debye):
    X=              0.0762    Y=             -0.1536    Z=              0.0370  Tot=              0.1754
 Quadrupole moment (field-independent basis, Debye-Ang):
   XX=            -60.0227   YY=            -71.4005   ZZ=            -67.0878
   XY=             -0.3258   XZ=             -0.3525   YZ=              1.2660

 Normal termination of Gaussian 16 at Sat Dec  9 05:49:55 2023.
