 Gaussian 16, Revision B.01,
 Gaussian 16:  ES64L-G16RevB.01 20-Dec-2017

 -------------------------
 #P B3LYP/6-311+g(d) force
 -------------------------

 -----
 DPGEN
 -----
 Symbolic Z-matrix:
 Charge =  0 Multiplicity = 2

                         Standard orientation:
 ---------------------------------------------------------------------
 Center     Atomic      Atomic             Coordinates (Angstroms)
 Number     Number       Type             X           Y           Z
 ---------------------------------------------------------------------
      1         11           0       -3.014245    0.453440   -0.033366
      2         11           0        2.703770    1.388981   -0.257647
      3         11           0       -0.589825    3.056686   -0.200372
      4         11           0        0.008596    0.069716    2.172565
      5         11           0        2.413019   -2.020039    0.225131
      6         11           0       -1.775898   -2.481534   -0.197617
      7         11           0        0.254583   -0.467249   -1.708694
 ---------------------------------------------------------------------

 SCF Done:  E(UB3LYP) =  -1136.13712966     A.U. after   18 cycles

 The electronic state is 2-A.
 Alpha  occ. eigenvalues --  -38.43976 -38.43917 -38.43896 -38.43896 -38.43568
 Alpha  occ. eigenvalues --  -38.43429 -38.43313  -2.19809  -2.19750  -2.19744
 Alpha  occ. eigenvalues --   -2.19738  -2.19425  -2.19369  -2.19112  -1.13502
 Alpha  occ. eigenvalues --   -1.13480  -1.13450  -1.13429  -1.13427  -1.13415
 Alpha  occ. eigenvalues --   -1.13408  -1.13398  -1.13386  -1.13375  -1.13370
 Alpha  occ. eigenvalues --   -1.13357  -1.13143  -1.13074  -1.13059  -1.13035
 Alpha  occ. eigenvalues --   -1.12993  -1.12980  -1.12785  -1.12772  -1.12760
 Alpha  occ. eigenvalues --   -0.18361  -0.13149  -0.12233  -0.10833
 Alpha virt. eigenvalues --   -0.05481  -0.05465  -0.04752  -0.03337  -0.02914
 Alpha virt. eigenvalues --   -0.02679  -0.01445  -0.01166  -0.00482  -0.00424
 Alpha virt. eigenvalues --   -0.00041   0.00367   0.00767   0.00844   0.00881

  Beta  occ. eigenvalues --  -38.43969 -38.43911 -38.43894 -38.43795 -38.43563
  Beta  occ. eigenvalues --  -38.43369 -38.43312  -2.19799  -2.19742  -2.19738
  Beta  occ. eigenvalues --   -2.19558  -2.19419  -2.19259  -2.19112  -1.13492
  Beta  occ. eigenvalues --   -1.13455  -1.13447  -1.13428  -1.13418  -1.13395
  Beta  occ. eigenvalues --   -1.13383  -1.13381  -1.13374  -1.13278  -1.13242
  Beta  occ. eigenvalues --   -1.13226  -1.13121  -1.13064  -1.13046  -1.12965
  Beta  occ. eigenvalues --   -1.12917  -1.12907  -1.12778  -1.12769  -1.12758
  Beta  occ. eigenvalues --   -0.17635  -0.12940  -0.12031
  Beta virt. eigenvalues --   -0.06909  -0.05486  -0.05394  -0.04670  -0.02543
  Beta virt. eigenvalues --   -0.02155  -0.01657  -0.01348  -0.01085  -0.00539
  Beta virt. eigenvalues --   -0.00471   0.00118   0.00401   0.00837   0.00862

 Mulliken charges and spin densities:
               1          2
     1  Na   0.016149  -0.024527
     2  Na   0.102761  -0.032115
     3  Na  -0.092719  -0.065467
     4  Na  -0.467041   0.752392
     5  Na   0.184354  -0.034191
     6  Na   0.295807  -0.046652
     7  Na  -0.039310   0.450560
 Sum of Mulliken charges =  -0.00000   1.00000

 Dipole moment (field-independent basis, Debye):
    X=              0.2282    Y=             -0.1919    Z=              0.1283  Tot=              0.3246
 Quadrupole moment (field-independent basis, Debye-Ang):
   XX=            -57.8744   YY=            -62.8368   ZZ=            -73.9319
   XY=             -0.3184   XZ=              0.3645   YZ=             -1.2180

 Normal termination of Gaussian 16 at Tue Dec  5 12:22:39 2023.
