 Gaussian 16, Revision B.01,
 Gaussian 16:  ES64L-G16RevB.01 20-Dec-2017

 -------------------------
 #P B3LYP/6-311+g(d) force
 -------------------------

 -----
 DPGEN
 -----
 Symbolic Z-matrix:
 Charge =  0 Multiplicity = 2

                         Standard orientation:
 ---------------------------------------------------------------------
 Center     Atomic      Atomic             Coordinates (Angstroms)
 Number     Number       Type             X           Y           Z
 ---------------------------------------------------------------------
      1         11           0       -3.404741    1.698868    0.647557
      2         11           0        1.808031   -1.807139   -1.341436
      3         11           0        1.330408    2.292163   -1.009132
      4         11           0       -1.482779   -0.000821   -1.588036
      5         11           0        3.757536    0.374530    1.015802
      6         11           0        0.262324   -0.479340    1.961088
      7         11           0       -2.270779   -2.078261    0.314158
 ---------------------------------------------------------------------

 SCF Done:  E(UB3LYP) =  -1136.11755143     A.U. after   26 cycles

 The electronic state is 2-A.
 Alpha  occ. eigenvalues --  -38.44796 -38.44568 -38.44429 -38.44373 -38.43847
 Alpha  occ. eigenvalues --  -38.43814 -38.43660  -2.20579  -2.20385  -2.20214
 Alpha  occ. eigenvalues --   -2.20139  -2.19679  -2.19617  -2.19590  -1.14251
 Alpha  occ. eigenvalues --   -1.14229  -1.14212  -1.14062  -1.14028  -1.14010
 Alpha  occ. eigenvalues --   -1.13889  -1.13863  -1.13837  -1.13815  -1.13788
 Alpha  occ. eigenvalues --   -1.13784  -1.13528  -1.13343  -1.13305  -1.13291
 Alpha  occ. eigenvalues --   -1.13273  -1.13253  -1.13235  -1.13196  -1.13172
 Alpha  occ. eigenvalues --   -0.17783  -0.13704  -0.11217  -0.10872
 Alpha virt. eigenvalues --   -0.06600  -0.05785  -0.04761  -0.03162  -0.02679
 Alpha virt. eigenvalues --   -0.02587  -0.02195  -0.01463  -0.00815  -0.00247
 Alpha virt. eigenvalues --    0.00004   0.00218   0.00245   0.00369   0.00544

  Beta  occ. eigenvalues --  -38.44776 -38.44514 -38.44389 -38.44367 -38.43828
  Beta  occ. eigenvalues --  -38.43815 -38.43620  -2.20543  -2.20283  -2.20141
  Beta  occ. eigenvalues --   -2.20129  -2.19681  -2.19584  -2.19519  -1.14219
  Beta  occ. eigenvalues --   -1.14201  -1.14190  -1.13991  -1.13959  -1.13933
  Beta  occ. eigenvalues --   -1.13829  -1.13808  -1.13808  -1.13789  -1.13782
  Beta  occ. eigenvalues --   -1.13775  -1.13513  -1.13333  -1.13279  -1.13267
  Beta  occ. eigenvalues --   -1.13254  -1.13219  -1.13206  -1.13148  -1.13116
  Beta  occ. eigenvalues --   -0.17075  -0.13503  -0.10681
  Beta virt. eigenvalues --   -0.07482  -0.06337  -0.05627  -0.04224  -0.02914
  Beta virt. eigenvalues --   -0.02225  -0.02026  -0.01781  -0.01181  -0.00673
  Beta virt. eigenvalues --   -0.00122   0.00040   0.00261   0.00366   0.00468

 Mulliken charges and spin densities:
               1          2
     1  Na  -0.058420   0.049972
     2  Na  -0.019884   0.185872
     3  Na  -0.187413   0.086712
     4  Na   0.020737   0.104027
     5  Na   0.158707   0.089121
     6  Na  -0.377122   0.428002
     7  Na   0.463395   0.056294
 Sum of Mulliken charges =  -0.00000   1.00000

 Dipole moment (field-independent basis, Debye):
    X=              0.6150    Y=             -0.3529    Z=              0.5475  Tot=              0.8958
 Quadrupole moment (field-independent basis, Debye-Ang):
   XX=            -51.6916   YY=            -73.9785   ZZ=            -69.3454
   XY=              0.0498   XZ=             -1.6338   YZ=              3.2442

 Normal termination of Gaussian 16 at Sun Dec  3 15:30:22 2023.
