 Gaussian 16, Revision B.01,
 Gaussian 16:  ES64L-G16RevB.01 20-Dec-2017

 -------------------------
 #P B3LYP/6-311+g(d) force
 -------------------------

 -----
 DPGEN
 -----
 Symbolic Z-matrix:
 Charge =  0 Multiplicity = 2

                         Standard orientation:
 ---------------------------------------------------------------------
 Center     Atomic      Atomic             Coordinates (Angstroms)
 Number     Number       Type             X           Y           Z
 ---------------------------------------------------------------------
      1         11           0        4.516455   -0.611984    0.371896
      2         11           0        1.941442   -2.398160    0.664562
      3         11           0       -2.889371    1.519733    1.524985
      4         11           0       -1.799060   -3.111791   -0.259804
      5         11           0       -3.810890   -0.728976   -0.953092
      6         11           0        0.121040    3.780984    0.040803
      7         11           0        1.920384    1.550195   -1.389350
 ---------------------------------------------------------------------

 SCF Done:  E(UB3LYP) =  -1136.11027920     A.U. after   21 cycles

 The electronic state is 2-A.
 Alpha  occ. eigenvalues --  -38.44829 -38.44810 -38.44625 -38.44571 -38.44240
 Alpha  occ. eigenvalues --  -38.43692 -38.43645  -2.20612  -2.20603  -2.20406
 Alpha  occ. eigenvalues --   -2.20366  -2.20064  -2.19504  -2.19430  -1.14294
 Alpha  occ. eigenvalues --   -1.14281  -1.14278  -1.14275  -1.14273  -1.14263
 Alpha  occ. eigenvalues --   -1.14064  -1.14043  -1.14040  -1.14036  -1.14019
 Alpha  occ. eigenvalues --   -1.13984  -1.13716  -1.13707  -1.13689  -1.13160
 Alpha  occ. eigenvalues --   -1.13146  -1.13141  -1.13101  -1.13096  -1.13071
 Alpha  occ. eigenvalues --   -0.15807  -0.14011  -0.12882  -0.10460
 Alpha virt. eigenvalues --   -0.07240  -0.05143  -0.04515  -0.03534  -0.03293
 Alpha virt. eigenvalues --   -0.02484  -0.01791  -0.01665  -0.01202  -0.00920
 Alpha virt. eigenvalues --   -0.00590  -0.00133   0.00265   0.00319   0.00548

  Beta  occ. eigenvalues --  -38.44821 -38.44817 -38.44548 -38.44534 -38.44199
  Beta  occ. eigenvalues --  -38.43639 -38.43639  -2.20621  -2.20603  -2.20301
  Beta  occ. eigenvalues --   -2.20263  -2.19988  -2.19424  -2.19404  -1.14296
  Beta  occ. eigenvalues --   -1.14292  -1.14290  -1.14277  -1.14241  -1.14228
  Beta  occ. eigenvalues --   -1.13996  -1.13994  -1.13964  -1.13949  -1.13927
  Beta  occ. eigenvalues --   -1.13924  -1.13661  -1.13654  -1.13642  -1.13096
  Beta  occ. eigenvalues --   -1.13095  -1.13088  -1.13079  -1.13073  -1.13056
  Beta  occ. eigenvalues --   -0.15333  -0.13452  -0.12227
  Beta virt. eigenvalues --   -0.07254  -0.07141  -0.04815  -0.04204  -0.03275
  Beta virt. eigenvalues --   -0.02897  -0.02335  -0.01509  -0.01307  -0.00996
  Beta virt. eigenvalues --   -0.00816  -0.00263   0.00067   0.00343   0.00438

 Mulliken charges and spin densities:
               1          2
     1  Na   0.660401   0.171324
     2  Na  -0.289724   0.086306
     3  Na  -0.110355   0.391643
     4  Na  -0.123269   0.212791
     5  Na   0.084543  -0.010310
     6  Na   0.160918  -0.052563
     7  Na  -0.382514   0.200808
 Sum of Mulliken charges =  -0.00000   1.00000

 Dipole moment (field-independent basis, Debye):
    X=              0.4076    Y=              0.0363    Z=              0.0428  Tot=              0.4115
 Quadrupole moment (field-independent basis, Debye-Ang):
   XX=            -62.4074   YY=            -72.2161   ZZ=            -67.2515
   XY=              1.0098   XZ=              2.0752   YZ=              0.9350

 Normal termination of Gaussian 16 at Mon Dec  4 04:03:53 2023.
