 Gaussian 16, Revision B.01,
 Gaussian 16:  ES64L-G16RevB.01 20-Dec-2017

 -------------------------
 #P B3LYP/6-311+g(d) force
 -------------------------

 -----
 DPGEN
 -----
 Symbolic Z-matrix:
 Charge =  0 Multiplicity = 2

                         Standard orientation:
 ---------------------------------------------------------------------
 Center     Atomic      Atomic             Coordinates (Angstroms)
 Number     Number       Type             X           Y           Z
 ---------------------------------------------------------------------
      1         11           0        0.934687   -0.184767   -1.455493
      2         11           0       -0.385957    3.038476   -0.042892
      3         11           0       -0.489303   -1.384978    1.299086
      4         11           0       -2.856643    0.921047   -1.119771
      5         11           0       -3.208729   -2.004222    0.543022
      6         11           0        3.676757   -1.657895   -0.953135
      7         11           0        2.329189    1.272340    1.729182
 ---------------------------------------------------------------------

 SCF Done:  E(UB3LYP) =  -1136.12154819     A.U. after   20 cycles

 The electronic state is 2-A.
 Alpha  occ. eigenvalues --  -38.44639 -38.44387 -38.44258 -38.44220 -38.44129
 Alpha  occ. eigenvalues --  -38.43796 -38.43012  -2.20443  -2.20194  -2.20143
 Alpha  occ. eigenvalues --   -2.20105  -2.19958  -2.19663  -2.18813  -1.14108
 Alpha  occ. eigenvalues --   -1.14079  -1.14057  -1.13905  -1.13880  -1.13861
 Alpha  occ. eigenvalues --   -1.13839  -1.13819  -1.13775  -1.13772  -1.13748
 Alpha  occ. eigenvalues --   -1.13681  -1.13638  -1.13612  -1.13586  -1.13320
 Alpha  occ. eigenvalues --   -1.13295  -1.13282  -1.12497  -1.12479  -1.12463
 Alpha  occ. eigenvalues --   -0.17693  -0.13738  -0.11991  -0.11076
 Alpha virt. eigenvalues --   -0.06451  -0.05095  -0.04969  -0.03234  -0.02870
 Alpha virt. eigenvalues --   -0.02431  -0.02323  -0.01339  -0.00740  -0.00154
 Alpha virt. eigenvalues --   -0.00117   0.00158   0.00313   0.00480   0.00736

  Beta  occ. eigenvalues --  -38.44568 -38.44347 -38.44221 -38.44188 -38.44100
  Beta  occ. eigenvalues --  -38.43792 -38.43021  -2.20310  -2.20121  -2.20077
  Beta  occ. eigenvalues --   -2.20048  -2.19904  -2.19658  -2.18834  -1.14009
  Beta  occ. eigenvalues --   -1.13993  -1.13968  -1.13846  -1.13835  -1.13815
  Beta  occ. eigenvalues --   -1.13791  -1.13769  -1.13729  -1.13728  -1.13704
  Beta  occ. eigenvalues --   -1.13633  -1.13599  -1.13577  -1.13553  -1.13301
  Beta  occ. eigenvalues --   -1.13294  -1.13278  -1.12514  -1.12495  -1.12452
  Beta  occ. eigenvalues --   -0.17167  -0.13349  -0.11605
  Beta virt. eigenvalues --   -0.07571  -0.06220  -0.04684  -0.04627  -0.03013
  Beta virt. eigenvalues --   -0.02437  -0.02092  -0.01771  -0.01109  -0.00437
  Beta virt. eigenvalues --   -0.00124   0.00096   0.00217   0.00476   0.00608

 Mulliken charges and spin densities:
               1          2
     1  Na  -0.508924   0.326871
     2  Na  -0.164431  -0.043401
     3  Na  -0.221778   0.317814
     4  Na   0.304285   0.065731
     5  Na   0.006006  -0.031446
     6  Na   0.351954   0.079401
     7  Na   0.232888   0.285030
 Sum of Mulliken charges =  -0.00000   1.00000

 Dipole moment (field-independent basis, Debye):
    X=              0.4324    Y=             -0.2394    Z=              0.2068  Tot=              0.5358
 Quadrupole moment (field-independent basis, Debye-Ang):
   XX=            -52.6125   YY=            -71.1506   ZZ=            -71.5396
   XY=              0.2534   XZ=              4.0744   YZ=              1.5547

 Normal termination of Gaussian 16 at Sun Dec  3 19:56:43 2023.
