 Gaussian 16, Revision B.01,
 Gaussian 16:  ES64L-G16RevB.01 20-Dec-2017

 -------------------------
 #P B3LYP/6-311+g(d) force
 -------------------------

 -----
 DPGEN
 -----
 Symbolic Z-matrix:
 Charge =  0 Multiplicity = 2

                         Standard orientation:
 ---------------------------------------------------------------------
 Center     Atomic      Atomic             Coordinates (Angstroms)
 Number     Number       Type             X           Y           Z
 ---------------------------------------------------------------------
      1         11           0        2.781479    1.250786    0.046084
      2         11           0       -3.219229    0.562201    0.014389
      3         11           0       -0.139933    0.023805   -1.568605
      4         11           0       -1.607205   -2.677552   -0.156307
      5         11           0       -0.227640    3.041331   -0.180377
      6         11           0       -0.110596   -0.104572    1.992746
      7         11           0        2.523123   -2.095999   -0.147930
 ---------------------------------------------------------------------

 SCF Done:  E(UB3LYP) =  -1136.13794060     A.U. after   19 cycles

 The electronic state is 2-A.
 Alpha  occ. eigenvalues --  -38.44445 -38.43902 -38.43871 -38.43818 -38.43379
 Alpha  occ. eigenvalues --  -38.43314 -38.43038  -2.20248  -2.19702  -2.19686
 Alpha  occ. eigenvalues --   -2.19662  -2.19257  -2.19147  -2.19000  -1.13925
 Alpha  occ. eigenvalues --   -1.13908  -1.13884  -1.13395  -1.13372  -1.13371
 Alpha  occ. eigenvalues --   -1.13352  -1.13345  -1.13332  -1.13325  -1.13313
 Alpha  occ. eigenvalues --   -1.13283  -1.12937  -1.12880  -1.12873  -1.12845
 Alpha  occ. eigenvalues --   -1.12804  -1.12783  -1.12690  -1.12628  -1.12619
 Alpha  occ. eigenvalues --   -0.18360  -0.13070  -0.12292  -0.10347
 Alpha virt. eigenvalues --   -0.05886  -0.05352  -0.04855  -0.03095  -0.02666
 Alpha virt. eigenvalues --   -0.02315  -0.01711  -0.01283  -0.00683  -0.00544
 Alpha virt. eigenvalues --   -0.00000   0.00345   0.00766   0.00799   0.00858

  Beta  occ. eigenvalues --  -38.44442 -38.43901 -38.43866 -38.43814 -38.43309
  Beta  occ. eigenvalues --  -38.43284 -38.42978  -2.20245  -2.19703  -2.19679
  Beta  occ. eigenvalues --   -2.19659  -2.19143  -2.19082  -2.18890  -1.13910
  Beta  occ. eigenvalues --   -1.13897  -1.13886  -1.13397  -1.13362  -1.13354
  Beta  occ. eigenvalues --   -1.13348  -1.13329  -1.13325  -1.13313  -1.13305
  Beta  occ. eigenvalues --   -1.13285  -1.12838  -1.12815  -1.12787  -1.12782
  Beta  occ. eigenvalues --   -1.12752  -1.12746  -1.12611  -1.12549  -1.12540
  Beta  occ. eigenvalues --   -0.17646  -0.12864  -0.12067
  Beta virt. eigenvalues --   -0.06454  -0.05867  -0.05333  -0.04821  -0.02321
  Beta virt. eigenvalues --   -0.01943  -0.01621  -0.01263  -0.01194  -0.00747
  Beta virt. eigenvalues --   -0.00593   0.00148   0.00374   0.00786   0.00833

 Mulliken charges and spin densities:
               1          2
     1  Na   0.169934  -0.009841
     2  Na   0.182100  -0.061445
     3  Na  -0.212487   0.535595
     4  Na   0.074665  -0.114455
     5  Na   0.135185  -0.061832
     6  Na  -0.393777   0.798703
     7  Na   0.044380  -0.086726
 Sum of Mulliken charges =  -0.00000   1.00000

 Dipole moment (field-independent basis, Debye):
    X=             -0.3074    Y=             -0.1514    Z=              0.0872  Tot=              0.3536
 Quadrupole moment (field-independent basis, Debye-Ang):
   XX=            -54.6810   YY=            -60.4561   ZZ=            -76.8252
   XY=             -0.5075   XZ=             -0.0555   YZ=              0.4112

 Normal termination of Gaussian 16 at Thu Dec  7 03:19:32 2023.
