 Gaussian 16, Revision B.01,
 Gaussian 16:  ES64L-G16RevB.01 20-Dec-2017

 -------------------------
 #P B3LYP/6-311+g(d) force
 -------------------------

 -----
 DPGEN
 -----
 Symbolic Z-matrix:
 Charge =  0 Multiplicity = 2

                         Standard orientation:
 ---------------------------------------------------------------------
 Center     Atomic      Atomic             Coordinates (Angstroms)
 Number     Number       Type             X           Y           Z
 ---------------------------------------------------------------------
      1         11           0        0.492693   -0.688193    1.421836
      2         11           0        5.863142    0.037267    0.055064
      3         11           0        3.051592   -1.124377   -0.859379
      4         11           0        1.406712    1.818704   -0.186286
      5         11           0       -2.284771    1.644401    0.000776
      6         11           0       -3.044526   -1.846865   -0.207595
      7         11           0       -5.484842    0.159063   -0.224417
 ---------------------------------------------------------------------

 SCF Done:  E(UB3LYP) =  -1136.11778095     A.U. after   21 cycles

 The electronic state is 2-A.
 Alpha  occ. eigenvalues --  -38.44513 -38.44172 -38.44163 -38.44045 -38.44037
 Alpha  occ. eigenvalues --  -38.43822 -38.43728  -2.20344  -2.20035  -2.19993
 Alpha  occ. eigenvalues --   -2.19904  -2.19863  -2.19693  -2.19509  -1.14018
 Alpha  occ. eigenvalues --   -1.14005  -1.13979  -1.13743  -1.13717  -1.13694
 Alpha  occ. eigenvalues --   -1.13670  -1.13644  -1.13588  -1.13581  -1.13564
 Alpha  occ. eigenvalues --   -1.13544  -1.13522  -1.13518  -1.13489  -1.13358
 Alpha  occ. eigenvalues --   -1.13337  -1.13316  -1.13170  -1.13169  -1.13147
 Alpha  occ. eigenvalues --   -0.17068  -0.14613  -0.11488  -0.10576
 Alpha virt. eigenvalues --   -0.06204  -0.05789  -0.05260  -0.03159  -0.02883
 Alpha virt. eigenvalues --   -0.02412  -0.02220  -0.01349  -0.00931  -0.00621
 Alpha virt. eigenvalues --   -0.00187  -0.00018   0.00145   0.00311   0.00651

  Beta  occ. eigenvalues --  -38.44474 -38.44145 -38.44116 -38.44039 -38.44030
  Beta  occ. eigenvalues --  -38.43785 -38.43730  -2.20271  -2.19985  -2.19907
  Beta  occ. eigenvalues --   -2.19893  -2.19850  -2.19626  -2.19513  -1.13970
  Beta  occ. eigenvalues --   -1.13959  -1.13916  -1.13711  -1.13685  -1.13638
  Beta  occ. eigenvalues --   -1.13607  -1.13600  -1.13577  -1.13549  -1.13530
  Beta  occ. eigenvalues --   -1.13525  -1.13510  -1.13504  -1.13469  -1.13314
  Beta  occ. eigenvalues --   -1.13281  -1.13263  -1.13173  -1.13172  -1.13149
  Beta  occ. eigenvalues --   -0.16503  -0.14427  -0.11312
  Beta virt. eigenvalues --   -0.07001  -0.05978  -0.05184  -0.04965  -0.03048
  Beta virt. eigenvalues --   -0.02409  -0.02178  -0.01708  -0.01289  -0.00590
  Beta virt. eigenvalues --   -0.00430   0.00017   0.00168   0.00299   0.00425

 Mulliken charges and spin densities:
               1          2
     1  Na  -0.267695   0.565909
     2  Na   0.243098   0.009133
     3  Na  -0.073382  -0.129703
     4  Na  -0.001127   0.172565
     5  Na  -0.370188   0.262446
     6  Na  -0.167828   0.101636
     7  Na   0.637122   0.018014
 Sum of Mulliken charges =  -0.00000   1.00000

 Dipole moment (field-independent basis, Debye):
    X=             -0.8914    Y=              0.1598    Z=              0.1414  Tot=              0.9166
 Quadrupole moment (field-independent basis, Debye-Ang):
   XX=            -60.4686   YY=            -69.9921   ZZ=            -69.3489
   XY=              3.0284   XZ=              3.0917   YZ=              1.5657

 Normal termination of Gaussian 16 at Tue Nov 28 23:24:31 2023.
