 Gaussian 16, Revision B.01,
 Gaussian 16:  ES64L-G16RevB.01 20-Dec-2017

 -------------------------
 #P B3LYP/6-311+g(d) force
 -------------------------

 -----
 DPGEN
 -----
 Symbolic Z-matrix:
 Charge =  0 Multiplicity = 2

                         Standard orientation:
 ---------------------------------------------------------------------
 Center     Atomic      Atomic             Coordinates (Angstroms)
 Number     Number       Type             X           Y           Z
 ---------------------------------------------------------------------
      1         11           0        1.969769    2.180419   -0.841754
      2         11           0        1.864574    0.233596    1.536266
      3         11           0       -0.646059   -1.467575    1.226489
      4         11           0        2.321655   -1.956393   -0.573649
      5         11           0       -0.691909   -0.861933   -1.627084
      6         11           0       -3.557931   -0.272359   -0.062874
      7         11           0       -1.260100    2.144245    0.342606
 ---------------------------------------------------------------------

 SCF Done:  E(UB3LYP) =  -1136.12847653     A.U. after   20 cycles

 The electronic state is 2-A.
 Alpha  occ. eigenvalues --  -38.44493 -38.43714 -38.43665 -38.43522 -38.43371
 Alpha  occ. eigenvalues --  -38.43363 -38.43333  -2.20349  -2.19631  -2.19597
 Alpha  occ. eigenvalues --   -2.19514  -2.19368  -2.19227  -2.19188  -1.14016
 Alpha  occ. eigenvalues --   -1.14003  -1.14001  -1.13446  -1.13349  -1.13292
 Alpha  occ. eigenvalues --   -1.13272  -1.13255  -1.13220  -1.13197  -1.13176
 Alpha  occ. eigenvalues --   -1.13093  -1.13022  -1.12995  -1.12929  -1.12921
 Alpha  occ. eigenvalues --   -1.12904  -1.12863  -1.12848  -1.12825  -1.12796
 Alpha  occ. eigenvalues --   -0.19072  -0.13800  -0.11973  -0.10986
 Alpha virt. eigenvalues --   -0.06040  -0.05141  -0.04130  -0.03526  -0.02790
 Alpha virt. eigenvalues --   -0.02397  -0.01916  -0.00904  -0.00351   0.00097
 Alpha virt. eigenvalues --    0.00234   0.00322   0.00693   0.00842   0.00853

  Beta  occ. eigenvalues --  -38.44492 -38.43701 -38.43606 -38.43473 -38.43365
  Beta  occ. eigenvalues --  -38.43320 -38.43315  -2.20349  -2.19578  -2.19524
  Beta  occ. eigenvalues --   -2.19429  -2.19286  -2.19218  -2.19163  -1.14006
  Beta  occ. eigenvalues --   -1.14005  -1.13998  -1.13380  -1.13324  -1.13246
  Beta  occ. eigenvalues --   -1.13209  -1.13190  -1.13172  -1.13130  -1.13120
  Beta  occ. eigenvalues --   -1.13044  -1.12970  -1.12918  -1.12904  -1.12880
  Beta  occ. eigenvalues --   -1.12869  -1.12857  -1.12822  -1.12802  -1.12780
  Beta  occ. eigenvalues --   -0.18335  -0.13617  -0.11768
  Beta virt. eigenvalues --   -0.06981  -0.05927  -0.05126  -0.03788  -0.03062
  Beta virt. eigenvalues --   -0.02153  -0.01853  -0.01370  -0.00856  -0.00082
  Beta virt. eigenvalues --    0.00135   0.00241   0.00374   0.00827   0.00854

 Mulliken charges and spin densities:
               1          2
     1  Na  -0.158081   0.075463
     2  Na   0.509683   0.127235
     3  Na  -0.344868   0.245773
     4  Na  -0.004726   0.039298
     5  Na  -0.334043   0.532303
     6  Na   0.929170  -0.012165
     7  Na  -0.597135  -0.007907
 Sum of Mulliken charges =  -0.00000   1.00000

 Dipole moment (field-independent basis, Debye):
    X=             -0.6883    Y=             -0.1629    Z=             -0.2762  Tot=              0.7593
 Quadrupole moment (field-independent basis, Debye-Ang):
   XX=            -50.9268   YY=            -71.5504   ZZ=            -71.0277
   XY=             -1.1957   XZ=             -1.6791   YZ=             -0.1249

 Normal termination of Gaussian 16 at Fri Dec  8 07:28:30 2023.
