 Gaussian 16, Revision B.01,
 Gaussian 16:  ES64L-G16RevB.01 20-Dec-2017

 -------------------------
 #P B3LYP/6-311+g(d) force
 -------------------------

 -----
 DPGEN
 -----
 Symbolic Z-matrix:
 Charge =  0 Multiplicity = 2

                         Standard orientation:
 ---------------------------------------------------------------------
 Center     Atomic      Atomic             Coordinates (Angstroms)
 Number     Number       Type             X           Y           Z
 ---------------------------------------------------------------------
      1         11           0        1.129410   -1.652941   -1.040463
      2         11           0        0.671922    0.405598    2.069928
      3         11           0       -2.048300   -1.633263    1.182153
      4         11           0        3.671887   -0.172752    0.333015
      5         11           0        0.859536    2.068625   -1.243882
      6         11           0       -1.811872   -0.696214   -1.761990
      7         11           0       -2.472582    1.680947    0.461239
 ---------------------------------------------------------------------

 SCF Done:  E(UB3LYP) =  -1136.12877989     A.U. after   24 cycles

 The electronic state is 2-A.
 Alpha  occ. eigenvalues --  -38.44705 -38.44223 -38.44111 -38.44054 -38.43446
 Alpha  occ. eigenvalues --  -38.43437 -38.42705  -2.20521  -2.20040  -2.19967
 Alpha  occ. eigenvalues --   -2.19949  -2.19375  -2.19292  -2.18599  -1.14190
 Alpha  occ. eigenvalues --   -1.14188  -1.14152  -1.13722  -1.13686  -1.13667
 Alpha  occ. eigenvalues --   -1.13652  -1.13637  -1.13617  -1.13598  -1.13579
 Alpha  occ. eigenvalues --   -1.13556  -1.13061  -1.13053  -1.13006  -1.12956
 Alpha  occ. eigenvalues --   -1.12939  -1.12925  -1.12302  -1.12269  -1.12215
 Alpha  occ. eigenvalues --   -0.18654  -0.13680  -0.11982  -0.11073
 Alpha virt. eigenvalues --   -0.06290  -0.04907  -0.04539  -0.03408  -0.03029
 Alpha virt. eigenvalues --   -0.02777  -0.01912  -0.00688  -0.00546  -0.00100
 Alpha virt. eigenvalues --    0.00243   0.00303   0.00390   0.00707   0.00856

  Beta  occ. eigenvalues --  -38.44705 -38.44169 -38.44055 -38.44012 -38.43446
  Beta  occ. eigenvalues --  -38.43405 -38.42692  -2.20520  -2.19940  -2.19873
  Beta  occ. eigenvalues --   -2.19865  -2.19317  -2.19295  -2.18579  -1.14192
  Beta  occ. eigenvalues --   -1.14178  -1.14153  -1.13652  -1.13613  -1.13599
  Beta  occ. eigenvalues --   -1.13587  -1.13582  -1.13551  -1.13524  -1.13511
  Beta  occ. eigenvalues --   -1.13494  -1.13032  -1.13018  -1.12960  -1.12942
  Beta  occ. eigenvalues --   -1.12926  -1.12913  -1.12283  -1.12235  -1.12207
  Beta  occ. eigenvalues --   -0.17840  -0.13544  -0.10876
  Beta virt. eigenvalues --   -0.07970  -0.06066  -0.04589  -0.04124  -0.03053
  Beta virt. eigenvalues --   -0.02410  -0.02022  -0.01837  -0.00536  -0.00303
  Beta virt. eigenvalues --    0.00019   0.00308   0.00400   0.00461   0.00821

 Mulliken charges and spin densities:
               1          2
     1  Na  -0.418012   0.062550
     2  Na  -0.292015   0.352597
     3  Na   0.185257   0.135160
     4  Na   0.515972  -0.062185
     5  Na  -0.326137   0.169992
     6  Na   0.246282   0.394934
     7  Na   0.088653  -0.053048
 Sum of Mulliken charges =  -0.00000   1.00000

 Dipole moment (field-independent basis, Debye):
    X=              0.7174    Y=              0.2749    Z=              0.3505  Tot=              0.8444
 Quadrupole moment (field-independent basis, Debye-Ang):
   XX=            -52.4126   YY=            -75.9374   ZZ=            -66.8491
   XY=              0.7013   XZ=             -0.0717   YZ=             -5.6910

 Normal termination of Gaussian 16 at Thu Dec  7 17:50:29 2023.
