 Gaussian 16, Revision B.01,
 Gaussian 16:  ES64L-G16RevB.01 20-Dec-2017

 -------------------------
 #P B3LYP/6-311+g(d) force
 -------------------------

 -----
 DPGEN
 -----
 Symbolic Z-matrix:
 Charge =  0 Multiplicity = 2

                         Standard orientation:
 ---------------------------------------------------------------------
 Center     Atomic      Atomic             Coordinates (Angstroms)
 Number     Number       Type             X           Y           Z
 ---------------------------------------------------------------------
      1         11           0       -0.062829   -0.019129    0.347466
      2         11           0        1.671273    2.242122   -0.583208
      3         11           0       -1.481827    2.961121   -0.451097
      4         11           0       -3.806812   -0.195550    0.678238
      5         11           0       -1.947885   -2.574886   -0.053578
      6         11           0        3.713182   -0.277257    1.493969
      7         11           0        1.914899   -2.136420   -1.431791
 ---------------------------------------------------------------------

 SCF Done:  E(UB3LYP) =  -1136.12427980     A.U. after   20 cycles

 The electronic state is 2-A.
 Alpha  occ. eigenvalues --  -38.44174 -38.44166 -38.44011 -38.43905 -38.43746
 Alpha  occ. eigenvalues --  -38.43653 -38.43511  -2.20049  -2.19963  -2.19863
 Alpha  occ. eigenvalues --   -2.19742  -2.19555  -2.19504  -2.19483  -1.13815
 Alpha  occ. eigenvalues --   -1.13708  -1.13650  -1.13638  -1.13617  -1.13591
 Alpha  occ. eigenvalues --   -1.13583  -1.13544  -1.13517  -1.13396  -1.13368
 Alpha  occ. eigenvalues --   -1.13346  -1.13215  -1.13211  -1.13197  -1.13182
 Alpha  occ. eigenvalues --   -1.13159  -1.13151  -1.13146  -1.13121  -1.13084
 Alpha  occ. eigenvalues --   -0.17510  -0.13752  -0.12690  -0.10157
 Alpha virt. eigenvalues --   -0.06079  -0.05446  -0.04871  -0.03574  -0.02493
 Alpha virt. eigenvalues --   -0.02247  -0.01665  -0.01405  -0.00803  -0.00618
 Alpha virt. eigenvalues --   -0.00397   0.00156   0.00476   0.00524   0.00683

  Beta  occ. eigenvalues --  -38.44167 -38.44125 -38.44009 -38.43867 -38.43652
  Beta  occ. eigenvalues --  -38.43651 -38.43506  -2.20039  -2.19890  -2.19863
  Beta  occ. eigenvalues --   -2.19671  -2.19498  -2.19480  -2.19379  -1.13811
  Beta  occ. eigenvalues --   -1.13696  -1.13626  -1.13592  -1.13585  -1.13570
  Beta  occ. eigenvalues --   -1.13540  -1.13522  -1.13490  -1.13347  -1.13320
  Beta  occ. eigenvalues --   -1.13307  -1.13198  -1.13166  -1.13159  -1.13144
  Beta  occ. eigenvalues --   -1.13112  -1.13092  -1.13086  -1.13074  -1.13040
  Beta  occ. eigenvalues --   -0.17144  -0.13204  -0.12294
  Beta virt. eigenvalues --   -0.06673  -0.05983  -0.05299  -0.04475  -0.03142
  Beta virt. eigenvalues --   -0.02085  -0.02025  -0.01421  -0.00994  -0.00678
  Beta virt. eigenvalues --   -0.00432  -0.00074   0.00296   0.00643   0.00726

 Mulliken charges and spin densities:
               1          2
     1  Na  -2.864377   0.054904
     2  Na   1.292994   0.093765
     3  Na   0.087327  -0.043328
     4  Na  -0.021688   0.180732
     5  Na   0.395483   0.078697
     6  Na   0.642075   0.513947
     7  Na   0.468187   0.121283
 Sum of Mulliken charges =  -0.00000   1.00000

 Dipole moment (field-independent basis, Debye):
    X=             -0.5361    Y=              0.0616    Z=             -0.8332  Tot=              0.9927
 Quadrupole moment (field-independent basis, Debye-Ang):
   XX=            -62.5377   YY=            -63.1796   ZZ=            -71.0532
   XY=             -3.1165   XZ=             -3.6798   YZ=             -0.3201

 Normal termination of Gaussian 16 at Wed Nov 29 16:40:10 2023.
