 Gaussian 16, Revision B.01,
 Gaussian 16:  ES64L-G16RevB.01 20-Dec-2017

 -------------------------
 #P B3LYP/6-311+g(d) force
 -------------------------

 -----
 DPGEN
 -----
 Symbolic Z-matrix:
 Charge =  0 Multiplicity = 2

                         Standard orientation:
 ---------------------------------------------------------------------
 Center     Atomic      Atomic             Coordinates (Angstroms)
 Number     Number       Type             X           Y           Z
 ---------------------------------------------------------------------
      1         11           0        0.056817    0.358877    2.112487
      2         11           0        2.101152   -1.972511    0.023852
      3         11           0       -0.909595    3.084156    0.023313
      4         11           0       -1.156810   -2.646812    0.120994
      5         11           0        0.248053    0.043726   -1.488899
      6         11           0       -3.172555   -0.107951   -0.433491
      7         11           0        2.832938    1.240515   -0.358255
 ---------------------------------------------------------------------

 SCF Done:  E(UB3LYP) =  -1136.13530955     A.U. after   20 cycles

 The electronic state is 2-A.
 Alpha  occ. eigenvalues --  -38.44035 -38.44000 -38.43859 -38.43619 -38.43470
 Alpha  occ. eigenvalues --  -38.43199 -38.43123  -2.19867  -2.19850  -2.19648
 Alpha  occ. eigenvalues --   -2.19492  -2.19378  -2.19145  -2.19076  -1.13592
 Alpha  occ. eigenvalues --   -1.13523  -1.13520  -1.13518  -1.13485  -1.13481
 Alpha  occ. eigenvalues --   -1.13327  -1.13311  -1.13286  -1.13160  -1.13119
 Alpha  occ. eigenvalues --   -1.13109  -1.13101  -1.13024  -1.13016  -1.12826
 Alpha  occ. eigenvalues --   -1.12797  -1.12759  -1.12732  -1.12728  -1.12720
 Alpha  occ. eigenvalues --   -0.18673  -0.13015  -0.12502  -0.10715
 Alpha virt. eigenvalues --   -0.05748  -0.05090  -0.04754  -0.03082  -0.02933
 Alpha virt. eigenvalues --   -0.02508  -0.01508  -0.01247  -0.00497  -0.00248
 Alpha virt. eigenvalues --   -0.00012   0.00339   0.00813   0.00834   0.00912

  Beta  occ. eigenvalues --  -38.44025 -38.43989 -38.43858 -38.43519 -38.43463
  Beta  occ. eigenvalues --  -38.43195 -38.43070  -2.19849  -2.19834  -2.19649
  Beta  occ. eigenvalues --   -2.19370  -2.19307  -2.19072  -2.19050  -1.13573
  Beta  occ. eigenvalues --   -1.13512  -1.13499  -1.13497  -1.13471  -1.13467
  Beta  occ. eigenvalues --   -1.13313  -1.13307  -1.13290  -1.13101  -1.13035
  Beta  occ. eigenvalues --   -1.13017  -1.12994  -1.12988  -1.12964  -1.12772
  Beta  occ. eigenvalues --   -1.12748  -1.12728  -1.12703  -1.12691  -1.12686
  Beta  occ. eigenvalues --   -0.17963  -0.12743  -0.12282
  Beta virt. eigenvalues --   -0.06813  -0.05707  -0.05020  -0.04731  -0.02334
  Beta virt. eigenvalues --   -0.02169  -0.01488  -0.01398  -0.01159  -0.00521
  Beta virt. eigenvalues --   -0.00299   0.00138   0.00380   0.00820   0.00880

 Mulliken charges and spin densities:
               1          2
     1  Na  -0.552152   0.703272
     2  Na   0.350813   0.106871
     3  Na   0.040186  -0.075565
     4  Na   0.115890   0.051902
     5  Na  -0.533072   0.186292
     6  Na   0.108884   0.017808
     7  Na   0.469452   0.009420
 Sum of Mulliken charges =  -0.00000   1.00000

 Dipole moment (field-independent basis, Debye):
    X=              0.0077    Y=              0.3773    Z=              0.1675  Tot=              0.4129
 Quadrupole moment (field-independent basis, Debye-Ang):
   XX=            -57.5127   YY=            -61.1235   ZZ=            -74.6763
   XY=             -0.1698   XZ=              0.6048   YZ=             -0.9683

 Normal termination of Gaussian 16 at Thu Dec  7 11:24:52 2023.
