 Gaussian 16, Revision B.01,
 Gaussian 16:  ES64L-G16RevB.01 20-Dec-2017

 -------------------------
 #P B3LYP/6-311+g(d) force
 -------------------------

 -----
 DPGEN
 -----
 Symbolic Z-matrix:
 Charge =  0 Multiplicity = 2

                         Standard orientation:
 ---------------------------------------------------------------------
 Center     Atomic      Atomic             Coordinates (Angstroms)
 Number     Number       Type             X           Y           Z
 ---------------------------------------------------------------------
      1         11           0       -3.821730   -0.070028    1.266960
      2         11           0       -1.460483    1.889516   -0.947627
      3         11           0        4.107337   -0.623625    0.838144
      4         11           0        2.155633    1.894851   -0.522082
      5         11           0       -2.337675   -1.422238   -1.042180
      6         11           0        1.332452   -1.769970   -0.997999
      7         11           0        0.024466    0.101494    1.404784
 ---------------------------------------------------------------------

 SCF Done:  E(UB3LYP) =  -1136.12072228     A.U. after   26 cycles

 The electronic state is 2-A.
 Alpha  occ. eigenvalues --  -38.45580 -38.44302 -38.44201 -38.43892 -38.43461
 Alpha  occ. eigenvalues --  -38.43459 -38.43167  -2.21458  -2.20122  -2.20067
 Alpha  occ. eigenvalues --   -2.19786  -2.19319  -2.19308  -2.19030  -1.15179
 Alpha  occ. eigenvalues --   -1.15099  -1.15082  -1.13788  -1.13772  -1.13770
 Alpha  occ. eigenvalues --   -1.13739  -1.13708  -1.13681  -1.13458  -1.13435
 Alpha  occ. eigenvalues --   -1.13413  -1.13026  -1.13003  -1.12993  -1.12971
 Alpha  occ. eigenvalues --   -1.12925  -1.12916  -1.12716  -1.12710  -1.12638
 Alpha  occ. eigenvalues --   -0.18387  -0.14660  -0.11069  -0.10699
 Alpha virt. eigenvalues --   -0.07118  -0.05261  -0.04967  -0.03138  -0.03062
 Alpha virt. eigenvalues --   -0.02233  -0.01881  -0.01222  -0.01151  -0.00309
 Alpha virt. eigenvalues --   -0.00081   0.00252   0.00285   0.00444   0.00710

  Beta  occ. eigenvalues --  -38.45574 -38.44257 -38.44133 -38.43868 -38.43462
  Beta  occ. eigenvalues --  -38.43418 -38.43160  -2.21449  -2.20036  -2.19939
  Beta  occ. eigenvalues --   -2.19747  -2.19314  -2.19247  -2.19021  -1.15146
  Beta  occ. eigenvalues --   -1.15099  -1.15082  -1.13729  -1.13709  -1.13693
  Beta  occ. eigenvalues --   -1.13687  -1.13621  -1.13592  -1.13433  -1.13413
  Beta  occ. eigenvalues --   -1.13339  -1.13004  -1.12995  -1.12981  -1.12927
  Beta  occ. eigenvalues --   -1.12912  -1.12843  -1.12710  -1.12691  -1.12630
  Beta  occ. eigenvalues --   -0.17789  -0.14189  -0.10676
  Beta virt. eigenvalues --   -0.07230  -0.06906  -0.05149  -0.04309  -0.02905
  Beta virt. eigenvalues --   -0.02859  -0.01789  -0.01316  -0.01092  -0.00729
  Beta virt. eigenvalues --   -0.00189   0.00050   0.00314   0.00399   0.00596

 Mulliken charges and spin densities:
               1          2
     1  Na   0.578695   0.413901
     2  Na  -0.172678   0.139916
     3  Na   0.674533   0.312001
     4  Na   0.082452   0.067396
     5  Na   0.044456   0.099022
     6  Na  -0.255517   0.181502
     7  Na  -0.951941  -0.213737
 Sum of Mulliken charges =  -0.00000   1.00000

 Dipole moment (field-independent basis, Debye):
    X=              0.1897    Y=              0.2733    Z=              0.1741  Tot=              0.3755
 Quadrupole moment (field-independent basis, Debye-Ang):
   XX=            -56.6559   YY=            -79.1172   ZZ=            -64.1999
   XY=             -0.2241   XZ=              1.5576   YZ=             -0.7258

 Normal termination of Gaussian 16 at Tue Dec  5 18:14:22 2023.
