 Gaussian 16, Revision B.01,
 Gaussian 16:  ES64L-G16RevB.01 20-Dec-2017

 -------------------------
 #P B3LYP/6-311+g(d) force
 -------------------------

 -----
 DPGEN
 -----
 Symbolic Z-matrix:
 Charge =  0 Multiplicity = 2

                         Standard orientation:
 ---------------------------------------------------------------------
 Center     Atomic      Atomic             Coordinates (Angstroms)
 Number     Number       Type             X           Y           Z
 ---------------------------------------------------------------------
      1         11           0        0.785333    2.746001    0.489446
      2         11           0        0.466549   -2.336879    0.830008
      3         11           0       -2.948649   -1.429975   -0.983130
      4         11           0        0.832152    0.133182   -1.982847
      5         11           0       -2.204536    1.516185   -0.323222
      6         11           0        3.891524   -0.544765   -0.236149
      7         11           0       -0.822373   -0.083749    2.205893
 ---------------------------------------------------------------------

 SCF Done:  E(UB3LYP) =  -1136.12405072     A.U. after   21 cycles

 The electronic state is 2-A.
 Alpha  occ. eigenvalues --  -38.44802 -38.44541 -38.44309 -38.44162 -38.43494
 Alpha  occ. eigenvalues --  -38.43322 -38.43087  -2.20543  -2.20364  -2.20232
 Alpha  occ. eigenvalues --   -2.19989  -2.19348  -2.19244  -2.18915  -1.14222
 Alpha  occ. eigenvalues --   -1.14202  -1.14179  -1.14044  -1.14010  -1.13980
 Alpha  occ. eigenvalues --   -1.13964  -1.13861  -1.13824  -1.13694  -1.13638
 Alpha  occ. eigenvalues --   -1.13596  -1.13074  -1.12993  -1.12927  -1.12924
 Alpha  occ. eigenvalues --   -1.12913  -1.12879  -1.12587  -1.12577  -1.12545
 Alpha  occ. eigenvalues --   -0.18161  -0.12919  -0.11862  -0.11668
 Alpha virt. eigenvalues --   -0.06375  -0.04707  -0.04162  -0.03443  -0.03290
 Alpha virt. eigenvalues --   -0.03054  -0.02096  -0.00928  -0.00361  -0.00108
 Alpha virt. eigenvalues --    0.00101   0.00233   0.00461   0.00705   0.00852

  Beta  occ. eigenvalues --  -38.44808 -38.44497 -38.44215 -38.44125 -38.43465
  Beta  occ. eigenvalues --  -38.43308 -38.43080  -2.20554  -2.20281  -2.20062
  Beta  occ. eigenvalues --   -2.19923  -2.19300  -2.19223  -2.18903  -1.14224
  Beta  occ. eigenvalues --   -1.14209  -1.14187  -1.13991  -1.13954  -1.13917
  Beta  occ. eigenvalues --   -1.13841  -1.13746  -1.13702  -1.13646  -1.13587
  Beta  occ. eigenvalues --   -1.13551  -1.13023  -1.12949  -1.12912  -1.12901
  Beta  occ. eigenvalues --   -1.12886  -1.12847  -1.12575  -1.12566  -1.12533
  Beta  occ. eigenvalues --   -0.17393  -0.12669  -0.11555
  Beta virt. eigenvalues --   -0.07835  -0.06174  -0.04576  -0.03935  -0.03041
  Beta virt. eigenvalues --   -0.02493  -0.02305  -0.01846  -0.00850  -0.00153
  Beta virt. eigenvalues --   -0.00068   0.00098   0.00318   0.00566   0.00800

 Mulliken charges and spin densities:
               1          2
     1  Na  -0.016829  -0.112350
     2  Na  -0.066106   0.020895
     3  Na   0.035514   0.138126
     4  Na  -0.377105   0.529327
     5  Na   0.251512   0.161511
     6  Na   0.117816  -0.095166
     7  Na   0.055197   0.357657
 Sum of Mulliken charges =  -0.00000   1.00000

 Dipole moment (field-independent basis, Debye):
    X=              0.6002    Y=             -0.1256    Z=             -0.1785  Tot=              0.6387
 Quadrupole moment (field-independent basis, Debye-Ang):
   XX=            -55.7233   YY=            -71.8275   ZZ=            -68.1563
   XY=              1.5437   XZ=              2.7050   YZ=              2.1891

 Normal termination of Gaussian 16 at Mon Dec  4 04:28:47 2023.
