 Gaussian 16, Revision B.01,
 Gaussian 16:  ES64L-G16RevB.01 20-Dec-2017

 -------------------------
 #P B3LYP/6-311+g(d) force
 -------------------------

 -----
 DPGEN
 -----
 Symbolic Z-matrix:
 Charge =  0 Multiplicity = 2

                         Standard orientation:
 ---------------------------------------------------------------------
 Center     Atomic      Atomic             Coordinates (Angstroms)
 Number     Number       Type             X           Y           Z
 ---------------------------------------------------------------------
      1         11           0       -0.528859    2.450130    0.836973
      2         11           0       -0.422548    0.050719   -1.562102
      3         11           0       -3.168556    0.340822   -0.361617
      4         11           0       -1.114463   -2.202793    0.747878
      5         11           0        1.672249   -1.877773   -0.769470
      6         11           0        1.303086   -0.296557    1.827224
      7         11           0        2.259091    1.535453   -0.718885
 ---------------------------------------------------------------------

 SCF Done:  E(UB3LYP) =  -1136.13065684     A.U. after   18 cycles

 The electronic state is 2-A.
 Alpha  occ. eigenvalues --  -38.43661 -38.43644 -38.43427 -38.43341 -38.43338
 Alpha  occ. eigenvalues --  -38.43255 -38.43234  -2.19650  -2.19512  -2.19367
 Alpha  occ. eigenvalues --   -2.19358  -2.19334  -2.19223  -2.19165  -1.13364
 Alpha  occ. eigenvalues --   -1.13319  -1.13305  -1.13272  -1.13190  -1.13161
 Alpha  occ. eigenvalues --   -1.13138  -1.13101  -1.13018  -1.13005  -1.12992
 Alpha  occ. eigenvalues --   -1.12966  -1.12947  -1.12926  -1.12901  -1.12896
 Alpha  occ. eigenvalues --   -1.12870  -1.12842  -1.12829  -1.12812  -1.12762
 Alpha  occ. eigenvalues --   -0.19593  -0.13115  -0.12588  -0.11631
 Alpha virt. eigenvalues --   -0.05171  -0.04637  -0.04333  -0.03414  -0.03325
 Alpha virt. eigenvalues --   -0.02848  -0.01154  -0.00756  -0.00271   0.00292
 Alpha virt. eigenvalues --    0.00387   0.00477   0.00941   0.00943   0.00970

  Beta  occ. eigenvalues --  -38.43642 -38.43590 -38.43410 -38.43323 -38.43314
  Beta  occ. eigenvalues --  -38.43216 -38.43190  -2.19519  -2.19511  -2.19332
  Beta  occ. eigenvalues --   -2.19304  -2.19243  -2.19191  -2.19136  -1.13295
  Beta  occ. eigenvalues --   -1.13270  -1.13221  -1.13180  -1.13157  -1.13140
  Beta  occ. eigenvalues --   -1.13134  -1.13064  -1.12987  -1.12968  -1.12936
  Beta  occ. eigenvalues --   -1.12918  -1.12915  -1.12881  -1.12860  -1.12843
  Beta  occ. eigenvalues --   -1.12818  -1.12811  -1.12805  -1.12772  -1.12740
  Beta  occ. eigenvalues --   -0.18818  -0.12901  -0.12336
  Beta virt. eigenvalues --   -0.07507  -0.05091  -0.04608  -0.04256  -0.02776
  Beta virt. eigenvalues --   -0.02557  -0.01733  -0.01073  -0.00718  -0.00031
  Beta virt. eigenvalues --    0.00311   0.00428   0.00450   0.00942   0.00989

 Mulliken charges and spin densities:
               1          2
     1  Na  -0.348304   0.066771
     2  Na  -0.365677   0.314346
     3  Na   0.418982   0.011390
     4  Na  -0.270145   0.080081
     5  Na   0.451568   0.004323
     6  Na  -0.085127   0.544411
     7  Na   0.198704  -0.021321
 Sum of Mulliken charges =  -0.00000   1.00000

 Dipole moment (field-independent basis, Debye):
    X=             -0.0522    Y=              0.1339    Z=              0.2834  Tot=              0.3177
 Quadrupole moment (field-independent basis, Debye-Ang):
   XX=            -59.3266   YY=            -66.6504   ZZ=            -68.9043
   XY=              0.1352   XZ=             -2.1797   YZ=              0.2996

 Normal termination of Gaussian 16 at Tue Dec  5 12:33:15 2023.
