 Gaussian 16, Revision B.01,
 Gaussian 16:  ES64L-G16RevB.01 20-Dec-2017

 -------------------------
 #P B3LYP/6-311+g(d) force
 -------------------------

 -----
 DPGEN
 -----
 Symbolic Z-matrix:
 Charge =  0 Multiplicity = 2

                         Standard orientation:
 ---------------------------------------------------------------------
 Center     Atomic      Atomic             Coordinates (Angstroms)
 Number     Number       Type             X           Y           Z
 ---------------------------------------------------------------------
      1         11           0       -0.390141   -0.031044   -1.461510
      2         11           0        0.289823    3.139440   -0.224942
      3         11           0       -2.863582    1.118392   -0.221755
      4         11           0       -2.253532   -2.398520    0.229986
      5         11           0        0.198903    0.351519    2.141793
      6         11           0        1.703494   -2.501718   -0.303443
      7         11           0        3.315036    0.321932   -0.160128
 ---------------------------------------------------------------------

 SCF Done:  E(UB3LYP) =  -1136.13375484     A.U. after   19 cycles

 The electronic state is 2-A.
 Alpha  occ. eigenvalues --  -38.44277 -38.44202 -38.43841 -38.43651 -38.43644
 Alpha  occ. eigenvalues --  -38.43572 -38.43182  -2.20077  -2.20060  -2.19640
 Alpha  occ. eigenvalues --   -2.19481  -2.19449  -2.19421  -2.19164  -1.13808
 Alpha  occ. eigenvalues --   -1.13750  -1.13745  -1.13716  -1.13711  -1.13660
 Alpha  occ. eigenvalues --   -1.13311  -1.13299  -1.13287  -1.13167  -1.13140
 Alpha  occ. eigenvalues --   -1.13130  -1.13119  -1.13112  -1.13086  -1.13081
 Alpha  occ. eigenvalues --   -1.13044  -1.13033  -1.12851  -1.12818  -1.12769
 Alpha  occ. eigenvalues --   -0.18198  -0.13071  -0.12296  -0.10423
 Alpha virt. eigenvalues --   -0.05776  -0.05400  -0.04936  -0.03100  -0.02783
 Alpha virt. eigenvalues --   -0.02383  -0.01618  -0.01361  -0.00692  -0.00562
 Alpha virt. eigenvalues --   -0.00016   0.00329   0.00753   0.00799   0.00845

  Beta  occ. eigenvalues --  -38.44275 -38.44192 -38.43838 -38.43644 -38.43640
  Beta  occ. eigenvalues --  -38.43469 -38.43133  -2.20075  -2.20047  -2.19636
  Beta  occ. eigenvalues --   -2.19471  -2.19446  -2.19230  -2.19077  -1.13792
  Beta  occ. eigenvalues --   -1.13752  -1.13730  -1.13714  -1.13683  -1.13655
  Beta  occ. eigenvalues --   -1.13302  -1.13289  -1.13285  -1.13156  -1.13125
  Beta  occ. eigenvalues --   -1.13123  -1.13104  -1.13101  -1.13082  -1.12956
  Beta  occ. eigenvalues --   -1.12913  -1.12899  -1.12786  -1.12750  -1.12709
  Beta  occ. eigenvalues --   -0.17514  -0.12844  -0.12098
  Beta virt. eigenvalues --   -0.06537  -0.05745  -0.05356  -0.04865  -0.02360
  Beta virt. eigenvalues --   -0.02071  -0.01532  -0.01343  -0.01273  -0.00731
  Beta virt. eigenvalues --   -0.00600   0.00148   0.00376   0.00796   0.00809

 Mulliken charges and spin densities:
               1          2
     1  Na  -0.143775   0.276642
     2  Na   0.077332  -0.084182
     3  Na   0.402135   0.010931
     4  Na   0.011243   0.025440
     5  Na  -0.530285   0.824961
     6  Na   0.100804  -0.008464
     7  Na   0.082546  -0.045327
 Sum of Mulliken charges =  -0.00000   1.00000

 Dipole moment (field-independent basis, Debye):
    X=             -0.0186    Y=              0.1128    Z=              0.1112  Tot=              0.1595
 Quadrupole moment (field-independent basis, Debye-Ang):
   XX=            -56.0534   YY=            -60.4187   ZZ=            -76.3721
   XY=              1.3877   XZ=             -1.2307   YZ=             -1.0584

 Normal termination of Gaussian 16 at Fri Dec  8 01:22:32 2023.
