 Gaussian 16, Revision B.01,
 Gaussian 16:  ES64L-G16RevB.01 20-Dec-2017

 -------------------------
 #P B3LYP/6-311+g(d) force
 -------------------------

 -----
 DPGEN
 -----
 Symbolic Z-matrix:
 Charge =  0 Multiplicity = 2

                         Standard orientation:
 ---------------------------------------------------------------------
 Center     Atomic      Atomic             Coordinates (Angstroms)
 Number     Number       Type             X           Y           Z
 ---------------------------------------------------------------------
      1         11           0        4.533549   -0.589638   -0.354615
      2         11           0        1.794503   -1.599658   -1.063850
      3         11           0       -0.727802   -2.758568    1.407584
      4         11           0       -2.573219   -0.386687   -0.887159
      5         11           0       -5.569199    0.597142    0.202613
      6         11           0        0.090884    2.434381   -0.712610
      7         11           0        2.451284    2.303029    1.408036
 ---------------------------------------------------------------------

 SCF Done:  E(UB3LYP) =  -1136.10711995     A.U. after   21 cycles

 The electronic state is 2-A.
 Alpha  occ. eigenvalues --  -38.44955 -38.44771 -38.44454 -38.44214 -38.43988
 Alpha  occ. eigenvalues --  -38.43945 -38.43888  -2.20717  -2.20570  -2.20229
 Alpha  occ. eigenvalues --   -2.20053  -2.19802  -2.19728  -2.19686  -1.14381
 Alpha  occ. eigenvalues --   -1.14354  -1.14340  -1.14203  -1.14202  -1.14192
 Alpha  occ. eigenvalues --   -1.13917  -1.13904  -1.13868  -1.13791  -1.13686
 Alpha  occ. eigenvalues --   -1.13657  -1.13477  -1.13460  -1.13427  -1.13425
 Alpha  occ. eigenvalues --   -1.13411  -1.13367  -1.13351  -1.13342  -1.13309
 Alpha  occ. eigenvalues --   -0.16194  -0.13817  -0.12001  -0.11226
 Alpha virt. eigenvalues --   -0.07128  -0.05105  -0.04275  -0.03583  -0.03156
 Alpha virt. eigenvalues --   -0.02701  -0.01965  -0.01544  -0.01168  -0.00947
 Alpha virt. eigenvalues --   -0.00448  -0.00247   0.00330   0.00589   0.00670

  Beta  occ. eigenvalues --  -38.44907 -38.44670 -38.44465 -38.44144 -38.43992
  Beta  occ. eigenvalues --  -38.43954 -38.43862  -2.20626  -2.20382  -2.20251
  Beta  occ. eigenvalues --   -2.19924  -2.19815  -2.19751  -2.19637  -1.14319
  Beta  occ. eigenvalues --   -1.14298  -1.14277  -1.14075  -1.14074  -1.14068
  Beta  occ. eigenvalues --   -1.13922  -1.13920  -1.13879  -1.13717  -1.13599
  Beta  occ. eigenvalues --   -1.13572  -1.13488  -1.13471  -1.13444  -1.13427
  Beta  occ. eigenvalues --   -1.13389  -1.13347  -1.13317  -1.13307  -1.13283
  Beta  occ. eigenvalues --   -0.15790  -0.12914  -0.11526
  Beta virt. eigenvalues --   -0.08027  -0.06924  -0.04609  -0.03972  -0.03441
  Beta virt. eigenvalues --   -0.03045  -0.02425  -0.01501  -0.01195  -0.00947
  Beta virt. eigenvalues --   -0.00505  -0.00297  -0.00085   0.00364   0.00629

 Mulliken charges and spin densities:
               1          2
     1  Na   0.161466   0.386663
     2  Na  -0.191225  -0.212809
     3  Na   0.173871   0.337390
     4  Na  -0.653680  -0.018917
     5  Na   0.449786   0.397175
     6  Na   0.012362   0.167385
     7  Na   0.047419  -0.056886
 Sum of Mulliken charges =  -0.00000   1.00000

 Dipole moment (field-independent basis, Debye):
    X=              0.0046    Y=             -0.0954    Z=              1.1928  Tot=              1.1967
 Quadrupole moment (field-independent basis, Debye-Ang):
   XX=            -61.1434   YY=            -75.4705   ZZ=            -62.8650
   XY=              2.3438   XZ=              0.4480   YZ=             -2.0423

 Normal termination of Gaussian 16 at Sun Dec  3 14:37:55 2023.
