 Gaussian 16, Revision B.01,
 Gaussian 16:  ES64L-G16RevB.01 20-Dec-2017

 -------------------------
 #P B3LYP/6-311+g(d) force
 -------------------------

 -----
 DPGEN
 -----
 Symbolic Z-matrix:
 Charge =  0 Multiplicity = 2

                         Standard orientation:
 ---------------------------------------------------------------------
 Center     Atomic      Atomic             Coordinates (Angstroms)
 Number     Number       Type             X           Y           Z
 ---------------------------------------------------------------------
      1         11           0        0.465350   -3.244899   -0.207534
      2         11           0        3.129779   -1.351890    1.805783
      3         11           0       -2.694539   -2.774023   -1.320861
      4         11           0       -3.500717    0.217839    1.039735
      5         11           0       -2.149430    3.477020    0.846660
      6         11           0        3.606177    0.933739   -0.479355
      7         11           0        1.143380    2.742214   -1.684428
 ---------------------------------------------------------------------

 SCF Done:  E(UB3LYP) =  -1136.10826389     A.U. after   21 cycles

 The electronic state is 2-A.
 Alpha  occ. eigenvalues --  -38.45094 -38.45068 -38.44545 -38.44406 -38.44394
 Alpha  occ. eigenvalues --  -38.44100 -38.44017  -2.20837  -2.20814  -2.20335
 Alpha  occ. eigenvalues --   -2.20202  -2.20153  -2.19912  -2.19804  -1.14522
 Alpha  occ. eigenvalues --   -1.14506  -1.14503  -1.14491  -1.14454  -1.14440
 Alpha  occ. eigenvalues --   -1.14010  -1.13987  -1.13956  -1.13882  -1.13865
 Alpha  occ. eigenvalues --   -1.13846  -1.13828  -1.13808  -1.13794  -1.13557
 Alpha  occ. eigenvalues --   -1.13551  -1.13539  -1.13465  -1.13448  -1.13444
 Alpha  occ. eigenvalues --   -0.15522  -0.13630  -0.13037  -0.10965
 Alpha virt. eigenvalues --   -0.07122  -0.05103  -0.04739  -0.03584  -0.03445
 Alpha virt. eigenvalues --   -0.02099  -0.01864  -0.01492  -0.01303  -0.01068
 Alpha virt. eigenvalues --   -0.01027  -0.00314  -0.00022   0.00457   0.00670

  Beta  occ. eigenvalues --  -38.45070 -38.45063 -38.44472 -38.44392 -38.44386
  Beta  occ. eigenvalues --  -38.44036 -38.43984  -2.20810  -2.20796  -2.20201
  Beta  occ. eigenvalues --   -2.20194  -2.20130  -2.19793  -2.19743  -1.14505
  Beta  occ. eigenvalues --   -1.14497  -1.14493  -1.14478  -1.14411  -1.14410
  Beta  occ. eigenvalues --   -1.13928  -1.13899  -1.13878  -1.13866  -1.13860
  Beta  occ. eigenvalues --   -1.13814  -1.13796  -1.13787  -1.13764  -1.13477
  Beta  occ. eigenvalues --   -1.13475  -1.13458  -1.13423  -1.13406  -1.13404
  Beta  occ. eigenvalues --   -0.14956  -0.12997  -0.12325
  Beta virt. eigenvalues --   -0.07818  -0.07255  -0.04664  -0.04223  -0.03412
  Beta virt. eigenvalues --   -0.03161  -0.01768  -0.01712  -0.01316  -0.01122
  Beta virt. eigenvalues --   -0.00861  -0.00762  -0.00032   0.00196   0.00456

 Mulliken charges and spin densities:
               1          2
     1  Na  -0.231887   0.081689
     2  Na  -0.021632   0.309977
     3  Na   0.238723   0.123593
     4  Na  -0.207882   0.112866
     5  Na   0.197485   0.042797
     6  Na   0.142055   0.014847
     7  Na  -0.116863   0.314230
 Sum of Mulliken charges =  -0.00000   1.00000

 Dipole moment (field-independent basis, Debye):
    X=             -0.2200    Y=             -0.1169    Z=              0.0853  Tot=              0.2633
 Quadrupole moment (field-independent basis, Debye-Ang):
   XX=            -65.4954   YY=            -67.4258   ZZ=            -68.4930
   XY=              0.7063   XZ=              1.5029   YZ=             -0.0621

 Normal termination of Gaussian 16 at Sun Dec  3 21:52:37 2023.
