 Gaussian 16, Revision B.01,
 Gaussian 16:  ES64L-G16RevB.01 20-Dec-2017

 -------------------------
 #P B3LYP/6-311+g(d) force
 -------------------------

 -----
 DPGEN
 -----
 Symbolic Z-matrix:
 Charge =  0 Multiplicity = 2

                         Standard orientation:
 ---------------------------------------------------------------------
 Center     Atomic      Atomic             Coordinates (Angstroms)
 Number     Number       Type             X           Y           Z
 ---------------------------------------------------------------------
      1         11           0        2.484087   -1.508086    0.039333
      2         11           0       -2.766438    2.656845   -0.535914
      3         11           0        3.968570    1.240852   -0.857032
      4         11           0       -0.786396   -2.798345   -1.210831
      5         11           0        1.047497    2.086097    0.864472
      6         11           0       -3.413949   -0.309437   -0.301989
      7         11           0       -0.533371   -1.367924    2.001962
 ---------------------------------------------------------------------

 SCF Done:  E(UB3LYP) =  -1136.12140805     A.U. after   20 cycles

 The electronic state is 2-A.
 Alpha  occ. eigenvalues --  -38.44466 -38.44399 -38.44207 -38.44097 -38.44080
 Alpha  occ. eigenvalues --  -38.44023 -38.43993  -2.20290  -2.20174  -2.20000
 Alpha  occ. eigenvalues --   -2.19933  -2.19911  -2.19818  -2.19817  -1.13988
 Alpha  occ. eigenvalues --   -1.13965  -1.13924  -1.13859  -1.13844  -1.13793
 Alpha  occ. eigenvalues --   -1.13674  -1.13668  -1.13654  -1.13639  -1.13598
 Alpha  occ. eigenvalues --   -1.13586  -1.13577  -1.13546  -1.13536  -1.13475
 Alpha  occ. eigenvalues --   -1.13473  -1.13468  -1.13449  -1.13443  -1.13425
 Alpha  occ. eigenvalues --   -0.17055  -0.13792  -0.12298  -0.10505
 Alpha virt. eigenvalues --   -0.06444  -0.06299  -0.04220  -0.03615  -0.02999
 Alpha virt. eigenvalues --   -0.02221  -0.01864  -0.01544  -0.01259  -0.00672
 Alpha virt. eigenvalues --   -0.00319   0.00233   0.00386   0.00489   0.00594

  Beta  occ. eigenvalues --  -38.44453 -38.44371 -38.44188 -38.44058 -38.44029
  Beta  occ. eigenvalues --  -38.44023 -38.43959  -2.20271  -2.20124  -2.19963
  Beta  occ. eigenvalues --   -2.19872  -2.19818  -2.19807  -2.19755  -1.13972
  Beta  occ. eigenvalues --   -1.13938  -1.13901  -1.13826  -1.13795  -1.13760
  Beta  occ. eigenvalues --   -1.13649  -1.13649  -1.13628  -1.13608  -1.13548
  Beta  occ. eigenvalues --   -1.13526  -1.13506  -1.13497  -1.13474  -1.13443
  Beta  occ. eigenvalues --   -1.13442  -1.13428  -1.13423  -1.13412  -1.13405
  Beta  occ. eigenvalues --   -0.16447  -0.13384  -0.12187
  Beta virt. eigenvalues --   -0.07006  -0.06338  -0.05804  -0.03918  -0.03282
  Beta virt. eigenvalues --   -0.02562  -0.01781  -0.01422  -0.01360  -0.01183
  Beta virt. eigenvalues --   -0.00617   0.00012   0.00354   0.00511   0.00585

 Mulliken charges and spin densities:
               1          2
     1  Na  -0.337827   0.190634
     2  Na   0.299988  -0.092880
     3  Na   0.426974   0.128993
     4  Na   0.084983   0.049603
     5  Na  -0.557246   0.088021
     6  Na  -0.337843   0.265942
     7  Na   0.420971   0.369687
 Sum of Mulliken charges =  -0.00000   1.00000

 Dipole moment (field-independent basis, Debye):
    X=              0.3785    Y=             -0.1396    Z=             -0.1214  Tot=              0.4213
 Quadrupole moment (field-independent basis, Debye-Ang):
   XX=            -65.2230   YY=            -63.9783   ZZ=            -70.4856
   XY=              1.9849   XZ=             -1.9339   YZ=             -0.9432

 Normal termination of Gaussian 16 at Sun Dec  3 14:23:58 2023.
