 Gaussian 16, Revision B.01,
 Gaussian 16:  ES64L-G16RevB.01 20-Dec-2017

 -------------------------
 #P B3LYP/6-311+g(d) force
 -------------------------

 -----
 DPGEN
 -----
 Symbolic Z-matrix:
 Charge =  0 Multiplicity = 2

                         Standard orientation:
 ---------------------------------------------------------------------
 Center     Atomic      Atomic             Coordinates (Angstroms)
 Number     Number       Type             X           Y           Z
 ---------------------------------------------------------------------
      1         11           0        2.620985   -2.541379    0.119094
      2         11           0        0.537011   -0.461217    1.996571
      3         11           0        2.851751    1.240972   -0.567406
      4         11           0       -2.394934    0.480636    1.464859
      5         11           0       -0.426997   -0.296631   -1.873192
      6         11           0       -0.019015    2.982185   -0.212723
      7         11           0       -3.168802   -1.404565   -0.927204
 ---------------------------------------------------------------------

 SCF Done:  E(UB3LYP) =  -1136.12573889     A.U. after   21 cycles

 The electronic state is 2-A.
 Alpha  occ. eigenvalues --  -38.44665 -38.44389 -38.44336 -38.44198 -38.44143
 Alpha  occ. eigenvalues --  -38.43282 -38.42799  -2.20530  -2.20209  -2.20196
 Alpha  occ. eigenvalues --   -2.20061  -2.20041  -2.19061  -2.18617  -1.14215
 Alpha  occ. eigenvalues --   -1.14180  -1.14162  -1.13934  -1.13890  -1.13865
 Alpha  occ. eigenvalues --   -1.13841  -1.13837  -1.13803  -1.13779  -1.13727
 Alpha  occ. eigenvalues --   -1.13701  -1.13683  -1.13655  -1.13606  -1.12733
 Alpha  occ. eigenvalues --   -1.12726  -1.12702  -1.12290  -1.12278  -1.12268
 Alpha  occ. eigenvalues --   -0.18072  -0.13406  -0.11963  -0.11469
 Alpha virt. eigenvalues --   -0.05923  -0.05156  -0.04610  -0.03466  -0.03306
 Alpha virt. eigenvalues --   -0.02759  -0.01811  -0.01103  -0.00527  -0.00103
 Alpha virt. eigenvalues --    0.00145   0.00271   0.00452   0.00566   0.00745

  Beta  occ. eigenvalues --  -38.44596 -38.44381 -38.44261 -38.44173 -38.44094
  Beta  occ. eigenvalues --  -38.43287 -38.42800  -2.20405  -2.20182  -2.20073
  Beta  occ. eigenvalues --   -2.20018  -2.19956  -2.19070  -2.18621  -1.14133
  Beta  occ. eigenvalues --   -1.14082  -1.14074  -1.13874  -1.13853  -1.13837
  Beta  occ. eigenvalues --   -1.13797  -1.13751  -1.13748  -1.13733  -1.13678
  Beta  occ. eigenvalues --   -1.13658  -1.13617  -1.13598  -1.13553  -1.12734
  Beta  occ. eigenvalues --   -1.12731  -1.12709  -1.12291  -1.12282  -1.12258
  Beta  occ. eigenvalues --   -0.17287  -0.13218  -0.11340
  Beta virt. eigenvalues --   -0.07857  -0.05787  -0.05005  -0.04105  -0.03171
  Beta virt. eigenvalues --   -0.02372  -0.02220  -0.01682  -0.00972  -0.00350
  Beta virt. eigenvalues --   -0.00052   0.00189   0.00348   0.00631   0.00721

 Mulliken charges and spin densities:
               1          2
     1  Na   0.032586  -0.051774
     2  Na  -0.333413   0.288945
     3  Na   0.319769   0.051076
     4  Na   0.496808   0.152578
     5  Na  -0.054161   0.385782
     6  Na  -0.348789   0.076978
     7  Na  -0.112800   0.096415
 Sum of Mulliken charges =  -0.00000   1.00000

 Dipole moment (field-independent basis, Debye):
    X=             -0.2375    Y=             -0.1066    Z=             -0.2679  Tot=              0.3736
 Quadrupole moment (field-independent basis, Debye-Ang):
   XX=            -57.6265   YY=            -70.3631   ZZ=            -69.1123
   XY=              1.1833   XZ=             -2.1019   YZ=              2.7431

 Normal termination of Gaussian 16 at Sun Dec  3 14:12:37 2023.
