 Gaussian 16, Revision B.01,
 Gaussian 16:  ES64L-G16RevB.01 20-Dec-2017

 -------------------------
 #P B3LYP/6-311+g(d) force
 -------------------------

 -----
 DPGEN
 -----
 Symbolic Z-matrix:
 Charge =  0 Multiplicity = 2

                         Standard orientation:
 ---------------------------------------------------------------------
 Center     Atomic      Atomic             Coordinates (Angstroms)
 Number     Number       Type             X           Y           Z
 ---------------------------------------------------------------------
      1         11           0        3.287306   -0.219555    0.295753
      2         11           0        0.889854   -2.756508   -0.344192
      3         11           0       -0.502094   -0.384977   -1.829919
      4         11           0       -2.124645    2.423289   -0.198014
      5         11           0       -2.960830   -1.350122    0.349020
      6         11           0        1.732648    2.369828   -0.202172
      7         11           0       -0.322239   -0.081955    1.929525
 ---------------------------------------------------------------------

 SCF Done:  E(UB3LYP) =  -1136.13303874     A.U. after   19 cycles

 The electronic state is 2-A.
 Alpha  occ. eigenvalues --  -38.44542 -38.44063 -38.43913 -38.43819 -38.43523
 Alpha  occ. eigenvalues --  -38.43436 -38.43414  -2.20363  -2.19898  -2.19704
 Alpha  occ. eigenvalues --   -2.19699  -2.19361  -2.19354  -2.19261  -1.14048
 Alpha  occ. eigenvalues --   -1.14026  -1.13986  -1.13613  -1.13553  -1.13531
 Alpha  occ. eigenvalues --   -1.13382  -1.13377  -1.13361  -1.13342  -1.13330
 Alpha  occ. eigenvalues --   -1.13319  -1.13090  -1.13032  -1.13019  -1.13004
 Alpha  occ. eigenvalues --   -1.12992  -1.12984  -1.12914  -1.12902  -1.12874
 Alpha  occ. eigenvalues --   -0.18290  -0.13201  -0.12181  -0.10755
 Alpha virt. eigenvalues --   -0.06021  -0.05451  -0.04418  -0.03324  -0.02845
 Alpha virt. eigenvalues --   -0.02593  -0.01739  -0.01288  -0.00558  -0.00274
 Alpha virt. eigenvalues --   -0.00040   0.00338   0.00736   0.00783   0.00811

  Beta  occ. eigenvalues --  -38.44529 -38.44062 -38.43907 -38.43740 -38.43522
  Beta  occ. eigenvalues --  -38.43403 -38.43360  -2.20343  -2.19897  -2.19696
  Beta  occ. eigenvalues --   -2.19554  -2.19356  -2.19247  -2.19218  -1.14022
  Beta  occ. eigenvalues --   -1.13998  -1.13976  -1.13616  -1.13541  -1.13531
  Beta  occ. eigenvalues --   -1.13362  -1.13360  -1.13336  -1.13275  -1.13227
  Beta  occ. eigenvalues --   -1.13214  -1.13033  -1.13025  -1.13006  -1.12987
  Beta  occ. eigenvalues --   -1.12912  -1.12897  -1.12891  -1.12871  -1.12828
  Beta  occ. eigenvalues --   -0.17587  -0.12988  -0.11928
  Beta virt. eigenvalues --   -0.06894  -0.05949  -0.05414  -0.04341  -0.02610
  Beta virt. eigenvalues --   -0.02112  -0.01625  -0.01572  -0.01221  -0.00585
  Beta virt. eigenvalues --   -0.00306   0.00105   0.00382   0.00790   0.00836

 Mulliken charges and spin densities:
               1          2
     1  Na  -0.040713  -0.016274
     2  Na   0.195180  -0.075658
     3  Na  -0.050518   0.635443
     4  Na  -0.046632  -0.082235
     5  Na   0.222063  -0.100624
     6  Na  -0.078632  -0.057447
     7  Na  -0.200747   0.696795
 Sum of Mulliken charges =  -0.00000   1.00000

 Dipole moment (field-independent basis, Debye):
    X=             -0.4993    Y=             -0.1580    Z=              0.1446  Tot=              0.5433
 Quadrupole moment (field-independent basis, Debye-Ang):
   XX=            -55.0779   YY=            -64.7658   ZZ=            -74.4458
   XY=             -0.5103   XZ=              0.2152   YZ=             -0.9391

 Normal termination of Gaussian 16 at Thu Dec  7 03:16:40 2023.
