 Gaussian 16, Revision B.01,
 Gaussian 16:  ES64L-G16RevB.01 20-Dec-2017

 -------------------------
 #P B3LYP/6-311+g(d) force
 -------------------------

 -----
 DPGEN
 -----
 Symbolic Z-matrix:
 Charge =  0 Multiplicity = 2

                         Standard orientation:
 ---------------------------------------------------------------------
 Center     Atomic      Atomic             Coordinates (Angstroms)
 Number     Number       Type             X           Y           Z
 ---------------------------------------------------------------------
      1         11           0       -3.024617    1.998118    0.071306
      2         11           0        0.430601    3.409412   -1.112102
      3         11           0       -4.512109   -0.548174    0.931831
      4         11           0       -1.632710   -2.569323   -0.678570
      5         11           0        1.936948   -3.407309   -0.846410
      6         11           0        3.221055   -1.406619    1.168145
      7         11           0        3.580832    2.523894    0.465800
 ---------------------------------------------------------------------

 SCF Done:  E(UB3LYP) =  -1136.10560280     A.U. after   23 cycles

 The electronic state is 2-A.
 Alpha  occ. eigenvalues --  -38.45734 -38.45370 -38.44916 -38.44421 -38.44167
 Alpha  occ. eigenvalues --  -38.44018 -38.43696  -2.21480  -2.21161  -2.20638
 Alpha  occ. eigenvalues --   -2.20217  -2.19967  -2.19853  -2.19471  -1.15165
 Alpha  occ. eigenvalues --   -1.15149  -1.15074  -1.14841  -1.14821  -1.14818
 Alpha  occ. eigenvalues --   -1.14331  -1.14310  -1.14279  -1.13917  -1.13876
 Alpha  occ. eigenvalues --   -1.13850  -1.13634  -1.13626  -1.13605  -1.13525
 Alpha  occ. eigenvalues --   -1.13494  -1.13474  -1.13136  -1.13127  -1.13089
 Alpha  occ. eigenvalues --   -0.15610  -0.13926  -0.13009  -0.10512
 Alpha virt. eigenvalues --   -0.07774  -0.05119  -0.04625  -0.03688  -0.03312
 Alpha virt. eigenvalues --   -0.02320  -0.02077  -0.01750  -0.01166  -0.01128
 Alpha virt. eigenvalues --   -0.00939  -0.00213   0.00045   0.00370   0.00609

  Beta  occ. eigenvalues --  -38.45681 -38.45348 -38.44934 -38.44384 -38.44176
  Beta  occ. eigenvalues --  -38.43976 -38.43641  -2.21382  -2.21126  -2.20673
  Beta  occ. eigenvalues --   -2.20145  -2.19987  -2.19777  -2.19368  -1.15099
  Beta  occ. eigenvalues --   -1.15085  -1.14992  -1.14820  -1.14805  -1.14749
  Beta  occ. eigenvalues --   -1.14357  -1.14335  -1.14288  -1.13884  -1.13825
  Beta  occ. eigenvalues --   -1.13801  -1.13649  -1.13636  -1.13592  -1.13469
  Beta  occ. eigenvalues --   -1.13442  -1.13425  -1.13065  -1.13056  -1.13023
  Beta  occ. eigenvalues --   -0.15065  -0.13528  -0.12593
  Beta virt. eigenvalues --   -0.07633  -0.07200  -0.04684  -0.04090  -0.03505
  Beta virt. eigenvalues --   -0.03023  -0.02146  -0.01903  -0.01658  -0.01030
  Beta virt. eigenvalues --   -0.00800  -0.00633   0.00074   0.00295   0.00407

 Mulliken charges and spin densities:
               1          2
     1  Na  -0.188717   0.177476
     2  Na  -0.049185   0.254347
     3  Na   0.491041   0.199103
     4  Na  -0.257009   0.300874
     5  Na   0.172165  -0.047917
     6  Na  -0.348779   0.196231
     7  Na   0.180485  -0.080114
 Sum of Mulliken charges =  -0.00000   1.00000

 Dipole moment (field-independent basis, Debye):
    X=             -0.7105    Y=             -0.6742    Z=              0.1042  Tot=              0.9850
 Quadrupole moment (field-independent basis, Debye-Ang):
   XX=            -62.4167   YY=            -66.8882   ZZ=            -71.2005
   XY=              2.1559   XZ=             -0.7401   YZ=              1.1913

 Normal termination of Gaussian 16 at Sun Dec  3 14:11:28 2023.
