 Gaussian 16, Revision B.01,
 Gaussian 16:  ES64L-G16RevB.01 20-Dec-2017

 -------------------------
 #P B3LYP/6-311+g(d) force
 -------------------------

 -----
 DPGEN
 -----
 Symbolic Z-matrix:
 Charge =  0 Multiplicity = 2

                         Standard orientation:
 ---------------------------------------------------------------------
 Center     Atomic      Atomic             Coordinates (Angstroms)
 Number     Number       Type             X           Y           Z
 ---------------------------------------------------------------------
      1         11           0        3.552544    0.330680    0.523700
      2         11           0       -1.199687   -1.546621   -1.120885
      3         11           0        0.348190    0.290344    1.591577
      4         11           0        2.359671   -2.417925   -0.704618
      5         11           0       -3.609379   -0.943093    1.250824
      6         11           0       -2.629523    1.544290   -1.111725
      7         11           0        1.178184    2.742325   -0.428873
 ---------------------------------------------------------------------

 SCF Done:  E(UB3LYP) =  -1136.12291163     A.U. after   23 cycles

 The electronic state is 2-A.
 Alpha  occ. eigenvalues --  -38.44796 -38.44770 -38.44494 -38.44388 -38.43896
 Alpha  occ. eigenvalues --  -38.43340 -38.43197  -2.20645  -2.20617  -2.20312
 Alpha  occ. eigenvalues --   -2.20213  -2.19744  -2.19151  -2.19009  -1.14350
 Alpha  occ. eigenvalues --   -1.14324  -1.14294  -1.14290  -1.14252  -1.14221
 Alpha  occ. eigenvalues --   -1.13994  -1.13958  -1.13938  -1.13874  -1.13856
 Alpha  occ. eigenvalues --   -1.13828  -1.13441  -1.13417  -1.13349  -1.12836
 Alpha  occ. eigenvalues --   -1.12827  -1.12779  -1.12684  -1.12665  -1.12656
 Alpha  occ. eigenvalues --   -0.17730  -0.14243  -0.11707  -0.10366
 Alpha virt. eigenvalues --   -0.06873  -0.05607  -0.05021  -0.03374  -0.02635
 Alpha virt. eigenvalues --   -0.02537  -0.01962  -0.01390  -0.00795  -0.00438
 Alpha virt. eigenvalues --   -0.00207   0.00151   0.00303   0.00445   0.00655

  Beta  occ. eigenvalues --  -38.44767 -38.44767 -38.44449 -38.44327 -38.43867
  Beta  occ. eigenvalues --  -38.43346 -38.43190  -2.20611  -2.20592  -2.20230
  Beta  occ. eigenvalues --   -2.20099  -2.19694  -2.19162  -2.18998  -1.14310
  Beta  occ. eigenvalues --   -1.14301  -1.14284  -1.14262  -1.14249  -1.14199
  Beta  occ. eigenvalues --   -1.13928  -1.13903  -1.13878  -1.13795  -1.13771
  Beta  occ. eigenvalues --   -1.13756  -1.13411  -1.13358  -1.13311  -1.12847
  Beta  occ. eigenvalues --   -1.12836  -1.12770  -1.12678  -1.12654  -1.12644
  Beta  occ. eigenvalues --   -0.17235  -0.13992  -0.11418
  Beta virt. eigenvalues --   -0.06858  -0.06691  -0.05423  -0.04392  -0.03158
  Beta virt. eigenvalues --   -0.02436  -0.02058  -0.01349  -0.01178  -0.00520
  Beta virt. eigenvalues --   -0.00199  -0.00189   0.00224   0.00477   0.00612

 Mulliken charges and spin densities:
               1          2
     1  Na   0.830592   0.054374
     2  Na  -0.026539   0.383229
     3  Na  -0.419166   0.126433
     4  Na  -0.436416  -0.042032
     5  Na   0.333816   0.267786
     6  Na  -0.038686   0.179966
     7  Na  -0.243602   0.030244
 Sum of Mulliken charges =  -0.00000   1.00000

 Dipole moment (field-independent basis, Debye):
    X=             -0.0368    Y=              0.4695    Z=              0.0689  Tot=              0.4760
 Quadrupole moment (field-independent basis, Debye-Ang):
   XX=            -50.7202   YY=            -73.0872   ZZ=            -73.0574
   XY=              0.4820   XZ=              0.5286   YZ=             -1.8556

 Normal termination of Gaussian 16 at Sun Dec  3 14:39:46 2023.
