 Gaussian 16, Revision B.01,
 Gaussian 16:  ES64L-G16RevB.01 20-Dec-2017

 -------------------------
 #P B3LYP/6-311+g(d) force
 -------------------------

 -----
 DPGEN
 -----
 Symbolic Z-matrix:
 Charge =  0 Multiplicity = 2

                         Standard orientation:
 ---------------------------------------------------------------------
 Center     Atomic      Atomic             Coordinates (Angstroms)
 Number     Number       Type             X           Y           Z
 ---------------------------------------------------------------------
      1         11           0       -0.374124   -0.495109    2.130231
      2         11           0       -3.256889    0.523759   -0.202841
      3         11           0        2.986332    1.532427   -0.042406
      4         11           0        0.409812    0.207096   -1.226862
      5         11           0       -1.552302   -2.377153   -0.580371
      6         11           0       -0.503635    2.943603   -0.015375
      7         11           0        2.290807   -2.334623   -0.062377
 ---------------------------------------------------------------------

 SCF Done:  E(UB3LYP) =  -1136.13346356     A.U. after   19 cycles

 The electronic state is 2-A.
 Alpha  occ. eigenvalues --  -38.44385 -38.44144 -38.44090 -38.43630 -38.43543
 Alpha  occ. eigenvalues --  -38.43325 -38.42846  -2.20193  -2.19957  -2.19885
 Alpha  occ. eigenvalues --   -2.19462  -2.19408  -2.19193  -2.18881  -1.13896
 Alpha  occ. eigenvalues --   -1.13851  -1.13812  -1.13627  -1.13618  -1.13604
 Alpha  occ. eigenvalues --   -1.13566  -1.13545  -1.13520  -1.13187  -1.13120
 Alpha  occ. eigenvalues --   -1.13106  -1.13074  -1.13071  -1.13025  -1.12860
 Alpha  occ. eigenvalues --   -1.12819  -1.12799  -1.12572  -1.12527  -1.12510
 Alpha  occ. eigenvalues --   -0.18347  -0.13023  -0.12441  -0.10246
 Alpha virt. eigenvalues --   -0.05835  -0.05651  -0.04698  -0.02941  -0.02669
 Alpha virt. eigenvalues --   -0.02221  -0.01749  -0.01435  -0.00661  -0.00530
 Alpha virt. eigenvalues --   -0.00013   0.00303   0.00730   0.00780   0.00837

  Beta  occ. eigenvalues --  -38.44385 -38.44139 -38.44088 -38.43627 -38.43524
  Beta  occ. eigenvalues --  -38.43219 -38.42809  -2.20195  -2.19950  -2.19884
  Beta  occ. eigenvalues --   -2.19459  -2.19377  -2.18997  -2.18816  -1.13893
  Beta  occ. eigenvalues --   -1.13843  -1.13817  -1.13618  -1.13605  -1.13594
  Beta  occ. eigenvalues --   -1.13559  -1.13535  -1.13522  -1.13182  -1.13102
  Beta  occ. eigenvalues --   -1.13084  -1.13075  -1.13028  -1.13003  -1.12729
  Beta  occ. eigenvalues --   -1.12683  -1.12659  -1.12509  -1.12481  -1.12465
  Beta  occ. eigenvalues --   -0.17669  -0.12807  -0.12246
  Beta virt. eigenvalues --   -0.06320  -0.05785  -0.05627  -0.04635  -0.02250
  Beta virt. eigenvalues --   -0.01967  -0.01676  -0.01373  -0.01151  -0.00697
  Beta virt. eigenvalues --   -0.00526   0.00174   0.00366   0.00784   0.00798

 Mulliken charges and spin densities:
               1          2
     1  Na  -0.581401   0.762270
     2  Na   0.186479   0.046327
     3  Na   0.176173  -0.031556
     4  Na  -0.307141   0.186499
     5  Na   0.280633   0.092366
     6  Na   0.093085  -0.028835
     7  Na   0.152172  -0.027071
 Sum of Mulliken charges =  -0.00000   1.00000

 Dipole moment (field-independent basis, Debye):
    X=              0.3305    Y=              0.0790    Z=              0.1811  Tot=              0.3851
 Quadrupole moment (field-independent basis, Debye-Ang):
   XX=            -53.1236   YY=            -61.0342   ZZ=            -77.1786
   XY=             -0.9657   XZ=              1.4719   YZ=              1.3910

 Normal termination of Gaussian 16 at Fri Dec  8 01:56:53 2023.
