 Gaussian 16, Revision B.01,
 Gaussian 16:  ES64L-G16RevB.01 20-Dec-2017

 -------------------------
 #P B3LYP/6-311+g(d) force
 -------------------------

 -----
 DPGEN
 -----
 Symbolic Z-matrix:
 Charge =  0 Multiplicity = 2

                         Standard orientation:
 ---------------------------------------------------------------------
 Center     Atomic      Atomic             Coordinates (Angstroms)
 Number     Number       Type             X           Y           Z
 ---------------------------------------------------------------------
      1         11           0       -1.189950    2.941613   -0.093897
      2         11           0       -3.149396   -0.073662    0.310533
      3         11           0       -1.343233   -2.608341   -0.482562
      4         11           0       -0.030258   -0.354578    1.556456
      5         11           0        2.723310   -1.671187    0.154088
      6         11           0        0.276913    0.199406   -1.545437
      7         11           0        2.712614    1.566749    0.100820
 ---------------------------------------------------------------------

 SCF Done:  E(UB3LYP) =  -1136.13333344     A.U. after   20 cycles

 The electronic state is 2-A.
 Alpha  occ. eigenvalues --  -38.44320 -38.44223 -38.44090 -38.43369 -38.43288
 Alpha  occ. eigenvalues --  -38.43143 -38.42762  -2.20176  -2.20082  -2.19949
 Alpha  occ. eigenvalues --   -2.19174  -2.19171  -2.19131  -2.18769  -1.13872
 Alpha  occ. eigenvalues --   -1.13839  -1.13816  -1.13761  -1.13749  -1.13716
 Alpha  occ. eigenvalues --   -1.13619  -1.13602  -1.13582  -1.12897  -1.12856
 Alpha  occ. eigenvalues --   -1.12842  -1.12832  -1.12828  -1.12817  -1.12810
 Alpha  occ. eigenvalues --   -1.12744  -1.12731  -1.12468  -1.12394  -1.12368
 Alpha  occ. eigenvalues --   -0.18822  -0.13647  -0.12188  -0.10100
 Alpha virt. eigenvalues --   -0.05950  -0.05515  -0.04623  -0.03211  -0.02455
 Alpha virt. eigenvalues --   -0.01873  -0.01823  -0.01314  -0.00564  -0.00423
 Alpha virt. eigenvalues --    0.00046   0.00334   0.00725   0.00812   0.00860

  Beta  occ. eigenvalues --  -38.44314 -38.44214 -38.44082 -38.43369 -38.43273
  Beta  occ. eigenvalues --  -38.43082 -38.42688  -2.20169  -2.20068  -2.19937
  Beta  occ. eigenvalues --   -2.19177  -2.19146  -2.19021  -2.18636  -1.13868
  Beta  occ. eigenvalues --   -1.13820  -1.13804  -1.13751  -1.13720  -1.13708
  Beta  occ. eigenvalues --   -1.13607  -1.13586  -1.13564  -1.12858  -1.12850
  Beta  occ. eigenvalues --   -1.12833  -1.12814  -1.12803  -1.12779  -1.12771
  Beta  occ. eigenvalues --   -1.12666  -1.12657  -1.12374  -1.12299  -1.12269
  Beta  occ. eigenvalues --   -0.18135  -0.13376  -0.11944
  Beta virt. eigenvalues --   -0.06289  -0.05873  -0.05493  -0.04573  -0.02432
  Beta virt. eigenvalues --   -0.01812  -0.01727  -0.01262  -0.00916  -0.00550
  Beta virt. eigenvalues --   -0.00447   0.00188   0.00383   0.00781   0.00810

 Mulliken charges and spin densities:
               1          2
     1  Na  -0.112716  -0.097910
     2  Na   0.171941   0.037853
     3  Na   0.072322   0.031273
     4  Na  -0.234184   0.485862
     5  Na   0.299183   0.037450
     6  Na  -0.238549   0.570624
     7  Na   0.042004  -0.065153
 Sum of Mulliken charges =  -0.00000   1.00000

 Dipole moment (field-independent basis, Debye):
    X=              0.3073    Y=              0.0005    Z=              0.0502  Tot=              0.3113
 Quadrupole moment (field-independent basis, Debye-Ang):
   XX=            -52.0024   YY=            -61.3974   ZZ=            -77.6105
   XY=              0.0737   XZ=              0.3620   YZ=              1.3337

 Normal termination of Gaussian 16 at Wed Nov 29 03:13:29 2023.
