 Gaussian 16, Revision B.01,
 Gaussian 16:  ES64L-G16RevB.01 20-Dec-2017

 -------------------------
 #P B3LYP/6-311+g(d) force
 -------------------------

 -----
 DPGEN
 -----
 Symbolic Z-matrix:
 Charge =  0 Multiplicity = 2

                         Standard orientation:
 ---------------------------------------------------------------------
 Center     Atomic      Atomic             Coordinates (Angstroms)
 Number     Number       Type             X           Y           Z
 ---------------------------------------------------------------------
      1         11           0        2.683819   -3.242639    0.066243
      2         11           0       -2.414183    1.203238   -0.759931
      3         11           0        1.912172    0.151981   -1.699482
      4         11           0       -3.957927   -1.330559   -0.089462
      5         11           0        1.412477    3.630380   -0.164407
      6         11           0        0.544056    1.171049    2.198857
      7         11           0       -0.180414   -1.583450    0.448181
 ---------------------------------------------------------------------

 SCF Done:  E(UB3LYP) =  -1136.12258367     A.U. after   18 cycles

 The electronic state is 2-A.
 Alpha  occ. eigenvalues --  -38.44464 -38.44410 -38.44253 -38.44107 -38.44020
 Alpha  occ. eigenvalues --  -38.43763 -38.43378  -2.20286  -2.20209  -2.20025
 Alpha  occ. eigenvalues --   -2.19924  -2.19787  -2.19606  -2.19271  -1.13970
 Alpha  occ. eigenvalues --   -1.13961  -1.13935  -1.13909  -1.13871  -1.13789
 Alpha  occ. eigenvalues --   -1.13703  -1.13690  -1.13654  -1.13581  -1.13572
 Alpha  occ. eigenvalues --   -1.13550  -1.13463  -1.13452  -1.13427  -1.13284
 Alpha  occ. eigenvalues --   -1.13246  -1.13201  -1.12985  -1.12959  -1.12853
 Alpha  occ. eigenvalues --   -0.17275  -0.13061  -0.12330  -0.10591
 Alpha virt. eigenvalues --   -0.06327  -0.05560  -0.04730  -0.03070  -0.02938
 Alpha virt. eigenvalues --   -0.02429  -0.02035  -0.01859  -0.00758  -0.00332
 Alpha virt. eigenvalues --   -0.00107   0.00141   0.00556   0.00641   0.00674

  Beta  occ. eigenvalues --  -38.44452 -38.44350 -38.44259 -38.44107 -38.44018
  Beta  occ. eigenvalues --  -38.43671 -38.43352  -2.20265  -2.20098  -2.20037
  Beta  occ. eigenvalues --   -2.19924  -2.19787  -2.19436  -2.19227  -1.13958
  Beta  occ. eigenvalues --   -1.13944  -1.13914  -1.13834  -1.13794  -1.13710
  Beta  occ. eigenvalues --   -1.13707  -1.13694  -1.13660  -1.13579  -1.13568
  Beta  occ. eigenvalues --   -1.13551  -1.13463  -1.13437  -1.13426  -1.13166
  Beta  occ. eigenvalues --   -1.13131  -1.13083  -1.12959  -1.12889  -1.12831
  Beta  occ. eigenvalues --   -0.16598  -0.12840  -0.12248
  Beta virt. eigenvalues --   -0.06750  -0.06169  -0.05425  -0.04380  -0.02547
  Beta virt. eigenvalues --   -0.02488  -0.01958  -0.01840  -0.01640  -0.00721
  Beta virt. eigenvalues --   -0.00052   0.00037   0.00222   0.00667   0.00712

 Mulliken charges and spin densities:
               1          2
     1  Na   0.292207   0.040077
     2  Na  -0.493387   0.164317
     3  Na  -0.069957   0.308480
     4  Na   1.044580  -0.140697
     5  Na   0.056113   0.091907
     6  Na   0.331379   0.229097
     7  Na  -1.160935   0.306818
 Sum of Mulliken charges =  -0.00000   1.00000

 Dipole moment (field-independent basis, Debye):
    X=             -0.0880    Y=             -0.2736    Z=              0.0135  Tot=              0.2877
 Quadrupole moment (field-independent basis, Debye-Ang):
   XX=            -60.3355   YY=            -58.1313   ZZ=            -73.9822
   XY=             -0.2802   XZ=             -0.0689   YZ=             -2.2071

 Normal termination of Gaussian 16 at Mon Dec  4 05:18:59 2023.
