 Gaussian 16, Revision B.01,
 Gaussian 16:  ES64L-G16RevB.01 20-Dec-2017

 -------------------------
 #P B3LYP/6-311+g(d) force
 -------------------------

 -----
 DPGEN
 -----
 Symbolic Z-matrix:
 Charge =  0 Multiplicity = 2

                         Standard orientation:
 ---------------------------------------------------------------------
 Center     Atomic      Atomic             Coordinates (Angstroms)
 Number     Number       Type             X           Y           Z
 ---------------------------------------------------------------------
      1         11           0        0.991885    2.912207   -1.136989
      2         11           0       -2.320499    0.650179   -1.436378
      3         11           0       -3.872587   -1.198883    0.569928
      4         11           0       -1.081382    0.759623    1.805022
      5         11           0        0.320993   -1.951336   -0.648160
      6         11           0        3.245713   -2.627922   -0.259469
      7         11           0        2.715877    1.456133    1.106045
 ---------------------------------------------------------------------

 SCF Done:  E(UB3LYP) =  -1136.11963424     A.U. after   20 cycles

 The electronic state is 2-A.
 Alpha  occ. eigenvalues --  -38.45217 -38.44799 -38.44472 -38.44061 -38.43836
 Alpha  occ. eigenvalues --  -38.43557 -38.43287  -2.21034  -2.20617  -2.20265
 Alpha  occ. eigenvalues --   -2.19940  -2.19638  -2.19384  -2.19091  -1.14719
 Alpha  occ. eigenvalues --   -1.14683  -1.14665  -1.14306  -1.14295  -1.14200
 Alpha  occ. eigenvalues --   -1.13958  -1.13921  -1.13892  -1.13606  -1.13598
 Alpha  occ. eigenvalues --   -1.13561  -1.13313  -1.13282  -1.13278  -1.13076
 Alpha  occ. eigenvalues --   -1.13060  -1.13048  -1.12743  -1.12737  -1.12724
 Alpha  occ. eigenvalues --   -0.17504  -0.13581  -0.11962  -0.10586
 Alpha virt. eigenvalues --   -0.06738  -0.05536  -0.05124  -0.03265  -0.02633
 Alpha virt. eigenvalues --   -0.02447  -0.02255  -0.01564  -0.00919  -0.00285
 Alpha virt. eigenvalues --   -0.00046   0.00099   0.00201   0.00465   0.00628

  Beta  occ. eigenvalues --  -38.45205 -38.44739 -38.44461 -38.44008 -38.43817
  Beta  occ. eigenvalues --  -38.43545 -38.43292  -2.21013  -2.20507  -2.20244
  Beta  occ. eigenvalues --   -2.19843  -2.19603  -2.19363  -2.19102  -1.14702
  Beta  occ. eigenvalues --   -1.14666  -1.14644  -1.14233  -1.14211  -1.14117
  Beta  occ. eigenvalues --   -1.13942  -1.13902  -1.13879  -1.13542  -1.13526
  Beta  occ. eigenvalues --   -1.13481  -1.13292  -1.13257  -1.13243  -1.13068
  Beta  occ. eigenvalues --   -1.13038  -1.13031  -1.12749  -1.12741  -1.12729
  Beta  occ. eigenvalues --   -0.16847  -0.13472  -0.11843
  Beta virt. eigenvalues --   -0.06885  -0.06526  -0.05314  -0.04529  -0.03003
  Beta virt. eigenvalues --   -0.02363  -0.02119  -0.01663  -0.01415  -0.00493
  Beta virt. eigenvalues --   -0.00256   0.00142   0.00188   0.00336   0.00589

 Mulliken charges and spin densities:
               1          2
     1  Na  -0.005752   0.044106
     2  Na   0.090908   0.392246
     3  Na   0.888576   0.112804
     4  Na  -0.239441   0.345631
     5  Na  -1.020590   0.065196
     6  Na   0.398656  -0.107823
     7  Na  -0.112358   0.147840
 Sum of Mulliken charges =  -0.00000   1.00000

 Dipole moment (field-independent basis, Debye):
    X=             -1.0509    Y=              0.1473    Z=              0.4498  Tot=              1.1526
 Quadrupole moment (field-independent basis, Debye-Ang):
   XX=            -49.8281   YY=            -72.0347   ZZ=            -73.2699
   XY=              5.9347   XZ=              1.1529   YZ=             -2.2730

 Normal termination of Gaussian 16 at Sun Dec  3 19:51:06 2023.
