 Gaussian 16, Revision B.01,
 Gaussian 16:  ES64L-G16RevB.01 20-Dec-2017

 -------------------------
 #P B3LYP/6-311+g(d) force
 -------------------------

 -----
 DPGEN
 -----
 Symbolic Z-matrix:
 Charge =  0 Multiplicity = 2

                         Standard orientation:
 ---------------------------------------------------------------------
 Center     Atomic      Atomic             Coordinates (Angstroms)
 Number     Number       Type             X           Y           Z
 ---------------------------------------------------------------------
      1         11           0        1.991809    2.276184   -0.203080
      2         11           0       -0.195770    0.174182    2.069981
      3         11           0        2.776752   -0.812613   -0.140333
      4         11           0        0.259807   -2.751611    0.271149
      5         11           0       -3.048723   -0.851713   -0.435614
      6         11           0        0.105549   -0.206093   -1.579261
      7         11           0       -1.889424    2.171665    0.017158
 ---------------------------------------------------------------------

 SCF Done:  E(UB3LYP) =  -1136.13600937     A.U. after   19 cycles

 The electronic state is 2-A.
 Alpha  occ. eigenvalues --  -38.44083 -38.43726 -38.43639 -38.43569 -38.43355
 Alpha  occ. eigenvalues --  -38.43212 -38.42993  -2.19923  -2.19658  -2.19547
 Alpha  occ. eigenvalues --   -2.19438  -2.19244  -2.19211  -2.18897  -1.13603
 Alpha  occ. eigenvalues --   -1.13581  -1.13561  -1.13390  -1.13313  -1.13305
 Alpha  occ. eigenvalues --   -1.13226  -1.13193  -1.13162  -1.13111  -1.13094
 Alpha  occ. eigenvalues --   -1.13062  -1.12939  -1.12916  -1.12875  -1.12875
 Alpha  occ. eigenvalues --   -1.12849  -1.12835  -1.12575  -1.12551  -1.12522
 Alpha  occ. eigenvalues --   -0.19042  -0.13389  -0.12320  -0.10968
 Alpha virt. eigenvalues --   -0.05556  -0.05145  -0.04407  -0.03367  -0.02856
 Alpha virt. eigenvalues --   -0.02614  -0.01541  -0.00996  -0.00218  -0.00116
 Alpha virt. eigenvalues --    0.00008   0.00358   0.00808   0.00909   0.00936

  Beta  occ. eigenvalues --  -38.44072 -38.43719 -38.43563 -38.43539 -38.43352
  Beta  occ. eigenvalues --  -38.43154 -38.42984  -2.19905  -2.19650  -2.19432
  Beta  occ. eigenvalues --   -2.19364  -2.19208  -2.19139  -2.18885  -1.13586
  Beta  occ. eigenvalues --   -1.13562  -1.13546  -1.13378  -1.13314  -1.13273
  Beta  occ. eigenvalues --   -1.13146  -1.13087  -1.13081  -1.13063  -1.13034
  Beta  occ. eigenvalues --   -1.13018  -1.12892  -1.12870  -1.12868  -1.12832
  Beta  occ. eigenvalues --   -1.12805  -1.12778  -1.12567  -1.12520  -1.12508
  Beta  occ. eigenvalues --   -0.18309  -0.13113  -0.12076
  Beta virt. eigenvalues --   -0.07026  -0.05494  -0.05133  -0.04391  -0.02556
  Beta virt. eigenvalues --   -0.02077  -0.01554  -0.01432  -0.00935  -0.00259
  Beta virt. eigenvalues --   -0.00138   0.00128   0.00386   0.00877   0.00907

 Mulliken charges and spin densities:
               1          2
     1  Na   0.095140  -0.052092
     2  Na  -0.543507   0.670026
     3  Na   0.348644   0.034390
     4  Na   0.248113   0.045760
     5  Na   0.124373  -0.008908
     6  Na  -0.459005   0.338528
     7  Na   0.186242  -0.027703
 Sum of Mulliken charges =  -0.00000   1.00000

 Dipole moment (field-independent basis, Debye):
    X=             -0.2957    Y=              0.0540    Z=              0.1565  Tot=              0.3388
 Quadrupole moment (field-independent basis, Debye-Ang):
   XX=            -56.7779   YY=            -64.0110   ZZ=            -73.2966
   XY=              0.6456   XZ=              0.7610   YZ=             -0.6326

 Normal termination of Gaussian 16 at Thu Dec  7 19:30:22 2023.
