 Gaussian 16, Revision B.01,
 Gaussian 16:  ES64L-G16RevB.01 20-Dec-2017

 -------------------------
 #P B3LYP/6-311+g(d) force
 -------------------------

 -----
 DPGEN
 -----
 Symbolic Z-matrix:
 Charge =  0 Multiplicity = 2

                         Standard orientation:
 ---------------------------------------------------------------------
 Center     Atomic      Atomic             Coordinates (Angstroms)
 Number     Number       Type             X           Y           Z
 ---------------------------------------------------------------------
      1         11           0        0.985993   -1.084560    0.643066
      2         11           0        3.642918   -2.503640   -0.123452
      3         11           0        2.912986    1.037818   -1.143198
      4         11           0       -1.162293    1.620677   -1.132551
      5         11           0       -2.386090   -0.530378    0.672713
      6         11           0        1.175516    2.416589    1.424029
      7         11           0       -5.169029   -0.956506   -0.340608
 ---------------------------------------------------------------------

 SCF Done:  E(UB3LYP) =  -1136.11488732     A.U. after   23 cycles

 The electronic state is 2-A.
 Alpha  occ. eigenvalues --  -38.45750 -38.44838 -38.44172 -38.43815 -38.43463
 Alpha  occ. eigenvalues --  -38.43114 -38.43009  -2.21571  -2.20648  -2.20027
 Alpha  occ. eigenvalues --   -2.19654  -2.19276  -2.19060  -2.18966  -1.15273
 Alpha  occ. eigenvalues --   -1.15262  -1.15156  -1.14335  -1.14311  -1.14279
 Alpha  occ. eigenvalues --   -1.13715  -1.13701  -1.13603  -1.13353  -1.13279
 Alpha  occ. eigenvalues --   -1.13270  -1.12983  -1.12935  -1.12911  -1.12761
 Alpha  occ. eigenvalues --   -1.12719  -1.12694  -1.12653  -1.12624  -1.12558
 Alpha  occ. eigenvalues --   -0.17937  -0.14064  -0.11935  -0.10411
 Alpha virt. eigenvalues --   -0.07123  -0.05647  -0.04122  -0.03329  -0.02875
 Alpha virt. eigenvalues --   -0.02396  -0.01851  -0.01585  -0.01011  -0.00668
 Alpha virt. eigenvalues --   -0.00288   0.00108   0.00206   0.00465   0.00641

  Beta  occ. eigenvalues --  -38.45749 -38.44845 -38.44113 -38.43740 -38.43467
  Beta  occ. eigenvalues --  -38.43091 -38.42956  -2.21571  -2.20665  -2.19918
  Beta  occ. eigenvalues --   -2.19513  -2.19284  -2.19029  -2.18873  -1.15265
  Beta  occ. eigenvalues --   -1.15254  -1.15165  -1.14352  -1.14298  -1.14289
  Beta  occ. eigenvalues --   -1.13638  -1.13631  -1.13522  -1.13263  -1.13182
  Beta  occ. eigenvalues --   -1.13174  -1.12982  -1.12942  -1.12910  -1.12744
  Beta  occ. eigenvalues --   -1.12693  -1.12617  -1.12594  -1.12559  -1.12473
  Beta  occ. eigenvalues --   -0.17303  -0.13575  -0.11666
  Beta virt. eigenvalues --   -0.06961  -0.06833  -0.05446  -0.03520  -0.03103
  Beta virt. eigenvalues --   -0.02664  -0.02172  -0.01690  -0.01195  -0.00592
  Beta virt. eigenvalues --   -0.00482  -0.00076   0.00260   0.00332   0.00572

 Mulliken charges and spin densities:
               1          2
     1  Na  -1.253430   0.019080
     2  Na   0.606442   0.079719
     3  Na   0.039461   0.449087
     4  Na  -0.092406  -0.088629
     5  Na  -0.570609   0.115853
     6  Na   0.441810   0.082699
     7  Na   0.828732   0.342192
 Sum of Mulliken charges =  -0.00000   1.00000

 Dipole moment (field-independent basis, Debye):
    X=              0.6301    Y=              1.3335    Z=             -0.0970  Tot=              1.4781
 Quadrupole moment (field-independent basis, Debye-Ang):
   XX=            -69.2296   YY=            -70.0313   ZZ=            -62.6641
   XY=             -2.8859   XZ=              2.4761   YZ=              1.3442

 Normal termination of Gaussian 16 at Wed Nov 29 00:52:57 2023.
