 Gaussian 16, Revision B.01,
 Gaussian 16:  ES64L-G16RevB.01 20-Dec-2017

 -------------------------
 #P B3LYP/6-311+g(d) force
 -------------------------

 -----
 DPGEN
 -----
 Symbolic Z-matrix:
 Charge =  0 Multiplicity = 2

                         Standard orientation:
 ---------------------------------------------------------------------
 Center     Atomic      Atomic             Coordinates (Angstroms)
 Number     Number       Type             X           Y           Z
 ---------------------------------------------------------------------
      1         11           0        1.473947   -0.428346    1.808104
      2         11           0        2.690350   -1.034532   -1.250620
      3         11           0       -4.479872    1.624950   -0.180970
      4         11           0       -0.051412    1.676722   -0.898182
      5         11           0       -2.980393   -1.297208    0.930041
      6         11           0        4.003138    1.407854    0.503713
      7         11           0       -0.655757   -1.949440   -0.912087
 ---------------------------------------------------------------------

 SCF Done:  E(UB3LYP) =  -1136.11027843     A.U. after   29 cycles

 The electronic state is 2-A.
 Alpha  occ. eigenvalues --  -38.45153 -38.44984 -38.44926 -38.44244 -38.44180
 Alpha  occ. eigenvalues --  -38.44119 -38.42797  -2.21006  -2.20811  -2.20785
 Alpha  occ. eigenvalues --   -2.20087  -2.20004  -2.19843  -2.18692  -1.14706
 Alpha  occ. eigenvalues --   -1.14684  -1.14592  -1.14482  -1.14468  -1.14463
 Alpha  occ. eigenvalues --   -1.14436  -1.14423  -1.14373  -1.13799  -1.13737
 Alpha  occ. eigenvalues --   -1.13693  -1.13684  -1.13659  -1.13650  -1.13534
 Alpha  occ. eigenvalues --   -1.13521  -1.13502  -1.12386  -1.12348  -1.12327
 Alpha  occ. eigenvalues --   -0.18100  -0.14036  -0.11164  -0.10782
 Alpha virt. eigenvalues --   -0.07450  -0.06122  -0.04324  -0.03180  -0.02976
 Alpha virt. eigenvalues --   -0.02489  -0.02386  -0.01795  -0.01020  -0.00491
 Alpha virt. eigenvalues --   -0.00117   0.00087   0.00244   0.00248   0.00495

  Beta  occ. eigenvalues --  -38.45104 -38.44890 -38.44884 -38.44214 -38.44185
  Beta  occ. eigenvalues --  -38.44176 -38.42781  -2.20918  -2.20747  -2.20601
  Beta  occ. eigenvalues --   -2.20028  -2.20016  -2.19950  -2.18669  -1.14635
  Beta  occ. eigenvalues --   -1.14622  -1.14528  -1.14432  -1.14414  -1.14384
  Beta  occ. eigenvalues --   -1.14337  -1.14294  -1.14242  -1.13763  -1.13697
  Beta  occ. eigenvalues --   -1.13697  -1.13670  -1.13657  -1.13648  -1.13607
  Beta  occ. eigenvalues --   -1.13587  -1.13567  -1.12353  -1.12325  -1.12300
  Beta  occ. eigenvalues --   -0.17334  -0.14054  -0.11005
  Beta virt. eigenvalues --   -0.07062  -0.07011  -0.05977  -0.03917  -0.02902
  Beta virt. eigenvalues --   -0.02728  -0.02034  -0.01840  -0.01257  -0.00654
  Beta virt. eigenvalues --   -0.00502  -0.00113   0.00137   0.00342   0.00408

 Mulliken charges and spin densities:
               1          2
     1  Na  -0.296277   0.304473
     2  Na   0.244502   0.175067
     3  Na   0.040133  -0.317801
     4  Na  -0.572595   0.575466
     5  Na   0.220926   0.081389
     6  Na   0.526706   0.019063
     7  Na  -0.163395   0.162343
 Sum of Mulliken charges =  -0.00000   1.00000

 Dipole moment (field-independent basis, Debye):
    X=              1.3229    Y=             -0.0083    Z=             -0.0943  Tot=              1.3263
 Quadrupole moment (field-independent basis, Debye-Ang):
   XX=            -60.1827   YY=            -71.2004   ZZ=            -70.2650
   XY=              0.8438   XZ=             -3.1470   YZ=              0.7579

 Normal termination of Gaussian 16 at Fri Dec  8 06:10:14 2023.
