 Gaussian 16, Revision B.01,
 Gaussian 16:  ES64L-G16RevB.01 20-Dec-2017

 -------------------------
 #P B3LYP/6-311+g(d) force
 -------------------------

 -----
 DPGEN
 -----
 Symbolic Z-matrix:
 Charge =  0 Multiplicity = 2

                         Standard orientation:
 ---------------------------------------------------------------------
 Center     Atomic      Atomic             Coordinates (Angstroms)
 Number     Number       Type             X           Y           Z
 ---------------------------------------------------------------------
      1         11           0        0.775569   -0.000353    1.449486
      2         11           0        2.147838   -1.856995   -0.311414
      3         11           0        2.143799    1.858825   -0.312414
      4         11           0        0.195269   -0.001343   -1.380014
      5         11           0       -1.372657   -1.552217    0.820486
      6         11           0       -2.518511   -0.001599   -1.085414
      7         11           0       -1.371306    1.553683    0.819286
 ---------------------------------------------------------------------

 SCF Done:  E(UB3LYP) =  -1136.07618038     A.U. after   19 cycles

 The electronic state is 2-A.
 Alpha  occ. eigenvalues --  -38.44891 -38.43930 -38.43675 -38.43648 -38.43640
 Alpha  occ. eigenvalues --  -38.43596 -38.43594  -2.21020  -2.20292  -2.20028
 Alpha  occ. eigenvalues --   -2.19805  -2.19794  -2.19560  -2.19552  -1.14903
 Alpha  occ. eigenvalues --   -1.14710  -1.14675  -1.14279  -1.14076  -1.14034
 Alpha  occ. eigenvalues --   -1.13734  -1.13653  -1.13641  -1.13474  -1.13428
 Alpha  occ. eigenvalues --   -1.13426  -1.13420  -1.13332  -1.13268  -1.13214
 Alpha  occ. eigenvalues --   -1.13211  -1.13206  -1.13199  -1.13126  -1.13108
 Alpha  occ. eigenvalues --   -0.21193  -0.14242  -0.12174  -0.12052
 Alpha virt. eigenvalues --   -0.05434  -0.04653  -0.04036  -0.03323  -0.02661
 Alpha virt. eigenvalues --   -0.02624  -0.01295  -0.00728  -0.00220   0.00339
 Alpha virt. eigenvalues --    0.00727   0.00825   0.00934   0.00944   0.01107

  Beta  occ. eigenvalues --  -38.44852 -38.43854 -38.43615 -38.43606 -38.43606
  Beta  occ. eigenvalues --  -38.43591 -38.43589  -2.20952  -2.20160  -2.19907
  Beta  occ. eigenvalues --   -2.19751  -2.19741  -2.19553  -2.19545  -1.14861
  Beta  occ. eigenvalues --   -1.14632  -1.14630  -1.14193  -1.13968  -1.13947
  Beta  occ. eigenvalues --   -1.13647  -1.13578  -1.13550  -1.13440  -1.13401
  Beta  occ. eigenvalues --   -1.13349  -1.13339  -1.13290  -1.13224  -1.13192
  Beta  occ. eigenvalues --   -1.13187  -1.13182  -1.13168  -1.13121  -1.13103
  Beta  occ. eigenvalues --   -0.20396  -0.13973  -0.11799
  Beta virt. eigenvalues --   -0.07808  -0.05395  -0.04621  -0.03270  -0.03107
  Beta virt. eigenvalues --   -0.01900  -0.01596  -0.01178  -0.00714   0.00009
  Beta virt. eigenvalues --    0.00369   0.00710   0.00881   0.00934   0.01002

 Mulliken charges and spin densities:
               1          2
     1  Na  -0.456675   0.178859
     2  Na   0.141880  -0.006970
     3  Na   0.142233  -0.007485
     4  Na  -0.546224   0.444391
     5  Na  -0.303147   0.135769
     6  Na   1.323513   0.119024
     7  Na  -0.301580   0.136412
 Sum of Mulliken charges =  -0.00000   1.00000

 Dipole moment (field-independent basis, Debye):
    X=              0.2622    Y=              0.0006    Z=             -0.2510  Tot=              0.3630
 Quadrupole moment (field-independent basis, Debye-Ang):
   XX=            -56.1827   YY=            -69.7945   ZZ=            -68.6623
   XY=             -0.0016   XZ=             -0.3709   YZ=             -0.0053

 Normal termination of Gaussian 16 at Fri Dec  8 18:58:51 2023.
