 Gaussian 16, Revision B.01,
 Gaussian 16:  ES64L-G16RevB.01 20-Dec-2017

 -------------------------
 #P B3LYP/6-311+g(d) force
 -------------------------

 -----
 DPGEN
 -----
 Symbolic Z-matrix:
 Charge =  0 Multiplicity = 2

                         Standard orientation:
 ---------------------------------------------------------------------
 Center     Atomic      Atomic             Coordinates (Angstroms)
 Number     Number       Type             X           Y           Z
 ---------------------------------------------------------------------
      1         11           0       -0.414382   -1.114646   -0.976416
      2         11           0       -2.035147    0.838783    1.652259
      3         11           0        0.893827   -0.982250    1.651666
      4         11           0       -0.548541    2.104926   -0.872953
      5         11           0       -3.955673   -1.135334   -0.786391
      6         11           0        2.351758    1.683231   -0.272620
      7         11           0        3.708158   -1.394711   -0.395545
 ---------------------------------------------------------------------

 SCF Done:  E(UB3LYP) =  -1136.11626904     A.U. after   24 cycles

 The electronic state is 2-A.
 Alpha  occ. eigenvalues --  -38.44836 -38.44481 -38.44446 -38.44410 -38.43913
 Alpha  occ. eigenvalues --  -38.43693 -38.42485  -2.20748  -2.20329  -2.20269
 Alpha  occ. eigenvalues --   -2.20218  -2.19849  -2.19586  -2.18428  -1.14538
 Alpha  occ. eigenvalues --   -1.14423  -1.14319  -1.14004  -1.13998  -1.13946
 Alpha  occ. eigenvalues --   -1.13927  -1.13920  -1.13893  -1.13882  -1.13882
 Alpha  occ. eigenvalues --   -1.13843  -1.13576  -1.13473  -1.13417  -1.13293
 Alpha  occ. eigenvalues --   -1.13251  -1.13211  -1.12119  -1.12076  -1.12055
 Alpha  occ. eigenvalues --   -0.18703  -0.13983  -0.11319  -0.11098
 Alpha virt. eigenvalues --   -0.07124  -0.05425  -0.04047  -0.03196  -0.02861
 Alpha virt. eigenvalues --   -0.02397  -0.02139  -0.01661  -0.00633  -0.00149
 Alpha virt. eigenvalues --    0.00010   0.00265   0.00482   0.00581   0.00695

  Beta  occ. eigenvalues --  -38.44821 -38.44440 -38.44402 -38.44398 -38.43846
  Beta  occ. eigenvalues --  -38.43687 -38.42472  -2.20725  -2.20245  -2.20203
  Beta  occ. eigenvalues --   -2.20191  -2.19727  -2.19577  -2.18407  -1.14487
  Beta  occ. eigenvalues --   -1.14407  -1.14307  -1.13950  -1.13917  -1.13890
  Beta  occ. eigenvalues --   -1.13883  -1.13868  -1.13866  -1.13864  -1.13835
  Beta  occ. eigenvalues --   -1.13833  -1.13500  -1.13395  -1.13307  -1.13285
  Beta  occ. eigenvalues --   -1.13231  -1.13206  -1.12103  -1.12060  -1.12033
  Beta  occ. eigenvalues --   -0.18055  -0.13678  -0.11102
  Beta virt. eigenvalues --   -0.07315  -0.06851  -0.05196  -0.03597  -0.03011
  Beta virt. eigenvalues --   -0.02667  -0.01882  -0.01515  -0.01292  -0.00346
  Beta virt. eigenvalues --   -0.00084   0.00069   0.00323   0.00595   0.00682

 Mulliken charges and spin densities:
               1          2
     1  Na  -0.977485   0.181449
     2  Na   0.293659  -0.095706
     3  Na   0.080906   0.355868
     4  Na   0.043521   0.201867
     5  Na   0.132616   0.180376
     6  Na  -0.432261   0.084294
     7  Na   0.859044   0.091852
 Sum of Mulliken charges =  -0.00000   1.00000

 Dipole moment (field-independent basis, Debye):
    X=              0.0522    Y=             -0.1163    Z=              0.2860  Tot=              0.3131
 Quadrupole moment (field-independent basis, Debye-Ang):
   XX=            -48.9470   YY=            -75.7473   ZZ=            -69.9304
   XY=             -2.7845   XZ=             -2.6643   YZ=              3.6053

 Normal termination of Gaussian 16 at Fri Dec  8 03:51:22 2023.
