 Gaussian 16, Revision B.01,
 Gaussian 16:  ES64L-G16RevB.01 20-Dec-2017

 -------------------------
 #P B3LYP/6-311+g(d) force
 -------------------------

 -----
 DPGEN
 -----
 Symbolic Z-matrix:
 Charge =  0 Multiplicity = 2

                         Standard orientation:
 ---------------------------------------------------------------------
 Center     Atomic      Atomic             Coordinates (Angstroms)
 Number     Number       Type             X           Y           Z
 ---------------------------------------------------------------------
      1         11           0        1.984832    2.170990    0.321552
      2         11           0       -3.444210   -0.525331   -0.064979
      3         11           0       -0.694815   -2.422729   -0.535266
      4         11           0        0.959279    0.121287   -1.698436
      5         11           0       -0.436151   -0.074682    2.183035
      6         11           0       -1.205868    2.479208   -0.477789
      7         11           0        2.836934   -1.748744    0.271883
 ---------------------------------------------------------------------

 SCF Done:  E(UB3LYP) =  -1136.13440198     A.U. after   20 cycles

 The electronic state is 2-A.
 Alpha  occ. eigenvalues --  -38.44112 -38.44020 -38.44016 -38.43682 -38.43429
 Alpha  occ. eigenvalues --  -38.43366 -38.43363  -2.19907  -2.19861  -2.19825
 Alpha  occ. eigenvalues --   -2.19559  -2.19340  -2.19278  -2.19235  -1.13578
 Alpha  occ. eigenvalues --   -1.13569  -1.13554  -1.13523  -1.13505  -1.13496
 Alpha  occ. eigenvalues --   -1.13481  -1.13471  -1.13470  -1.13312  -1.13214
 Alpha  occ. eigenvalues --   -1.13186  -1.13043  -1.12990  -1.12979  -1.12941
 Alpha  occ. eigenvalues --   -1.12927  -1.12903  -1.12901  -1.12894  -1.12833
 Alpha  occ. eigenvalues --   -0.18409  -0.12912  -0.12398  -0.10916
 Alpha virt. eigenvalues --   -0.05779  -0.05288  -0.04385  -0.03384  -0.03044
 Alpha virt. eigenvalues --   -0.02707  -0.01638  -0.01127  -0.00345  -0.00086
 Alpha virt. eigenvalues --   -0.00045   0.00335   0.00741   0.00841   0.00873

  Beta  occ. eigenvalues --  -38.44114 -38.44018 -38.43922 -38.43676 -38.43419
  Beta  occ. eigenvalues --  -38.43352 -38.43307  -2.19912  -2.19825  -2.19686
  Beta  occ. eigenvalues --   -2.19551  -2.19262  -2.19238  -2.19212  -1.13580
  Beta  occ. eigenvalues --   -1.13563  -1.13555  -1.13500  -1.13474  -1.13466
  Beta  occ. eigenvalues --   -1.13408  -1.13374  -1.13346  -1.13296  -1.13200
  Beta  occ. eigenvalues --   -1.13169  -1.12990  -1.12958  -1.12916  -1.12914
  Beta  occ. eigenvalues --   -1.12891  -1.12884  -1.12866  -1.12847  -1.12816
  Beta  occ. eigenvalues --   -0.17672  -0.12762  -0.12174
  Beta virt. eigenvalues --   -0.06996  -0.05646  -0.05275  -0.04307  -0.02679
  Beta virt. eigenvalues --   -0.02291  -0.01685  -0.01551  -0.01065  -0.00334
  Beta virt. eigenvalues --   -0.00091   0.00092   0.00372   0.00828   0.00857

 Mulliken charges and spin densities:
               1          2
     1  Na   0.187161   0.038302
     2  Na   0.101705  -0.040908
     3  Na  -0.021901  -0.040439
     4  Na   0.217444   0.349729
     5  Na  -0.553043   0.751494
     6  Na  -0.028189  -0.038377
     7  Na   0.096822  -0.019801
 Sum of Mulliken charges =  -0.00000   1.00000

 Dipole moment (field-independent basis, Debye):
    X=              0.0297    Y=             -0.0209    Z=              0.2832  Tot=              0.2855
 Quadrupole moment (field-independent basis, Debye-Ang):
   XX=            -55.0939   YY=            -66.5930   ZZ=            -72.5612
   XY=             -0.9525   XZ=              2.6050   YZ=             -0.0545

 Normal termination of Gaussian 16 at Fri Dec  8 06:42:02 2023.
