 Gaussian 16, Revision B.01,
 Gaussian 16:  ES64L-G16RevB.01 20-Dec-2017

 -------------------------
 #P B3LYP/6-311+g(d) force
 -------------------------

 -----
 DPGEN
 -----
 Symbolic Z-matrix:
 Charge =  0 Multiplicity = 2

                         Standard orientation:
 ---------------------------------------------------------------------
 Center     Atomic      Atomic             Coordinates (Angstroms)
 Number     Number       Type             X           Y           Z
 ---------------------------------------------------------------------
      1         11           0        2.672104   -0.768076   -1.486064
      2         11           0        0.359772    0.944321    0.795879
      3         11           0        3.398505    1.862139    0.710504
      4         11           0       -0.905348   -2.123932    2.188498
      5         11           0        0.008350   -2.737970   -1.049798
      6         11           0       -2.344501    2.946513   -0.516265
      7         11           0       -3.188883   -0.122995   -0.642753
 ---------------------------------------------------------------------

 SCF Done:  E(UB3LYP) =  -1136.12607910     A.U. after   19 cycles

 The electronic state is 2-A.
 Alpha  occ. eigenvalues --  -38.44677 -38.44106 -38.43991 -38.43921 -38.43666
 Alpha  occ. eigenvalues --  -38.43609 -38.43465  -2.20475  -2.19941  -2.19812
 Alpha  occ. eigenvalues --   -2.19745  -2.19492  -2.19475  -2.19298  -1.14157
 Alpha  occ. eigenvalues --   -1.14135  -1.14104  -1.13621  -1.13605  -1.13558
 Alpha  occ. eigenvalues --   -1.13505  -1.13461  -1.13436  -1.13405  -1.13388
 Alpha  occ. eigenvalues --   -1.13362  -1.13193  -1.13159  -1.13134  -1.13131
 Alpha  occ. eigenvalues --   -1.13128  -1.13095  -1.12973  -1.12968  -1.12923
 Alpha  occ. eigenvalues --   -0.17238  -0.13366  -0.12430  -0.10906
 Alpha virt. eigenvalues --   -0.06119  -0.05186  -0.04793  -0.03446  -0.03075
 Alpha virt. eigenvalues --   -0.02316  -0.01810  -0.01160  -0.00794  -0.00416
 Alpha virt. eigenvalues --   -0.00232   0.00195   0.00369   0.00617   0.00700

  Beta  occ. eigenvalues --  -38.44666 -38.44052 -38.43979 -38.43851 -38.43664
  Beta  occ. eigenvalues --  -38.43582 -38.43439  -2.20455  -2.19844  -2.19790
  Beta  occ. eigenvalues --   -2.19615  -2.19472  -2.19444  -2.19254  -1.14139
  Beta  occ. eigenvalues --   -1.14126  -1.14086  -1.13555  -1.13542  -1.13490
  Beta  occ. eigenvalues --   -1.13477  -1.13447  -1.13414  -1.13311  -1.13300
  Beta  occ. eigenvalues --   -1.13280  -1.13144  -1.13143  -1.13129  -1.13123
  Beta  occ. eigenvalues --   -1.13108  -1.13072  -1.12942  -1.12940  -1.12868
  Beta  occ. eigenvalues --   -0.16673  -0.13070  -0.12090
  Beta virt. eigenvalues --   -0.07251  -0.05973  -0.04804  -0.04513  -0.03090
  Beta virt. eigenvalues --   -0.02584  -0.01905  -0.01566  -0.01023  -0.00641
  Beta virt. eigenvalues --   -0.00194  -0.00016   0.00343   0.00478   0.00715

 Mulliken charges and spin densities:
               1          2
     1  Na   0.000365   0.145632
     2  Na  -1.422436   0.462504
     3  Na   0.451752  -0.007122
     4  Na   0.432690   0.171963
     5  Na   0.099061   0.169451
     6  Na   0.355248  -0.064828
     7  Na   0.083321   0.122400
 Sum of Mulliken charges =  -0.00000   1.00000

 Dipole moment (field-independent basis, Debye):
    X=             -0.0067    Y=              0.2173    Z=              0.0371  Tot=              0.2206
 Quadrupole moment (field-independent basis, Debye-Ang):
   XX=            -59.3441   YY=            -65.1599   ZZ=            -70.1589
   XY=              5.0228   XZ=              0.9851   YZ=              0.3135

 Normal termination of Gaussian 16 at Tue Dec  5 21:36:52 2023.
