 Gaussian 16, Revision B.01,
 Gaussian 16:  ES64L-G16RevB.01 20-Dec-2017

 -------------------------
 #P B3LYP/6-311+g(d) force
 -------------------------

 -----
 DPGEN
 -----
 Symbolic Z-matrix:
 Charge =  0 Multiplicity = 2

                         Standard orientation:
 ---------------------------------------------------------------------
 Center     Atomic      Atomic             Coordinates (Angstroms)
 Number     Number       Type             X           Y           Z
 ---------------------------------------------------------------------
      1         11           0       -0.098820    1.518190   -0.241692
      2         11           0        2.782972    3.173577    0.527526
      3         11           0        3.296880    0.309584   -0.448201
      4         11           0        3.002114   -2.967640   -0.145342
      5         11           0       -0.281084   -1.965899    0.161719
      6         11           0       -3.509262   -1.008665    0.727980
      7         11           0       -5.192800    0.940854   -0.581989
 ---------------------------------------------------------------------

 SCF Done:  E(UB3LYP) =  -1136.12073235     A.U. after   21 cycles

 The electronic state is 2-A.
 Alpha  occ. eigenvalues --  -38.45038 -38.44339 -38.44140 -38.44057 -38.44038
 Alpha  occ. eigenvalues --  -38.43507 -38.43219  -2.20854  -2.20193  -2.20002
 Alpha  occ. eigenvalues --   -2.19947  -2.19881  -2.19360  -2.19047  -1.14550
 Alpha  occ. eigenvalues --   -1.14540  -1.14431  -1.14001  -1.13810  -1.13804
 Alpha  occ. eigenvalues --   -1.13691  -1.13656  -1.13626  -1.13626  -1.13613
 Alpha  occ. eigenvalues --   -1.13608  -1.13528  -1.13518  -1.13464  -1.13043
 Alpha  occ. eigenvalues --   -1.13035  -1.12971  -1.12711  -1.12701  -1.12674
 Alpha  occ. eigenvalues --   -0.17013  -0.14512  -0.12459  -0.10939
 Alpha virt. eigenvalues --   -0.06429  -0.05155  -0.04285  -0.03914  -0.03243
 Alpha virt. eigenvalues --   -0.02420  -0.01893  -0.01265  -0.00977  -0.00721
 Alpha virt. eigenvalues --   -0.00269   0.00048   0.00371   0.00470   0.00756

  Beta  occ. eigenvalues --  -38.45000 -38.44254 -38.44134 -38.44036 -38.44024
  Beta  occ. eigenvalues --  -38.43466 -38.43194  -2.20785  -2.20040  -2.19997
  Beta  occ. eigenvalues --   -2.19889  -2.19876  -2.19288  -2.19000  -1.14505
  Beta  occ. eigenvalues --   -1.14491  -1.14379  -1.13918  -1.13711  -1.13698
  Beta  occ. eigenvalues --   -1.13664  -1.13656  -1.13617  -1.13584  -1.13570
  Beta  occ. eigenvalues --   -1.13538  -1.13526  -1.13508  -1.13437  -1.12994
  Beta  occ. eigenvalues --   -1.12986  -1.12914  -1.12671  -1.12667  -1.12648
  Beta  occ. eigenvalues --   -0.16420  -0.13798  -0.12206
  Beta virt. eigenvalues --   -0.07489  -0.06078  -0.04972  -0.03972  -0.03480
  Beta virt. eigenvalues --   -0.02916  -0.02148  -0.01747  -0.00961  -0.00896
  Beta virt. eigenvalues --   -0.00289  -0.00046   0.00281   0.00524   0.00576

 Mulliken charges and spin densities:
               1          2
     1  Na  -1.143978  -0.017368
     2  Na   1.178225   0.075378
     3  Na  -0.507586   0.329271
     4  Na   1.130664   0.231278
     5  Na  -0.990777  -0.117899
     6  Na   0.170340   0.135543
     7  Na   0.163112   0.363796
 Sum of Mulliken charges =  -0.00000   1.00000

 Dipole moment (field-independent basis, Debye):
    X=              0.2464    Y=              1.0991    Z=              0.1097  Tot=              1.1317
 Quadrupole moment (field-independent basis, Debye-Ang):
   XX=            -68.5734   YY=            -61.6145   ZZ=            -70.4897
   XY=              2.1138   XZ=              2.0917   YZ=             -1.2632

 Normal termination of Gaussian 16 at Wed Nov 29 01:53:25 2023.
