 Gaussian 16, Revision B.01,
 Gaussian 16:  ES64L-G16RevB.01 20-Dec-2017

 -------------------------
 #P B3LYP/6-311+g(d) force
 -------------------------

 -----
 DPGEN
 -----
 Symbolic Z-matrix:
 Charge =  0 Multiplicity = 2

                         Standard orientation:
 ---------------------------------------------------------------------
 Center     Atomic      Atomic             Coordinates (Angstroms)
 Number     Number       Type             X           Y           Z
 ---------------------------------------------------------------------
      1         11           0       -3.023480   -2.173716   -0.455105
      2         11           0        0.019813   -2.651486    1.271150
      3         11           0        3.429641   -2.284593   -0.216258
      4         11           0        4.083755    0.850556   -0.801446
      5         11           0        1.413097    3.163422    0.068669
      6         11           0       -1.648973    2.515569    1.175197
      7         11           0       -4.273853    0.580248   -1.042207
 ---------------------------------------------------------------------

 SCF Done:  E(UB3LYP) =  -1136.10967905     A.U. after   21 cycles

 The electronic state is 2-A.
 Alpha  occ. eigenvalues --  -38.44768 -38.44760 -38.44740 -38.44481 -38.44396
 Alpha  occ. eigenvalues --  -38.44121 -38.44117  -2.20548  -2.20536  -2.20532
 Alpha  occ. eigenvalues --   -2.20308  -2.20199  -2.19907  -2.19894  -1.14264
 Alpha  occ. eigenvalues --   -1.14219  -1.14216  -1.14213  -1.14203  -1.14202
 Alpha  occ. eigenvalues --   -1.14197  -1.14187  -1.14159  -1.13948  -1.13938
 Alpha  occ. eigenvalues --   -1.13924  -1.13856  -1.13843  -1.13830  -1.13569
 Alpha  occ. eigenvalues --   -1.13564  -1.13557  -1.13552  -1.13537  -1.13527
 Alpha  occ. eigenvalues --   -0.15792  -0.14107  -0.12948  -0.10989
 Alpha virt. eigenvalues --   -0.07415  -0.04961  -0.04505  -0.03690  -0.03447
 Alpha virt. eigenvalues --   -0.02196  -0.02001  -0.01605  -0.01375  -0.00946
 Alpha virt. eigenvalues --   -0.00733  -0.00149  -0.00035   0.00467   0.00636

  Beta  occ. eigenvalues --  -38.44774 -38.44728 -38.44728 -38.44417 -38.44348
  Beta  occ. eigenvalues --  -38.44119 -38.44042  -2.20552  -2.20533  -2.20475
  Beta  occ. eigenvalues --   -2.20190  -2.20111  -2.19895  -2.19767  -1.14230
  Beta  occ. eigenvalues --   -1.14229  -1.14225  -1.14213  -1.14173  -1.14166
  Beta  occ. eigenvalues --   -1.14163  -1.14158  -1.14111  -1.13869  -1.13861
  Beta  occ. eigenvalues --   -1.13844  -1.13796  -1.13787  -1.13772  -1.13572
  Beta  occ. eigenvalues --   -1.13565  -1.13518  -1.13462  -1.13458  -1.13436
  Beta  occ. eigenvalues --   -0.15207  -0.13450  -0.12306
  Beta virt. eigenvalues --   -0.07821  -0.07514  -0.04470  -0.03975  -0.03497
  Beta virt. eigenvalues --   -0.03090  -0.01975  -0.01904  -0.01380  -0.01037
  Beta virt. eigenvalues --   -0.00791  -0.00527   0.00087   0.00202   0.00477

 Mulliken charges and spin densities:
               1          2
     1  Na  -0.048284   0.054299
     2  Na  -0.374385   0.362832
     3  Na   0.096794  -0.022168
     4  Na   0.192279   0.250326
     5  Na  -0.041265  -0.049768
     6  Na  -0.188161   0.133973
     7  Na   0.363022   0.270506
 Sum of Mulliken charges =  -0.00000   1.00000

 Dipole moment (field-independent basis, Debye):
    X=             -0.2387    Y=              0.0665    Z=             -0.2132  Tot=              0.3269
 Quadrupole moment (field-independent basis, Debye-Ang):
   XX=            -62.4300   YY=            -67.3492   ZZ=            -70.7984
   XY=             -1.9993   XZ=             -1.2770   YZ=             -0.3391

 Normal termination of Gaussian 16 at Sun Dec  3 15:25:14 2023.
