 Gaussian 16, Revision B.01,
 Gaussian 16:  ES64L-G16RevB.01 20-Dec-2017

 -------------------------
 #P B3LYP/6-311+g(d) force
 -------------------------

 -----
 DPGEN
 -----
 Symbolic Z-matrix:
 Charge =  0 Multiplicity = 2

                         Standard orientation:
 ---------------------------------------------------------------------
 Center     Atomic      Atomic             Coordinates (Angstroms)
 Number     Number       Type             X           Y           Z
 ---------------------------------------------------------------------
      1         11           0        0.557164    2.843691    0.277854
      2         11           0       -1.302486   -2.372109   -0.380022
      3         11           0        0.476125    0.044875   -0.355958
      4         11           0       -1.948527    0.659617    1.815061
      5         11           0       -2.675339    0.267551   -1.763295
      6         11           0        3.172844   -0.145245   -1.624679
      7         11           0        1.720219   -1.298379    2.031040
 ---------------------------------------------------------------------

 SCF Done:  E(UB3LYP) =  -1136.11561332     A.U. after   22 cycles

 The electronic state is 2-A.
 Alpha  occ. eigenvalues --  -38.44691 -38.44553 -38.44356 -38.44277 -38.43051
 Alpha  occ. eigenvalues --  -38.42914 -38.42123  -2.20504  -2.20383  -2.20197
 Alpha  occ. eigenvalues --   -2.20121  -2.18932  -2.18759  -2.18360  -1.14213
 Alpha  occ. eigenvalues --   -1.14124  -1.14110  -1.14097  -1.13998  -1.13990
 Alpha  occ. eigenvalues --   -1.13875  -1.13837  -1.13818  -1.13811  -1.13756
 Alpha  occ. eigenvalues --   -1.13733  -1.12700  -1.12580  -1.12569  -1.12536
 Alpha  occ. eigenvalues --   -1.12400  -1.12352  -1.12085  -1.11988  -1.11960
 Alpha  occ. eigenvalues --   -0.18412  -0.12955  -0.11614  -0.11254
 Alpha virt. eigenvalues --   -0.05601  -0.05227  -0.04079  -0.03070  -0.02825
 Alpha virt. eigenvalues --   -0.02583  -0.01603  -0.01240  -0.00586   0.00184
 Alpha virt. eigenvalues --    0.00329   0.00370   0.00482   0.00734   0.00834

  Beta  occ. eigenvalues --  -38.44645 -38.44499 -38.44317 -38.44240 -38.43048
  Beta  occ. eigenvalues --  -38.42917 -38.42099  -2.20420  -2.20284  -2.20125
  Beta  occ. eigenvalues --   -2.20054  -2.18930  -2.18767  -2.18326  -1.14152
  Beta  occ. eigenvalues --   -1.14069  -1.14052  -1.14030  -1.13932  -1.13910
  Beta  occ. eigenvalues --   -1.13819  -1.13794  -1.13768  -1.13759  -1.13700
  Beta  occ. eigenvalues --   -1.13690  -1.12703  -1.12575  -1.12566  -1.12524
  Beta  occ. eigenvalues --   -1.12396  -1.12354  -1.11983  -1.11973  -1.11950
  Beta  occ. eigenvalues --   -0.17645  -0.12601  -0.11085
  Beta virt. eigenvalues --   -0.07853  -0.05247  -0.04692  -0.04014  -0.02934
  Beta virt. eigenvalues --   -0.02116  -0.01977  -0.01442  -0.00726  -0.00572
  Beta virt. eigenvalues --    0.00335   0.00440   0.00454   0.00559   0.00767

 Mulliken charges and spin densities:
               1          2
     1  Na  -0.530636   0.095654
     2  Na   0.521686   0.146648
     3  Na  -1.354866   0.098515
     4  Na   1.021265   0.216333
     5  Na   0.322180   0.005818
     6  Na   0.155737   0.091694
     7  Na  -0.135365   0.345338
 Sum of Mulliken charges =  -0.00000   1.00000

 Dipole moment (field-independent basis, Debye):
    X=             -0.0860    Y=             -0.1369    Z=              0.0980  Tot=              0.1891
 Quadrupole moment (field-independent basis, Debye-Ang):
   XX=            -56.8202   YY=            -72.5859   ZZ=            -60.4899
   XY=             -1.1379   XZ=             -0.6249   YZ=             -2.9519

 Normal termination of Gaussian 16 at Thu Dec  7 10:08:39 2023.
