 Gaussian 16, Revision B.01,
 Gaussian 16:  ES64L-G16RevB.01 20-Dec-2017

 -------------------------
 #P B3LYP/6-311+g(d) force
 -------------------------

 -----
 DPGEN
 -----
 Symbolic Z-matrix:
 Charge =  0 Multiplicity = 2

                         Standard orientation:
 ---------------------------------------------------------------------
 Center     Atomic      Atomic             Coordinates (Angstroms)
 Number     Number       Type             X           Y           Z
 ---------------------------------------------------------------------
      1         11           0       -0.004218   -0.029634   -1.049852
      2         11           0       -1.425322   -2.594081   -0.531770
      3         11           0        2.200343   -1.788422    0.258643
      4         11           0        2.879815    0.994426   -0.444001
      5         11           0       -0.302555    3.117687    0.037490
      6         11           0       -0.292646   -0.277321    1.897667
      7         11           0       -3.055418    0.577346   -0.168178
 ---------------------------------------------------------------------

 SCF Done:  E(UB3LYP) =  -1136.12727398     A.U. after   20 cycles

 The electronic state is 2-A.
 Alpha  occ. eigenvalues --  -38.44264 -38.43847 -38.43623 -38.43576 -38.43531
 Alpha  occ. eigenvalues --  -38.43140 -38.42651  -2.20112  -2.19747  -2.19525
 Alpha  occ. eigenvalues --   -2.19433  -2.19421  -2.19116  -2.18853  -1.13805
 Alpha  occ. eigenvalues --   -1.13779  -1.13728  -1.13531  -1.13417  -1.13364
 Alpha  occ. eigenvalues --   -1.13221  -1.13173  -1.13166  -1.13122  -1.13116
 Alpha  occ. eigenvalues --   -1.13097  -1.13065  -1.13062  -1.13030  -1.12895
 Alpha  occ. eigenvalues --   -1.12717  -1.12698  -1.12520  -1.12477  -1.12458
 Alpha  occ. eigenvalues --   -0.19175  -0.13428  -0.12513  -0.10333
 Alpha virt. eigenvalues --   -0.05762  -0.04929  -0.04902  -0.03024  -0.02536
 Alpha virt. eigenvalues --   -0.01950  -0.01652  -0.01255  -0.00422  -0.00261
 Alpha virt. eigenvalues --    0.00048   0.00349   0.00792   0.00882   0.00889

  Beta  occ. eigenvalues --  -38.44258 -38.43835 -38.43623 -38.43566 -38.43513
  Beta  occ. eigenvalues --  -38.43042 -38.42611  -2.20103  -2.19728  -2.19511
  Beta  occ. eigenvalues --   -2.19435  -2.19391  -2.18936  -2.18785  -1.13797
  Beta  occ. eigenvalues --   -1.13759  -1.13719  -1.13523  -1.13396  -1.13342
  Beta  occ. eigenvalues --   -1.13212  -1.13150  -1.13125  -1.13114  -1.13108
  Beta  occ. eigenvalues --   -1.13090  -1.13066  -1.13028  -1.13004  -1.12785
  Beta  occ. eigenvalues --   -1.12590  -1.12569  -1.12438  -1.12426  -1.12407
  Beta  occ. eigenvalues --   -0.18460  -0.13136  -0.12272
  Beta virt. eigenvalues --   -0.06439  -0.05721  -0.04876  -0.04822  -0.02265
  Beta virt. eigenvalues --   -0.01861  -0.01569  -0.01227  -0.00915  -0.00409
  Beta virt. eigenvalues --   -0.00283   0.00193   0.00407   0.00817   0.00901

 Mulliken charges and spin densities:
               1          2
     1  Na  -1.226212  -0.123903
     2  Na   0.371260   0.154620
     3  Na   0.663943   0.196067
     4  Na   0.145277   0.068663
     5  Na   0.013810   0.031160
     6  Na  -0.167186   0.643848
     7  Na   0.199108   0.029544
 Sum of Mulliken charges =  -0.00000   1.00000

 Dipole moment (field-independent basis, Debye):
    X=             -0.3699    Y=              0.1620    Z=              0.2913  Tot=              0.4980
 Quadrupole moment (field-independent basis, Debye-Ang):
   XX=            -54.9937   YY=            -59.4695   ZZ=            -76.3360
   XY=             -0.2314   XZ=              0.3278   YZ=              0.3839

 Normal termination of Gaussian 16 at Thu Dec  7 12:44:00 2023.
