 Gaussian 16, Revision B.01,
 Gaussian 16:  ES64L-G16RevB.01 20-Dec-2017

 -------------------------
 #P B3LYP/6-311+g(d) force
 -------------------------

 -----
 DPGEN
 -----
 Symbolic Z-matrix:
 Charge =  0 Multiplicity = 2

                         Standard orientation:
 ---------------------------------------------------------------------
 Center     Atomic      Atomic             Coordinates (Angstroms)
 Number     Number       Type             X           Y           Z
 ---------------------------------------------------------------------
      1         11           0        2.711040    1.697483    0.112094
      2         11           0       -3.679700    0.036356    0.419491
      3         11           0        2.845365   -1.859858   -0.133746
      4         11           0        0.460867   -0.336679    2.200806
      5         11           0       -1.154468    2.317297   -0.269387
      6         11           0        0.461319    0.287058   -1.678885
      7         11           0       -1.644424   -2.141657   -0.650373
 ---------------------------------------------------------------------

 SCF Done:  E(UB3LYP) =  -1136.12386865     A.U. after   22 cycles

 The electronic state is 2-A.
 Alpha  occ. eigenvalues --  -38.44996 -38.44423 -38.44399 -38.44140 -38.43588
 Alpha  occ. eigenvalues --  -38.43366 -38.42963  -2.20803  -2.20261  -2.20224
 Alpha  occ. eigenvalues --   -2.19936  -2.19426  -2.19359  -2.18833  -1.14481
 Alpha  occ. eigenvalues --   -1.14457  -1.14445  -1.13960  -1.13930  -1.13883
 Alpha  occ. eigenvalues --   -1.13879  -1.13855  -1.13839  -1.13611  -1.13590
 Alpha  occ. eigenvalues --   -1.13587  -1.13130  -1.13090  -1.13080  -1.13059
 Alpha  occ. eigenvalues --   -1.12991  -1.12975  -1.12536  -1.12485  -1.12430
 Alpha  occ. eigenvalues --   -0.18348  -0.13701  -0.11432  -0.10946
 Alpha virt. eigenvalues --   -0.06670  -0.05620  -0.03839  -0.03382  -0.02943
 Alpha virt. eigenvalues --   -0.02520  -0.02186  -0.01333  -0.00542  -0.00135
 Alpha virt. eigenvalues --    0.00020   0.00232   0.00518   0.00634   0.00794

  Beta  occ. eigenvalues --  -38.44995 -38.44416 -38.44309 -38.44142 -38.43572
  Beta  occ. eigenvalues --  -38.43297 -38.42958  -2.20803  -2.20252  -2.20057
  Beta  occ. eigenvalues --   -2.19944  -2.19399  -2.19234  -2.18828  -1.14482
  Beta  occ. eigenvalues --   -1.14451  -1.14445  -1.13946  -1.13905  -1.13876
  Beta  occ. eigenvalues --   -1.13773  -1.13737  -1.13723  -1.13607  -1.13593
  Beta  occ. eigenvalues --   -1.13585  -1.13098  -1.13053  -1.13043  -1.13006
  Beta  occ. eigenvalues --   -1.12907  -1.12885  -1.12520  -1.12465  -1.12429
  Beta  occ. eigenvalues --   -0.17620  -0.13558  -0.11201
  Beta virt. eigenvalues --   -0.07075  -0.06425  -0.05624  -0.03555  -0.02966
  Beta virt. eigenvalues --   -0.02170  -0.01944  -0.01683  -0.01204  -0.00530
  Beta virt. eigenvalues --   -0.00009   0.00034   0.00275   0.00702   0.00740

 Mulliken charges and spin densities:
               1          2
     1  Na   0.189371   0.018777
     2  Na  -0.162800   0.041210
     3  Na   0.034776  -0.106981
     4  Na  -0.561872   0.698346
     5  Na   0.158426   0.100610
     6  Na   0.119014   0.223640
     7  Na   0.223085   0.024399
 Sum of Mulliken charges =  -0.00000   1.00000

 Dipole moment (field-independent basis, Debye):
    X=              0.1101    Y=              0.0133    Z=              0.4822  Tot=              0.4948
 Quadrupole moment (field-independent basis, Debye-Ang):
   XX=            -48.8355   YY=            -71.5420   ZZ=            -73.2905
   XY=             -0.1822   XZ=             -1.5649   YZ=              2.1003

 Normal termination of Gaussian 16 at Thu Dec  7 06:36:45 2023.
