 Gaussian 16, Revision B.01,
 Gaussian 16:  ES64L-G16RevB.01 20-Dec-2017

 -------------------------
 #P B3LYP/6-311+g(d) force
 -------------------------

 -----
 DPGEN
 -----
 Symbolic Z-matrix:
 Charge =  0 Multiplicity = 2

                         Standard orientation:
 ---------------------------------------------------------------------
 Center     Atomic      Atomic             Coordinates (Angstroms)
 Number     Number       Type             X           Y           Z
 ---------------------------------------------------------------------
      1         11           0       -1.704555   -0.762385    1.479162
      2         11           0       -3.098308   -1.505316   -1.161888
      3         11           0        0.325497   -0.308429   -0.645486
      4         11           0        0.493507    2.143694    0.955443
      5         11           0        2.407243   -1.533863    1.152272
      6         11           0        3.949069    0.227214   -1.318603
      7         11           0       -2.372454    1.739085   -0.460902
 ---------------------------------------------------------------------

 SCF Done:  E(UB3LYP) =  -1136.11681838     A.U. after   24 cycles

 The electronic state is 2-A.
 Alpha  occ. eigenvalues --  -38.44512 -38.44322 -38.44169 -38.43885 -38.43606
 Alpha  occ. eigenvalues --  -38.43026 -38.42416  -2.20321  -2.20179  -2.20160
 Alpha  occ. eigenvalues --   -2.19974  -2.19549  -2.18910  -2.18338  -1.13982
 Alpha  occ. eigenvalues --   -1.13975  -1.13963  -1.13958  -1.13928  -1.13825
 Alpha  occ. eigenvalues --   -1.13807  -1.13780  -1.13768  -1.13666  -1.13632
 Alpha  occ. eigenvalues --   -1.13550  -1.13233  -1.13222  -1.13148  -1.12579
 Alpha  occ. eigenvalues --   -1.12559  -1.12549  -1.12061  -1.11975  -1.11943
 Alpha  occ. eigenvalues --   -0.18856  -0.14384  -0.11174  -0.10912
 Alpha virt. eigenvalues --   -0.06231  -0.05419  -0.04561  -0.03005  -0.02527
 Alpha virt. eigenvalues --   -0.02316  -0.01927  -0.01052  -0.00727  -0.00236
 Alpha virt. eigenvalues --    0.00167   0.00286   0.00430   0.00599   0.00708

  Beta  occ. eigenvalues --  -38.44451 -38.44301 -38.44129 -38.43867 -38.43582
  Beta  occ. eigenvalues --  -38.43012 -38.42409  -2.20205  -2.20146  -2.20091
  Beta  occ. eigenvalues --   -2.19949  -2.19505  -2.18885  -2.18329  -1.13933
  Beta  occ. eigenvalues --   -1.13920  -1.13901  -1.13882  -1.13863  -1.13806
  Beta  occ. eigenvalues --   -1.13737  -1.13725  -1.13716  -1.13644  -1.13566
  Beta  occ. eigenvalues --   -1.13540  -1.13199  -1.13196  -1.13109  -1.12565
  Beta  occ. eigenvalues --   -1.12541  -1.12521  -1.12057  -1.11947  -1.11939
  Beta  occ. eigenvalues --   -0.18183  -0.13962  -0.11035
  Beta virt. eigenvalues --   -0.07207  -0.05959  -0.04868  -0.04357  -0.02832
  Beta virt. eigenvalues --   -0.02326  -0.01740  -0.01415  -0.00772  -0.00509
  Beta virt. eigenvalues --   -0.00022   0.00248   0.00415   0.00578   0.00646

 Mulliken charges and spin densities:
               1          2
     1  Na   0.507232   0.210548
     2  Na   0.999809   0.149385
     3  Na  -2.410721   0.164632
     4  Na  -0.270947  -0.074403
     5  Na   0.358122   0.105651
     6  Na   0.464122   0.268086
     7  Na   0.352384   0.176101
 Sum of Mulliken charges =  -0.00000   1.00000

 Dipole moment (field-independent basis, Debye):
    X=              0.4812    Y=              0.1886    Z=              0.4049  Tot=              0.6565
 Quadrupole moment (field-independent basis, Debye-Ang):
   XX=            -56.2352   YY=            -73.9648   ZZ=            -64.7162
   XY=             -0.8675   XZ=              0.7438   YZ=             -2.2879

 Normal termination of Gaussian 16 at Tue Dec  5 11:23:36 2023.
