 Gaussian 16, Revision B.01,
 Gaussian 16:  ES64L-G16RevB.01 20-Dec-2017

 -------------------------
 #P B3LYP/6-311+g(d) force
 -------------------------

 -----
 DPGEN
 -----
 Symbolic Z-matrix:
 Charge =  0 Multiplicity = 2

                         Standard orientation:
 ---------------------------------------------------------------------
 Center     Atomic      Atomic             Coordinates (Angstroms)
 Number     Number       Type             X           Y           Z
 ---------------------------------------------------------------------
      1         11           0       -1.978991   -0.306722    1.770740
      2         11           0       -1.319233    1.839170   -1.043985
      3         11           0        1.229167   -0.405453    2.093385
      4         11           0        3.840238   -1.072579   -0.807545
      5         11           0        0.138435   -1.635895   -1.216369
      6         11           0       -3.741720   -0.675595   -0.768273
      7         11           0        1.832105    2.257074   -0.027952
 ---------------------------------------------------------------------

 SCF Done:  E(UB3LYP) =  -1136.12024542     A.U. after   28 cycles

 The electronic state is 2-A.
 Alpha  occ. eigenvalues --  -38.44707 -38.44696 -38.44539 -38.44519 -38.44479
 Alpha  occ. eigenvalues --  -38.43197 -38.42860  -2.20546  -2.20472  -2.20430
 Alpha  occ. eigenvalues --   -2.20410  -2.20241  -2.19060  -2.18686  -1.14283
 Alpha  occ. eigenvalues --   -1.14193  -1.14186  -1.14178  -1.14170  -1.14160
 Alpha  occ. eigenvalues --   -1.14066  -1.14054  -1.14054  -1.14037  -1.14031
 Alpha  occ. eigenvalues --   -1.13997  -1.13915  -1.13899  -1.13861  -1.12756
 Alpha  occ. eigenvalues --   -1.12722  -1.12676  -1.12364  -1.12349  -1.12316
 Alpha  occ. eigenvalues --   -0.18215  -0.13880  -0.11914  -0.10813
 Alpha virt. eigenvalues --   -0.06969  -0.05190  -0.04803  -0.03441  -0.02718
 Alpha virt. eigenvalues --   -0.02537  -0.02361  -0.01375  -0.00808  -0.00195
 Alpha virt. eigenvalues --    0.00086   0.00200   0.00319   0.00490   0.00744

  Beta  occ. eigenvalues --  -38.44697 -38.44685 -38.44462 -38.44461 -38.44455
  Beta  occ. eigenvalues --  -38.43167 -38.42859  -2.20528  -2.20454  -2.20316
  Beta  occ. eigenvalues --   -2.20272  -2.20210  -2.19006  -2.18684  -1.14256
  Beta  occ. eigenvalues --   -1.14173  -1.14166  -1.14160  -1.14147  -1.14068
  Beta  occ. eigenvalues --   -1.14049  -1.13979  -1.13977  -1.13947  -1.13942
  Beta  occ. eigenvalues --   -1.13892  -1.13885  -1.13877  -1.13842  -1.12717
  Beta  occ. eigenvalues --   -1.12685  -1.12635  -1.12353  -1.12350  -1.12316
  Beta  occ. eigenvalues --   -0.17479  -0.13718  -0.10634
  Beta virt. eigenvalues --   -0.07819  -0.06784  -0.04975  -0.04312  -0.02959
  Beta virt. eigenvalues --   -0.02529  -0.02009  -0.01862  -0.01169  -0.00480
  Beta virt. eigenvalues --   -0.00069   0.00123   0.00255   0.00432   0.00636

 Mulliken charges and spin densities:
               1          2
     1  Na  -0.229713   0.082420
     2  Na  -0.289167   0.169112
     3  Na   0.095595   0.204340
     4  Na   0.453497  -0.028693
     5  Na  -0.746348   0.212892
     6  Na   0.986422   0.237086
     7  Na  -0.270285   0.122844
 Sum of Mulliken charges =  -0.00000   1.00000

 Dipole moment (field-independent basis, Debye):
    X=             -0.4802    Y=             -0.3906    Z=             -0.0715  Tot=              0.6231
 Quadrupole moment (field-independent basis, Debye-Ang):
   XX=            -48.4007   YY=            -80.7307   ZZ=            -67.2174
   XY=              2.2907   XZ=              1.9991   YZ=             -0.4049

 Normal termination of Gaussian 16 at Tue Dec  5 13:07:50 2023.
