 Gaussian 16, Revision B.01,
 Gaussian 16:  ES64L-G16RevB.01 20-Dec-2017

 -------------------------
 #P B3LYP/6-311+g(d) force
 -------------------------

 -----
 DPGEN
 -----
 Symbolic Z-matrix:
 Charge =  0 Multiplicity = 2

                         Standard orientation:
 ---------------------------------------------------------------------
 Center     Atomic      Atomic             Coordinates (Angstroms)
 Number     Number       Type             X           Y           Z
 ---------------------------------------------------------------------
      1         11           0        2.943029   -1.491650   -1.083560
      2         11           0       -4.291417   -0.235861   -0.965583
      3         11           0        1.479256   -1.299874    1.561714
      4         11           0       -0.725609    2.087462    1.071185
      5         11           0       -1.925802   -1.085340    1.162951
      6         11           0        2.731090    1.751265   -0.209352
      7         11           0       -0.210548    0.273999   -1.537355
 ---------------------------------------------------------------------

 SCF Done:  E(UB3LYP) =  -1136.12094969     A.U. after   26 cycles

 The electronic state is 2-A.
 Alpha  occ. eigenvalues --  -38.45006 -38.44845 -38.44212 -38.43689 -38.43658
 Alpha  occ. eigenvalues --  -38.43360 -38.42819  -2.20884  -2.20638  -2.20048
 Alpha  occ. eigenvalues --   -2.19598  -2.19558  -2.19248  -2.18687  -1.14598
 Alpha  occ. eigenvalues --   -1.14540  -1.14490  -1.14300  -1.14286  -1.14256
 Alpha  occ. eigenvalues --   -1.13739  -1.13714  -1.13666  -1.13300  -1.13288
 Alpha  occ. eigenvalues --   -1.13235  -1.13225  -1.13215  -1.13181  -1.12902
 Alpha  occ. eigenvalues --   -1.12892  -1.12881  -1.12380  -1.12349  -1.12296
 Alpha  occ. eigenvalues --   -0.18502  -0.14176  -0.11463  -0.10900
 Alpha virt. eigenvalues --   -0.06971  -0.04867  -0.04800  -0.03125  -0.02937
 Alpha virt. eigenvalues --   -0.02516  -0.02169  -0.01183  -0.00836  -0.00238
 Alpha virt. eigenvalues --    0.00048   0.00241   0.00294   0.00604   0.00733

  Beta  occ. eigenvalues --  -38.44981 -38.44795 -38.44209 -38.43632 -38.43627
  Beta  occ. eigenvalues --  -38.43348 -38.42799  -2.20838  -2.20543  -2.20045
  Beta  occ. eigenvalues --   -2.19508  -2.19495  -2.19228  -2.18653  -1.14555
  Beta  occ. eigenvalues --   -1.14511  -1.14456  -1.14236  -1.14220  -1.14193
  Beta  occ. eigenvalues --   -1.13729  -1.13711  -1.13661  -1.13236  -1.13228
  Beta  occ. eigenvalues --   -1.13186  -1.13180  -1.13153  -1.13100  -1.12889
  Beta  occ. eigenvalues --   -1.12877  -1.12851  -1.12360  -1.12304  -1.12282
  Beta  occ. eigenvalues --   -0.17819  -0.13773  -0.10794
  Beta virt. eigenvalues --   -0.07648  -0.06678  -0.04683  -0.04267  -0.02890
  Beta virt. eigenvalues --   -0.02628  -0.02016  -0.01616  -0.00848  -0.00689
  Beta virt. eigenvalues --   -0.00109   0.00133   0.00328   0.00398   0.00672

 Mulliken charges and spin densities:
               1          2
     1  Na   0.524079   0.191933
     2  Na   0.315050   0.272379
     3  Na  -0.224618   0.095849
     4  Na  -0.107019   0.119271
     5  Na  -0.069840   0.125674
     6  Na   0.042440   0.028153
     7  Na  -0.480091   0.166743
 Sum of Mulliken charges =  -0.00000   1.00000

 Dipole moment (field-independent basis, Debye):
    X=             -0.2823    Y=              0.6184    Z=             -0.3780  Tot=              0.7778
 Quadrupole moment (field-independent basis, Debye-Ang):
   XX=            -53.5401   YY=            -77.7126   ZZ=            -65.6343
   XY=              0.9753   XZ=              0.4829   YZ=              1.4109

 Normal termination of Gaussian 16 at Fri Dec  8 01:41:52 2023.
