 Gaussian 16, Revision B.01,
 Gaussian 16:  ES64L-G16RevB.01 20-Dec-2017

 -------------------------
 #P B3LYP/6-311+g(d) force
 -------------------------

 -----
 DPGEN
 -----
 Symbolic Z-matrix:
 Charge =  0 Multiplicity = 2

                         Standard orientation:
 ---------------------------------------------------------------------
 Center     Atomic      Atomic             Coordinates (Angstroms)
 Number     Number       Type             X           Y           Z
 ---------------------------------------------------------------------
      1         11           0        0.372359    0.286358    2.325526
      2         11           0        0.758758   -1.917682   -1.495953
      3         11           0       -1.960696    2.897668    0.363179
      4         11           0       -2.901440   -0.494431   -1.251710
      5         11           0        3.872056    0.365187    0.046495
      6         11           0        0.984215    1.375592   -1.335195
      7         11           0       -1.125252   -2.512691    1.347658
 ---------------------------------------------------------------------

 SCF Done:  E(UB3LYP) =  -1136.12477857     A.U. after   21 cycles

 The electronic state is 2-A.
 Alpha  occ. eigenvalues --  -38.44897 -38.44888 -38.44507 -38.44136 -38.43716
 Alpha  occ. eigenvalues --  -38.43409 -38.43014  -2.20711  -2.20657  -2.20272
 Alpha  occ. eigenvalues --   -2.19965  -2.19573  -2.19244  -2.18782  -1.14374
 Alpha  occ. eigenvalues --   -1.14344  -1.14337  -1.14326  -1.14308  -1.14270
 Alpha  occ. eigenvalues --   -1.13948  -1.13936  -1.13910  -1.13681  -1.13625
 Alpha  occ. eigenvalues --   -1.13558  -1.13278  -1.13249  -1.13162  -1.12929
 Alpha  occ. eigenvalues --   -1.12899  -1.12867  -1.12455  -1.12443  -1.12428
 Alpha  occ. eigenvalues --   -0.17580  -0.12633  -0.11875  -0.11633
 Alpha virt. eigenvalues --   -0.06266  -0.04864  -0.04507  -0.03554  -0.03317
 Alpha virt. eigenvalues --   -0.03138  -0.01990  -0.00863  -0.00606  -0.00097
 Alpha virt. eigenvalues --    0.00068   0.00261   0.00341   0.00681   0.00799

  Beta  occ. eigenvalues --  -38.44869 -38.44784 -38.44514 -38.44100 -38.43695
  Beta  occ. eigenvalues --  -38.43385 -38.43017  -2.20606  -2.20521  -2.20287
  Beta  occ. eigenvalues --   -2.19900  -2.19536  -2.19203  -2.18789  -1.14301
  Beta  occ. eigenvalues --   -1.14276  -1.14247  -1.14237  -1.14203  -1.14187
  Beta  occ. eigenvalues --   -1.13958  -1.13940  -1.13920  -1.13630  -1.13577
  Beta  occ. eigenvalues --   -1.13514  -1.13252  -1.13209  -1.13139  -1.12891
  Beta  occ. eigenvalues --   -1.12874  -1.12826  -1.12458  -1.12444  -1.12433
  Beta  occ. eigenvalues --   -0.16774  -0.12481  -0.11532
  Beta virt. eigenvalues --   -0.07860  -0.06073  -0.04670  -0.04136  -0.03047
  Beta virt. eigenvalues --   -0.02642  -0.02537  -0.01801  -0.00789  -0.00333
  Beta virt. eigenvalues --   -0.00114   0.00175   0.00340   0.00407   0.00726

 Mulliken charges and spin densities:
               1          2
     1  Na  -0.051934   0.694405
     2  Na   0.156224   0.240370
     3  Na   0.154584  -0.106964
     4  Na  -0.056816   0.164454
     5  Na   0.221500  -0.163054
     6  Na  -0.443061   0.279888
     7  Na   0.019502  -0.109099
 Sum of Mulliken charges =  -0.00000   1.00000

 Dipole moment (field-independent basis, Debye):
    X=              0.5203    Y=             -0.4616    Z=              0.0005  Tot=              0.6955
 Quadrupole moment (field-independent basis, Debye-Ang):
   XX=            -57.1497   YY=            -71.9749   ZZ=            -66.8435
   XY=              1.2150   XZ=              2.5541   YZ=              1.4870

 Normal termination of Gaussian 16 at Mon Dec  4 04:01:42 2023.
