 Gaussian 16, Revision B.01,
 Gaussian 16:  ES64L-G16RevB.01 20-Dec-2017

 -------------------------
 #P B3LYP/6-311+g(d) force
 -------------------------

 -----
 DPGEN
 -----
 Symbolic Z-matrix:
 Charge =  0 Multiplicity = 2

                         Standard orientation:
 ---------------------------------------------------------------------
 Center     Atomic      Atomic             Coordinates (Angstroms)
 Number     Number       Type             X           Y           Z
 ---------------------------------------------------------------------
      1         11           0        0.566530   -0.869846   -0.631510
      2         11           0       -1.888456   -0.346971    1.987576
      3         11           0       -2.111843   -3.238059    0.053744
      4         11           0       -2.625665    0.730862   -1.661559
      5         11           0       -1.197935    3.419716   -0.032254
      6         11           0        2.739723    1.327298    0.820979
      7         11           0        4.517645   -1.023000   -0.536977
 ---------------------------------------------------------------------

 SCF Done:  E(UB3LYP) =  -1136.12006437     A.U. after   20 cycles

 The electronic state is 2-A.
 Alpha  occ. eigenvalues --  -38.44911 -38.44636 -38.44613 -38.44212 -38.43852
 Alpha  occ. eigenvalues --  -38.43681 -38.43472  -2.20697  -2.20448  -2.20436
 Alpha  occ. eigenvalues --   -2.20032  -2.19636  -2.19506  -2.19230  -1.14371
 Alpha  occ. eigenvalues --   -1.14359  -1.14331  -1.14178  -1.14132  -1.14115
 Alpha  occ. eigenvalues --   -1.14109  -1.14049  -1.14026  -1.13711  -1.13681
 Alpha  occ. eigenvalues --   -1.13633  -1.13313  -1.13297  -1.13270  -1.13182
 Alpha  occ. eigenvalues --   -1.13153  -1.13114  -1.12907  -1.12891  -1.12877
 Alpha  occ. eigenvalues --   -0.17033  -0.13828  -0.11743  -0.10026
 Alpha virt. eigenvalues --   -0.06597  -0.05666  -0.05154  -0.03178  -0.02838
 Alpha virt. eigenvalues --   -0.02340  -0.02156  -0.01621  -0.01042  -0.00645
 Alpha virt. eigenvalues --   -0.00360   0.00130   0.00261   0.00585   0.00600

  Beta  occ. eigenvalues --  -38.44902 -38.44621 -38.44599 -38.44146 -38.43855
  Beta  occ. eigenvalues --  -38.43614 -38.43477  -2.20680  -2.20421  -2.20414
  Beta  occ. eigenvalues --   -2.19910  -2.19644  -2.19382  -2.19242  -1.14359
  Beta  occ. eigenvalues --   -1.14347  -1.14319  -1.14147  -1.14103  -1.14096
  Beta  occ. eigenvalues --   -1.14092  -1.14025  -1.14011  -1.13625  -1.13596
  Beta  occ. eigenvalues --   -1.13547  -1.13320  -1.13286  -1.13277  -1.13093
  Beta  occ. eigenvalues --   -1.13071  -1.13030  -1.12917  -1.12885  -1.12880
  Beta  occ. eigenvalues --   -0.16457  -0.13612  -0.11582
  Beta virt. eigenvalues --   -0.06633  -0.06189  -0.05433  -0.04818  -0.02983
  Beta virt. eigenvalues --   -0.02510  -0.01965  -0.01540  -0.01470  -0.00957
  Beta virt. eigenvalues --   -0.00265  -0.00084   0.00197   0.00392   0.00643

 Mulliken charges and spin densities:
               1          2
     1  Na  -0.863764   0.358537
     2  Na   0.025428   0.435639
     3  Na   0.252806  -0.072142
     4  Na   0.223950   0.208911
     5  Na  -0.030947  -0.016946
     6  Na   0.108252   0.013905
     7  Na   0.284275   0.072095
 Sum of Mulliken charges =  -0.00000   1.00000

 Dipole moment (field-independent basis, Debye):
    X=              1.4378    Y=             -0.7652    Z=              0.1478  Tot=              1.6355
 Quadrupole moment (field-independent basis, Debye-Ang):
   XX=            -53.5916   YY=            -63.9257   ZZ=            -75.0040
   XY=              1.2260   XZ=             -1.7435   YZ=              4.0761

 Normal termination of Gaussian 16 at Tue Dec  5 14:38:51 2023.
