 Gaussian 16, Revision B.01,
 Gaussian 16:  ES64L-G16RevB.01 20-Dec-2017

 -------------------------
 #P B3LYP/6-311+g(d) force
 -------------------------

 -----
 DPGEN
 -----
 Symbolic Z-matrix:
 Charge =  0 Multiplicity = 2

                         Standard orientation:
 ---------------------------------------------------------------------
 Center     Atomic      Atomic             Coordinates (Angstroms)
 Number     Number       Type             X           Y           Z
 ---------------------------------------------------------------------
      1         11           0        2.068019   -2.123804   -0.182087
      2         11           0       -0.097971    2.944479   -0.293146
      3         11           0        3.303170    0.848516    0.053226
      4         11           0       -0.218437    0.021245   -1.735751
      5         11           0       -1.687105   -2.402354   -0.098636
      6         11           0        0.022184    0.071121    2.132248
      7         11           0       -3.389861    0.640797    0.124146
 ---------------------------------------------------------------------

 SCF Done:  E(UB3LYP) =  -1136.13367996     A.U. after   19 cycles

 The electronic state is 2-A.
 Alpha  occ. eigenvalues --  -38.44920 -38.44588 -38.43943 -38.43413 -38.43375
 Alpha  occ. eigenvalues --  -38.43290 -38.43180  -2.20697  -2.20381  -2.19785
 Alpha  occ. eigenvalues --   -2.19311  -2.19261  -2.19139  -2.18993  -1.14372
 Alpha  occ. eigenvalues --   -1.14352  -1.14336  -1.14061  -1.14048  -1.14014
 Alpha  occ. eigenvalues --   -1.13451  -1.13415  -1.13400  -1.13008  -1.12984
 Alpha  occ. eigenvalues --   -1.12956  -1.12922  -1.12915  -1.12896  -1.12811
 Alpha  occ. eigenvalues --   -1.12800  -1.12765  -1.12681  -1.12654  -1.12613
 Alpha  occ. eigenvalues --   -0.18218  -0.13148  -0.11968  -0.10706
 Alpha virt. eigenvalues --   -0.06432  -0.05067  -0.04407  -0.03303  -0.02747
 Alpha virt. eigenvalues --   -0.02663  -0.02059  -0.01115  -0.00521  -0.00356
 Alpha virt. eigenvalues --   -0.00072   0.00332   0.00711   0.00737   0.00828

  Beta  occ. eigenvalues --  -38.44919 -38.44589 -38.43848 -38.43409 -38.43305
  Beta  occ. eigenvalues --  -38.43284 -38.43173  -2.20697  -2.20385  -2.19609
  Beta  occ. eigenvalues --   -2.19256  -2.19185  -2.19132  -2.18984  -1.14358
  Beta  occ. eigenvalues --   -1.14352  -1.14339  -1.14067  -1.14035  -1.14019
  Beta  occ. eigenvalues --   -1.13333  -1.13292  -1.13274  -1.12950  -1.12921
  Beta  occ. eigenvalues --   -1.12902  -1.12901  -1.12892  -1.12835  -1.12792
  Beta  occ. eigenvalues --   -1.12773  -1.12761  -1.12664  -1.12633  -1.12610
  Beta  occ. eigenvalues --   -0.17484  -0.12987  -0.11720
  Beta virt. eigenvalues --   -0.06813  -0.06336  -0.05101  -0.04347  -0.02569
  Beta virt. eigenvalues --   -0.01978  -0.01932  -0.01607  -0.01071  -0.00547
  Beta virt. eigenvalues --   -0.00412   0.00084   0.00350   0.00793   0.00830

 Mulliken charges and spin densities:
               1          2
     1  Na   0.137479  -0.048150
     2  Na  -0.015724  -0.138901
     3  Na   0.083055  -0.052836
     4  Na  -0.021089   0.547446
     5  Na   0.168195  -0.046299
     6  Na  -0.480230   0.793568
     7  Na   0.128314  -0.054828
 Sum of Mulliken charges =  -0.00000   1.00000

 Dipole moment (field-independent basis, Debye):
    X=             -0.2257    Y=              0.2073    Z=              0.1977  Tot=              0.3647
 Quadrupole moment (field-independent basis, Debye-Ang):
   XX=            -51.5380   YY=            -66.6459   ZZ=            -74.8186
   XY=              0.1872   XZ=             -0.5323   YZ=              0.2058

 Normal termination of Gaussian 16 at Thu Dec  7 17:13:55 2023.
