 Gaussian 16, Revision B.01,
 Gaussian 16:  ES64L-G16RevB.01 20-Dec-2017

 -------------------------
 #P B3LYP/6-311+g(d) force
 -------------------------

 -----
 DPGEN
 -----
 Symbolic Z-matrix:
 Charge =  0 Multiplicity = 2

                         Standard orientation:
 ---------------------------------------------------------------------
 Center     Atomic      Atomic             Coordinates (Angstroms)
 Number     Number       Type             X           Y           Z
 ---------------------------------------------------------------------
      1         11           0       -3.194302    1.065575   -0.238991
      2         11           0        0.175914    3.029549    0.273264
      3         11           0        3.145665    0.813629   -0.207329
      4         11           0       -0.467979   -0.056945   -1.428070
      5         11           0        1.775847   -2.081467   -0.496821
      6         11           0        0.341557   -0.444198    1.785478
      7         11           0       -1.776702   -2.326144    0.312469
 ---------------------------------------------------------------------

 SCF Done:  E(UB3LYP) =  -1136.13231979     A.U. after   20 cycles

 The electronic state is 2-A.
 Alpha  occ. eigenvalues --  -38.44322 -38.44131 -38.43636 -38.43576 -38.43336
 Alpha  occ. eigenvalues --  -38.43134 -38.43034  -2.20133  -2.19962  -2.19474
 Alpha  occ. eigenvalues --   -2.19429  -2.19282  -2.19111  -2.19069  -1.13829
 Alpha  occ. eigenvalues --   -1.13783  -1.13761  -1.13643  -1.13627  -1.13599
 Alpha  occ. eigenvalues --   -1.13198  -1.13154  -1.13109  -1.13101  -1.13087
 Alpha  occ. eigenvalues --   -1.13056  -1.13017  -1.12965  -1.12891  -1.12810
 Alpha  occ. eigenvalues --   -1.12733  -1.12724  -1.12704  -1.12691  -1.12683
 Alpha  occ. eigenvalues --   -0.18869  -0.13268  -0.12457  -0.10396
 Alpha virt. eigenvalues --   -0.05953  -0.05197  -0.04703  -0.03079  -0.02690
 Alpha virt. eigenvalues --   -0.02063  -0.01759  -0.01215  -0.00515  -0.00321
 Alpha virt. eigenvalues --    0.00025   0.00318   0.00775   0.00843   0.00876

  Beta  occ. eigenvalues --  -38.44316 -38.44126 -38.43631 -38.43563 -38.43315
  Beta  occ. eigenvalues --  -38.43049 -38.42982  -2.20124  -2.19956  -2.19455
  Beta  occ. eigenvalues --   -2.19421  -2.19248  -2.18977  -2.18957  -1.13814
  Beta  occ. eigenvalues --   -1.13771  -1.13757  -1.13642  -1.13609  -1.13588
  Beta  occ. eigenvalues --   -1.13186  -1.13105  -1.13100  -1.13087  -1.13076
  Beta  occ. eigenvalues --   -1.13052  -1.12992  -1.12912  -1.12860  -1.12727
  Beta  occ. eigenvalues --   -1.12650  -1.12625  -1.12621  -1.12618  -1.12587
  Beta  occ. eigenvalues --   -0.18181  -0.12986  -0.12209
  Beta virt. eigenvalues --   -0.06555  -0.05835  -0.05180  -0.04640  -0.02356
  Beta virt. eigenvalues --   -0.01987  -0.01672  -0.01204  -0.01016  -0.00516
  Beta virt. eigenvalues --   -0.00338   0.00168   0.00371   0.00812   0.00872

 Mulliken charges and spin densities:
               1          2
     1  Na  -0.004159  -0.080749
     2  Na  -0.165775  -0.052777
     3  Na  -0.110300  -0.042561
     4  Na  -0.213591   0.345411
     5  Na   0.458180   0.139850
     6  Na  -0.299792   0.685023
     7  Na   0.335437   0.005802
 Sum of Mulliken charges =  -0.00000   1.00000

 Dipole moment (field-independent basis, Debye):
    X=             -0.2206    Y=              0.1936    Z=              0.1585  Tot=              0.3335
 Quadrupole moment (field-independent basis, Debye-Ang):
   XX=            -53.5496   YY=            -62.2674   ZZ=            -76.0649
   XY=              0.7665   XZ=             -1.4709   YZ=              0.6563

 Normal termination of Gaussian 16 at Wed Nov 29 00:37:28 2023.
