 Gaussian 16, Revision B.01,
 Gaussian 16:  ES64L-G16RevB.01 20-Dec-2017

 -------------------------
 #P B3LYP/6-311+g(d) force
 -------------------------

 -----
 DPGEN
 -----
 Symbolic Z-matrix:
 Charge =  0 Multiplicity = 2

                         Standard orientation:
 ---------------------------------------------------------------------
 Center     Atomic      Atomic             Coordinates (Angstroms)
 Number     Number       Type             X           Y           Z
 ---------------------------------------------------------------------
      1         11           0       -4.304471   -1.045282   -1.024856
      2         11           0       -1.591283    1.023727   -1.643951
      3         11           0        0.573260    2.356899    1.728958
      4         11           0        3.617016   -2.284432   -0.133309
      5         11           0        3.116539    1.367667   -1.546320
      6         11           0        0.903879   -1.088893    1.039724
      7         11           0       -2.314939   -0.329686    1.579753
 ---------------------------------------------------------------------

 SCF Done:  E(UB3LYP) =  -1136.11588314     A.U. after   24 cycles

 The electronic state is 2-A.
 Alpha  occ. eigenvalues --  -38.45678 -38.45389 -38.44373 -38.43755 -38.43651
 Alpha  occ. eigenvalues --  -38.43380 -38.43191  -2.21464  -2.21129  -2.20240
 Alpha  occ. eigenvalues --   -2.19564  -2.19546  -2.19156  -2.18998  -1.15157
 Alpha  occ. eigenvalues --   -1.15122  -1.15058  -1.14809  -1.14774  -1.14741
 Alpha  occ. eigenvalues --   -1.13954  -1.13903  -1.13831  -1.13242  -1.13238
 Alpha  occ. eigenvalues --   -1.13225  -1.13204  -1.13202  -1.13171  -1.12846
 Alpha  occ. eigenvalues --   -1.12817  -1.12792  -1.12677  -1.12653  -1.12612
 Alpha  occ. eigenvalues --   -0.17206  -0.13789  -0.11463  -0.11058
 Alpha virt. eigenvalues --   -0.06701  -0.05788  -0.04673  -0.03175  -0.02953
 Alpha virt. eigenvalues --   -0.02552  -0.02305  -0.01347  -0.01253  -0.00369
 Alpha virt. eigenvalues --   -0.00095   0.00033   0.00143   0.00334   0.00489

  Beta  occ. eigenvalues --  -38.45635 -38.45336 -38.44343 -38.43759 -38.43597
  Beta  occ. eigenvalues --  -38.43386 -38.43170  -2.21384  -2.21031  -2.20186
  Beta  occ. eigenvalues --   -2.19574  -2.19450  -2.19169  -2.18960  -1.15104
  Beta  occ. eigenvalues --   -1.15066  -1.14994  -1.14741  -1.14707  -1.14670
  Beta  occ. eigenvalues --   -1.13909  -1.13865  -1.13795  -1.13242  -1.13231
  Beta  occ. eigenvalues --   -1.13206  -1.13179  -1.13130  -1.13093  -1.12856
  Beta  occ. eigenvalues --   -1.12819  -1.12792  -1.12640  -1.12628  -1.12590
  Beta  occ. eigenvalues --   -0.16583  -0.13514  -0.10909
  Beta virt. eigenvalues --   -0.07850  -0.06152  -0.05245  -0.04574  -0.02699
  Beta virt. eigenvalues --   -0.02483  -0.02236  -0.02100  -0.01174  -0.00951
  Beta virt. eigenvalues --   -0.00204   0.00112   0.00155   0.00188   0.00511

 Mulliken charges and spin densities:
               1          2
     1  Na   0.359761  -0.066697
     2  Na  -0.246071   0.294352
     3  Na   0.039202   0.045979
     4  Na   0.750399   0.007763
     5  Na  -0.017539   0.257586
     6  Na  -1.226041   0.392321
     7  Na   0.340288   0.068696
 Sum of Mulliken charges =  -0.00000   1.00000

 Dipole moment (field-independent basis, Debye):
    X=             -0.7173    Y=              0.8304    Z=             -0.3647  Tot=              1.1563
 Quadrupole moment (field-independent basis, Debye-Ang):
   XX=            -61.5157   YY=            -68.2487   ZZ=            -68.9211
   XY=              5.6412   XZ=             -2.8031   YZ=             -2.7105

 Normal termination of Gaussian 16 at Sun Dec  3 23:18:51 2023.
