 Gaussian 16, Revision B.01,
 Gaussian 16:  ES64L-G16RevB.01 20-Dec-2017

 -------------------------
 #P B3LYP/6-311+g(d) force
 -------------------------

 -----
 DPGEN
 -----
 Symbolic Z-matrix:
 Charge =  0 Multiplicity = 2

                         Standard orientation:
 ---------------------------------------------------------------------
 Center     Atomic      Atomic             Coordinates (Angstroms)
 Number     Number       Type             X           Y           Z
 ---------------------------------------------------------------------
      1         11           0        3.044680   -1.356387   -0.196799
      2         11           0        0.123672    0.133830   -1.783728
      3         11           0       -0.221097   -2.425691    0.199477
      4         11           0        2.067812    2.191432    0.024195
      5         11           0       -1.612862    2.305064    0.119743
      6         11           0        0.045035   -0.046080    1.904348
      7         11           0       -3.447240   -0.802167   -0.267236
 ---------------------------------------------------------------------

 SCF Done:  E(UB3LYP) =  -1136.13389772     A.U. after   19 cycles

 The electronic state is 2-A.
 Alpha  occ. eigenvalues --  -38.44521 -38.44207 -38.43530 -38.43528 -38.43479
 Alpha  occ. eigenvalues --  -38.43396 -38.42972  -2.20298  -2.20020  -2.19475
 Alpha  occ. eigenvalues --   -2.19442  -2.19371  -2.19252  -2.18904  -1.13969
 Alpha  occ. eigenvalues --   -1.13959  -1.13933  -1.13691  -1.13672  -1.13668
 Alpha  occ. eigenvalues --   -1.13202  -1.13167  -1.13140  -1.13095  -1.13088
 Alpha  occ. eigenvalues --   -1.13052  -1.13029  -1.13015  -1.12997  -1.12928
 Alpha  occ. eigenvalues --   -1.12925  -1.12859  -1.12607  -1.12572  -1.12477
 Alpha  occ. eigenvalues --   -0.18759  -0.13055  -0.12219  -0.10763
 Alpha virt. eigenvalues --   -0.06119  -0.05278  -0.04041  -0.03154  -0.02822
 Alpha virt. eigenvalues --   -0.02516  -0.02026  -0.01242  -0.00250  -0.00099
 Alpha virt. eigenvalues --   -0.00005   0.00296   0.00721   0.00847   0.00901

  Beta  occ. eigenvalues --  -38.44519 -38.44204 -38.43525 -38.43459 -38.43389
  Beta  occ. eigenvalues --  -38.43384 -38.42957  -2.20296  -2.20017  -2.19366
  Beta  occ. eigenvalues --   -2.19348  -2.19269  -2.19243  -2.18883  -1.13963
  Beta  occ. eigenvalues --   -1.13953  -1.13934  -1.13680  -1.13669  -1.13662
  Beta  occ. eigenvalues --   -1.13111  -1.13079  -1.13058  -1.13031  -1.13021
  Beta  occ. eigenvalues --   -1.12996  -1.12974  -1.12968  -1.12919  -1.12904
  Beta  occ. eigenvalues --   -1.12883  -1.12856  -1.12586  -1.12516  -1.12470
  Beta  occ. eigenvalues --   -0.18012  -0.12837  -0.11947
  Beta virt. eigenvalues --   -0.06860  -0.06027  -0.05292  -0.04034  -0.02450
  Beta virt. eigenvalues --   -0.01989  -0.01903  -0.01460  -0.01204  -0.00303
  Beta virt. eigenvalues --   -0.00078   0.00086   0.00318   0.00777   0.00834

 Mulliken charges and spin densities:
               1          2
     1  Na   0.112549  -0.085062
     2  Na  -0.446549   0.786011
     3  Na   0.347723  -0.046789
     4  Na   0.130910  -0.127477
     5  Na   0.131306  -0.101695
     6  Na  -0.243254   0.627548
     7  Na  -0.032685  -0.052535
 Sum of Mulliken charges =  -0.00000   1.00000

 Dipole moment (field-independent basis, Debye):
    X=             -0.0101    Y=              0.0452    Z=             -0.0928  Tot=              0.1038
 Quadrupole moment (field-independent basis, Debye-Ang):
   XX=            -50.5493   YY=            -67.1927   ZZ=            -74.2576
   XY=             -0.0034   XZ=              0.3687   YZ=              0.8283

 Normal termination of Gaussian 16 at Fri Dec  8 07:45:53 2023.
