 Gaussian 16, Revision B.01,
 Gaussian 16:  ES64L-G16RevB.01 20-Dec-2017

 -------------------------
 #P B3LYP/6-311+g(d) force
 -------------------------

 -----
 DPGEN
 -----
 Symbolic Z-matrix:
 Charge =  0 Multiplicity = 2

                         Standard orientation:
 ---------------------------------------------------------------------
 Center     Atomic      Atomic             Coordinates (Angstroms)
 Number     Number       Type             X           Y           Z
 ---------------------------------------------------------------------
      1         11           0       -4.046313    0.365734    0.200333
      2         11           0        2.293755    2.475623   -0.315119
      3         11           0        4.060627   -1.119687    0.624856
      4         11           0        1.342528   -0.945962   -1.212284
      5         11           0       -1.858910   -1.814755   -0.863034
      6         11           0       -0.609488   -0.920347    1.518685
      7         11           0       -1.182199    1.959395    0.046564
 ---------------------------------------------------------------------

 SCF Done:  E(UB3LYP) =  -1136.11416727     A.U. after   24 cycles

 The electronic state is 2-A.
 Alpha  occ. eigenvalues --  -38.46097 -38.44059 -38.43979 -38.43908 -38.43752
 Alpha  occ. eigenvalues --  -38.43434 -38.42890  -2.22019  -2.20020  -2.19759
 Alpha  occ. eigenvalues --   -2.19731  -2.19633  -2.19347  -2.18772  -1.15764
 Alpha  occ. eigenvalues --   -1.15677  -1.15603  -1.13736  -1.13677  -1.13630
 Alpha  occ. eigenvalues --   -1.13448  -1.13412  -1.13394  -1.13387  -1.13366
 Alpha  occ. eigenvalues --   -1.13344  -1.13291  -1.13273  -1.13247  -1.13037
 Alpha  occ. eigenvalues --   -1.13034  -1.12957  -1.12494  -1.12446  -1.12378
 Alpha  occ. eigenvalues --   -0.18507  -0.14330  -0.11653  -0.10428
 Alpha virt. eigenvalues --   -0.07246  -0.05684  -0.04125  -0.03461  -0.03135
 Alpha virt. eigenvalues --   -0.02013  -0.01713  -0.01381  -0.01016  -0.00579
 Alpha virt. eigenvalues --   -0.00294   0.00091   0.00297   0.00534   0.00668

  Beta  occ. eigenvalues --  -38.46092 -38.44041 -38.43976 -38.43809 -38.43685
  Beta  occ. eigenvalues --  -38.43419 -38.42883  -2.22011  -2.19992  -2.19756
  Beta  occ. eigenvalues --   -2.19547  -2.19506  -2.19329  -2.18763  -1.15753
  Beta  occ. eigenvalues --   -1.15668  -1.15604  -1.13723  -1.13648  -1.13585
  Beta  occ. eigenvalues --   -1.13448  -1.13411  -1.13376  -1.13266  -1.13242
  Beta  occ. eigenvalues --   -1.13220  -1.13205  -1.13188  -1.13166  -1.13030
  Beta  occ. eigenvalues --   -1.12977  -1.12941  -1.12490  -1.12438  -1.12348
  Beta  occ. eigenvalues --   -0.18042  -0.13584  -0.11336
  Beta virt. eigenvalues --   -0.07104  -0.06881  -0.05592  -0.03542  -0.03264
  Beta virt. eigenvalues --   -0.02696  -0.01895  -0.01379  -0.01239  -0.00477
  Beta virt. eigenvalues --   -0.00318   0.00014   0.00169   0.00482   0.00625

 Mulliken charges and spin densities:
               1          2
     1  Na   0.519015   0.475947
     2  Na  -0.011334  -0.054294
     3  Na   0.049338   0.590594
     4  Na   0.157714   0.092029
     5  Na   0.194456   0.090456
     6  Na  -0.045253  -0.190201
     7  Na  -0.863936  -0.004531
 Sum of Mulliken charges =  -0.00000   1.00000

 Dipole moment (field-independent basis, Debye):
    X=             -0.5060    Y=             -0.4592    Z=              0.3390  Tot=              0.7627
 Quadrupole moment (field-independent basis, Debye-Ang):
   XX=            -69.1782   YY=            -75.8132   ZZ=            -61.1923
   XY=              6.2983   XZ=              1.5507   YZ=             -1.1453

 Normal termination of Gaussian 16 at Tue Dec  5 23:41:34 2023.
