 Gaussian 16, Revision B.01,
 Gaussian 16:  ES64L-G16RevB.01 20-Dec-2017

 -------------------------
 #P B3LYP/6-311+g(d) force
 -------------------------

 -----
 DPGEN
 -----
 Symbolic Z-matrix:
 Charge =  0 Multiplicity = 2

                         Standard orientation:
 ---------------------------------------------------------------------
 Center     Atomic      Atomic             Coordinates (Angstroms)
 Number     Number       Type             X           Y           Z
 ---------------------------------------------------------------------
      1         11           0        0.272727   -0.283038   -1.567942
      2         11           0       -3.315893   -1.719497   -0.510668
      3         11           0       -2.251960    1.642658    0.281697
      4         11           0        2.689424    0.606010    0.758327
      5         11           0        2.719860   -2.339757   -0.330770
      6         11           0        0.689126    3.008887   -0.449720
      7         11           0       -0.803283   -0.915262    1.819075
 ---------------------------------------------------------------------

 SCF Done:  E(UB3LYP) =  -1136.12985488     A.U. after   21 cycles

 The electronic state is 2-A.
 Alpha  occ. eigenvalues --  -38.44523 -38.44191 -38.44115 -38.43973 -38.43731
 Alpha  occ. eigenvalues --  -38.43489 -38.42775  -2.20309  -2.20051  -2.19997
 Alpha  occ. eigenvalues --   -2.19801  -2.19597  -2.19400  -2.18632  -1.13983
 Alpha  occ. eigenvalues --   -1.13968  -1.13943  -1.13756  -1.13724  -1.13690
 Alpha  occ. eigenvalues --   -1.13664  -1.13663  -1.13653  -1.13464  -1.13449
 Alpha  occ. eigenvalues --   -1.13433  -1.13282  -1.13247  -1.13193  -1.13097
 Alpha  occ. eigenvalues --   -1.13036  -1.13019  -1.12303  -1.12291  -1.12281
 Alpha  occ. eigenvalues --   -0.18224  -0.13619  -0.12065  -0.10287
 Alpha virt. eigenvalues --   -0.06175  -0.05818  -0.04308  -0.03584  -0.02588
 Alpha virt. eigenvalues --   -0.02199  -0.01981  -0.01415  -0.00661  -0.00278
 Alpha virt. eigenvalues --    0.00066   0.00309   0.00663   0.00696   0.00728

  Beta  occ. eigenvalues --  -38.44518 -38.44182 -38.44100 -38.43971 -38.43661
  Beta  occ. eigenvalues --  -38.43427 -38.42772  -2.20300  -2.20039  -2.19971
  Beta  occ. eigenvalues --   -2.19800  -2.19468  -2.19287  -2.18629  -1.13977
  Beta  occ. eigenvalues --   -1.13949  -1.13939  -1.13742  -1.13691  -1.13678
  Beta  occ. eigenvalues --   -1.13663  -1.13649  -1.13614  -1.13455  -1.13444
  Beta  occ. eigenvalues --   -1.13427  -1.13197  -1.13149  -1.13100  -1.13013
  Beta  occ. eigenvalues --   -1.12953  -1.12938  -1.12302  -1.12286  -1.12265
  Beta  occ. eigenvalues --   -0.17541  -0.13435  -0.11891
  Beta virt. eigenvalues --   -0.06517  -0.06011  -0.05712  -0.04235  -0.02899
  Beta virt. eigenvalues --   -0.02023  -0.01834  -0.01426  -0.01179  -0.00676
  Beta virt. eigenvalues --   -0.00133   0.00167   0.00350   0.00713   0.00775

 Mulliken charges and spin densities:
               1          2
     1  Na  -0.311716   0.452193
     2  Na   0.042656  -0.009625
     3  Na   0.169109   0.112339
     4  Na   0.125106   0.168984
     5  Na   0.119982  -0.033880
     6  Na   0.081826  -0.048221
     7  Na  -0.226965   0.358211
 Sum of Mulliken charges =  -0.00000   1.00000

 Dipole moment (field-independent basis, Debye):
    X=             -0.4115    Y=             -0.6071    Z=              0.0221  Tot=              0.7337
 Quadrupole moment (field-independent basis, Debye-Ang):
   XX=            -54.0018   YY=            -63.3246   ZZ=            -75.5595
   XY=              0.3883   XZ=              2.1254   YZ=              1.4685

 Normal termination of Gaussian 16 at Tue Dec  5 11:01:32 2023.
