 Gaussian 16, Revision B.01,
 Gaussian 16:  ES64L-G16RevB.01 20-Dec-2017

 -------------------------
 #P B3LYP/6-311+g(d) force
 -------------------------

 -----
 DPGEN
 -----
 Symbolic Z-matrix:
 Charge =  0 Multiplicity = 2

                         Standard orientation:
 ---------------------------------------------------------------------
 Center     Atomic      Atomic             Coordinates (Angstroms)
 Number     Number       Type             X           Y           Z
 ---------------------------------------------------------------------
      1         11           0        0.148419    0.136005   -1.676622
      2         11           0       -2.117923    1.957402    0.183243
      3         11           0        0.477399   -0.066048    2.258908
      4         11           0       -0.532543   -2.574710   -0.010176
      5         11           0        1.806210    2.531491   -0.214840
      6         11           0       -2.914460   -0.732474   -0.270288
      7         11           0        3.132897   -1.251666   -0.270224
 ---------------------------------------------------------------------

 SCF Done:  E(UB3LYP) =  -1136.12842485     A.U. after   20 cycles

 The electronic state is 2-A.
 Alpha  occ. eigenvalues --  -38.44703 -38.44027 -38.43858 -38.43785 -38.43774
 Alpha  occ. eigenvalues --  -38.43386 -38.43115  -2.20476  -2.19875  -2.19805
 Alpha  occ. eigenvalues --   -2.19655  -2.19592  -2.19358  -2.19018  -1.14157
 Alpha  occ. eigenvalues --   -1.14123  -1.14117  -1.13675  -1.13533  -1.13500
 Alpha  occ. eigenvalues --   -1.13493  -1.13484  -1.13427  -1.13302  -1.13291
 Alpha  occ. eigenvalues --   -1.13281  -1.13250  -1.13230  -1.13215  -1.13050
 Alpha  occ. eigenvalues --   -1.13000  -1.12974  -1.12703  -1.12671  -1.12640
 Alpha  occ. eigenvalues --   -0.18680  -0.13279  -0.12093  -0.11053
 Alpha virt. eigenvalues --   -0.06104  -0.05230  -0.04090  -0.03471  -0.02908
 Alpha virt. eigenvalues --   -0.02834  -0.01811  -0.01095  -0.00280  -0.00105
 Alpha virt. eigenvalues --   -0.00043   0.00337   0.00735   0.00833   0.00848

  Beta  occ. eigenvalues --  -38.44701 -38.43922 -38.43854 -38.43782 -38.43769
  Beta  occ. eigenvalues --  -38.43327 -38.43107  -2.20474  -2.19801  -2.19682
  Beta  occ. eigenvalues --   -2.19649  -2.19588  -2.19250  -2.19007  -1.14139
  Beta  occ. eigenvalues --   -1.14124  -1.14117  -1.13676  -1.13484  -1.13405
  Beta  occ. eigenvalues --   -1.13400  -1.13365  -1.13356  -1.13291  -1.13277
  Beta  occ. eigenvalues --   -1.13263  -1.13238  -1.13230  -1.13215  -1.12978
  Beta  occ. eigenvalues --   -1.12923  -1.12895  -1.12697  -1.12642  -1.12627
  Beta  occ. eigenvalues --   -0.17946  -0.13057  -0.11873
  Beta virt. eigenvalues --   -0.07082  -0.06078  -0.05187  -0.04053  -0.02694
  Beta virt. eigenvalues --   -0.02081  -0.01822  -0.01699  -0.01037  -0.00319
  Beta virt. eigenvalues --   -0.00125   0.00096   0.00367   0.00803   0.00856

 Mulliken charges and spin densities:
               1          2
     1  Na  -0.299026   0.283082
     2  Na   0.292478   0.077609
     3  Na  -0.681642   0.687313
     4  Na   0.418660   0.085797
     5  Na   0.080152  -0.059830
     6  Na   0.051682   0.008493
     7  Na   0.137695  -0.082465
 Sum of Mulliken charges =  -0.00000   1.00000

 Dipole moment (field-independent basis, Debye):
    X=              0.7840    Y=              0.0461    Z=              0.1592  Tot=              0.8013
 Quadrupole moment (field-independent basis, Debye-Ang):
   XX=            -55.3287   YY=            -66.4579   ZZ=            -72.8837
   XY=             -0.6217   XZ=             -0.4043   YZ=              0.7619

 Normal termination of Gaussian 16 at Fri Dec  8 04:22:46 2023.
