 Gaussian 16, Revision B.01,
 Gaussian 16:  ES64L-G16RevB.01 20-Dec-2017

 -------------------------
 #P B3LYP/6-311+g(d) force
 -------------------------

 -----
 DPGEN
 -----
 Symbolic Z-matrix:
 Charge =  0 Multiplicity = 2

                         Standard orientation:
 ---------------------------------------------------------------------
 Center     Atomic      Atomic             Coordinates (Angstroms)
 Number     Number       Type             X           Y           Z
 ---------------------------------------------------------------------
      1         11           0        2.224531   -1.919110    0.393830
      2         11           0       -3.074578    0.289194   -0.312945
      3         11           0        0.202263   -0.273555   -1.738560
      4         11           0        3.023822    1.193896   -0.182293
      5         11           0       -0.543827    0.097010    1.835947
      6         11           0       -0.490798    2.913109    0.080462
      7         11           0       -1.341411   -2.300545   -0.076440
 ---------------------------------------------------------------------

 SCF Done:  E(UB3LYP) =  -1136.13437341     A.U. after   19 cycles

 The electronic state is 2-A.
 Alpha  occ. eigenvalues --  -38.44241 -38.44236 -38.43584 -38.43375 -38.43304
 Alpha  occ. eigenvalues --  -38.43235 -38.43081  -2.20125  -2.20048  -2.19452
 Alpha  occ. eigenvalues --   -2.19351  -2.19270  -2.19057  -2.19050  -1.13819
 Alpha  occ. eigenvalues --   -1.13784  -1.13757  -1.13725  -1.13721  -1.13683
 Alpha  occ. eigenvalues --   -1.13144  -1.13116  -1.13094  -1.13074  -1.12995
 Alpha  occ. eigenvalues --   -1.12964  -1.12954  -1.12924  -1.12886  -1.12736
 Alpha  occ. eigenvalues --   -1.12722  -1.12714  -1.12690  -1.12683  -1.12662
 Alpha  occ. eigenvalues --   -0.18992  -0.13418  -0.12262  -0.10764
 Alpha virt. eigenvalues --   -0.05955  -0.05048  -0.04444  -0.03363  -0.02764
 Alpha virt. eigenvalues --   -0.02413  -0.01681  -0.00984  -0.00380  -0.00144
 Alpha virt. eigenvalues --   -0.00003   0.00357   0.00802   0.00890   0.00916

  Beta  occ. eigenvalues --  -38.44235 -38.44232 -38.43576 -38.43304 -38.43232
  Beta  occ. eigenvalues --  -38.43222 -38.43068  -2.20111  -2.20049  -2.19439
  Beta  occ. eigenvalues --   -2.19221  -2.19121  -2.19055  -2.19032  -1.13814
  Beta  occ. eigenvalues --   -1.13754  -1.13740  -1.13726  -1.13707  -1.13685
  Beta  occ. eigenvalues --   -1.13128  -1.13096  -1.13073  -1.13004  -1.12902
  Beta  occ. eigenvalues --   -1.12872  -1.12860  -1.12828  -1.12781  -1.12716
  Beta  occ. eigenvalues --   -1.12708  -1.12689  -1.12683  -1.12660  -1.12620
  Beta  occ. eigenvalues --   -0.18245  -0.13190  -0.12003
  Beta virt. eigenvalues --   -0.06833  -0.05903  -0.05020  -0.04420  -0.02593
  Beta virt. eigenvalues --   -0.01996  -0.01600  -0.01370  -0.00913  -0.00403
  Beta virt. eigenvalues --   -0.00195   0.00137   0.00385   0.00853   0.00896

 Mulliken charges and spin densities:
               1          2
     1  Na   0.087338   0.000437
     2  Na   0.225038  -0.034000
     3  Na  -0.301550   0.527225
     4  Na  -0.053557  -0.096148
     5  Na  -0.339035   0.664959
     6  Na  -0.116850  -0.158961
     7  Na   0.498617   0.096488
 Sum of Mulliken charges =  -0.00000   1.00000

 Dipole moment (field-independent basis, Debye):
    X=              0.1203    Y=              0.1854    Z=             -0.0176  Tot=              0.2217
 Quadrupole moment (field-independent basis, Debye-Ang):
   XX=            -54.2626   YY=            -65.0788   ZZ=            -74.1207
   XY=              0.0891   XZ=              1.5414   YZ=             -1.2315

 Normal termination of Gaussian 16 at Thu Dec  7 17:13:16 2023.
