 Gaussian 16, Revision B.01,
 Gaussian 16:  ES64L-G16RevB.01 20-Dec-2017

 -------------------------
 #P B3LYP/6-311+g(d) force
 -------------------------

 -----
 DPGEN
 -----
 Symbolic Z-matrix:
 Charge =  0 Multiplicity = 2

                         Standard orientation:
 ---------------------------------------------------------------------
 Center     Atomic      Atomic             Coordinates (Angstroms)
 Number     Number       Type             X           Y           Z
 ---------------------------------------------------------------------
      1         11           0        3.189044    0.866656    0.036704
      2         11           0        0.127872    2.794284    0.232696
      3         11           0       -3.205323    0.809534    0.105887
      4         11           0        0.905571   -0.595611    1.707638
      5         11           0       -1.991951   -2.246461    0.430997
      6         11           0       -0.783230    0.629222   -1.544222
      7         11           0        1.758018   -2.257624   -0.969700
 ---------------------------------------------------------------------

 SCF Done:  E(UB3LYP) =  -1136.12845622     A.U. after   21 cycles

 The electronic state is 2-A.
 Alpha  occ. eigenvalues --  -38.44577 -38.44574 -38.43597 -38.43578 -38.43444
 Alpha  occ. eigenvalues --  -38.43388 -38.43353  -2.20441  -2.20409  -2.19431
 Alpha  occ. eigenvalues --   -2.19420  -2.19376  -2.19308  -2.19277  -1.14185
 Alpha  occ. eigenvalues --   -1.14106  -1.14085  -1.14062  -1.14061  -1.14041
 Alpha  occ. eigenvalues --   -1.13205  -1.13113  -1.13105  -1.13092  -1.13077
 Alpha  occ. eigenvalues --   -1.13072  -1.13047  -1.13027  -1.12997  -1.12960
 Alpha  occ. eigenvalues --   -1.12942  -1.12921  -1.12917  -1.12891  -1.12880
 Alpha  occ. eigenvalues --   -0.18479  -0.13650  -0.12317  -0.10291
 Alpha virt. eigenvalues --   -0.06176  -0.05327  -0.04554  -0.03478  -0.02844
 Alpha virt. eigenvalues --   -0.02022  -0.01819  -0.01090  -0.00437  -0.00405
 Alpha virt. eigenvalues --   -0.00011   0.00340   0.00722   0.00835   0.00840

  Beta  occ. eigenvalues --  -38.44572 -38.44572 -38.43584 -38.43539 -38.43439
  Beta  occ. eigenvalues --  -38.43337 -38.43298  -2.20440  -2.20404  -2.19410
  Beta  occ. eigenvalues --   -2.19350  -2.19308  -2.19276  -2.19176  -1.14178
  Beta  occ. eigenvalues --   -1.14095  -1.14073  -1.14062  -1.14050  -1.14030
  Beta  occ. eigenvalues --   -1.13169  -1.13091  -1.13068  -1.13062  -1.13052
  Beta  occ. eigenvalues --   -1.13013  -1.13001  -1.12971  -1.12940  -1.12929
  Beta  occ. eigenvalues --   -1.12909  -1.12875  -1.12844  -1.12841  -1.12815
  Beta  occ. eigenvalues --   -0.17852  -0.13407  -0.12056
  Beta virt. eigenvalues --   -0.06584  -0.06070  -0.05260  -0.04367  -0.02821
  Beta virt. eigenvalues --   -0.02152  -0.01769  -0.01149  -0.00986  -0.00441
  Beta virt. eigenvalues --   -0.00354   0.00155   0.00400   0.00819   0.00849

 Mulliken charges and spin densities:
               1          2
     1  Na   0.335891   0.029768
     2  Na  -0.221730  -0.133522
     3  Na   0.074684  -0.057516
     4  Na  -0.142887   0.501465
     5  Na  -0.034608   0.031389
     6  Na   0.228471   0.449988
     7  Na  -0.239822   0.178428
 Sum of Mulliken charges =  -0.00000   1.00000

 Dipole moment (field-independent basis, Debye):
    X=              0.0164    Y=              0.2033    Z=              0.1187  Tot=              0.2360
 Quadrupole moment (field-independent basis, Debye-Ang):
   XX=            -52.7866   YY=            -65.7277   ZZ=            -75.1356
   XY=              0.6031   XZ=             -2.4547   YZ=              2.0009

 Normal termination of Gaussian 16 at Wed Nov 29 00:26:53 2023.
