 Gaussian 16, Revision B.01,
 Gaussian 16:  ES64L-G16RevB.01 20-Dec-2017

 -------------------------
 #P B3LYP/6-311+g(d) force
 -------------------------

 -----
 DPGEN
 -----
 Symbolic Z-matrix:
 Charge =  0 Multiplicity = 2

                         Standard orientation:
 ---------------------------------------------------------------------
 Center     Atomic      Atomic             Coordinates (Angstroms)
 Number     Number       Type             X           Y           Z
 ---------------------------------------------------------------------
      1         11           0        3.093356   -1.565189    0.690311
      2         11           0       -0.636843    2.860004   -0.042887
      3         11           0       -3.251537    0.541306    0.268382
      4         11           0        0.248250   -0.396104   -1.812289
      5         11           0       -1.791659   -2.789006   -0.414154
      6         11           0        2.505154    1.403294   -0.510370
      7         11           0       -0.166721   -0.054305    1.821006
 ---------------------------------------------------------------------

 SCF Done:  E(UB3LYP) =  -1136.13306244     A.U. after   20 cycles

 The electronic state is 2-A.
 Alpha  occ. eigenvalues --  -38.44583 -38.44238 -38.44029 -38.43653 -38.43630
 Alpha  occ. eigenvalues --  -38.43484 -38.42861  -2.20389  -2.20048  -2.19904
 Alpha  occ. eigenvalues --   -2.19552  -2.19533  -2.19282  -2.18707  -1.14074
 Alpha  occ. eigenvalues --   -1.14050  -1.14012  -1.13719  -1.13702  -1.13683
 Alpha  occ. eigenvalues --   -1.13595  -1.13541  -1.13518  -1.13311  -1.13211
 Alpha  occ. eigenvalues --   -1.13191  -1.13178  -1.13151  -1.13134  -1.12952
 Alpha  occ. eigenvalues --   -1.12937  -1.12921  -1.12386  -1.12376  -1.12346
 Alpha  occ. eigenvalues --   -0.18256  -0.13374  -0.11947  -0.10807
 Alpha virt. eigenvalues --   -0.06145  -0.05181  -0.04629  -0.03321  -0.02756
 Alpha virt. eigenvalues --   -0.02485  -0.01956  -0.01183  -0.00590  -0.00240
 Alpha virt. eigenvalues --   -0.00076   0.00305   0.00675   0.00752   0.00792

  Beta  occ. eigenvalues --  -38.44578 -38.44213 -38.43967 -38.43638 -38.43555
  Beta  occ. eigenvalues --  -38.43476 -38.42861  -2.20382  -2.20002  -2.19788
  Beta  occ. eigenvalues --   -2.19528  -2.19396  -2.19269  -2.18710  -1.14058
  Beta  occ. eigenvalues --   -1.14047  -1.14008  -1.13693  -1.13657  -1.13653
  Beta  occ. eigenvalues --   -1.13515  -1.13465  -1.13427  -1.13264  -1.13182
  Beta  occ. eigenvalues --   -1.13148  -1.13110  -1.13062  -1.13045  -1.12929
  Beta  occ. eigenvalues --   -1.12925  -1.12914  -1.12388  -1.12379  -1.12329
  Beta  occ. eigenvalues --   -0.17573  -0.13117  -0.11664
  Beta virt. eigenvalues --   -0.07059  -0.05992  -0.05095  -0.04461  -0.02738
  Beta virt. eigenvalues --   -0.02105  -0.01767  -0.01576  -0.01050  -0.00602
  Beta virt. eigenvalues --   -0.00248   0.00070   0.00354   0.00762   0.00821

 Mulliken charges and spin densities:
               1          2
     1  Na  -0.046811   0.129836
     2  Na  -0.210585  -0.033917
     3  Na   0.061317  -0.022943
     4  Na  -0.015970   0.374953
     5  Na  -0.087799  -0.043375
     6  Na   0.378756   0.106524
     7  Na  -0.078907   0.488922
 Sum of Mulliken charges =  -0.00000   1.00000

 Dipole moment (field-independent basis, Debye):
    X=             -0.1744    Y=             -0.2237    Z=              0.1565  Tot=              0.3240
 Quadrupole moment (field-independent basis, Debye-Ang):
   XX=            -54.6897   YY=            -65.6082   ZZ=            -73.7858
   XY=             -1.0961   XZ=              0.3099   YZ=             -1.5398

 Normal termination of Gaussian 16 at Tue Dec  5 16:35:38 2023.
