 Gaussian 16, Revision B.01,
 Gaussian 16:  ES64L-G16RevB.01 20-Dec-2017

 -------------------------
 #P B3LYP/6-311+g(d) force
 -------------------------

 -----
 DPGEN
 -----
 Symbolic Z-matrix:
 Charge =  0 Multiplicity = 2

                         Standard orientation:
 ---------------------------------------------------------------------
 Center     Atomic      Atomic             Coordinates (Angstroms)
 Number     Number       Type             X           Y           Z
 ---------------------------------------------------------------------
      1         11           0        0.160970   -0.408138   -1.450617
      2         11           0       -1.470895    1.363311    0.865316
      3         11           0        2.900650   -1.015023   -0.617134
      4         11           0        1.424554    0.208010    1.586918
      5         11           0       -2.898229   -0.650162   -0.792666
      6         11           0       -0.786319   -1.716551    1.054403
      7         11           0        0.669270    2.218554   -0.646220
 ---------------------------------------------------------------------

 SCF Done:  E(UB3LYP) =  -1136.10129918     A.U. after   22 cycles

 The electronic state is 2-A.
 Alpha  occ. eigenvalues --  -38.44249 -38.44194 -38.43745 -38.43685 -38.43404
 Alpha  occ. eigenvalues --  -38.43155 -38.43001  -2.20178  -2.20163  -2.19910
 Alpha  occ. eigenvalues --   -2.19865  -2.19466  -2.19287  -2.19054  -1.13974
 Alpha  occ. eigenvalues --   -1.13926  -1.13896  -1.13831  -1.13795  -1.13760
 Alpha  occ. eigenvalues --   -1.13691  -1.13638  -1.13574  -1.13491  -1.13462
 Alpha  occ. eigenvalues --   -1.13439  -1.13164  -1.13148  -1.13094  -1.13046
 Alpha  occ. eigenvalues --   -1.12919  -1.12896  -1.12706  -1.12639  -1.12564
 Alpha  occ. eigenvalues --   -0.20723  -0.14017  -0.12216  -0.11919
 Alpha virt. eigenvalues --   -0.05796  -0.04357  -0.03962  -0.03490  -0.02854
 Alpha virt. eigenvalues --   -0.02766  -0.01634  -0.00530  -0.00310   0.00313
 Alpha virt. eigenvalues --    0.00552   0.00657   0.00950   0.00970   0.01036

  Beta  occ. eigenvalues --  -38.44237 -38.44180 -38.43682 -38.43616 -38.43364
  Beta  occ. eigenvalues --  -38.43130 -38.42984  -2.20158  -2.20138  -2.19788
  Beta  occ. eigenvalues --   -2.19752  -2.19399  -2.19248  -2.19028  -1.13949
  Beta  occ. eigenvalues --   -1.13898  -1.13874  -1.13804  -1.13769  -1.13742
  Beta  occ. eigenvalues --   -1.13617  -1.13551  -1.13481  -1.13411  -1.13379
  Beta  occ. eigenvalues --   -1.13361  -1.13131  -1.13112  -1.13010  -1.13004
  Beta  occ. eigenvalues --   -1.12877  -1.12839  -1.12675  -1.12605  -1.12542
  Beta  occ. eigenvalues --   -0.19877  -0.13783  -0.11697
  Beta virt. eigenvalues --   -0.07889  -0.05723  -0.04148  -0.03536  -0.03192
  Beta virt. eigenvalues --   -0.02121  -0.01716  -0.01554  -0.00427  -0.00100
  Beta virt. eigenvalues --    0.00329   0.00588   0.00745   0.00960   0.01040

 Mulliken charges and spin densities:
               1          2
     1  Na  -0.197405   0.411871
     2  Na  -0.025296   0.323920
     3  Na  -0.305988  -0.000519
     4  Na   0.320478   0.129007
     5  Na   0.735521  -0.144056
     6  Na  -0.425983   0.266048
     7  Na  -0.101326   0.013729
 Sum of Mulliken charges =  -0.00000   1.00000

 Dipole moment (field-independent basis, Debye):
    X=              0.0515    Y=             -0.2208    Z=             -0.1254  Tot=              0.2591
 Quadrupole moment (field-independent basis, Debye-Ang):
   XX=            -54.3859   YY=            -73.9220   ZZ=            -66.6993
   XY=             -0.1610   XZ=              0.4297   YZ=             -0.1144

 Normal termination of Gaussian 16 at Fri Dec  8 07:36:03 2023.
