 Gaussian 16, Revision B.01,
 Gaussian 16:  ES64L-G16RevB.01 20-Dec-2017

 -------------------------
 #P B3LYP/6-311+g(d) force
 -------------------------

 -----
 DPGEN
 -----
 Symbolic Z-matrix:
 Charge =  0 Multiplicity = 2

                         Standard orientation:
 ---------------------------------------------------------------------
 Center     Atomic      Atomic             Coordinates (Angstroms)
 Number     Number       Type             X           Y           Z
 ---------------------------------------------------------------------
      1         11           0        1.004048   -2.253322   -0.553694
      2         11           0        0.052425    0.541661    1.861018
      3         11           0       -1.225886    3.618222    0.316962
      4         11           0       -2.291516    0.070930   -1.024962
      5         11           0        1.366811    1.138546   -1.600668
      6         11           0       -2.478221   -2.711729    0.477826
      7         11           0        3.572338   -0.404309    0.523518
 ---------------------------------------------------------------------

 SCF Done:  E(UB3LYP) =  -1136.13252823     A.U. after   19 cycles

 The electronic state is 2-A.
 Alpha  occ. eigenvalues --  -38.44104 -38.44098 -38.43950 -38.43867 -38.43797
 Alpha  occ. eigenvalues --  -38.43718 -38.43619  -2.19943  -2.19922  -2.19710
 Alpha  occ. eigenvalues --   -2.19707  -2.19634  -2.19572  -2.19434  -1.13645
 Alpha  occ. eigenvalues --   -1.13638  -1.13605  -1.13585  -1.13570  -1.13514
 Alpha  occ. eigenvalues --   -1.13404  -1.13393  -1.13383  -1.13379  -1.13348
 Alpha  occ. eigenvalues --   -1.13330  -1.13315  -1.13277  -1.13258  -1.13239
 Alpha  occ. eigenvalues --   -1.13228  -1.13163  -1.13100  -1.13084  -1.13065
 Alpha  occ. eigenvalues --   -0.17844  -0.13006  -0.12320  -0.10411
 Alpha virt. eigenvalues --   -0.05758  -0.05612  -0.04949  -0.03250  -0.02904
 Alpha virt. eigenvalues --   -0.02399  -0.01720  -0.01558  -0.00626  -0.00448
 Alpha virt. eigenvalues --    0.00108   0.00283   0.00661   0.00741   0.00753

  Beta  occ. eigenvalues --  -38.44094 -38.44093 -38.43952 -38.43847 -38.43722
  Beta  occ. eigenvalues --  -38.43659 -38.43619  -2.19927  -2.19915  -2.19715
  Beta  occ. eigenvalues --   -2.19673  -2.19495  -2.19464  -2.19435  -1.13639
  Beta  occ. eigenvalues --   -1.13613  -1.13585  -1.13578  -1.13548  -1.13510
  Beta  occ. eigenvalues --   -1.13389  -1.13379  -1.13370  -1.13355  -1.13347
  Beta  occ. eigenvalues --   -1.13313  -1.13222  -1.13186  -1.13177  -1.13143
  Beta  occ. eigenvalues --   -1.13138  -1.13100  -1.13089  -1.13077  -1.13066
  Beta  occ. eigenvalues --   -0.17129  -0.12859  -0.12172
  Beta virt. eigenvalues --   -0.06593  -0.05596  -0.05546  -0.04775  -0.02652
  Beta virt. eigenvalues --   -0.02361  -0.01688  -0.01546  -0.01373  -0.00529
  Beta virt. eigenvalues --   -0.00248   0.00192   0.00335   0.00702   0.00783

 Mulliken charges and spin densities:
               1          2
     1  Na  -0.146769   0.131757
     2  Na  -0.450348   0.665326
     3  Na   0.105336  -0.114577
     4  Na  -0.152122   0.104296
     5  Na  -0.078401   0.302973
     6  Na   0.352089  -0.074897
     7  Na   0.370215  -0.014878
 Sum of Mulliken charges =  -0.00000   1.00000

 Dipole moment (field-independent basis, Debye):
    X=              0.3835    Y=             -0.0030    Z=              0.0950  Tot=              0.3951
 Quadrupole moment (field-independent basis, Debye-Ang):
   XX=            -58.3323   YY=            -60.1821   ZZ=            -74.2861
   XY=             -0.3924   XZ=              0.7177   YZ=             -1.4385

 Normal termination of Gaussian 16 at Thu Dec  7 14:07:31 2023.
