 Gaussian 16, Revision B.01,
 Gaussian 16:  ES64L-G16RevB.01 20-Dec-2017

 -------------------------
 #P B3LYP/6-311+g(d) force
 -------------------------

 -----
 DPGEN
 -----
 Symbolic Z-matrix:
 Charge =  0 Multiplicity = 2

                         Standard orientation:
 ---------------------------------------------------------------------
 Center     Atomic      Atomic             Coordinates (Angstroms)
 Number     Number       Type             X           Y           Z
 ---------------------------------------------------------------------
      1         11           0       -0.238983    0.961519    1.377508
      2         11           0       -1.952227    3.499452   -0.970691
      3         11           0       -3.635353    0.598530    0.375990
      4         11           0        0.076621   -1.962303   -0.365367
      5         11           0        2.757637   -0.464543    1.069878
      6         11           0       -2.954379   -2.957438   -0.642993
      7         11           0        5.946683    0.324783   -0.844326
 ---------------------------------------------------------------------

 SCF Done:  E(UB3LYP) =  -1136.11821227     A.U. after   21 cycles

 The electronic state is 2-A.
 Alpha  occ. eigenvalues --  -38.45064 -38.44699 -38.44680 -38.44376 -38.43885
 Alpha  occ. eigenvalues --  -38.43301 -38.43063  -2.20851  -2.20489  -2.20433
 Alpha  occ. eigenvalues --   -2.20231  -2.19744  -2.19132  -2.18876  -1.14480
 Alpha  occ. eigenvalues --   -1.14479  -1.14453  -1.14200  -1.14162  -1.14109
 Alpha  occ. eigenvalues --   -1.14105  -1.14082  -1.14041  -1.13926  -1.13920
 Alpha  occ. eigenvalues --   -1.13819  -1.13431  -1.13425  -1.13371  -1.12820
 Alpha  occ. eigenvalues --   -1.12805  -1.12777  -1.12544  -1.12534  -1.12511
 Alpha  occ. eigenvalues --   -0.16732  -0.13720  -0.12135  -0.11414
 Alpha virt. eigenvalues --   -0.06579  -0.05120  -0.04745  -0.03699  -0.02725
 Alpha virt. eigenvalues --   -0.02392  -0.02014  -0.01839  -0.00960  -0.00840
 Alpha virt. eigenvalues --   -0.00583  -0.00230   0.00228   0.00426   0.00561

  Beta  occ. eigenvalues --  -38.44923 -38.44684 -38.44676 -38.44343 -38.43877
  Beta  occ. eigenvalues --  -38.43302 -38.43052  -2.20589  -2.20460  -2.20426
  Beta  occ. eigenvalues --   -2.20172  -2.19732  -2.19141  -2.18856  -1.14302
  Beta  occ. eigenvalues --   -1.14302  -1.14278  -1.14179  -1.14144  -1.14104
  Beta  occ. eigenvalues --   -1.14096  -1.14065  -1.14030  -1.13889  -1.13882
  Beta  occ. eigenvalues --   -1.13764  -1.13424  -1.13416  -1.13355  -1.12833
  Beta  occ. eigenvalues --   -1.12817  -1.12728  -1.12533  -1.12519  -1.12495
  Beta  occ. eigenvalues --   -0.16342  -0.12883  -0.11917
  Beta virt. eigenvalues --   -0.07671  -0.06491  -0.04693  -0.04480  -0.03542
  Beta virt. eigenvalues --   -0.02499  -0.02064  -0.01572  -0.01275  -0.00830
  Beta virt. eigenvalues --   -0.00482  -0.00389   0.00031   0.00342   0.00527

 Mulliken charges and spin densities:
               1          2
     1  Na  -0.513471   0.081482
     2  Na   0.236802   0.028719
     3  Na   0.034011   0.163513
     4  Na  -0.601943  -0.036421
     5  Na   0.378276   0.008215
     6  Na   0.467000   0.055528
     7  Na  -0.000676   0.698965
 Sum of Mulliken charges =  -0.00000   1.00000

 Dipole moment (field-independent basis, Debye):
    X=             -0.5370    Y=              1.1276    Z=             -0.4174  Tot=              1.3169
 Quadrupole moment (field-independent basis, Debye-Ang):
   XX=            -65.0768   YY=            -67.0520   ZZ=            -67.4368
   XY=             -0.8851   XZ=             -2.1985   YZ=             -2.9350

 Normal termination of Gaussian 16 at Wed Nov 29 00:30:14 2023.
