 Gaussian 16, Revision B.01,
 Gaussian 16:  ES64L-G16RevB.01 20-Dec-2017

 -------------------------
 #P B3LYP/6-311+g(d) force
 -------------------------

 -----
 DPGEN
 -----
 Symbolic Z-matrix:
 Charge =  0 Multiplicity = 2

                         Standard orientation:
 ---------------------------------------------------------------------
 Center     Atomic      Atomic             Coordinates (Angstroms)
 Number     Number       Type             X           Y           Z
 ---------------------------------------------------------------------
      1         11           0        1.858220   -1.751912    0.387137
      2         11           0        0.091241   -0.175866   -1.646017
      3         11           0       -1.227608   -2.242373   -0.160676
      4         11           0       -2.831899    0.453092   -0.047070
      5         11           0        0.098860   -0.025770    1.651070
      6         11           0       -0.396172    2.570311    0.220774
      7         11           0        2.407358    1.172519   -0.405219
 ---------------------------------------------------------------------

 SCF Done:  E(UB3LYP) =  -1136.11767008     A.U. after   19 cycles

 The electronic state is 2-A.
 Alpha  occ. eigenvalues --  -38.43618 -38.43477 -38.43437 -38.43387 -38.43335
 Alpha  occ. eigenvalues --  -38.43243 -38.43155  -2.19576  -2.19545  -2.19515
 Alpha  occ. eigenvalues --   -2.19488  -2.19475  -2.19270  -2.19125  -1.13560
 Alpha  occ. eigenvalues --   -1.13391  -1.13364  -1.13253  -1.13238  -1.13223
 Alpha  occ. eigenvalues --   -1.13208  -1.13196  -1.13157  -1.13122  -1.13095
 Alpha  occ. eigenvalues --   -1.13071  -1.13031  -1.13024  -1.13003  -1.12900
 Alpha  occ. eigenvalues --   -1.12874  -1.12848  -1.12796  -1.12766  -1.12732
 Alpha  occ. eigenvalues --   -0.20526  -0.13492  -0.13035  -0.11366
 Alpha virt. eigenvalues --   -0.05151  -0.04609  -0.04507  -0.03298  -0.03056
 Alpha virt. eigenvalues --   -0.02466  -0.01185  -0.00827  -0.00008   0.00322
 Alpha virt. eigenvalues --    0.00378   0.00445   0.00976   0.01041   0.01056

  Beta  occ. eigenvalues --  -38.43614 -38.43461 -38.43419 -38.43302 -38.43253
  Beta  occ. eigenvalues --  -38.43232 -38.43146  -2.19542  -2.19483  -2.19458
  Beta  occ. eigenvalues --   -2.19402  -2.19361  -2.19253  -2.19113  -1.13495
  Beta  occ. eigenvalues --   -1.13327  -1.13298  -1.13223  -1.13214  -1.13187
  Beta  occ. eigenvalues --   -1.13171  -1.13149  -1.13093  -1.13071  -1.13036
  Beta  occ. eigenvalues --   -1.13008  -1.12994  -1.12945  -1.12928  -1.12870
  Beta  occ. eigenvalues --   -1.12844  -1.12809  -1.12776  -1.12734  -1.12720
  Beta  occ. eigenvalues --   -0.19781  -0.13171  -0.12707
  Beta virt. eigenvalues --   -0.07284  -0.05153  -0.04600  -0.04511  -0.02420
  Beta virt. eigenvalues --   -0.02184  -0.01374  -0.01104  -0.00770   0.00113
  Beta virt. eigenvalues --    0.00300   0.00384   0.00398   0.01001   0.01043

 Mulliken charges and spin densities:
               1          2
     1  Na   0.549344   0.058733
     2  Na  -0.587944   0.534831
     3  Na   0.373454  -0.014751
     4  Na  -0.104321  -0.080216
     5  Na  -0.617077   0.517439
     6  Na   0.161496  -0.036232
     7  Na   0.225048   0.020195
 Sum of Mulliken charges =  -0.00000   1.00000

 Dipole moment (field-independent basis, Debye):
    X=             -0.1976    Y=              0.1637    Z=             -0.0421  Tot=              0.2600
 Quadrupole moment (field-independent basis, Debye-Ang):
   XX=            -58.5095   YY=            -63.8426   ZZ=            -72.4362
   XY=             -0.0026   XZ=             -0.1140   YZ=             -0.3829

 Normal termination of Gaussian 16 at Fri Dec  8 17:06:29 2023.
