 Gaussian 16, Revision B.01,
 Gaussian 16:  ES64L-G16RevB.01 20-Dec-2017

 -------------------------
 #P B3LYP/6-311+g(d) force
 -------------------------

 -----
 DPGEN
 -----
 Symbolic Z-matrix:
 Charge =  0 Multiplicity = 2

                         Standard orientation:
 ---------------------------------------------------------------------
 Center     Atomic      Atomic             Coordinates (Angstroms)
 Number     Number       Type             X           Y           Z
 ---------------------------------------------------------------------
      1         11           0        3.686767    0.561235    1.108717
      2         11           0       -2.077263    2.078004   -0.348345
      3         11           0        0.347957   -1.297213    1.885952
      4         11           0       -1.134168   -1.323166   -1.526352
      5         11           0        2.014337   -1.300484   -1.467900
      6         11           0       -3.985359   -0.457182    0.904142
      7         11           0        1.147729    1.738805   -0.556214
 ---------------------------------------------------------------------

 SCF Done:  E(UB3LYP) =  -1136.11962771     A.U. after   26 cycles

 The electronic state is 2-A.
 Alpha  occ. eigenvalues --  -38.45397 -38.45306 -38.44438 -38.43688 -38.43276
 Alpha  occ. eigenvalues --  -38.43133 -38.43122  -2.21171  -2.21081  -2.20262
 Alpha  occ. eigenvalues --   -2.19593  -2.19116  -2.19043  -2.18997  -1.14858
 Alpha  occ. eigenvalues --   -1.14807  -1.14792  -1.14749  -1.14726  -1.14710
 Alpha  occ. eigenvalues --   -1.13928  -1.13919  -1.13898  -1.13308  -1.13226
 Alpha  occ. eigenvalues --   -1.13222  -1.12838  -1.12782  -1.12749  -1.12712
 Alpha  occ. eigenvalues --   -1.12701  -1.12685  -1.12658  -1.12646  -1.12620
 Alpha  occ. eigenvalues --   -0.18144  -0.13948  -0.11451  -0.11067
 Alpha virt. eigenvalues --   -0.07200  -0.04966  -0.04760  -0.03319  -0.02753
 Alpha virt. eigenvalues --   -0.02577  -0.02389  -0.01309  -0.00874  -0.00185
 Alpha virt. eigenvalues --    0.00070   0.00079   0.00301   0.00560   0.00717

  Beta  occ. eigenvalues --  -38.45354 -38.45278 -38.44421 -38.43657 -38.43259
  Beta  occ. eigenvalues --  -38.43099 -38.43096  -2.21090  -2.21027  -2.20231
  Beta  occ. eigenvalues --   -2.19541  -2.19087  -2.18983  -2.18951  -1.14804
  Beta  occ. eigenvalues --   -1.14754  -1.14726  -1.14710  -1.14693  -1.14674
  Beta  occ. eigenvalues --   -1.13905  -1.13905  -1.13870  -1.13257  -1.13202
  Beta  occ. eigenvalues --   -1.13173  -1.12805  -1.12758  -1.12725  -1.12674
  Beta  occ. eigenvalues --   -1.12654  -1.12647  -1.12605  -1.12602  -1.12583
  Beta  occ. eigenvalues --   -0.17456  -0.13752  -0.10749
  Beta virt. eigenvalues --   -0.07820  -0.06742  -0.04775  -0.04379  -0.02990
  Beta virt. eigenvalues --   -0.02412  -0.02121  -0.01745  -0.00950  -0.00777
  Beta virt. eigenvalues --   -0.00127   0.00097   0.00219   0.00388   0.00666

 Mulliken charges and spin densities:
               1          2
     1  Na   0.899175   0.064632
     2  Na  -0.041406  -0.239819
     3  Na  -0.540867   0.328902
     4  Na  -0.289324   0.282792
     5  Na   0.442066  -0.095409
     6  Na   0.434325   0.275715
     7  Na  -0.903968   0.383187
 Sum of Mulliken charges =  -0.00000   1.00000

 Dipole moment (field-independent basis, Debye):
    X=             -0.1733    Y=             -0.9862    Z=              0.9162  Tot=              1.3572
 Quadrupole moment (field-independent basis, Debye-Ang):
   XX=            -48.9155   YY=            -79.5622   ZZ=            -66.9775
   XY=              0.5530   XZ=             -1.4521   YZ=             -1.9906

 Normal termination of Gaussian 16 at Thu Dec  7 10:00:55 2023.
