 Gaussian 16, Revision B.01,
 Gaussian 16:  ES64L-G16RevB.01 20-Dec-2017

 -------------------------
 #P B3LYP/6-311+g(d) force
 -------------------------

 -----
 DPGEN
 -----
 Symbolic Z-matrix:
 Charge =  0 Multiplicity = 2

                         Standard orientation:
 ---------------------------------------------------------------------
 Center     Atomic      Atomic             Coordinates (Angstroms)
 Number     Number       Type             X           Y           Z
 ---------------------------------------------------------------------
      1         11           0       -0.257160   -0.468809    1.998567
      2         11           0       -4.516286    0.294705    0.785257
      3         11           0       -1.688239    1.640760   -0.671389
      4         11           0        4.286516   -0.786228    0.984481
      5         11           0       -2.126095   -2.063579   -1.255746
      6         11           0        2.146816    2.189009   -0.498824
      7         11           0        2.154448   -0.805857   -1.342346
 ---------------------------------------------------------------------

 SCF Done:  E(UB3LYP) =  -1136.10440945     A.U. after   34 cycles

 The electronic state is 2-A.
 Alpha  occ. eigenvalues --  -38.45508 -38.44801 -38.44704 -38.44434 -38.44427
 Alpha  occ. eigenvalues --  -38.44057 -38.43825  -2.21207  -2.20664  -2.20500
 Alpha  occ. eigenvalues --   -2.20251  -2.20242  -2.19873  -2.19639  -1.14918
 Alpha  occ. eigenvalues --   -1.14904  -1.14856  -1.14363  -1.14337  -1.14305
 Alpha  occ. eigenvalues --   -1.14155  -1.14139  -1.14111  -1.13914  -1.13894
 Alpha  occ. eigenvalues --   -1.13886  -1.13872  -1.13868  -1.13851  -1.13572
 Alpha  occ. eigenvalues --   -1.13534  -1.13497  -1.13339  -1.13321  -1.13258
 Alpha  occ. eigenvalues --   -0.17338  -0.14603  -0.11164  -0.10716
 Alpha virt. eigenvalues --   -0.07084  -0.05650  -0.05338  -0.03206  -0.03136
 Alpha virt. eigenvalues --   -0.02229  -0.02015  -0.01692  -0.01463  -0.00695
 Alpha virt. eigenvalues --   -0.00335  -0.00078   0.00148   0.00323   0.00467

  Beta  occ. eigenvalues --  -38.45584 -38.44787 -38.44609 -38.44360 -38.44349
  Beta  occ. eigenvalues --  -38.44064 -38.43814  -2.21351  -2.20640  -2.20323
  Beta  occ. eigenvalues --   -2.20126  -2.20083  -2.19887  -2.19625  -1.15002
  Beta  occ. eigenvalues --   -1.14998  -1.14968  -1.14348  -1.14327  -1.14257
  Beta  occ. eigenvalues --   -1.14042  -1.14014  -1.13980  -1.13823  -1.13792
  Beta  occ. eigenvalues --   -1.13789  -1.13785  -1.13773  -1.13748  -1.13590
  Beta  occ. eigenvalues --   -1.13546  -1.13484  -1.13332  -1.13302  -1.13221
  Beta  occ. eigenvalues --   -0.16880  -0.13920  -0.10585
  Beta virt. eigenvalues --   -0.07558  -0.07006  -0.05243  -0.04769  -0.03106
  Beta virt. eigenvalues --   -0.02884  -0.02003  -0.01757  -0.01369  -0.00846
  Beta virt. eigenvalues --   -0.00421  -0.00132   0.00127   0.00218   0.00493

 Mulliken charges and spin densities:
               1          2
     1  Na  -0.346734  -0.629112
     2  Na   0.562588   0.519582
     3  Na  -0.418569   0.122441
     4  Na   0.313087   0.401515
     5  Na   0.033382   0.541348
     6  Na   0.047212   0.008262
     7  Na  -0.190966   0.035964
 Sum of Mulliken charges =  -0.00000   1.00000

 Dipole moment (field-independent basis, Debye):
    X=              0.1708    Y=             -0.0215    Z=              0.3753  Tot=              0.4129
 Quadrupole moment (field-independent basis, Debye-Ang):
   XX=            -61.3189   YY=            -72.9550   ZZ=            -69.1787
   XY=              3.9638   XZ=              1.4959   YZ=              3.2151

 Normal termination of Gaussian 16 at Thu Dec  7 22:05:46 2023.
