 Gaussian 16, Revision B.01,
 Gaussian 16:  ES64L-G16RevB.01 20-Dec-2017

 -------------------------
 #P B3LYP/6-311+g(d) force
 -------------------------

 -----
 DPGEN
 -----
 Symbolic Z-matrix:
 Charge =  0 Multiplicity = 2

                         Standard orientation:
 ---------------------------------------------------------------------
 Center     Atomic      Atomic             Coordinates (Angstroms)
 Number     Number       Type             X           Y           Z
 ---------------------------------------------------------------------
      1         11           0       -2.941959    0.798430   -0.268395
      2         11           0       -1.851961   -2.251963    0.032969
      3         11           0       -0.123084   -0.180292   -1.670223
      4         11           0       -0.200103    0.027911    2.318539
      5         11           0        2.186369   -2.291012   -0.217923
      6         11           0        2.838352    1.023600    0.008846
      7         11           0        0.092385    2.873325   -0.203813
 ---------------------------------------------------------------------

 SCF Done:  E(UB3LYP) =  -1136.13745604     A.U. after   19 cycles

 The electronic state is 2-A.
 Alpha  occ. eigenvalues --  -38.44166 -38.43918 -38.43796 -38.43626 -38.43555
 Alpha  occ. eigenvalues --  -38.43361 -38.43020  -2.20007  -2.19782  -2.19642
 Alpha  occ. eigenvalues --   -2.19497  -2.19369  -2.19342  -2.18875  -1.13656
 Alpha  occ. eigenvalues --   -1.13632  -1.13629  -1.13480  -1.13443  -1.13421
 Alpha  occ. eigenvalues --   -1.13318  -1.13308  -1.13293  -1.13214  -1.13155
 Alpha  occ. eigenvalues --   -1.13118  -1.13055  -1.13029  -1.13015  -1.13008
 Alpha  occ. eigenvalues --   -1.12971  -1.12951  -1.12556  -1.12533  -1.12514
 Alpha  occ. eigenvalues --   -0.18586  -0.13146  -0.12214  -0.11112
 Alpha virt. eigenvalues --   -0.05460  -0.05307  -0.04518  -0.03358  -0.03017
 Alpha virt. eigenvalues --   -0.02857  -0.01422  -0.01037  -0.00344  -0.00236
 Alpha virt. eigenvalues --   -0.00064   0.00363   0.00773   0.00888   0.00911

  Beta  occ. eigenvalues --  -38.44056 -38.43911 -38.43795 -38.43620 -38.43554
  Beta  occ. eigenvalues --  -38.43302 -38.43016  -2.19804  -2.19773  -2.19642
  Beta  occ. eigenvalues --   -2.19490  -2.19369  -2.19235  -2.18871  -1.13522
  Beta  occ. eigenvalues --   -1.13491  -1.13484  -1.13469  -1.13423  -1.13409
  Beta  occ. eigenvalues --   -1.13317  -1.13301  -1.13289  -1.13200  -1.13125
  Beta  occ. eigenvalues --   -1.13117  -1.13042  -1.13023  -1.13009  -1.12947
  Beta  occ. eigenvalues --   -1.12899  -1.12875  -1.12551  -1.12516  -1.12510
  Beta  occ. eigenvalues --   -0.17849  -0.12943  -0.12003
  Beta virt. eigenvalues --   -0.07102  -0.05417  -0.05293  -0.04474  -0.02550
  Beta virt. eigenvalues --   -0.02115  -0.01890  -0.01333  -0.00969  -0.00399
  Beta virt. eigenvalues --   -0.00289   0.00107   0.00393   0.00867   0.00880

 Mulliken charges and spin densities:
               1          2
     1  Na   0.317264   0.017045
     2  Na   0.226553   0.024844
     3  Na  -0.165599   0.283449
     4  Na  -0.652937   0.728597
     5  Na   0.114043  -0.040347
     6  Na   0.070880  -0.006953
     7  Na   0.089795  -0.006636
 Sum of Mulliken charges =  -0.00000   1.00000

 Dipole moment (field-independent basis, Debye):
    X=             -0.1434    Y=             -0.1150    Z=              0.2347  Tot=              0.2981
 Quadrupole moment (field-independent basis, Debye-Ang):
   XX=            -58.1082   YY=            -64.3065   ZZ=            -72.6204
   XY=             -0.3470   XZ=              0.4100   YZ=             -0.4184

 Normal termination of Gaussian 16 at Fri Dec  8 04:36:43 2023.
