 Gaussian 16, Revision B.01,
 Gaussian 16:  ES64L-G16RevB.01 20-Dec-2017

 -------------------------
 #P B3LYP/6-311+g(d) force
 -------------------------

 -----
 DPGEN
 -----
 Symbolic Z-matrix:
 Charge =  0 Multiplicity = 2

                         Standard orientation:
 ---------------------------------------------------------------------
 Center     Atomic      Atomic             Coordinates (Angstroms)
 Number     Number       Type             X           Y           Z
 ---------------------------------------------------------------------
      1         11           0        3.188566    0.055041    0.536372
      2         11           0        3.125928   -3.211681    0.742871
      3         11           0       -3.463788   -0.329121   -1.280684
      4         11           0        2.112295    3.953751    0.142258
      5         11           0       -4.774886    0.117278    1.897670
      6         11           0       -0.376338   -1.846814   -1.197250
      7         11           0        0.188222    1.261548   -0.841238
 ---------------------------------------------------------------------

 SCF Done:  E(UB3LYP) =  -1136.11955114     A.U. after   20 cycles

 The electronic state is 2-A.
 Alpha  occ. eigenvalues --  -38.45173 -38.44612 -38.44283 -38.44215 -38.43929
 Alpha  occ. eigenvalues --  -38.43605 -38.43529  -2.20967  -2.20449  -2.20078
 Alpha  occ. eigenvalues --   -2.20029  -2.19789  -2.19378  -2.19319  -1.14600
 Alpha  occ. eigenvalues --   -1.14598  -1.14577  -1.14170  -1.14113  -1.14024
 Alpha  occ. eigenvalues --   -1.13767  -1.13749  -1.13727  -1.13724  -1.13722
 Alpha  occ. eigenvalues --   -1.13624  -1.13496  -1.13478  -1.13374  -1.13047
 Alpha  occ. eigenvalues --   -1.13046  -1.12998  -1.12985  -1.12979  -1.12946
 Alpha  occ. eigenvalues --   -0.16611  -0.13962  -0.11896  -0.11565
 Alpha virt. eigenvalues --   -0.05887  -0.05394  -0.04812  -0.03846  -0.02790
 Alpha virt. eigenvalues --   -0.02285  -0.02012  -0.01569  -0.01139  -0.00912
 Alpha virt. eigenvalues --   -0.00391  -0.00049   0.00002   0.00293   0.00597

  Beta  occ. eigenvalues --  -38.45055 -38.44560 -38.44290 -38.44197 -38.43908
  Beta  occ. eigenvalues --  -38.43600 -38.43510  -2.20746  -2.20357  -2.20099
  Beta  occ. eigenvalues --   -2.19996  -2.19754  -2.19370  -2.19285  -1.14450
  Beta  occ. eigenvalues --   -1.14447  -1.14432  -1.14101  -1.14054  -1.13958
  Beta  occ. eigenvalues --   -1.13789  -1.13768  -1.13705  -1.13702  -1.13683
  Beta  occ. eigenvalues --   -1.13594  -1.13475  -1.13456  -1.13330  -1.13041
  Beta  occ. eigenvalues --   -1.13040  -1.12992  -1.12957  -1.12954  -1.12927
  Beta  occ. eigenvalues --   -0.16039  -0.13161  -0.11747
  Beta virt. eigenvalues --   -0.07951  -0.05590  -0.05089  -0.04604  -0.03597
  Beta virt. eigenvalues --   -0.02229  -0.02056  -0.01753  -0.01385  -0.01008
  Beta virt. eigenvalues --   -0.00550  -0.00068   0.00093   0.00270   0.00384

 Mulliken charges and spin densities:
               1          2
     1  Na  -0.115716   0.166675
     2  Na   0.371330   0.096754
     3  Na  -0.113516  -0.060612
     4  Na   1.015062   0.068803
     5  Na   0.191780   0.593764
     6  Na  -0.003414  -0.015033
     7  Na  -1.345526   0.149649
 Sum of Mulliken charges =  -0.00000   1.00000

 Dipole moment (field-independent basis, Debye):
    X=             -0.7548    Y=             -0.1073    Z=              0.2654  Tot=              0.8073
 Quadrupole moment (field-independent basis, Debye-Ang):
   XX=            -66.2384   YY=            -62.8016   ZZ=            -67.6082
   XY=              1.6088   XZ=              1.2324   YZ=              1.6286

 Normal termination of Gaussian 16 at Wed Nov 29 02:23:38 2023.
