 Gaussian 16, Revision B.01,
 Gaussian 16:  ES64L-G16RevB.01 20-Dec-2017

 -------------------------
 #P B3LYP/6-311+g(d) force
 -------------------------

 -----
 DPGEN
 -----
 Symbolic Z-matrix:
 Charge =  0 Multiplicity = 2

                         Standard orientation:
 ---------------------------------------------------------------------
 Center     Atomic      Atomic             Coordinates (Angstroms)
 Number     Number       Type             X           Y           Z
 ---------------------------------------------------------------------
      1         11           0       -1.805098   -2.510670   -0.008573
      2         11           0       -0.865610    2.905872    0.274034
      3         11           0        0.482940   -0.287990    2.122279
      4         11           0        2.752011   -1.999975   -0.272129
      5         11           0       -3.460635    0.214264   -0.382273
      6         11           0        2.629981    1.658803   -0.387307
      7         11           0        0.266412    0.019696   -1.346032
 ---------------------------------------------------------------------

 SCF Done:  E(UB3LYP) =  -1136.13126715     A.U. after   19 cycles

 The electronic state is 2-A.
 Alpha  occ. eigenvalues --  -38.44325 -38.44248 -38.44201 -38.43751 -38.43479
 Alpha  occ. eigenvalues --  -38.43345 -38.43283  -2.20131  -2.20104  -2.20006
 Alpha  occ. eigenvalues --   -2.19573  -2.19344  -2.19330  -2.19086  -1.13844
 Alpha  occ. eigenvalues --   -1.13804  -1.13798  -1.13768  -1.13757  -1.13709
 Alpha  occ. eigenvalues --   -1.13684  -1.13657  -1.13644  -1.13249  -1.13238
 Alpha  occ. eigenvalues --   -1.13210  -1.13051  -1.12992  -1.12982  -1.12969
 Alpha  occ. eigenvalues --   -1.12950  -1.12943  -1.12757  -1.12753  -1.12722
 Alpha  occ. eigenvalues --   -0.18197  -0.13364  -0.12005  -0.10433
 Alpha virt. eigenvalues --   -0.05951  -0.05724  -0.04553  -0.03101  -0.02679
 Alpha virt. eigenvalues --   -0.02329  -0.01880  -0.01403  -0.00773  -0.00423
 Alpha virt. eigenvalues --   -0.00044   0.00281   0.00686   0.00764   0.00834

  Beta  occ. eigenvalues --  -38.44319 -38.44233 -38.44195 -38.43749 -38.43371
  Beta  occ. eigenvalues --  -38.43308 -38.43280  -2.20120  -2.20080  -2.19998
  Beta  occ. eigenvalues --   -2.19572  -2.19264  -2.19144  -2.19082  -1.13822
  Beta  occ. eigenvalues --   -1.13799  -1.13781  -1.13761  -1.13728  -1.13689
  Beta  occ. eigenvalues --   -1.13673  -1.13650  -1.13628  -1.13248  -1.13233
  Beta  occ. eigenvalues --   -1.13198  -1.12982  -1.12935  -1.12898  -1.12865
  Beta  occ. eigenvalues --   -1.12833  -1.12804  -1.12753  -1.12735  -1.12721
  Beta  occ. eigenvalues --   -0.17523  -0.13097  -0.11826
  Beta virt. eigenvalues --   -0.06556  -0.05881  -0.05637  -0.04506  -0.02453
  Beta virt. eigenvalues --   -0.01928  -0.01782  -0.01404  -0.01270  -0.00771
  Beta virt. eigenvalues --   -0.00436   0.00134   0.00345   0.00774   0.00777

 Mulliken charges and spin densities:
               1          2
     1  Na   0.185239   0.011308
     2  Na  -0.029045   0.046251
     3  Na  -0.387025   0.742820
     4  Na   0.161670  -0.005527
     5  Na  -0.006638   0.033113
     6  Na   0.328863   0.093451
     7  Na  -0.253066   0.078583
 Sum of Mulliken charges =  -0.00000   1.00000

 Dipole moment (field-independent basis, Debye):
    X=              0.2397    Y=             -0.1332    Z=              0.0924  Tot=              0.2893
 Quadrupole moment (field-independent basis, Debye-Ang):
   XX=            -53.6456   YY=            -63.0064   ZZ=            -76.1109
   XY=             -1.4214   XZ=             -0.1455   YZ=              0.6753

 Normal termination of Gaussian 16 at Thu Dec  7 02:58:23 2023.
