 Gaussian 16, Revision B.01,
 Gaussian 16:  ES64L-G16RevB.01 20-Dec-2017

 -------------------------
 #P B3LYP/6-311+g(d) force
 -------------------------

 -----
 DPGEN
 -----
 Symbolic Z-matrix:
 Charge =  0 Multiplicity = 2

                         Standard orientation:
 ---------------------------------------------------------------------
 Center     Atomic      Atomic             Coordinates (Angstroms)
 Number     Number       Type             X           Y           Z
 ---------------------------------------------------------------------
      1         11           0       -0.397732   -2.810405   -0.058041
      2         11           0       -2.901601   -0.687878    0.068644
      3         11           0        0.113991    0.051106    2.204548
      4         11           0        1.776530    2.133410    0.108125
      5         11           0        2.876187   -1.147837   -0.286096
      6         11           0       -1.435153    2.515387   -0.349218
      7         11           0       -0.032222   -0.053784   -1.687964
 ---------------------------------------------------------------------

 SCF Done:  E(UB3LYP) =  -1136.13986546     A.U. after   19 cycles

 The electronic state is 2-A.
 Alpha  occ. eigenvalues --  -38.43983 -38.43598 -38.43560 -38.43404 -38.43350
 Alpha  occ. eigenvalues --  -38.43279 -38.43247  -2.19860  -2.19431  -2.19422
 Alpha  occ. eigenvalues --   -2.19281  -2.19259  -2.19249  -2.19160  -1.13519
 Alpha  occ. eigenvalues --   -1.13490  -1.13478  -1.13121  -1.13119  -1.13088
 Alpha  occ. eigenvalues --   -1.13085  -1.13079  -1.13075  -1.13015  -1.12990
 Alpha  occ. eigenvalues --   -1.12940  -1.12923  -1.12918  -1.12901  -1.12893
 Alpha  occ. eigenvalues --   -1.12882  -1.12855  -1.12807  -1.12797  -1.12776
 Alpha  occ. eigenvalues --   -0.18935  -0.12879  -0.12634  -0.11175
 Alpha virt. eigenvalues --   -0.05206  -0.04942  -0.04763  -0.03264  -0.03048
 Alpha virt. eigenvalues --   -0.02927  -0.01261  -0.01028  -0.00137  -0.00123
 Alpha virt. eigenvalues --   -0.00011   0.00374   0.00868   0.00928   0.00940

  Beta  occ. eigenvalues --  -38.43880 -38.43594 -38.43557 -38.43400 -38.43343
  Beta  occ. eigenvalues --  -38.43271 -38.43182  -2.19670  -2.19426  -2.19419
  Beta  occ. eigenvalues --   -2.19276  -2.19241  -2.19151  -2.19140  -1.13394
  Beta  occ. eigenvalues --   -1.13352  -1.13345  -1.13118  -1.13107  -1.13078
  Beta  occ. eigenvalues --   -1.13076  -1.13072  -1.13059  -1.12988  -1.12967
  Beta  occ. eigenvalues --   -1.12918  -1.12894  -1.12892  -1.12886  -1.12870
  Beta  occ. eigenvalues --   -1.12828  -1.12787  -1.12782  -1.12773  -1.12750
  Beta  occ. eigenvalues --   -0.18182  -0.12643  -0.12386
  Beta virt. eigenvalues --   -0.07193  -0.05205  -0.04928  -0.04709  -0.02416
  Beta virt. eigenvalues --   -0.02270  -0.01830  -0.01189  -0.00955  -0.00183
  Beta virt. eigenvalues --   -0.00156   0.00108   0.00389   0.00916   0.00927

 Mulliken charges and spin densities:
               1          2
     1  Na   0.169780  -0.041278
     2  Na   0.143741  -0.004830
     3  Na  -0.644120   0.691244
     4  Na   0.301965   0.047286
     5  Na   0.136295  -0.060768
     6  Na   0.228294  -0.014633
     7  Na  -0.335954   0.382979
 Sum of Mulliken charges =  -0.00000   1.00000

 Dipole moment (field-independent basis, Debye):
    X=              0.0244    Y=             -0.1145    Z=              0.2457  Tot=              0.2722
 Quadrupole moment (field-independent basis, Debye-Ang):
   XX=            -59.6996   YY=            -62.8894   ZZ=            -72.0835
   XY=             -0.5667   XZ=             -0.3904   YZ=             -0.2401

 Normal termination of Gaussian 16 at Thu Dec  7 20:23:44 2023.
