 Gaussian 16, Revision B.01,
 Gaussian 16:  ES64L-G16RevB.01 20-Dec-2017

 -------------------------
 #P B3LYP/6-311+g(d) force
 -------------------------

 -----
 DPGEN
 -----
 Symbolic Z-matrix:
 Charge =  0 Multiplicity = 2

                         Standard orientation:
 ---------------------------------------------------------------------
 Center     Atomic      Atomic             Coordinates (Angstroms)
 Number     Number       Type             X           Y           Z
 ---------------------------------------------------------------------
      1         11           0        0.181195    1.132309   -0.705473
      2         11           0       -1.647618    2.717643    0.887889
      3         11           0       -1.246027   -1.092077    1.866042
      4         11           0       -2.941586   -0.161024   -1.090731
      5         11           0       -0.578306   -2.127740   -1.568626
      6         11           0        4.092328    1.132743   -0.771952
      7         11           0        2.140015   -1.601855    1.382853
 ---------------------------------------------------------------------

 SCF Done:  E(UB3LYP) =  -1136.12155353     A.U. after   22 cycles

 The electronic state is 2-A.
 Alpha  occ. eigenvalues --  -38.44572 -38.44363 -38.44288 -38.44205 -38.43575
 Alpha  occ. eigenvalues --  -38.43398 -38.43192  -2.20312  -2.20260  -2.20160
 Alpha  occ. eigenvalues --   -2.19992  -2.19455  -2.19348  -2.19052  -1.13980
 Alpha  occ. eigenvalues --   -1.13970  -1.13966  -1.13931  -1.13929  -1.13868
 Alpha  occ. eigenvalues --   -1.13844  -1.13794  -1.13771  -1.13677  -1.13649
 Alpha  occ. eigenvalues --   -1.13606  -1.13169  -1.13132  -1.13095  -1.13069
 Alpha  occ. eigenvalues --   -1.13015  -1.12970  -1.12700  -1.12684  -1.12658
 Alpha  occ. eigenvalues --   -0.18281  -0.12959  -0.11815  -0.11479
 Alpha virt. eigenvalues --   -0.06443  -0.05111  -0.04296  -0.03381  -0.02943
 Alpha virt. eigenvalues --   -0.02524  -0.02059  -0.01075  -0.00732  -0.00188
 Alpha virt. eigenvalues --   -0.00096   0.00162   0.00295   0.00671   0.00784

  Beta  occ. eigenvalues --  -38.44544 -38.44339 -38.44217 -38.44179 -38.43539
  Beta  occ. eigenvalues --  -38.43386 -38.43186  -2.20261  -2.20219  -2.20030
  Beta  occ. eigenvalues --   -2.19946  -2.19391  -2.19329  -2.19041  -1.13944
  Beta  occ. eigenvalues --   -1.13935  -1.13927  -1.13899  -1.13898  -1.13832
  Beta  occ. eigenvalues --   -1.13754  -1.13704  -1.13677  -1.13638  -1.13624
  Beta  occ. eigenvalues --   -1.13558  -1.13136  -1.13091  -1.13057  -1.13012
  Beta  occ. eigenvalues --   -1.13001  -1.12953  -1.12692  -1.12668  -1.12651
  Beta  occ. eigenvalues --   -0.17617  -0.12612  -0.11540
  Beta virt. eigenvalues --   -0.07715  -0.06171  -0.04861  -0.04103  -0.02896
  Beta virt. eigenvalues --   -0.02476  -0.01945  -0.01727  -0.00914  -0.00440
  Beta virt. eigenvalues --   -0.00102   0.00047   0.00224   0.00387   0.00710

 Mulliken charges and spin densities:
               1          2
     1  Na  -1.184740   0.175255
     2  Na   0.275433  -0.061630
     3  Na   0.052297   0.474985
     4  Na   0.781212   0.118720
     5  Na  -0.041079   0.137661
     6  Na   0.234455   0.119626
     7  Na  -0.117579   0.035383
 Sum of Mulliken charges =  -0.00000   1.00000

 Dipole moment (field-independent basis, Debye):
    X=             -0.2952    Y=             -0.4639    Z=              0.1491  Tot=              0.5697
 Quadrupole moment (field-independent basis, Debye-Ang):
   XX=            -54.9077   YY=            -71.1467   ZZ=            -67.8878
   XY=             -0.8090   XZ=             -1.2022   YZ=              0.0920

 Normal termination of Gaussian 16 at Tue Dec  5 20:37:19 2023.
