 Gaussian 16, Revision B.01,
 Gaussian 16:  ES64L-G16RevB.01 20-Dec-2017

 -------------------------
 #P B3LYP/6-311+g(d) force
 -------------------------

 -----
 DPGEN
 -----
 Symbolic Z-matrix:
 Charge =  0 Multiplicity = 2

                         Standard orientation:
 ---------------------------------------------------------------------
 Center     Atomic      Atomic             Coordinates (Angstroms)
 Number     Number       Type             X           Y           Z
 ---------------------------------------------------------------------
      1         11           0        3.566040    0.746833    0.099068
      2         11           0       -2.171844   -2.146244    0.208022
      3         11           0        0.026452   -0.348470   -1.558218
      4         11           0       -2.818769    1.086612   -0.470772
      5         11           0        1.761879   -2.400473   -0.241203
      6         11           0        0.000740    2.992355   -0.128013
      7         11           0       -0.364498    0.069386    2.091116
 ---------------------------------------------------------------------

 SCF Done:  E(UB3LYP) =  -1136.13207698     A.U. after   21 cycles

 The electronic state is 2-A.
 Alpha  occ. eigenvalues --  -38.44862 -38.43847 -38.43786 -38.43682 -38.43558
 Alpha  occ. eigenvalues --  -38.43333 -38.43302  -2.20602  -2.19724  -2.19632
 Alpha  occ. eigenvalues --   -2.19557  -2.19424  -2.19284  -2.19145  -1.14283
 Alpha  occ. eigenvalues --   -1.14254  -1.14242  -1.13418  -1.13402  -1.13382
 Alpha  occ. eigenvalues --   -1.13365  -1.13284  -1.13231  -1.13225  -1.13187
 Alpha  occ. eigenvalues --   -1.13178  -1.13102  -1.13079  -1.13060  -1.12955
 Alpha  occ. eigenvalues --   -1.12922  -1.12886  -1.12817  -1.12812  -1.12780
 Alpha  occ. eigenvalues --   -0.18417  -0.13054  -0.12200  -0.10654
 Alpha virt. eigenvalues --   -0.06223  -0.05113  -0.04612  -0.03144  -0.02777
 Alpha virt. eigenvalues --   -0.02529  -0.01860  -0.01171  -0.00525  -0.00451
 Alpha virt. eigenvalues --   -0.00035   0.00311   0.00725   0.00796   0.00838

  Beta  occ. eigenvalues --  -38.44866 -38.43832 -38.43779 -38.43584 -38.43549
  Beta  occ. eigenvalues --  -38.43330 -38.43245  -2.20611  -2.19699  -2.19622
  Beta  occ. eigenvalues --   -2.19412  -2.19375  -2.19180  -2.19143  -1.14283
  Beta  occ. eigenvalues --   -1.14261  -1.14248  -1.13397  -1.13385  -1.13353
  Beta  occ. eigenvalues --   -1.13341  -1.13262  -1.13227  -1.13124  -1.13084
  Beta  occ. eigenvalues --   -1.13062  -1.13059  -1.13051  -1.13018  -1.12883
  Beta  occ. eigenvalues --   -1.12850  -1.12822  -1.12805  -1.12797  -1.12777
  Beta  occ. eigenvalues --   -0.17686  -0.12857  -0.11971
  Beta virt. eigenvalues --   -0.06722  -0.06160  -0.05093  -0.04557  -0.02457
  Beta virt. eigenvalues --   -0.02032  -0.01784  -0.01446  -0.01088  -0.00543
  Beta virt. eigenvalues --   -0.00496   0.00121   0.00351   0.00773   0.00860

 Mulliken charges and spin densities:
               1          2
     1  Na  -0.131465  -0.069012
     2  Na   0.293533   0.026395
     3  Na   0.017731   0.380465
     4  Na   0.293000   0.041317
     5  Na   0.175339  -0.080278
     6  Na  -0.148586  -0.091918
     7  Na  -0.499553   0.793030
 Sum of Mulliken charges =  -0.00000   1.00000

 Dipole moment (field-independent basis, Debye):
    X=              0.3873    Y=             -0.0086    Z=              0.1646  Tot=              0.4209
 Quadrupole moment (field-independent basis, Debye-Ang):
   XX=            -53.7457   YY=            -63.9213   ZZ=            -75.2787
   XY=              1.4992   XZ=              1.2262   YZ=             -0.8223

 Normal termination of Gaussian 16 at Thu Dec  7 07:48:15 2023.
