 Gaussian 16, Revision B.01,
 Gaussian 16:  ES64L-G16RevB.01 20-Dec-2017

 -------------------------
 #P B3LYP/6-311+g(d) force
 -------------------------

 -----
 DPGEN
 -----
 Symbolic Z-matrix:
 Charge =  0 Multiplicity = 2

                         Standard orientation:
 ---------------------------------------------------------------------
 Center     Atomic      Atomic             Coordinates (Angstroms)
 Number     Number       Type             X           Y           Z
 ---------------------------------------------------------------------
      1         11           0       -0.350383   -0.046154   -1.741986
      2         11           0        3.044356   -2.049704    0.303984
      3         11           0       -2.811902    0.723026    0.076398
      4         11           0       -2.161712   -2.588222   -0.267846
      5         11           0       -0.119712   -0.196901    1.947670
      6         11           0        2.540945    1.203006   -0.638157
      7         11           0       -0.141592    2.954948    0.319937
 ---------------------------------------------------------------------

 SCF Done:  E(UB3LYP) =  -1136.13231501     A.U. after   20 cycles

 The electronic state is 2-A.
 Alpha  occ. eigenvalues --  -38.44086 -38.44067 -38.43961 -38.43864 -38.43656
 Alpha  occ. eigenvalues --  -38.43628 -38.42959  -2.19974  -2.19848  -2.19775
 Alpha  occ. eigenvalues --   -2.19740  -2.19599  -2.19496  -2.18827  -1.13699
 Alpha  occ. eigenvalues --   -1.13653  -1.13587  -1.13517  -1.13515  -1.13491
 Alpha  occ. eigenvalues --   -1.13449  -1.13430  -1.13417  -1.13413  -1.13367
 Alpha  occ. eigenvalues --   -1.13355  -1.13279  -1.13261  -1.13215  -1.13162
 Alpha  occ. eigenvalues --   -1.13152  -1.13113  -1.12499  -1.12482  -1.12478
 Alpha  occ. eigenvalues --   -0.18498  -0.13270  -0.12004  -0.10853
 Alpha virt. eigenvalues --   -0.05946  -0.05375  -0.04499  -0.03300  -0.02780
 Alpha virt. eigenvalues --   -0.02623  -0.01617  -0.01348  -0.00575  -0.00184
 Alpha virt. eigenvalues --   -0.00015   0.00331   0.00704   0.00790   0.00798

  Beta  occ. eigenvalues --  -38.44087 -38.44056 -38.43958 -38.43777 -38.43613
  Beta  occ. eigenvalues --  -38.43586 -38.42955  -2.19959  -2.19851  -2.19772
  Beta  occ. eigenvalues --   -2.19582  -2.19471  -2.19470  -2.18822  -1.13685
  Beta  occ. eigenvalues --   -1.13617  -1.13574  -1.13520  -1.13509  -1.13493
  Beta  occ. eigenvalues --   -1.13440  -1.13417  -1.13411  -1.13313  -1.13259
  Beta  occ. eigenvalues --   -1.13234  -1.13206  -1.13181  -1.13140  -1.13134
  Beta  occ. eigenvalues --   -1.13100  -1.13083  -1.12499  -1.12482  -1.12446
  Beta  occ. eigenvalues --   -0.17745  -0.13044  -0.11790
  Beta virt. eigenvalues --   -0.06972  -0.05874  -0.05257  -0.04418  -0.02614
  Beta virt. eigenvalues --   -0.02098  -0.01690  -0.01485  -0.01197  -0.00608
  Beta virt. eigenvalues --   -0.00171   0.00107   0.00357   0.00747   0.00867

 Mulliken charges and spin densities:
               1          2
     1  Na   0.124482   0.362920
     2  Na  -0.160508  -0.062159
     3  Na   0.281344   0.066437
     4  Na  -0.089056  -0.102448
     5  Na  -0.284941   0.671804
     6  Na   0.194919   0.053242
     7  Na  -0.066238   0.010203
 Sum of Mulliken charges =  -0.00000   1.00000

 Dipole moment (field-independent basis, Debye):
    X=             -0.3433    Y=             -0.4068    Z=              0.0920  Tot=              0.5402
 Quadrupole moment (field-independent basis, Debye-Ang):
   XX=            -58.9690   YY=            -61.2104   ZZ=            -73.9637
   XY=              0.1360   XZ=             -0.4581   YZ=             -0.1126

 Normal termination of Gaussian 16 at Wed Dec  6 00:17:56 2023.
