 Gaussian 16, Revision B.01,
 Gaussian 16:  ES64L-G16RevB.01 20-Dec-2017

 -------------------------
 #P B3LYP/6-311+g(d) force
 -------------------------

 -----
 DPGEN
 -----
 Symbolic Z-matrix:
 Charge =  0 Multiplicity = 2

                         Standard orientation:
 ---------------------------------------------------------------------
 Center     Atomic      Atomic             Coordinates (Angstroms)
 Number     Number       Type             X           Y           Z
 ---------------------------------------------------------------------
      1         11           0        0.421520   -2.524370   -0.818413
      2         11           0       -2.508956   -2.102587    1.034412
      3         11           0       -4.365255    0.229590   -0.871139
      4         11           0       -1.880970    2.883540    0.006262
      5         11           0        1.945317    2.181997    0.241767
      6         11           0        4.360493   -0.289319   -0.920230
      7         11           0        2.027851   -0.378851    1.327340
 ---------------------------------------------------------------------

 SCF Done:  E(UB3LYP) =  -1136.10920956     A.U. after   23 cycles

 The electronic state is 2-A.
 Alpha  occ. eigenvalues --  -38.44968 -38.44624 -38.44318 -38.44293 -38.44275
 Alpha  occ. eigenvalues --  -38.44173 -38.43981  -2.20892  -2.20387  -2.20168
 Alpha  occ. eigenvalues --   -2.20164  -2.19999  -2.19964  -2.19769  -1.14712
 Alpha  occ. eigenvalues --   -1.14541  -1.14511  -1.14074  -1.14055  -1.14024
 Alpha  occ. eigenvalues --   -1.13866  -1.13819  -1.13808  -1.13796  -1.13781
 Alpha  occ. eigenvalues --   -1.13728  -1.13697  -1.13673  -1.13631  -1.13631
 Alpha  occ. eigenvalues --   -1.13627  -1.13588  -1.13429  -1.13410  -1.13393
 Alpha  occ. eigenvalues --   -0.17022  -0.14030  -0.12057  -0.10440
 Alpha virt. eigenvalues --   -0.06714  -0.05841  -0.04886  -0.03535  -0.02656
 Alpha virt. eigenvalues --   -0.02415  -0.01898  -0.01822  -0.00917  -0.00681
 Alpha virt. eigenvalues --   -0.00480   0.00048   0.00248   0.00308   0.00654

  Beta  occ. eigenvalues --  -38.44958 -38.44625 -38.44284 -38.44267 -38.44226
  Beta  occ. eigenvalues --  -38.44158 -38.43923  -2.20878  -2.20393  -2.20122
  Beta  occ. eigenvalues --   -2.20018  -2.19994  -2.19937  -2.19661  -1.14703
  Beta  occ. eigenvalues --   -1.14529  -1.14467  -1.14080  -1.14062  -1.14003
  Beta  occ. eigenvalues --   -1.13838  -1.13782  -1.13713  -1.13700  -1.13691
  Beta  occ. eigenvalues --   -1.13685  -1.13677  -1.13654  -1.13622  -1.13614
  Beta  occ. eigenvalues --   -1.13605  -1.13568  -1.13354  -1.13338  -1.13325
  Beta  occ. eigenvalues --   -0.16459  -0.13477  -0.11697
  Beta virt. eigenvalues --   -0.07100  -0.06668  -0.05484  -0.04374  -0.03353
  Beta virt. eigenvalues --   -0.02299  -0.02071  -0.01539  -0.01387  -0.00750
  Beta virt. eigenvalues --   -0.00587  -0.00310   0.00290   0.00415   0.00437

 Mulliken charges and spin densities:
               1          2
     1  Na  -0.107469   0.005275
     2  Na  -0.071302  -0.006832
     3  Na  -0.002695   0.340481
     4  Na  -0.129761  -0.102399
     5  Na  -0.190001   0.134923
     6  Na   0.310236   0.479839
     7  Na   0.190991   0.148713
 Sum of Mulliken charges =  -0.00000   1.00000

 Dipole moment (field-independent basis, Debye):
    X=              0.4914    Y=             -0.5654    Z=             -0.1082  Tot=              0.7569
 Quadrupole moment (field-independent basis, Debye-Ang):
   XX=            -67.4804   YY=            -71.5696   ZZ=            -64.7836
   XY=              1.4232   XZ=             -1.1521   YZ=             -0.7292

 Normal termination of Gaussian 16 at Mon Dec  4 00:43:37 2023.
