 Gaussian 16, Revision B.01,
 Gaussian 16:  ES64L-G16RevB.01 20-Dec-2017

 -------------------------
 #P B3LYP/6-311+g(d) force
 -------------------------

 -----
 DPGEN
 -----
 Symbolic Z-matrix:
 Charge =  0 Multiplicity = 2

                         Standard orientation:
 ---------------------------------------------------------------------
 Center     Atomic      Atomic             Coordinates (Angstroms)
 Number     Number       Type             X           Y           Z
 ---------------------------------------------------------------------
      1         11           0        3.455292   -1.275672    0.232298
      2         11           0        0.809286    0.829611    1.809942
      3         11           0       -3.211878   -0.790184   -1.151498
      4         11           0       -2.348955   -0.447707    1.738020
      5         11           0       -1.265863    1.882520   -0.635475
      6         11           0        0.538079   -1.972950   -0.906289
      7         11           0        2.024040    1.774383   -1.086999
 ---------------------------------------------------------------------

 SCF Done:  E(UB3LYP) =  -1136.12776996     A.U. after   21 cycles

 The electronic state is 2-A.
 Alpha  occ. eigenvalues --  -38.44324 -38.44181 -38.44012 -38.43909 -38.43724
 Alpha  occ. eigenvalues --  -38.43533 -38.43068  -2.20224  -2.20051  -2.19841
 Alpha  occ. eigenvalues --   -2.19715  -2.19594  -2.19450  -2.18979  -1.13950
 Alpha  occ. eigenvalues --   -1.13887  -1.13855  -1.13707  -1.13678  -1.13662
 Alpha  occ. eigenvalues --   -1.13532  -1.13508  -1.13487  -1.13399  -1.13394
 Alpha  occ. eigenvalues --   -1.13313  -1.13279  -1.13273  -1.13206  -1.13143
 Alpha  occ. eigenvalues --   -1.13076  -1.13067  -1.12666  -1.12648  -1.12597
 Alpha  occ. eigenvalues --   -0.18471  -0.14152  -0.11418  -0.11312
 Alpha virt. eigenvalues --   -0.06338  -0.05214  -0.04872  -0.03323  -0.02671
 Alpha virt. eigenvalues --   -0.02557  -0.02109  -0.00895  -0.00739  -0.00060
 Alpha virt. eigenvalues --    0.00239   0.00253   0.00379   0.00586   0.00719

  Beta  occ. eigenvalues --  -38.44272 -38.44157 -38.44013 -38.43902 -38.43699
  Beta  occ. eigenvalues --  -38.43477 -38.43043  -2.20132  -2.20008  -2.19844
  Beta  occ. eigenvalues --   -2.19703  -2.19548  -2.19349  -2.18937  -1.13888
  Beta  occ. eigenvalues --   -1.13816  -1.13795  -1.13667  -1.13645  -1.13625
  Beta  occ. eigenvalues --   -1.13534  -1.13501  -1.13491  -1.13389  -1.13376
  Beta  occ. eigenvalues --   -1.13307  -1.13250  -1.13232  -1.13173  -1.13077
  Beta  occ. eigenvalues --   -1.13001  -1.12985  -1.12640  -1.12591  -1.12568
  Beta  occ. eigenvalues --   -0.17781  -0.13992  -0.11212
  Beta virt. eigenvalues --   -0.07370  -0.06196  -0.05022  -0.04270  -0.03134
  Beta virt. eigenvalues --   -0.02198  -0.01958  -0.01699  -0.00800  -0.00315
  Beta virt. eigenvalues --    0.00034   0.00274   0.00287   0.00520   0.00719

 Mulliken charges and spin densities:
               1          2
     1  Na   0.729853  -0.095865
     2  Na  -0.397443   0.360134
     3  Na   0.674649   0.144408
     4  Na   0.224713  -0.013620
     5  Na  -0.628528   0.460953
     6  Na  -0.908631   0.156738
     7  Na   0.305387  -0.012748
 Sum of Mulliken charges =  -0.00000   1.00000

 Dipole moment (field-independent basis, Debye):
    X=              0.1242    Y=             -0.0479    Z=             -0.0323  Tot=              0.1370
 Quadrupole moment (field-independent basis, Debye-Ang):
   XX=            -51.9624   YY=            -76.8423   ZZ=            -67.6927
   XY=              2.1689   XZ=              1.1385   YZ=             -1.6117

 Normal termination of Gaussian 16 at Tue Dec  5 23:23:30 2023.
