 Gaussian 16, Revision B.01,
 Gaussian 16:  ES64L-G16RevB.01 20-Dec-2017

 -------------------------
 #P B3LYP/6-311+g(d) force
 -------------------------

 -----
 DPGEN
 -----
 Symbolic Z-matrix:
 Charge =  0 Multiplicity = 2

                         Standard orientation:
 ---------------------------------------------------------------------
 Center     Atomic      Atomic             Coordinates (Angstroms)
 Number     Number       Type             X           Y           Z
 ---------------------------------------------------------------------
      1         11           0       -2.135979    2.260223   -0.063916
      2         11           0        3.290964   -0.391921   -0.166366
      3         11           0        0.519023    0.104743    1.940843
      4         11           0        0.431313   -2.796771   -0.006163
      5         11           0        1.061821    2.677447   -0.166183
      6         11           0       -0.206722   -0.385395   -1.805212
      7         11           0       -2.960422   -1.468326    0.266997
 ---------------------------------------------------------------------

 SCF Done:  E(UB3LYP) =  -1136.13693466     A.U. after   19 cycles

 The electronic state is 2-A.
 Alpha  occ. eigenvalues --  -38.44149 -38.44087 -38.43684 -38.43647 -38.43487
 Alpha  occ. eigenvalues --  -38.43437 -38.43393  -2.19949  -2.19873  -2.19520
 Alpha  occ. eigenvalues --   -2.19506  -2.19383  -2.19318  -2.19299  -1.13622
 Alpha  occ. eigenvalues --   -1.13604  -1.13596  -1.13546  -1.13529  -1.13520
 Alpha  occ. eigenvalues --   -1.13279  -1.13198  -1.13194  -1.13172  -1.13152
 Alpha  occ. eigenvalues --   -1.13117  -1.13066  -1.13031  -1.12994  -1.12986
 Alpha  occ. eigenvalues --   -1.12967  -1.12954  -1.12940  -1.12921  -1.12917
 Alpha  occ. eigenvalues --   -0.18388  -0.12728  -0.12664  -0.10563
 Alpha virt. eigenvalues --   -0.05771  -0.05222  -0.04848  -0.03100  -0.03005
 Alpha virt. eigenvalues --   -0.02437  -0.01669  -0.01140  -0.00478  -0.00406
 Alpha virt. eigenvalues --   -0.00029   0.00353   0.00779   0.00839   0.00874

  Beta  occ. eigenvalues --  -38.44147 -38.44084 -38.43683 -38.43638 -38.43431
  Beta  occ. eigenvalues --  -38.43406 -38.43320  -2.19948  -2.19869  -2.19507
  Beta  occ. eigenvalues --   -2.19506  -2.19291  -2.19232  -2.19183  -1.13606
  Beta  occ. eigenvalues --   -1.13604  -1.13592  -1.13530  -1.13525  -1.13520
  Beta  occ. eigenvalues --   -1.13255  -1.13199  -1.13158  -1.13156  -1.13152
  Beta  occ. eigenvalues --   -1.13113  -1.12999  -1.12942  -1.12940  -1.12923
  Beta  occ. eigenvalues --   -1.12897  -1.12891  -1.12884  -1.12850  -1.12822
  Beta  occ. eigenvalues --   -0.17658  -0.12493  -0.12475
  Beta virt. eigenvalues --   -0.06703  -0.05717  -0.05227  -0.04753  -0.02352
  Beta virt. eigenvalues --   -0.02238  -0.01579  -0.01423  -0.01072  -0.00527
  Beta virt. eigenvalues --   -0.00452   0.00118   0.00377   0.00830   0.00846

 Mulliken charges and spin densities:
               1          2
     1  Na  -0.035599  -0.099082
     2  Na   0.189173  -0.103719
     3  Na  -0.310717   0.782999
     4  Na   0.243277  -0.089977
     5  Na   0.099472  -0.087931
     6  Na  -0.150586   0.659841
     7  Na  -0.035020  -0.062132
 Sum of Mulliken charges =  -0.00000   1.00000

 Dipole moment (field-independent basis, Debye):
    X=              0.0589    Y=             -0.1600    Z=              0.0469  Tot=              0.1768
 Quadrupole moment (field-independent basis, Debye-Ang):
   XX=            -55.3108   YY=            -63.0367   ZZ=            -74.9332
   XY=              0.0393   XZ=             -1.8132   YZ=             -1.0682

 Normal termination of Gaussian 16 at Mon Dec  4 01:47:32 2023.
