 Gaussian 16, Revision B.01,
 Gaussian 16:  ES64L-G16RevB.01 20-Dec-2017

 -------------------------
 #P B3LYP/6-311+g(d) force
 -------------------------

 -----
 DPGEN
 -----
 Symbolic Z-matrix:
 Charge =  0 Multiplicity = 2

                         Standard orientation:
 ---------------------------------------------------------------------
 Center     Atomic      Atomic             Coordinates (Angstroms)
 Number     Number       Type             X           Y           Z
 ---------------------------------------------------------------------
      1         11           0        0.114518   -0.151431    1.639942
      2         11           0        2.050669    2.020791    0.003385
      3         11           0        2.787946   -1.088228   -0.127184
      4         11           0       -3.072899   -0.715205    0.054748
      5         11           0       -0.282431    0.182602   -1.605775
      6         11           0       -0.181376   -2.907506   -0.061567
      7         11           0       -1.416427    2.658976    0.096450
 ---------------------------------------------------------------------

 SCF Done:  E(UB3LYP) =  -1136.13876181     A.U. after   17 cycles

 The electronic state is 2-A.
 Alpha  occ. eigenvalues --  -38.44093 -38.43647 -38.43613 -38.43494 -38.43476
 Alpha  occ. eigenvalues --  -38.42780 -38.42766  -2.19923  -2.19507  -2.19501
 Alpha  occ. eigenvalues --   -2.19380  -2.19367  -2.18801  -2.18788  -1.13602
 Alpha  occ. eigenvalues --   -1.13586  -1.13556  -1.13213  -1.13205  -1.13171
 Alpha  occ. eigenvalues --   -1.13165  -1.13155  -1.13136  -1.13060  -1.13051
 Alpha  occ. eigenvalues --   -1.13041  -1.13035  -1.12996  -1.12984  -1.12547
 Alpha  occ. eigenvalues --   -1.12442  -1.12423  -1.12411  -1.12409  -1.12400
 Alpha  occ. eigenvalues --   -0.19148  -0.13109  -0.12814  -0.10278
 Alpha virt. eigenvalues --   -0.05614  -0.05131  -0.04901  -0.02938  -0.02774
 Alpha virt. eigenvalues --   -0.01954  -0.01526  -0.01254  -0.00369  -0.00322
 Alpha virt. eigenvalues --    0.00053   0.00365   0.00833   0.00889   0.00916

  Beta  occ. eigenvalues --  -38.44089 -38.43642 -38.43607 -38.43488 -38.43468
  Beta  occ. eigenvalues --  -38.42704 -38.42694  -2.19919  -2.19501  -2.19493
  Beta  occ. eigenvalues --   -2.19371  -2.19359  -2.18663  -2.18657  -1.13592
  Beta  occ. eigenvalues --   -1.13568  -1.13558  -1.13212  -1.13198  -1.13162
  Beta  occ. eigenvalues --   -1.13142  -1.13136  -1.13122  -1.13053  -1.13048
  Beta  occ. eigenvalues --   -1.13001  -1.12999  -1.12995  -1.12983  -1.12454
  Beta  occ. eigenvalues --   -1.12346  -1.12323  -1.12314  -1.12312  -1.12302
  Beta  occ. eigenvalues --   -0.18426  -0.12851  -0.12547
  Beta virt. eigenvalues --   -0.06373  -0.05610  -0.05115  -0.04895  -0.02143
  Beta virt. eigenvalues --   -0.01980  -0.01450  -0.01185  -0.00955  -0.00422
  Beta virt. eigenvalues --   -0.00382   0.00185   0.00400   0.00854   0.00900

 Mulliken charges and spin densities:
               1          2
     1  Na  -0.432831   0.706923
     2  Na   0.277333  -0.030746
     3  Na   0.181893  -0.019084
     4  Na   0.086038  -0.130027
     5  Na  -0.439830   0.676885
     6  Na   0.168748  -0.094366
     7  Na   0.158649  -0.109585
 Sum of Mulliken charges =  -0.00000   1.00000

 Dipole moment (field-independent basis, Debye):
    X=             -0.3124    Y=             -0.0329    Z=              0.0183  Tot=              0.3147
 Quadrupole moment (field-independent basis, Debye-Ang):
   XX=            -55.2873   YY=            -59.0356   ZZ=            -76.8991
   XY=             -0.1540   XZ=             -0.9632   YZ=              0.8202

 Normal termination of Gaussian 16 at Thu Dec  7 19:50:56 2023.
