 Gaussian 16, Revision B.01,
 Gaussian 16:  ES64L-G16RevB.01 20-Dec-2017

 -------------------------
 #P B3LYP/6-311+g(d) force
 -------------------------

 -----
 DPGEN
 -----
 Symbolic Z-matrix:
 Charge =  0 Multiplicity = 2

                         Standard orientation:
 ---------------------------------------------------------------------
 Center     Atomic      Atomic             Coordinates (Angstroms)
 Number     Number       Type             X           Y           Z
 ---------------------------------------------------------------------
      1         11           0       -0.413297    3.226854    0.235678
      2         11           0       -1.896164    0.712627   -1.204122
      3         11           0        3.203570   -1.577097    0.560128
      4         11           0       -3.464503   -1.723226    0.331237
      5         11           0        0.659333   -1.853466   -1.412798
      6         11           0       -0.286322   -0.129193    2.083570
      7         11           0        2.197383    1.343502   -0.593692
 ---------------------------------------------------------------------

 SCF Done:  E(UB3LYP) =  -1136.13065427     A.U. after   19 cycles

 The electronic state is 2-A.
 Alpha  occ. eigenvalues --  -38.44259 -38.44183 -38.44096 -38.44080 -38.44038
 Alpha  occ. eigenvalues --  -38.43443 -38.42966  -2.20035  -2.20003  -2.19940
 Alpha  occ. eigenvalues --   -2.19920  -2.19897  -2.19335  -2.18814  -1.13720
 Alpha  occ. eigenvalues --   -1.13693  -1.13678  -1.13671  -1.13652  -1.13637
 Alpha  occ. eigenvalues --   -1.13637  -1.13619  -1.13614  -1.13588  -1.13572
 Alpha  occ. eigenvalues --   -1.13569  -1.13555  -1.13507  -1.13491  -1.13022
 Alpha  occ. eigenvalues --   -1.13007  -1.12956  -1.12487  -1.12466  -1.12458
 Alpha  occ. eigenvalues --   -0.18022  -0.13312  -0.12114  -0.10736
 Alpha virt. eigenvalues --   -0.06178  -0.05342  -0.04499  -0.03530  -0.02839
 Alpha virt. eigenvalues --   -0.02681  -0.01869  -0.01243  -0.00574  -0.00250
 Alpha virt. eigenvalues --    0.00133   0.00289   0.00536   0.00639   0.00749

  Beta  occ. eigenvalues --  -38.44264 -38.44089 -38.44078 -38.44055 -38.44029
  Beta  occ. eigenvalues --  -38.43415 -38.42966  -2.20045  -2.19918  -2.19882
  Beta  occ. eigenvalues --   -2.19865  -2.19830  -2.19285  -2.18815  -1.13728
  Beta  occ. eigenvalues --   -1.13689  -1.13681  -1.13634  -1.13619  -1.13581
  Beta  occ. eigenvalues --   -1.13560  -1.13557  -1.13548  -1.13535  -1.13527
  Beta  occ. eigenvalues --   -1.13515  -1.13491  -1.13490  -1.13464  -1.12987
  Beta  occ. eigenvalues --   -1.12959  -1.12922  -1.12488  -1.12466  -1.12445
  Beta  occ. eigenvalues --   -0.17298  -0.13188  -0.11959
  Beta virt. eigenvalues --   -0.06873  -0.05986  -0.05240  -0.04357  -0.02936
  Beta virt. eigenvalues --   -0.02236  -0.01875  -0.01583  -0.01159  -0.00524
  Beta virt. eigenvalues --   -0.00084   0.00204   0.00338   0.00692   0.00741

 Mulliken charges and spin densities:
               1          2
     1  Na   0.570934  -0.102420
     2  Na  -0.105520   0.290350
     3  Na   0.523991  -0.000620
     4  Na   0.127740  -0.164435
     5  Na  -0.174594   0.106670
     6  Na  -0.657895   0.737087
     7  Na  -0.284655   0.133369
 Sum of Mulliken charges =  -0.00000   1.00000

 Dipole moment (field-independent basis, Debye):
    X=              0.2739    Y=             -0.5548    Z=              0.2079  Tot=              0.6527
 Quadrupole moment (field-independent basis, Debye-Ang):
   XX=            -56.1602   YY=            -65.4477   ZZ=            -72.7331
   XY=              0.1975   XZ=              0.4410   YZ=             -0.7092

 Normal termination of Gaussian 16 at Thu Dec  7 13:34:57 2023.
