 Gaussian 16, Revision B.01,
 Gaussian 16:  ES64L-G16RevB.01 20-Dec-2017

 -------------------------
 #P B3LYP/6-311+g(d) force
 -------------------------

 -----
 DPGEN
 -----
 Symbolic Z-matrix:
 Charge =  0 Multiplicity = 2

                         Standard orientation:
 ---------------------------------------------------------------------
 Center     Atomic      Atomic             Coordinates (Angstroms)
 Number     Number       Type             X           Y           Z
 ---------------------------------------------------------------------
      1         11           0        2.530879   -1.887236    0.016551
      2         11           0       -1.139454   -2.561911    0.245230
      3         11           0       -3.093123   -0.009345   -1.015396
      4         11           0        0.185854   -0.032499   -1.059004
      5         11           0       -0.456095    3.019633    0.258917
      6         11           0       -0.678553    0.206745    2.014503
      7         11           0        2.650492    1.264613   -0.460801
 ---------------------------------------------------------------------

 SCF Done:  E(UB3LYP) =  -1136.12958800     A.U. after   21 cycles

 The electronic state is 2-A.
 Alpha  occ. eigenvalues --  -38.44048 -38.43800 -38.43620 -38.43510 -38.43410
 Alpha  occ. eigenvalues --  -38.43370 -38.42840  -2.19893  -2.19714  -2.19485
 Alpha  occ. eigenvalues --   -2.19441  -2.19307  -2.19215  -2.19004  -1.13578
 Alpha  occ. eigenvalues --   -1.13530  -1.13521  -1.13518  -1.13367  -1.13316
 Alpha  occ. eigenvalues --   -1.13175  -1.13154  -1.13138  -1.13108  -1.13088
 Alpha  occ. eigenvalues --   -1.13053  -1.13017  -1.12961  -1.12915  -1.12883
 Alpha  occ. eigenvalues --   -1.12879  -1.12847  -1.12684  -1.12647  -1.12595
 Alpha  occ. eigenvalues --   -0.18915  -0.13292  -0.12516  -0.10699
 Alpha virt. eigenvalues --   -0.05429  -0.05018  -0.04820  -0.03135  -0.02781
 Alpha virt. eigenvalues --   -0.02265  -0.01544  -0.01192  -0.00312  -0.00191
 Alpha virt. eigenvalues --    0.00024   0.00322   0.00821   0.00863   0.00893

  Beta  occ. eigenvalues --  -38.44001 -38.43790 -38.43621 -38.43420 -38.43401
  Beta  occ. eigenvalues --  -38.43364 -38.42807  -2.19807  -2.19699  -2.19490
  Beta  occ. eigenvalues --   -2.19294  -2.19275  -2.19208  -2.18948  -1.13522
  Beta  occ. eigenvalues --   -1.13498  -1.13468  -1.13457  -1.13356  -1.13300
  Beta  occ. eigenvalues --   -1.13176  -1.13141  -1.13100  -1.13063  -1.13012
  Beta  occ. eigenvalues --   -1.12975  -1.12944  -1.12914  -1.12894  -1.12872
  Beta  occ. eigenvalues --   -1.12846  -1.12841  -1.12616  -1.12606  -1.12561
  Beta  occ. eigenvalues --   -0.18256  -0.12949  -0.12293
  Beta virt. eigenvalues --   -0.06853  -0.05226  -0.04952  -0.04770  -0.02511
  Beta virt. eigenvalues --   -0.02075  -0.01541  -0.01175  -0.01095  -0.00266
  Beta virt. eigenvalues --   -0.00161   0.00159   0.00393   0.00877   0.00887

 Mulliken charges and spin densities:
               1          2
     1  Na   0.029726   0.032589
     2  Na   0.397871   0.118966
     3  Na   0.151096   0.170327
     4  Na  -0.839357   0.095065
     5  Na   0.109801   0.019879
     6  Na  -0.294496   0.503794
     7  Na   0.445358   0.059380
 Sum of Mulliken charges =  -0.00000   1.00000

 Dipole moment (field-independent basis, Debye):
    X=             -0.1184    Y=              0.0311    Z=              0.3364  Tot=              0.3579
 Quadrupole moment (field-independent basis, Debye-Ang):
   XX=            -57.6826   YY=            -60.4810   ZZ=            -74.0494
   XY=             -0.8205   XZ=              1.5508   YZ=             -1.1131

 Normal termination of Gaussian 16 at Tue Nov 28 20:26:51 2023.
