 Gaussian 16, Revision B.01,
 Gaussian 16:  ES64L-G16RevB.01 20-Dec-2017

 -------------------------
 #P B3LYP/6-311+g(d) force
 -------------------------

 -----
 DPGEN
 -----
 Symbolic Z-matrix:
 Charge =  0 Multiplicity = 2

                         Standard orientation:
 ---------------------------------------------------------------------
 Center     Atomic      Atomic             Coordinates (Angstroms)
 Number     Number       Type             X           Y           Z
 ---------------------------------------------------------------------
      1         11           0        3.047397   -1.776474    0.003296
      2         11           0        3.064696    1.681739   -0.008938
      3         11           0       -0.903358    2.933004   -0.232304
      4         11           0       -0.049075   -0.269769   -1.692334
      5         11           0       -1.221200   -2.766348   -0.039769
      6         11           0       -0.300543    0.071136    2.050340
      7         11           0       -3.637917    0.126712   -0.080291
 ---------------------------------------------------------------------

 SCF Done:  E(UB3LYP) =  -1136.12677915     A.U. after   21 cycles

 The electronic state is 2-A.
 Alpha  occ. eigenvalues --  -38.45530 -38.44549 -38.44524 -38.43609 -38.43584
 Alpha  occ. eigenvalues --  -38.43402 -38.43313  -2.21278  -2.20309  -2.20287
 Alpha  occ. eigenvalues --   -2.19467  -2.19449  -2.19227  -2.19100  -1.14958
 Alpha  occ. eigenvalues --   -1.14925  -1.14919  -1.13991  -1.13988  -1.13963
 Alpha  occ. eigenvalues --   -1.13954  -1.13931  -1.13917  -1.13177  -1.13127
 Alpha  occ. eigenvalues --   -1.13115  -1.13078  -1.13075  -1.13067  -1.12906
 Alpha  occ. eigenvalues --   -1.12888  -1.12849  -1.12779  -1.12770  -1.12732
 Alpha  occ. eigenvalues --   -0.17660  -0.13065  -0.11800  -0.10222
 Alpha virt. eigenvalues --   -0.06720  -0.05634  -0.04524  -0.03118  -0.02603
 Alpha virt. eigenvalues --   -0.02373  -0.02319  -0.01464  -0.00832  -0.00671
 Alpha virt. eigenvalues --   -0.00122   0.00256   0.00629   0.00657   0.00742

  Beta  occ. eigenvalues --  -38.45530 -38.44550 -38.44526 -38.43521 -38.43512
  Beta  occ. eigenvalues --  -38.43395 -38.43308  -2.21279  -2.20313  -2.20292
  Beta  occ. eigenvalues --   -2.19352  -2.19271  -2.19219  -2.19093  -1.14939
  Beta  occ. eigenvalues --   -1.14929  -1.14922  -1.13996  -1.13979  -1.13958
  Beta  occ. eigenvalues --   -1.13953  -1.13935  -1.13922  -1.13100  -1.13045
  Beta  occ. eigenvalues --   -1.12997  -1.12995  -1.12949  -1.12942  -1.12891
  Beta  occ. eigenvalues --   -1.12854  -1.12847  -1.12772  -1.12749  -1.12730
  Beta  occ. eigenvalues --   -0.16950  -0.12942  -0.11583
  Beta virt. eigenvalues --   -0.06635  -0.06335  -0.05679  -0.04448  -0.02471
  Beta virt. eigenvalues --   -0.02229  -0.01859  -0.01423  -0.01316  -0.00889
  Beta virt. eigenvalues --   -0.00677   0.00061   0.00294   0.00707   0.00739

 Mulliken charges and spin densities:
               1          2
     1  Na   0.060516  -0.095081
     2  Na  -0.019478  -0.080087
     3  Na  -0.157492  -0.140172
     4  Na   0.136478   0.668532
     5  Na   0.053611  -0.149185
     6  Na  -0.241479   0.849654
     7  Na   0.167843  -0.053662
 Sum of Mulliken charges =  -0.00000   1.00000

 Dipole moment (field-independent basis, Debye):
    X=             -0.2629    Y=             -0.1009    Z=              0.0108  Tot=              0.2818
 Quadrupole moment (field-independent basis, Debye-Ang):
   XX=            -48.5915   YY=            -65.1826   ZZ=            -77.7882
   XY=             -0.0267   XZ=              0.5321   YZ=             -0.7543

 Normal termination of Gaussian 16 at Thu Dec  7 02:03:46 2023.
