 Gaussian 16, Revision B.01,
 Gaussian 16:  ES64L-G16RevB.01 20-Dec-2017

 -------------------------
 #P B3LYP/6-311+g(d) force
 -------------------------

 -----
 DPGEN
 -----
 Symbolic Z-matrix:
 Charge =  0 Multiplicity = 2

                         Standard orientation:
 ---------------------------------------------------------------------
 Center     Atomic      Atomic             Coordinates (Angstroms)
 Number     Number       Type             X           Y           Z
 ---------------------------------------------------------------------
      1         11           0        3.858894   -1.502440   -0.963444
      2         11           0       -2.740021    0.069750   -2.156589
      3         11           0        2.874865    1.908143    0.491570
      4         11           0       -3.243264   -1.196932    0.923544
      5         11           0       -0.904822    2.444730   -0.602314
      6         11           0        0.620698   -1.812560   -0.071917
      7         11           0       -0.466352    0.089309    2.379150
 ---------------------------------------------------------------------

 SCF Done:  E(UB3LYP) =  -1136.11683082     A.U. after   25 cycles

 The electronic state is 2-A.
 Alpha  occ. eigenvalues --  -38.44677 -38.44632 -38.44559 -38.44423 -38.44358
 Alpha  occ. eigenvalues --  -38.44146 -38.43129  -2.20495  -2.20415  -2.20369
 Alpha  occ. eigenvalues --   -2.20215  -2.20192  -2.19954  -2.18910  -1.14177
 Alpha  occ. eigenvalues --   -1.14151  -1.14104  -1.14094  -1.14070  -1.14049
 Alpha  occ. eigenvalues --   -1.14049  -1.14030  -1.13996  -1.13878  -1.13865
 Alpha  occ. eigenvalues --   -1.13847  -1.13839  -1.13822  -1.13814  -1.13670
 Alpha  occ. eigenvalues --   -1.13637  -1.13548  -1.12605  -1.12594  -1.12539
 Alpha  occ. eigenvalues --   -0.17407  -0.13724  -0.11628  -0.11254
 Alpha virt. eigenvalues --   -0.06625  -0.05691  -0.04584  -0.03210  -0.03110
 Alpha virt. eigenvalues --   -0.02802  -0.02254  -0.01371  -0.00739  -0.00304
 Alpha virt. eigenvalues --   -0.00145   0.00035   0.00230   0.00298   0.00604

  Beta  occ. eigenvalues --  -38.44671 -38.44553 -38.44543 -38.44378 -38.44290
  Beta  occ. eigenvalues --  -38.44143 -38.43138  -2.20406  -2.20363  -2.20331
  Beta  occ. eigenvalues --   -2.20131  -2.20065  -2.19952  -2.18929  -1.14095
  Beta  occ. eigenvalues --   -1.14072  -1.14065  -1.14063  -1.14036  -1.14029
  Beta  occ. eigenvalues --   -1.14020  -1.13995  -1.13940  -1.13818  -1.13809
  Beta  occ. eigenvalues --   -1.13786  -1.13759  -1.13743  -1.13729  -1.13649
  Beta  occ. eigenvalues --   -1.13639  -1.13540  -1.12618  -1.12605  -1.12537
  Beta  occ. eigenvalues --   -0.16748  -0.13187  -0.10989
  Beta virt. eigenvalues --   -0.08161  -0.06543  -0.05201  -0.03951  -0.03106
  Beta virt. eigenvalues --   -0.02576  -0.02265  -0.02161  -0.01120  -0.00533
  Beta virt. eigenvalues --   -0.00161   0.00132   0.00177   0.00264   0.00413

 Mulliken charges and spin densities:
               1          2
     1  Na   0.401083   0.103153
     2  Na   0.322914   0.407073
     3  Na   0.039246   0.007369
     4  Na   0.374955  -0.004094
     5  Na  -0.478426  -0.156515
     6  Na  -0.954078   0.064059
     7  Na   0.294306   0.578955
 Sum of Mulliken charges =  -0.00000   1.00000

 Dipole moment (field-independent basis, Debye):
    X=              0.1316    Y=             -0.3968    Z=              0.2200  Tot=              0.4724
 Quadrupole moment (field-independent basis, Debye-Ang):
   XX=            -53.1128   YY=            -76.3974   ZZ=            -67.4118
   XY=              3.7314   XZ=             -1.2818   YZ=              5.3050

 Normal termination of Gaussian 16 at Mon Dec  4 02:04:15 2023.
