 Gaussian 16, Revision B.01,
 Gaussian 16:  ES64L-G16RevB.01 20-Dec-2017

 -------------------------
 #P B3LYP/6-311+g(d) force
 -------------------------

 -----
 DPGEN
 -----
 Symbolic Z-matrix:
 Charge =  0 Multiplicity = 2

                         Standard orientation:
 ---------------------------------------------------------------------
 Center     Atomic      Atomic             Coordinates (Angstroms)
 Number     Number       Type             X           Y           Z
 ---------------------------------------------------------------------
      1         11           0        2.864363    1.348655    0.029999
      2         11           0        2.098295   -2.173995   -0.078107
      3         11           0        0.094194    0.165976   -1.559662
      4         11           0       -0.384597    3.022672   -0.047745
      5         11           0       -1.156554   -2.528673   -0.301314
      6         11           0       -0.424151   -0.212863    2.214765
      7         11           0       -3.091550    0.378228   -0.257936
 ---------------------------------------------------------------------

 SCF Done:  E(UB3LYP) =  -1136.13888880     A.U. after   18 cycles

 The electronic state is 2-A.
 Alpha  occ. eigenvalues --  -38.43859 -38.43809 -38.43780 -38.43754 -38.43508
 Alpha  occ. eigenvalues --  -38.43324 -38.43054  -2.19669  -2.19643  -2.19637
 Alpha  occ. eigenvalues --   -2.19575  -2.19358  -2.19228  -2.19056  -1.13352
 Alpha  occ. eigenvalues --   -1.13334  -1.13321  -1.13313  -1.13309  -1.13288
 Alpha  occ. eigenvalues --   -1.13287  -1.13269  -1.13267  -1.13251  -1.13235
 Alpha  occ. eigenvalues --   -1.13194  -1.13058  -1.13019  -1.13006  -1.12935
 Alpha  occ. eigenvalues --   -1.12883  -1.12841  -1.12735  -1.12690  -1.12675
 Alpha  occ. eigenvalues --   -0.18594  -0.12756  -0.12671  -0.10796
 Alpha virt. eigenvalues --   -0.05530  -0.05089  -0.04890  -0.03049  -0.02978
 Alpha virt. eigenvalues --   -0.02687  -0.01397  -0.01167  -0.00464  -0.00310
 Alpha virt. eigenvalues --   -0.00028   0.00354   0.00821   0.00861   0.00904

  Beta  occ. eigenvalues --  -38.43859 -38.43803 -38.43751 -38.43675 -38.43505
  Beta  occ. eigenvalues --  -38.43313 -38.42998  -2.19671  -2.19634  -2.19573
  Beta  occ. eigenvalues --   -2.19445  -2.19356  -2.19213  -2.18955  -1.13347
  Beta  occ. eigenvalues --   -1.13326  -1.13313  -1.13311  -1.13285  -1.13280
  Beta  occ. eigenvalues --   -1.13262  -1.13224  -1.13196  -1.13165  -1.13130
  Beta  occ. eigenvalues --   -1.13118  -1.13054  -1.13009  -1.12996  -1.12918
  Beta  occ. eigenvalues --   -1.12844  -1.12837  -1.12666  -1.12616  -1.12600
  Beta  occ. eigenvalues --   -0.17867  -0.12550  -0.12453
  Beta virt. eigenvalues --   -0.06814  -0.05535  -0.05085  -0.04805  -0.02294
  Beta virt. eigenvalues --   -0.02201  -0.01578  -0.01320  -0.01094  -0.00513
  Beta virt. eigenvalues --   -0.00367   0.00141   0.00388   0.00852   0.00885

 Mulliken charges and spin densities:
               1          2
     1  Na   0.062923  -0.029184
     2  Na   0.115415  -0.012274
     3  Na  -0.219410   0.271638
     4  Na   0.090208  -0.056559
     5  Na   0.400559   0.051831
     6  Na  -0.714407   0.796421
     7  Na   0.264712  -0.021873
 Sum of Mulliken charges =  -0.00000   1.00000

 Dipole moment (field-independent basis, Debye):
    X=             -0.0132    Y=              0.2435    Z=              0.2026  Tot=              0.3170
 Quadrupole moment (field-independent basis, Debye-Ang):
   XX=            -57.9810   YY=            -61.3802   ZZ=            -74.2533
   XY=             -0.4396   XZ=              1.2289   YZ=              0.8191

 Normal termination of Gaussian 16 at Thu Dec  7 13:32:11 2023.
