 Gaussian 16, Revision B.01,
 Gaussian 16:  ES64L-G16RevB.01 20-Dec-2017

 -------------------------
 #P B3LYP/6-311+g(d) force
 -------------------------

 -----
 DPGEN
 -----
 Symbolic Z-matrix:
 Charge =  0 Multiplicity = 2

                         Standard orientation:
 ---------------------------------------------------------------------
 Center     Atomic      Atomic             Coordinates (Angstroms)
 Number     Number       Type             X           Y           Z
 ---------------------------------------------------------------------
      1         11           0       -1.984297   -2.429196    0.070460
      2         11           0       -0.638603    3.048325    0.207581
      3         11           0        0.632572   -0.336782    2.354606
      4         11           0        2.677444   -2.016430   -0.509977
      5         11           0       -3.605570    0.252203   -0.403354
      6         11           0        2.606515    1.388239   -0.335420
      7         11           0        0.311939    0.093640   -1.383897
 ---------------------------------------------------------------------

 SCF Done:  E(UB3LYP) =  -1136.12544977     A.U. after   19 cycles

 The electronic state is 2-A.
 Alpha  occ. eigenvalues --  -38.44521 -38.44251 -38.44015 -38.43904 -38.43840
 Alpha  occ. eigenvalues --  -38.43684 -38.43211  -2.20311  -2.20165  -2.19844
 Alpha  occ. eigenvalues --   -2.19735  -2.19671  -2.19647  -2.19003  -1.14005
 Alpha  occ. eigenvalues --   -1.13988  -1.13978  -1.13944  -1.13809  -1.13745
 Alpha  occ. eigenvalues --   -1.13490  -1.13473  -1.13455  -1.13429  -1.13387
 Alpha  occ. eigenvalues --   -1.13375  -1.13340  -1.13329  -1.13312  -1.13301
 Alpha  occ. eigenvalues --   -1.13286  -1.13253  -1.12675  -1.12669  -1.12642
 Alpha  occ. eigenvalues --   -0.18068  -0.13386  -0.11847  -0.10821
 Alpha virt. eigenvalues --   -0.05980  -0.05543  -0.04591  -0.03167  -0.02920
 Alpha virt. eigenvalues --   -0.02532  -0.01829  -0.01276  -0.00761  -0.00406
 Alpha virt. eigenvalues --   -0.00101   0.00281   0.00649   0.00796   0.00816

  Beta  occ. eigenvalues --  -38.44516 -38.44237 -38.43897 -38.43894 -38.43840
  Beta  occ. eigenvalues --  -38.43647 -38.43212  -2.20303  -2.20143  -2.19720
  Beta  occ. eigenvalues --   -2.19649  -2.19624  -2.19605  -2.19005  -1.13984
  Beta  occ. eigenvalues --   -1.13982  -1.13967  -1.13939  -1.13776  -1.13726
  Beta  occ. eigenvalues --   -1.13412  -1.13381  -1.13349  -1.13341  -1.13323
  Beta  occ. eigenvalues --   -1.13319  -1.13310  -1.13298  -1.13293  -1.13281
  Beta  occ. eigenvalues --   -1.13255  -1.13206  -1.12675  -1.12663  -1.12645
  Beta  occ. eigenvalues --   -0.17385  -0.13176  -0.11691
  Beta virt. eigenvalues --   -0.06798  -0.05845  -0.05522  -0.04515  -0.02562
  Beta virt. eigenvalues --   -0.02017  -0.01747  -0.01627  -0.01238  -0.00738
  Beta virt. eigenvalues --   -0.00421   0.00112   0.00346   0.00765   0.00809

 Mulliken charges and spin densities:
               1          2
     1  Na   0.008602   0.023012
     2  Na  -0.195025   0.046583
     3  Na  -0.496267   0.745449
     4  Na   0.138073   0.042365
     5  Na   0.016361   0.015641
     6  Na   0.414634   0.171473
     7  Na   0.113623  -0.044522
 Sum of Mulliken charges =  -0.00000   1.00000

 Dipole moment (field-independent basis, Debye):
    X=             -0.0068    Y=             -0.1398    Z=              0.1167  Tot=              0.1823
 Quadrupole moment (field-independent basis, Debye-Ang):
   XX=            -55.3014   YY=            -64.6645   ZZ=            -74.7394
   XY=             -2.2707   XZ=             -0.1011   YZ=              0.9270

 Normal termination of Gaussian 16 at Fri Dec  8 04:07:06 2023.
