 Gaussian 16, Revision B.01,
 Gaussian 16:  ES64L-G16RevB.01 20-Dec-2017

 -------------------------
 #P B3LYP/6-311+g(d) force
 -------------------------

 -----
 DPGEN
 -----
 Symbolic Z-matrix:
 Charge =  0 Multiplicity = 2

                         Standard orientation:
 ---------------------------------------------------------------------
 Center     Atomic      Atomic             Coordinates (Angstroms)
 Number     Number       Type             X           Y           Z
 ---------------------------------------------------------------------
      1         11           0       -0.231934   -0.177766   -1.497143
      2         11           0        0.767450    0.225073    1.726957
      3         11           0        2.418402   -1.097862   -0.410643
      4         11           0        1.554297    1.583404   -0.478443
      5         11           0       -0.455067   -1.908975    0.578757
      6         11           0       -1.211014    1.852995    0.341257
      7         11           0       -2.842133   -0.476868   -0.260743
 ---------------------------------------------------------------------

 SCF Done:  E(UB3LYP) =  -1136.07347243     A.U. after   21 cycles

 The electronic state is 2-A.
 Alpha  occ. eigenvalues --  -38.44398 -38.44338 -38.44105 -38.43856 -38.43814
 Alpha  occ. eigenvalues --  -38.43403 -38.43126  -2.20661  -2.20483  -2.20358
 Alpha  occ. eigenvalues --   -2.20038  -2.19936  -2.19574  -2.19268  -1.14555
 Alpha  occ. eigenvalues --   -1.14452  -1.14407  -1.14282  -1.14268  -1.14186
 Alpha  occ. eigenvalues --   -1.14025  -1.14011  -1.13953  -1.13814  -1.13630
 Alpha  occ. eigenvalues --   -1.13585  -1.13574  -1.13554  -1.13430  -1.13223
 Alpha  occ. eigenvalues --   -1.13190  -1.13099  -1.12961  -1.12895  -1.12853
 Alpha  occ. eigenvalues --   -0.21673  -0.14289  -0.12557  -0.12207
 Alpha virt. eigenvalues --   -0.05643  -0.04270  -0.03809  -0.03739  -0.02922
 Alpha virt. eigenvalues --   -0.02665  -0.01405  -0.00434  -0.00111   0.00312
 Alpha virt. eigenvalues --    0.00674   0.00783   0.01051   0.01118   0.01205

  Beta  occ. eigenvalues --  -38.44333 -38.44305 -38.44027 -38.43840 -38.43789
  Beta  occ. eigenvalues --  -38.43377 -38.43110  -2.20495  -2.20367  -2.20331
  Beta  occ. eigenvalues --   -2.20000  -2.19911  -2.19534  -2.19245  -1.14475
  Beta  occ. eigenvalues --   -1.14337  -1.14319  -1.14195  -1.14160  -1.14105
  Beta  occ. eigenvalues --   -1.14021  -1.13983  -1.13902  -1.13782  -1.13594
  Beta  occ. eigenvalues --   -1.13559  -1.13502  -1.13490  -1.13409  -1.13195
  Beta  occ. eigenvalues --   -1.13109  -1.13075  -1.12950  -1.12852  -1.12819
  Beta  occ. eigenvalues --   -0.20866  -0.13959  -0.12232
  Beta virt. eigenvalues --   -0.07915  -0.05604  -0.04265  -0.03673  -0.02928
  Beta virt. eigenvalues --   -0.02049  -0.01587  -0.01295  -0.00411   0.00063
  Beta virt. eigenvalues --    0.00345   0.00692   0.00778   0.01058   0.01136

 Mulliken charges and spin densities:
               1          2
     1  Na  -0.702276   0.316752
     2  Na  -0.295642   0.409970
     3  Na   0.022553  -0.070111
     4  Na   0.281569   0.088341
     5  Na   0.353164   0.177304
     6  Na   0.075523   0.117338
     7  Na   0.265110  -0.039593
 Sum of Mulliken charges =  -0.00000   1.00000

 Dipole moment (field-independent basis, Debye):
    X=             -0.1685    Y=             -0.1639    Z=              0.1230  Tot=              0.2653
 Quadrupole moment (field-independent basis, Debye-Ang):
   XX=            -55.7500   YY=            -71.7794   ZZ=            -69.1076
   XY=             -0.8238   XZ=             -1.0304   YZ=             -0.0120

 Normal termination of Gaussian 16 at Fri Dec  8 19:37:15 2023.
