 Gaussian 16, Revision B.01,
 Gaussian 16:  ES64L-G16RevB.01 20-Dec-2017

 -------------------------
 #P B3LYP/6-311+g(d) force
 -------------------------

 -----
 DPGEN
 -----
 Symbolic Z-matrix:
 Charge =  0 Multiplicity = 2

                         Standard orientation:
 ---------------------------------------------------------------------
 Center     Atomic      Atomic             Coordinates (Angstroms)
 Number     Number       Type             X           Y           Z
 ---------------------------------------------------------------------
      1         11           0        0.290240   -0.159941    1.927408
      2         11           0       -3.139131    0.060753    0.052546
      3         11           0       -0.949498    2.348148   -0.092183
      4         11           0        2.522124    1.597894    0.154740
      5         11           0        0.155145    0.182202   -1.724474
      6         11           0        2.210795   -1.812475   -0.288224
      7         11           0       -1.089674   -2.216581   -0.029814
 ---------------------------------------------------------------------

 SCF Done:  E(UB3LYP) =  -1136.13217882     A.U. after   19 cycles

 The electronic state is 2-A.
 Alpha  occ. eigenvalues --  -38.44089 -38.43702 -38.43541 -38.43455 -38.43363
 Alpha  occ. eigenvalues --  -38.43075 -38.42913  -2.19976  -2.19585  -2.19524
 Alpha  occ. eigenvalues --   -2.19428  -2.19371  -2.19023  -2.18888  -1.13672
 Alpha  occ. eigenvalues --   -1.13641  -1.13616  -1.13291  -1.13266  -1.13224
 Alpha  occ. eigenvalues --   -1.13218  -1.13180  -1.13151  -1.13137  -1.13125
 Alpha  occ. eigenvalues --   -1.13046  -1.13016  -1.13001  -1.12985  -1.12698
 Alpha  occ. eigenvalues --   -1.12672  -1.12621  -1.12572  -1.12545  -1.12509
 Alpha  occ. eigenvalues --   -0.19658  -0.13489  -0.12439  -0.11185
 Alpha virt. eigenvalues --   -0.05653  -0.04996  -0.04019  -0.03399  -0.02896
 Alpha virt. eigenvalues --   -0.02658  -0.01576  -0.00919  -0.00036   0.00099
 Alpha virt. eigenvalues --    0.00190   0.00354   0.00832   0.00966   0.00993

  Beta  occ. eigenvalues --  -38.44089 -38.43696 -38.43451 -38.43445 -38.43284
  Beta  occ. eigenvalues --  -38.43066 -38.42902  -2.19978  -2.19577  -2.19361
  Beta  occ. eigenvalues --   -2.19357  -2.19285  -2.19011  -2.18875  -1.13678
  Beta  occ. eigenvalues --   -1.13644  -1.13596  -1.13276  -1.13226  -1.13219
  Beta  occ. eigenvalues --   -1.13128  -1.13099  -1.13055  -1.13044  -1.13027
  Beta  occ. eigenvalues --   -1.12994  -1.12972  -1.12962  -1.12910  -1.12678
  Beta  occ. eigenvalues --   -1.12633  -1.12615  -1.12565  -1.12509  -1.12489
  Beta  occ. eigenvalues --   -0.18890  -0.13230  -0.12142
  Beta virt. eigenvalues --   -0.07181  -0.05615  -0.05004  -0.04030  -0.02563
  Beta virt. eigenvalues --   -0.02054  -0.01562  -0.01493  -0.00865   0.00045
  Beta virt. eigenvalues --    0.00097   0.00150   0.00372   0.00884   0.00961

 Mulliken charges and spin densities:
               1          2
     1  Na  -0.800563   0.680915
     2  Na  -0.158999  -0.070267
     3  Na   0.542847  -0.021735
     4  Na   0.263204  -0.064936
     5  Na  -0.773052   0.501748
     6  Na   0.374458  -0.051227
     7  Na   0.552105   0.025503
 Sum of Mulliken charges =  -0.00000   1.00000

 Dipole moment (field-independent basis, Debye):
    X=              0.1459    Y=              0.0895    Z=              0.1776  Tot=              0.2467
 Quadrupole moment (field-independent basis, Debye-Ang):
   XX=            -54.3463   YY=            -67.4595   ZZ=            -72.2951
   XY=              0.0256   XZ=             -0.3496   YZ=              0.9110

 Normal termination of Gaussian 16 at Sat Dec  9 05:31:12 2023.
