 Gaussian 16, Revision B.01,
 Gaussian 16:  ES64L-G16RevB.01 20-Dec-2017

 -------------------------
 #P B3LYP/6-311+g(d) force
 -------------------------

 -----
 DPGEN
 -----
 Symbolic Z-matrix:
 Charge =  0 Multiplicity = 2

                         Standard orientation:
 ---------------------------------------------------------------------
 Center     Atomic      Atomic             Coordinates (Angstroms)
 Number     Number       Type             X           Y           Z
 ---------------------------------------------------------------------
      1         11           0       -0.914150   -2.727894    0.535352
      2         11           0       -0.701336    2.633869   -0.238986
      3         11           0       -0.631776   -0.470598   -1.945800
      4         11           0       -3.147318    0.613113    0.213810
      5         11           0        2.286161   -1.562472   -0.898543
      6         11           0        0.586314   -0.382018    2.101155
      7         11           0        2.522105    1.896001    0.233012
 ---------------------------------------------------------------------

 SCF Done:  E(UB3LYP) =  -1136.13633770     A.U. after   18 cycles

 The electronic state is 2-A.
 Alpha  occ. eigenvalues --  -38.44064 -38.43921 -38.43829 -38.43825 -38.43585
 Alpha  occ. eigenvalues --  -38.43335 -38.43260  -2.19946  -2.19772  -2.19742
 Alpha  occ. eigenvalues --   -2.19651  -2.19447  -2.19162  -2.19123  -1.13622
 Alpha  occ. eigenvalues --   -1.13580  -1.13575  -1.13498  -1.13420  -1.13403
 Alpha  occ. eigenvalues --   -1.13397  -1.13389  -1.13355  -1.13334  -1.13303
 Alpha  occ. eigenvalues --   -1.13284  -1.13134  -1.13100  -1.13063  -1.12856
 Alpha  occ. eigenvalues --   -1.12830  -1.12808  -1.12798  -1.12790  -1.12731
 Alpha  occ. eigenvalues --   -0.18431  -0.12768  -0.12512  -0.11437
 Alpha virt. eigenvalues --   -0.05398  -0.04968  -0.04644  -0.03442  -0.03287
 Alpha virt. eigenvalues --   -0.03054  -0.01265  -0.01017  -0.00290  -0.00072
 Alpha virt. eigenvalues --    0.00004   0.00386   0.00820   0.00886   0.00890

  Beta  occ. eigenvalues --  -38.43981 -38.43891 -38.43826 -38.43760 -38.43568
  Beta  occ. eigenvalues --  -38.43335 -38.43258  -2.19795  -2.19720  -2.19653
  Beta  occ. eigenvalues --   -2.19616  -2.19421  -2.19164  -2.19121  -1.13523
  Beta  occ. eigenvalues --   -1.13476  -1.13462  -1.13439  -1.13370  -1.13362
  Beta  occ. eigenvalues --   -1.13346  -1.13328  -1.13311  -1.13303  -1.13286
  Beta  occ. eigenvalues --   -1.13238  -1.13104  -1.13067  -1.13044  -1.12859
  Beta  occ. eigenvalues --   -1.12819  -1.12808  -1.12791  -1.12783  -1.12731
  Beta  occ. eigenvalues --   -0.17689  -0.12565  -0.12301
  Beta virt. eigenvalues --   -0.07452  -0.05348  -0.04896  -0.04506  -0.02788
  Beta virt. eigenvalues --   -0.02550  -0.02022  -0.01166  -0.00930  -0.00232
  Beta virt. eigenvalues --   -0.00067   0.00090   0.00437   0.00868   0.00918

 Mulliken charges and spin densities:
               1          2
     1  Na   0.229550   0.005731
     2  Na  -0.130290  -0.071769
     3  Na  -0.043861   0.464054
     4  Na   0.127371  -0.040762
     5  Na   0.113705   0.047278
     6  Na  -0.317438   0.617564
     7  Na   0.020963  -0.022097
 Sum of Mulliken charges =  -0.00000   1.00000

 Dipole moment (field-independent basis, Debye):
    X=             -0.1007    Y=             -0.3418    Z=              0.0788  Tot=              0.3650
 Quadrupole moment (field-independent basis, Debye-Ang):
   XX=            -60.4499   YY=            -65.7394   ZZ=            -70.0674
   XY=              0.5167   XZ=             -2.2852   YZ=              0.0712

 Normal termination of Gaussian 16 at Tue Dec  5 18:50:58 2023.
