 Gaussian 16, Revision B.01,
 Gaussian 16:  ES64L-G16RevB.01 20-Dec-2017

 -------------------------
 #P B3LYP/6-311+g(d) force
 -------------------------

 -----
 DPGEN
 -----
 Symbolic Z-matrix:
 Charge =  0 Multiplicity = 2

                         Standard orientation:
 ---------------------------------------------------------------------
 Center     Atomic      Atomic             Coordinates (Angstroms)
 Number     Number       Type             X           Y           Z
 ---------------------------------------------------------------------
      1         11           0        4.138888    0.183402   -1.057709
      2         11           0       -3.306531   -2.049888   -0.710397
      3         11           0        0.553850   -1.683799   -1.084577
      4         11           0       -0.001166    2.524731   -0.597083
      5         11           0       -3.153904    1.617397   -0.313607
      6         11           0       -3.662365   -0.188481    2.067393
      7         11           0        5.431227   -0.403363    1.695979
 ---------------------------------------------------------------------

 SCF Done:  E(UB3LYP) =  -1136.10543782     A.U. after   23 cycles

 The electronic state is 2-A.
 Alpha  occ. eigenvalues --  -38.45511 -38.44763 -38.44638 -38.44187 -38.44147
 Alpha  occ. eigenvalues --  -38.44146 -38.42741  -2.21270  -2.20605  -2.20449
 Alpha  occ. eigenvalues --   -2.20035  -2.19983  -2.19938  -2.18518  -1.14940
 Alpha  occ. eigenvalues --   -1.14900  -1.14877  -1.14328  -1.14254  -1.14230
 Alpha  occ. eigenvalues --   -1.14129  -1.14106  -1.14053  -1.13732  -1.13723
 Alpha  occ. eigenvalues --   -1.13682  -1.13635  -1.13631  -1.13630  -1.13604
 Alpha  occ. eigenvalues --   -1.13582  -1.13521  -1.12193  -1.12191  -1.12157
 Alpha  occ. eigenvalues --   -0.16578  -0.13938  -0.11847  -0.11017
 Alpha virt. eigenvalues --   -0.06587  -0.05422  -0.05051  -0.03325  -0.03013
 Alpha virt. eigenvalues --   -0.02572  -0.02258  -0.01380  -0.01065  -0.00582
 Alpha virt. eigenvalues --   -0.00357  -0.00175   0.00025   0.00111   0.00372

  Beta  occ. eigenvalues --  -38.45415 -38.44747 -38.44600 -38.44160 -38.44149
  Beta  occ. eigenvalues --  -38.44111 -38.42745  -2.21092  -2.20577  -2.20381
  Beta  occ. eigenvalues --   -2.19969  -2.19948  -2.19931  -2.18525  -1.14821
  Beta  occ. eigenvalues --   -1.14782  -1.14742  -1.14297  -1.14234  -1.14211
  Beta  occ. eigenvalues --   -1.14085  -1.14058  -1.13991  -1.13703  -1.13678
  Beta  occ. eigenvalues --   -1.13641  -1.13621  -1.13603  -1.13590  -1.13588
  Beta  occ. eigenvalues --   -1.13579  -1.13504  -1.12198  -1.12196  -1.12157
  Beta  occ. eigenvalues --   -0.15867  -0.13649  -0.10845
  Beta virt. eigenvalues --   -0.08061  -0.06145  -0.05080  -0.04735  -0.02987
  Beta virt. eigenvalues --   -0.02666  -0.02237  -0.01929  -0.01011  -0.00956
  Beta virt. eigenvalues --   -0.00505  -0.00224   0.00010   0.00234   0.00252

 Mulliken charges and spin densities:
               1          2
     1  Na  -0.230709   0.039132
     2  Na   0.165455   0.016768
     3  Na  -0.267101   0.580736
     4  Na  -0.098917  -0.133963
     5  Na  -0.138045   0.363736
     6  Na   0.331154   0.011829
     7  Na   0.238164   0.121761
 Sum of Mulliken charges =  -0.00000   1.00000

 Dipole moment (field-independent basis, Debye):
    X=             -0.6928    Y=             -0.9082    Z=              0.8363  Tot=              1.4157
 Quadrupole moment (field-independent basis, Debye-Ang):
   XX=            -67.6919   YY=            -73.6107   ZZ=            -60.8047
   XY=              0.2843   XZ=              2.0137   YZ=              1.4477

 Normal termination of Gaussian 16 at Mon Dec  4 02:58:53 2023.
