 Gaussian 16, Revision B.01,
 Gaussian 16:  ES64L-G16RevB.01 20-Dec-2017

 -------------------------
 #P B3LYP/6-311+g(d) force
 -------------------------

 -----
 DPGEN
 -----
 Symbolic Z-matrix:
 Charge =  0 Multiplicity = 2

                         Standard orientation:
 ---------------------------------------------------------------------
 Center     Atomic      Atomic             Coordinates (Angstroms)
 Number     Number       Type             X           Y           Z
 ---------------------------------------------------------------------
      1         11           0       -2.852701    1.392691   -1.009654
      2         11           0       -1.033705    3.502985    0.568866
      3         11           0        3.706594    0.097226    1.143902
      4         11           0       -4.592435   -1.606541    0.124640
      5         11           0        5.768030   -1.141849   -0.850510
      6         11           0        0.888975    0.797311   -0.364536
      7         11           0       -1.884757   -3.041824    0.387293
 ---------------------------------------------------------------------

 SCF Done:  E(UB3LYP) =  -1136.11386430     A.U. after   17 cycles

 The electronic state is 2-A.
 Alpha  occ. eigenvalues --  -38.44594 -38.44473 -38.44170 -38.44079 -38.44079
 Alpha  occ. eigenvalues --  -38.43985 -38.43678  -2.20387  -2.20282  -2.20005
 Alpha  occ. eigenvalues --   -2.19896  -2.19894  -2.19826  -2.19510  -1.14066
 Alpha  occ. eigenvalues --   -1.14042  -1.14028  -1.13967  -1.13945  -1.13931
 Alpha  occ. eigenvalues --   -1.13688  -1.13660  -1.13610  -1.13559  -1.13554
 Alpha  occ. eigenvalues --   -1.13546  -1.13539  -1.13530  -1.13524  -1.13516
 Alpha  occ. eigenvalues --   -1.13486  -1.13432  -1.13175  -1.13168  -1.13159
 Alpha  occ. eigenvalues --   -0.16210  -0.14009  -0.12709  -0.10300
 Alpha virt. eigenvalues --   -0.06460  -0.05777  -0.04483  -0.03652  -0.02899
 Alpha virt. eigenvalues --   -0.02403  -0.02117  -0.01599  -0.01053  -0.00664
 Alpha virt. eigenvalues --   -0.00354  -0.00198   0.00032   0.00318   0.00559

  Beta  occ. eigenvalues --  -38.44568 -38.44477 -38.44125 -38.44075 -38.44004
  Beta  occ. eigenvalues --  -38.43933 -38.43683  -2.20337  -2.20293  -2.19923
  Beta  occ. eigenvalues --   -2.19891  -2.19753  -2.19730  -2.19526  -1.14035
  Beta  occ. eigenvalues --   -1.14008  -1.13992  -1.13966  -1.13951  -1.13930
  Beta  occ. eigenvalues --   -1.13627  -1.13601  -1.13563  -1.13553  -1.13537
  Beta  occ. eigenvalues --   -1.13520  -1.13472  -1.13445  -1.13434  -1.13428
  Beta  occ. eigenvalues --   -1.13418  -1.13377  -1.13188  -1.13180  -1.13123
  Beta  occ. eigenvalues --   -0.15693  -0.13508  -0.12461
  Beta virt. eigenvalues --   -0.07143  -0.05842  -0.05428  -0.04119  -0.03374
  Beta virt. eigenvalues --   -0.02646  -0.02307  -0.01956  -0.01197  -0.00990
  Beta virt. eigenvalues --   -0.00324  -0.00100   0.00005   0.00229   0.00497

 Mulliken charges and spin densities:
               1          2
     1  Na  -0.042578   0.412425
     2  Na   0.734894   0.099383
     3  Na   0.261793   0.030103
     4  Na   0.189233  -0.001646
     5  Na   0.160273   0.347936
     6  Na  -1.304421  -0.051810
     7  Na   0.000805   0.163608
 Sum of Mulliken charges =  -0.00000   1.00000

 Dipole moment (field-independent basis, Debye):
    X=             -0.8435    Y=              0.4011    Z=              0.2317  Tot=              0.9623
 Quadrupole moment (field-independent basis, Debye-Ang):
   XX=            -69.7751   YY=            -63.8849   ZZ=            -67.2847
   XY=             -0.5587   XZ=             -2.0914   YZ=              4.2260

 Normal termination of Gaussian 16 at Tue Nov 28 20:31:51 2023.
