 Gaussian 16, Revision B.01,
 Gaussian 16:  ES64L-G16RevB.01 20-Dec-2017

 -------------------------
 #P B3LYP/6-311+g(d) force
 -------------------------

 -----
 DPGEN
 -----
 Symbolic Z-matrix:
 Charge =  0 Multiplicity = 2

                         Standard orientation:
 ---------------------------------------------------------------------
 Center     Atomic      Atomic             Coordinates (Angstroms)
 Number     Number       Type             X           Y           Z
 ---------------------------------------------------------------------
      1         11           0       -0.033703   -0.063577   -1.859950
      2         11           0       -0.257994   -2.865658   -0.271790
      3         11           0        2.061645    2.082982   -0.549272
      4         11           0        2.743171   -1.085992    0.567224
      5         11           0       -1.303356    2.557848    0.455386
      6         11           0       -0.301860   -0.208045    1.864745
      7         11           0       -2.907903   -0.417557   -0.206343
 ---------------------------------------------------------------------

 SCF Done:  E(UB3LYP) =  -1136.13987656     A.U. after   18 cycles

 The electronic state is 2-A.
 Alpha  occ. eigenvalues --  -38.43631 -38.43621 -38.43528 -38.43510 -38.43371
 Alpha  occ. eigenvalues --  -38.43364 -38.43357  -2.19514  -2.19491  -2.19479
 Alpha  occ. eigenvalues --   -2.19466  -2.19242  -2.19238  -2.19211  -1.13242
 Alpha  occ. eigenvalues --   -1.13212  -1.13186  -1.13160  -1.13150  -1.13139
 Alpha  occ. eigenvalues --   -1.13130  -1.13127  -1.13117  -1.13105  -1.13091
 Alpha  occ. eigenvalues --   -1.13082  -1.12920  -1.12919  -1.12900  -1.12894
 Alpha  occ. eigenvalues --   -1.12885  -1.12876  -1.12856  -1.12853  -1.12828
 Alpha  occ. eigenvalues --   -0.18965  -0.12877  -0.12618  -0.11222
 Alpha virt. eigenvalues --   -0.05205  -0.04837  -0.04764  -0.03299  -0.03159
 Alpha virt. eigenvalues --   -0.02803  -0.01232  -0.01056  -0.00232   0.00014
 Alpha virt. eigenvalues --    0.00073   0.00379   0.00900   0.00919   0.00940

  Beta  occ. eigenvalues --  -38.43625 -38.43610 -38.43449 -38.43429 -38.43362
  Beta  occ. eigenvalues --  -38.43357 -38.43347  -2.19505  -2.19448  -2.19347
  Beta  occ. eigenvalues --   -2.19329  -2.19233  -2.19225  -2.19195  -1.13217
  Beta  occ. eigenvalues --   -1.13174  -1.13144  -1.13131  -1.13105  -1.13096
  Beta  occ. eigenvalues --   -1.13073  -1.13054  -1.13036  -1.13033  -1.12997
  Beta  occ. eigenvalues --   -1.12997  -1.12903  -1.12891  -1.12882  -1.12875
  Beta  occ. eigenvalues --   -1.12863  -1.12855  -1.12842  -1.12836  -1.12820
  Beta  occ. eigenvalues --   -0.18222  -0.12609  -0.12337
  Beta virt. eigenvalues --   -0.07296  -0.05192  -0.04796  -0.04699  -0.02523
  Beta virt. eigenvalues --   -0.02378  -0.01748  -0.01149  -0.00979  -0.00177
  Beta virt. eigenvalues --   -0.00037   0.00135   0.00402   0.00907   0.00928

 Mulliken charges and spin densities:
               1          2
     1  Na  -0.141519   0.587860
     2  Na   0.105292  -0.064440
     3  Na   0.048398  -0.003257
     4  Na  -0.035597   0.007559
     5  Na   0.026723  -0.012917
     6  Na  -0.153366   0.561246
     7  Na   0.150069  -0.076053
 Sum of Mulliken charges =  -0.00000   1.00000

 Dipole moment (field-independent basis, Debye):
    X=             -0.1086    Y=             -0.1185    Z=              0.0364  Tot=              0.1648
 Quadrupole moment (field-independent basis, Debye-Ang):
   XX=            -60.0454   YY=            -62.4488   ZZ=            -71.9051
   XY=             -0.0404   XZ=              0.7939   YZ=              0.1946

 Normal termination of Gaussian 16 at Fri Dec  8 00:21:48 2023.
