 Gaussian 16, Revision B.01,
 Gaussian 16:  ES64L-G16RevB.01 20-Dec-2017

 -------------------------
 #P B3LYP/6-311+g(d) force
 -------------------------

 -----
 DPGEN
 -----
 Symbolic Z-matrix:
 Charge =  0 Multiplicity = 2

                         Standard orientation:
 ---------------------------------------------------------------------
 Center     Atomic      Atomic             Coordinates (Angstroms)
 Number     Number       Type             X           Y           Z
 ---------------------------------------------------------------------
      1         11           0        0.263438    3.493578   -0.293762
      2         11           0        0.691170   -0.011942    2.197568
      3         11           0        2.599229   -1.934072   -1.248607
      4         11           0       -3.494353   -1.013983    0.684362
      5         11           0       -2.842692    1.449123   -1.246984
      6         11           0        3.056956    1.245515    0.187701
      7         11           0       -0.273749   -3.228220   -0.280280
 ---------------------------------------------------------------------

 SCF Done:  E(UB3LYP) =  -1136.11585978     A.U. after   20 cycles

 The electronic state is 2-A.
 Alpha  occ. eigenvalues --  -38.44653 -38.44609 -38.44592 -38.44516 -38.44508
 Alpha  occ. eigenvalues --  -38.44252 -38.43804  -2.20412  -2.20401  -2.20355
 Alpha  occ. eigenvalues --   -2.20325  -2.20286  -2.20036  -2.19622  -1.14084
 Alpha  occ. eigenvalues --   -1.14082  -1.14065  -1.14058  -1.14041  -1.14040
 Alpha  occ. eigenvalues --   -1.14036  -1.14024  -1.13996  -1.13995  -1.13983
 Alpha  occ. eigenvalues --   -1.13975  -1.13955  -1.13950  -1.13924  -1.13702
 Alpha  occ. eigenvalues --   -1.13690  -1.13664  -1.13280  -1.13268  -1.13256
 Alpha  occ. eigenvalues --   -0.16661  -0.13329  -0.12698  -0.10517
 Alpha virt. eigenvalues --   -0.07024  -0.06061  -0.04232  -0.03812  -0.03284
 Alpha virt. eigenvalues --   -0.02256  -0.01829  -0.01392  -0.01324  -0.00841
 Alpha virt. eigenvalues --   -0.00242   0.00064   0.00265   0.00410   0.00609

  Beta  occ. eigenvalues --  -38.44641 -38.44592 -38.44514 -38.44513 -38.44507
  Beta  occ. eigenvalues --  -38.44230 -38.43755  -2.20380  -2.20357  -2.20325
  Beta  occ. eigenvalues --   -2.20284  -2.20235  -2.19996  -2.19531  -1.14069
  Beta  occ. eigenvalues --   -1.14052  -1.14039  -1.14030  -1.14020  -1.14015
  Beta  occ. eigenvalues --   -1.13985  -1.13981  -1.13979  -1.13959  -1.13947
  Beta  occ. eigenvalues --   -1.13938  -1.13926  -1.13918  -1.13888  -1.13676
  Beta  occ. eigenvalues --   -1.13664  -1.13633  -1.13217  -1.13206  -1.13195
  Beta  occ. eigenvalues --   -0.16090  -0.13160  -0.12303
  Beta virt. eigenvalues --   -0.07104  -0.06889  -0.05663  -0.03799  -0.03499
  Beta virt. eigenvalues --   -0.02700  -0.01806  -0.01606  -0.01315  -0.01242
  Beta virt. eigenvalues --   -0.00730   0.00026   0.00269   0.00419   0.00483

 Mulliken charges and spin densities:
               1          2
     1  Na  -0.166953   0.038377
     2  Na   0.018872   0.369490
     3  Na  -0.049117   0.148759
     4  Na   0.054884   0.018705
     5  Na  -0.101447   0.112534
     6  Na   0.376008   0.215868
     7  Na  -0.132247   0.096268
 Sum of Mulliken charges =  -0.00000   1.00000

 Dipole moment (field-independent basis, Debye):
    X=             -0.0497    Y=              0.1237    Z=              0.1245  Tot=              0.1824
 Quadrupole moment (field-independent basis, Debye-Ang):
   XX=            -61.1388   YY=            -66.3541   ZZ=            -72.9657
   XY=              5.6307   XZ=             -1.6764   YZ=             -1.4997

 Normal termination of Gaussian 16 at Mon Dec  4 03:02:32 2023.
