 Gaussian 16, Revision B.01,
 Gaussian 16:  ES64L-G16RevB.01 20-Dec-2017

 -------------------------
 #P B3LYP/6-311+g(d) force
 -------------------------

 -----
 DPGEN
 -----
 Symbolic Z-matrix:
 Charge =  0 Multiplicity = 2

                         Standard orientation:
 ---------------------------------------------------------------------
 Center     Atomic      Atomic             Coordinates (Angstroms)
 Number     Number       Type             X           Y           Z
 ---------------------------------------------------------------------
      1         11           0       -0.209881    0.062757   -1.883997
      2         11           0       -0.080557   -0.025995    1.895010
      3         11           0       -1.777888    1.795426    0.042736
      4         11           0        1.109802    2.032884    0.015930
      5         11           0       -2.336930   -1.353708    0.007265
      6         11           0        0.474325   -2.074483   -0.021129
      7         11           0        2.821128   -0.436881   -0.055814
 ---------------------------------------------------------------------

 SCF Done:  E(UB3LYP) =  -1136.10875313     A.U. after   18 cycles

 The electronic state is 2-A.
 Alpha  occ. eigenvalues --  -38.44021 -38.43985 -38.43778 -38.43396 -38.43214
 Alpha  occ. eigenvalues --  -38.43159 -38.43067  -2.20145  -2.20110  -2.19751
 Alpha  occ. eigenvalues --   -2.19410  -2.19299  -2.19262  -2.19144  -1.13907
 Alpha  occ. eigenvalues --   -1.13839  -1.13812  -1.13788  -1.13748  -1.13721
 Alpha  occ. eigenvalues --   -1.13525  -1.13442  -1.13365  -1.13203  -1.13080
 Alpha  occ. eigenvalues --   -1.13065  -1.13045  -1.12934  -1.12930  -1.12905
 Alpha  occ. eigenvalues --   -1.12873  -1.12813  -1.12794  -1.12786  -1.12684
 Alpha  occ. eigenvalues --   -0.20931  -0.13576  -0.12814  -0.12069
 Alpha virt. eigenvalues --   -0.05130  -0.04427  -0.04045  -0.03544  -0.03261
 Alpha virt. eigenvalues --   -0.03037  -0.01180  -0.00559  -0.00111   0.00370
 Alpha virt. eigenvalues --    0.00647   0.00681   0.00977   0.01101   0.01127

  Beta  occ. eigenvalues --  -38.43926 -38.43891 -38.43775 -38.43388 -38.43203
  Beta  occ. eigenvalues --  -38.43142 -38.43055  -2.19971  -2.19940  -2.19750
  Beta  occ. eigenvalues --   -2.19400  -2.19276  -2.19248  -2.19128  -1.13805
  Beta  occ. eigenvalues --   -1.13724  -1.13695  -1.13667  -1.13629  -1.13598
  Beta  occ. eigenvalues --   -1.13521  -1.13443  -1.13333  -1.13197  -1.13078
  Beta  occ. eigenvalues --   -1.13059  -1.12996  -1.12921  -1.12871  -1.12856
  Beta  occ. eigenvalues --   -1.12841  -1.12808  -1.12789  -1.12721  -1.12681
  Beta  occ. eigenvalues --   -0.20094  -0.13257  -0.12454
  Beta virt. eigenvalues --   -0.07937  -0.05136  -0.04429  -0.04042  -0.02635
  Beta virt. eigenvalues --   -0.02319  -0.01936  -0.01113  -0.00515   0.00043
  Beta virt. eigenvalues --    0.00392   0.00604   0.00652   0.01023   0.01095

 Mulliken charges and spin densities:
               1          2
     1  Na  -0.213794   0.504365
     2  Na  -0.214175   0.498721
     3  Na   0.201232   0.002689
     4  Na   0.108381   0.040854
     5  Na   0.173854  -0.041503
     6  Na   0.101676   0.096917
     7  Na  -0.157174  -0.102043
 Sum of Mulliken charges =  -0.00000   1.00000

 Dipole moment (field-independent basis, Debye):
    X=             -0.0099    Y=              0.0415    Z=             -0.0008  Tot=              0.0427
 Quadrupole moment (field-independent basis, Debye-Ang):
   XX=            -58.7775   YY=            -69.7445   ZZ=            -68.3004
   XY=              0.1870   XZ=             -0.2855   YZ=              0.1590

 Normal termination of Gaussian 16 at Fri Dec  8 19:22:45 2023.
