 Gaussian 16, Revision B.01,
 Gaussian 16:  ES64L-G16RevB.01 20-Dec-2017

 -------------------------
 #P B3LYP/6-311+g(d) force
 -------------------------

 -----
 DPGEN
 -----
 Symbolic Z-matrix:
 Charge =  0 Multiplicity = 2

                         Standard orientation:
 ---------------------------------------------------------------------
 Center     Atomic      Atomic             Coordinates (Angstroms)
 Number     Number       Type             X           Y           Z
 ---------------------------------------------------------------------
      1         11           0        3.024813   -0.455040    1.330384
      2         11           0       -2.293445    1.787050    0.060697
      3         11           0       -3.815255   -0.713708   -1.062655
      4         11           0       -2.019743   -0.890567    1.430722
      5         11           0        0.437926    0.721878    0.523317
      6         11           0        1.769050   -1.719984   -1.181948
      7         11           0        2.896653    1.270372   -1.100517
 ---------------------------------------------------------------------

 SCF Done:  E(UB3LYP) =  -1136.08622109     A.U. after   36 cycles

 The electronic state is 2-A.
 Alpha  occ. eigenvalues --  -38.46130 -38.44658 -38.44554 -38.44122 -38.43973
 Alpha  occ. eigenvalues --  -38.43932 -38.42332  -2.22097  -2.20620  -2.20538
 Alpha  occ. eigenvalues --   -2.20030  -2.19935  -2.19811  -2.18497  -1.15819
 Alpha  occ. eigenvalues --   -1.15762  -1.15709  -1.14345  -1.14290  -1.14249
 Alpha  occ. eigenvalues --   -1.14232  -1.14203  -1.14116  -1.13724  -1.13691
 Alpha  occ. eigenvalues --   -1.13650  -1.13646  -1.13612  -1.13588  -1.13463
 Alpha  occ. eigenvalues --   -1.13437  -1.13421  -1.12213  -1.12166  -1.12098
 Alpha  occ. eigenvalues --   -0.19177  -0.15818  -0.10919  -0.10267
 Alpha virt. eigenvalues --   -0.07283  -0.05847  -0.05188  -0.02951  -0.02778
 Alpha virt. eigenvalues --   -0.01966  -0.01758  -0.01176  -0.00818  -0.00481
 Alpha virt. eigenvalues --   -0.00031   0.00116   0.00269   0.00517   0.00568

  Beta  occ. eigenvalues --  -38.46110 -38.44632 -38.44487 -38.44106 -38.43972
  Beta  occ. eigenvalues --  -38.43904 -38.42296  -2.22066  -2.20575  -2.20413
  Beta  occ. eigenvalues --   -2.20005  -2.19937  -2.19758  -2.18441  -1.15805
  Beta  occ. eigenvalues --   -1.15694  -1.15685  -1.14322  -1.14236  -1.14212
  Beta  occ. eigenvalues --   -1.14156  -1.14118  -1.14023  -1.13711  -1.13663
  Beta  occ. eigenvalues --   -1.13649  -1.13605  -1.13594  -1.13582  -1.13432
  Beta  occ. eigenvalues --   -1.13402  -1.13389  -1.12192  -1.12091  -1.12024
  Beta  occ. eigenvalues --   -0.18464  -0.15473  -0.10093
  Beta virt. eigenvalues --   -0.07164  -0.07060  -0.05385  -0.04786  -0.02796
  Beta virt. eigenvalues --   -0.02588  -0.01454  -0.01255  -0.00728  -0.00667
  Beta virt. eigenvalues --   -0.00250   0.00067   0.00207   0.00360   0.00590

 Mulliken charges and spin densities:
               1          2
     1  Na   1.557763   0.199744
     2  Na  -0.240092   0.299257
     3  Na  -0.264887   0.161834
     4  Na   0.565892  -0.100233
     5  Na  -1.692023  -0.039202
     6  Na  -0.279279   0.118299
     7  Na   0.352626   0.360300
 Sum of Mulliken charges =  -0.00000   1.00000

 Dipole moment (field-independent basis, Debye):
    X=              0.9328    Y=              0.0435    Z=              0.4737  Tot=              1.0471
 Quadrupole moment (field-independent basis, Debye-Ang):
   XX=            -55.5627   YY=            -78.4857   ZZ=            -64.8154
   XY=             -0.5382   XZ=              3.7560   YZ=             -4.3752

 Normal termination of Gaussian 16 at Fri Dec  8 18:12:35 2023.
