 Gaussian 16, Revision B.01,
 Gaussian 16:  ES64L-G16RevB.01 20-Dec-2017

 -------------------------
 #P B3LYP/6-311+g(d) force
 -------------------------

 -----
 DPGEN
 -----
 Symbolic Z-matrix:
 Charge =  0 Multiplicity = 2

                         Standard orientation:
 ---------------------------------------------------------------------
 Center     Atomic      Atomic             Coordinates (Angstroms)
 Number     Number       Type             X           Y           Z
 ---------------------------------------------------------------------
      1         11           0       -0.127634    0.042010    0.231514
      2         11           0        1.548567    2.267475   -0.588303
      3         11           0       -1.597560    3.062432   -0.349901
      4         11           0       -3.807744   -0.387983    0.711765
      5         11           0       -1.787608   -2.752233   -0.102059
      6         11           0        3.753269   -0.291516    1.564422
      7         11           0        2.018710   -1.940185   -1.467438
 ---------------------------------------------------------------------

 SCF Done:  E(UB3LYP) =  -1136.12349485     A.U. after   20 cycles

 The electronic state is 2-A.
 Alpha  occ. eigenvalues --  -38.44309 -38.44152 -38.44014 -38.43860 -38.43854
 Alpha  occ. eigenvalues --  -38.43753 -38.43482  -2.20189  -2.19951  -2.19847
 Alpha  occ. eigenvalues --   -2.19682  -2.19675  -2.19556  -2.19483  -1.13984
 Alpha  occ. eigenvalues --   -1.13843  -1.13776  -1.13630  -1.13610  -1.13571
 Alpha  occ. eigenvalues --   -1.13553  -1.13520  -1.13491  -1.13342  -1.13342
 Alpha  occ. eigenvalues --   -1.13341  -1.13318  -1.13312  -1.13302  -1.13210
 Alpha  occ. eigenvalues --   -1.13200  -1.13185  -1.13154  -1.13149  -1.13076
 Alpha  occ. eigenvalues --   -0.17439  -0.13583  -0.12755  -0.10151
 Alpha virt. eigenvalues --   -0.06033  -0.05344  -0.05140  -0.03539  -0.02424
 Alpha virt. eigenvalues --   -0.02175  -0.01664  -0.01494  -0.00867  -0.00701
 Alpha virt. eigenvalues --   -0.00405   0.00164   0.00427   0.00503   0.00671

  Beta  occ. eigenvalues --  -38.44302 -38.44118 -38.44012 -38.43857 -38.43822
  Beta  occ. eigenvalues --  -38.43652 -38.43476  -2.20179  -2.19891  -2.19846
  Beta  occ. eigenvalues --   -2.19681  -2.19611  -2.19473  -2.19368  -1.13978
  Beta  occ. eigenvalues --   -1.13828  -1.13761  -1.13584  -1.13572  -1.13556
  Beta  occ. eigenvalues --   -1.13523  -1.13517  -1.13459  -1.13346  -1.13346
  Beta  occ. eigenvalues --   -1.13311  -1.13292  -1.13267  -1.13261  -1.13165
  Beta  occ. eigenvalues --   -1.13140  -1.13081  -1.13075  -1.13069  -1.13030
  Beta  occ. eigenvalues --   -0.17077  -0.13076  -0.12395
  Beta virt. eigenvalues --   -0.06624  -0.05934  -0.05191  -0.04744  -0.03090
  Beta virt. eigenvalues --   -0.02043  -0.01974  -0.01441  -0.01076  -0.00759
  Beta virt. eigenvalues --   -0.00496  -0.00054   0.00302   0.00627   0.00707

 Mulliken charges and spin densities:
               1          2
     1  Na  -2.996406   0.049491
     2  Na   1.717755   0.090042
     3  Na   0.004884  -0.053876
     4  Na  -0.186616   0.184708
     5  Na   0.334418   0.053400
     6  Na   0.423747   0.553746
     7  Na   0.702218   0.122488
 Sum of Mulliken charges =  -0.00000   1.00000

 Dipole moment (field-independent basis, Debye):
    X=             -0.6815    Y=              0.1558    Z=             -0.8909  Tot=              1.1325
 Quadrupole moment (field-independent basis, Debye-Ang):
   XX=            -63.8380   YY=            -61.3273   ZZ=            -71.5335
   XY=             -3.0726   XZ=             -4.2864   YZ=             -0.2030

 Normal termination of Gaussian 16 at Wed Nov 29 15:44:26 2023.
