 Gaussian 16, Revision B.01,
 Gaussian 16:  ES64L-G16RevB.01 20-Dec-2017

 -------------------------
 #P B3LYP/6-311+g(d) force
 -------------------------

 -----
 DPGEN
 -----
 Symbolic Z-matrix:
 Charge =  0 Multiplicity = 2

                         Standard orientation:
 ---------------------------------------------------------------------
 Center     Atomic      Atomic             Coordinates (Angstroms)
 Number     Number       Type             X           Y           Z
 ---------------------------------------------------------------------
      1         11           0        1.149163   -1.467280   -0.071942
      2         11           0        1.422900    1.389837    0.287330
      3         11           0        4.490415   -0.373228    0.092185
      4         11           0       -2.622216   -2.023198   -0.576260
      5         11           0       -1.766470   -0.572882    2.178543
      6         11           0       -1.740626    2.587896    0.229217
      7         11           0       -0.933167    0.458855   -2.139074
 ---------------------------------------------------------------------

 SCF Done:  E(UB3LYP) =  -1136.12477518     A.U. after   22 cycles

 The electronic state is 2-A.
 Alpha  occ. eigenvalues --  -38.44960 -38.44189 -38.44011 -38.43765 -38.43579
 Alpha  occ. eigenvalues --  -38.43428 -38.42991  -2.20735  -2.20089  -2.19867
 Alpha  occ. eigenvalues --   -2.19683  -2.19508  -2.19272  -2.18844  -1.14409
 Alpha  occ. eigenvalues --   -1.14402  -1.14356  -1.13915  -1.13773  -1.13638
 Alpha  occ. eigenvalues --   -1.13535  -1.13507  -1.13479  -1.13365  -1.13332
 Alpha  occ. eigenvalues --   -1.13285  -1.13243  -1.13175  -1.13057  -1.12941
 Alpha  occ. eigenvalues --   -1.12936  -1.12905  -1.12516  -1.12496  -1.12482
 Alpha  occ. eigenvalues --   -0.18406  -0.13570  -0.11593  -0.11392
 Alpha virt. eigenvalues --   -0.06805  -0.04545  -0.03918  -0.03366  -0.03047
 Alpha virt. eigenvalues --   -0.02805  -0.02550  -0.01197  -0.00549   0.00010
 Alpha virt. eigenvalues --    0.00147   0.00227   0.00330   0.00798   0.00868

  Beta  occ. eigenvalues --  -38.44967 -38.44177 -38.43929 -38.43683 -38.43571
  Beta  occ. eigenvalues --  -38.43420 -38.42980  -2.20747  -2.20069  -2.19715
  Beta  occ. eigenvalues --   -2.19533  -2.19496  -2.19261  -2.18827  -1.14418
  Beta  occ. eigenvalues --   -1.14409  -1.14364  -1.13906  -1.13727  -1.13631
  Beta  occ. eigenvalues --   -1.13432  -1.13410  -1.13367  -1.13266  -1.13243
  Beta  occ. eigenvalues --   -1.13229  -1.13171  -1.13140  -1.13053  -1.12937
  Beta  occ. eigenvalues --   -1.12902  -1.12892  -1.12502  -1.12482  -1.12458
  Beta  occ. eigenvalues --   -0.17659  -0.13384  -0.11407
  Beta virt. eigenvalues --   -0.07399  -0.06614  -0.04511  -0.03457  -0.02975
  Beta virt. eigenvalues --   -0.02502  -0.02400  -0.01876  -0.01167  -0.00233
  Beta virt. eigenvalues --    0.00062   0.00147   0.00310   0.00546   0.00820

 Mulliken charges and spin densities:
               1          2
     1  Na  -0.580934   0.127324
     2  Na  -0.958708   0.086367
     3  Na   0.703438  -0.193893
     4  Na   0.645113  -0.108233
     5  Na  -0.396877   0.473808
     6  Na   0.867755   0.192341
     7  Na  -0.279786   0.422286
 Sum of Mulliken charges =  -0.00000   1.00000

 Dipole moment (field-independent basis, Debye):
    X=              1.1924    Y=             -0.0457    Z=             -0.0755  Tot=              1.1957
 Quadrupole moment (field-independent basis, Debye-Ang):
   XX=            -49.2631   YY=            -73.7195   ZZ=            -69.2160
   XY=             -1.5234   XZ=              0.7271   YZ=              1.9878

 Normal termination of Gaussian 16 at Fri Dec  8 00:11:07 2023.
