 Gaussian 16, Revision B.01,
 Gaussian 16:  ES64L-G16RevB.01 20-Dec-2017

 -------------------------
 #P B3LYP/6-311+g(d) force
 -------------------------

 -----
 DPGEN
 -----
 Symbolic Z-matrix:
 Charge =  0 Multiplicity = 2

                         Standard orientation:
 ---------------------------------------------------------------------
 Center     Atomic      Atomic             Coordinates (Angstroms)
 Number     Number       Type             X           Y           Z
 ---------------------------------------------------------------------
      1         11           0        0.205173    0.030864   -1.792818
      2         11           0        1.517323    2.801395   -0.214939
      3         11           0       -3.167662    1.458889   -0.008835
      4         11           0        2.927540   -0.090436    0.361150
      5         11           0       -2.158413   -1.714167   -0.231765
      6         11           0        1.139967   -2.633830   -0.009985
      7         11           0       -0.463928    0.147286    1.897192
 ---------------------------------------------------------------------

 SCF Done:  E(UB3LYP) =  -1136.13440408     A.U. after   20 cycles

 The electronic state is 2-A.
 Alpha  occ. eigenvalues --  -38.44444 -38.43951 -38.43703 -38.43629 -38.43467
 Alpha  occ. eigenvalues --  -38.43384 -38.42866  -2.20240  -2.19850  -2.19601
 Alpha  occ. eigenvalues --   -2.19539  -2.19332  -2.19292  -2.18769  -1.13910
 Alpha  occ. eigenvalues --   -1.13900  -1.13886  -1.13537  -1.13507  -1.13503
 Alpha  occ. eigenvalues --   -1.13313  -1.13251  -1.13231  -1.13214  -1.13185
 Alpha  occ. eigenvalues --   -1.13149  -1.13014  -1.12988  -1.12962  -1.12949
 Alpha  occ. eigenvalues --   -1.12936  -1.12921  -1.12451  -1.12421  -1.12411
 Alpha  occ. eigenvalues --   -0.18755  -0.13455  -0.12128  -0.10770
 Alpha virt. eigenvalues --   -0.06028  -0.05169  -0.04362  -0.03456  -0.02735
 Alpha virt. eigenvalues --   -0.02520  -0.01737  -0.01093  -0.00462  -0.00113
 Alpha virt. eigenvalues --   -0.00020   0.00349   0.00766   0.00846   0.00868

  Beta  occ. eigenvalues --  -38.44446 -38.43942 -38.43625 -38.43617 -38.43464
  Beta  occ. eigenvalues --  -38.43305 -38.42861  -2.20245  -2.19835  -2.19522
  Beta  occ. eigenvalues --   -2.19457  -2.19289  -2.19189  -2.18764  -1.13912
  Beta  occ. eigenvalues --   -1.13894  -1.13888  -1.13531  -1.13499  -1.13467
  Beta  occ. eigenvalues --   -1.13259  -1.13187  -1.13165  -1.13147  -1.13120
  Beta  occ. eigenvalues --   -1.13097  -1.12963  -1.12945  -1.12929  -1.12914
  Beta  occ. eigenvalues --   -1.12862  -1.12835  -1.12451  -1.12417  -1.12378
  Beta  occ. eigenvalues --   -0.18005  -0.13236  -0.11893
  Beta virt. eigenvalues --   -0.06868  -0.05965  -0.05105  -0.04358  -0.02666
  Beta virt. eigenvalues --   -0.01990  -0.01682  -0.01469  -0.01003  -0.00502
  Beta virt. eigenvalues --   -0.00139   0.00123   0.00371   0.00801   0.00887

 Mulliken charges and spin densities:
               1          2
     1  Na  -0.196818   0.498155
     2  Na  -0.004078  -0.098690
     3  Na   0.049118  -0.134250
     4  Na   0.191179   0.103399
     5  Na   0.247902   0.056219
     6  Na   0.071161   0.030582
     7  Na  -0.358465   0.544586
 Sum of Mulliken charges =  -0.00000   1.00000

 Dipole moment (field-independent basis, Debye):
    X=             -0.4730    Y=              0.3980    Z=              0.0731  Tot=              0.6224
 Quadrupole moment (field-independent basis, Debye-Ang):
   XX=            -56.2964   YY=            -63.5270   ZZ=            -74.1033
   XY=             -1.7961   XZ=              1.6260   YZ=             -0.3170

 Normal termination of Gaussian 16 at Thu Dec  7 17:32:24 2023.
