 Gaussian 16, Revision B.01,
 Gaussian 16:  ES64L-G16RevB.01 20-Dec-2017

 -------------------------
 #P B3LYP/6-311+g(d) force
 -------------------------

 -----
 DPGEN
 -----
 Symbolic Z-matrix:
 Charge =  0 Multiplicity = 2

                         Standard orientation:
 ---------------------------------------------------------------------
 Center     Atomic      Atomic             Coordinates (Angstroms)
 Number     Number       Type             X           Y           Z
 ---------------------------------------------------------------------
      1         11           0       -3.345278    0.325182    0.127531
      2         11           0       -1.536061   -2.347407    0.139034
      3         11           0        2.155073   -2.324671   -0.307431
      4         11           0       -0.236298    3.369507   -0.304308
      5         11           0        0.457936    0.117884    2.031106
      6         11           0        2.804079    1.125010   -0.065780
      7         11           0       -0.299451   -0.265505   -1.620151
 ---------------------------------------------------------------------

 SCF Done:  E(UB3LYP) =  -1136.13301947     A.U. after   20 cycles

 The electronic state is 2-A.
 Alpha  occ. eigenvalues --  -38.44328 -38.44054 -38.43904 -38.43592 -38.43585
 Alpha  occ. eigenvalues --  -38.43561 -38.43361  -2.20133  -2.19888  -2.19661
 Alpha  occ. eigenvalues --   -2.19472  -2.19467  -2.19418  -2.19315  -1.13808
 Alpha  occ. eigenvalues --   -1.13799  -1.13775  -1.13587  -1.13558  -1.13509
 Alpha  occ. eigenvalues --   -1.13338  -1.13315  -1.13303  -1.13269  -1.13142
 Alpha  occ. eigenvalues --   -1.13121  -1.13098  -1.13095  -1.13091  -1.13079
 Alpha  occ. eigenvalues --   -1.13061  -1.13058  -1.12982  -1.12929  -1.12912
 Alpha  occ. eigenvalues --   -0.18342  -0.13115  -0.12234  -0.10495
 Alpha virt. eigenvalues --   -0.05879  -0.05251  -0.04929  -0.03261  -0.02733
 Alpha virt. eigenvalues --   -0.02370  -0.01612  -0.01308  -0.00671  -0.00447
 Alpha virt. eigenvalues --   -0.00019   0.00343   0.00747   0.00796   0.00875

  Beta  occ. eigenvalues --  -38.44328 -38.44049 -38.43901 -38.43578 -38.43552
  Beta  occ. eigenvalues --  -38.43500 -38.43301  -2.20135  -2.19883  -2.19657
  Beta  occ. eigenvalues --   -2.19459  -2.19408  -2.19298  -2.19205  -1.13811
  Beta  occ. eigenvalues --   -1.13784  -1.13778  -1.13574  -1.13536  -1.13510
  Beta  occ. eigenvalues --   -1.13324  -1.13313  -1.13302  -1.13243  -1.13095
  Beta  occ. eigenvalues --   -1.13085  -1.13076  -1.13055  -1.13047  -1.13018
  Beta  occ. eigenvalues --   -1.12976  -1.12959  -1.12910  -1.12858  -1.12830
  Beta  occ. eigenvalues --   -0.17625  -0.12905  -0.12012
  Beta virt. eigenvalues --   -0.06643  -0.05823  -0.05196  -0.04866  -0.02469
  Beta virt. eigenvalues --   -0.02061  -0.01523  -0.01380  -0.01215  -0.00703
  Beta virt. eigenvalues --   -0.00486   0.00136   0.00376   0.00785   0.00811

 Mulliken charges and spin densities:
               1          2
     1  Na  -0.048100  -0.099732
     2  Na   0.299946   0.046162
     3  Na   0.205365  -0.010655
     4  Na  -0.140342  -0.099302
     5  Na  -0.328717   0.656108
     6  Na   0.158412  -0.046774
     7  Na  -0.146565   0.554193
 Sum of Mulliken charges =  -0.00000   1.00000

 Dipole moment (field-independent basis, Debye):
    X=             -0.1425    Y=              0.1158    Z=              0.1003  Tot=              0.2092
 Quadrupole moment (field-independent basis, Debye-Ang):
   XX=            -56.0661   YY=            -61.4375   ZZ=            -75.6413
   XY=             -1.6900   XZ=             -1.6702   YZ=             -0.6559

 Normal termination of Gaussian 16 at Thu Dec  7 19:23:57 2023.
