 Gaussian 16, Revision B.01,
 Gaussian 16:  ES64L-G16RevB.01 20-Dec-2017

 -------------------------
 #P B3LYP/6-311+g(d) force
 -------------------------

 -----
 DPGEN
 -----
 Symbolic Z-matrix:
 Charge =  0 Multiplicity = 2

                         Standard orientation:
 ---------------------------------------------------------------------
 Center     Atomic      Atomic             Coordinates (Angstroms)
 Number     Number       Type             X           Y           Z
 ---------------------------------------------------------------------
      1         11           0       -3.810359    1.782778    0.326589
      2         11           0       -1.577788   -1.432608   -0.754554
      3         11           0        5.317821   -0.607452    1.372322
      4         11           0       -0.299032    1.577975   -0.292312
      5         11           0        2.288009   -1.441378   -1.069762
      6         11           0        2.713561    1.646087   -0.401413
      7         11           0       -4.632211   -1.525402    0.819132
 ---------------------------------------------------------------------

 SCF Done:  E(UB3LYP) =  -1136.11210251     A.U. after   27 cycles

 The electronic state is 2-A.
 Alpha  occ. eigenvalues --  -38.45203 -38.45163 -38.44823 -38.44456 -38.44108
 Alpha  occ. eigenvalues --  -38.43674 -38.42622  -2.21006  -2.20972  -2.20692
 Alpha  occ. eigenvalues --   -2.20309  -2.19908  -2.19421  -2.18520  -1.14691
 Alpha  occ. eigenvalues --   -1.14678  -1.14658  -1.14651  -1.14620  -1.14554
 Alpha  occ. eigenvalues --   -1.14384  -1.14372  -1.14288  -1.13993  -1.13981
 Alpha  occ. eigenvalues --   -1.13907  -1.13575  -1.13572  -1.13543  -1.13099
 Alpha  occ. eigenvalues --   -1.13095  -1.13041  -1.12229  -1.12177  -1.12149
 Alpha  occ. eigenvalues --   -0.17182  -0.14532  -0.11387  -0.10993
 Alpha virt. eigenvalues --   -0.07004  -0.06007  -0.04236  -0.03228  -0.03139
 Alpha virt. eigenvalues --   -0.02777  -0.02324  -0.01286  -0.00923  -0.00506
 Alpha virt. eigenvalues --   -0.00393   0.00026   0.00106   0.00213   0.00560

  Beta  occ. eigenvalues --  -38.45150 -38.45134 -38.44816 -38.44385 -38.44100
  Beta  occ. eigenvalues --  -38.43671 -38.42611  -2.20921  -2.20907  -2.20677
  Beta  occ. eigenvalues --   -2.20180  -2.19893  -2.19415  -2.18503  -1.14659
  Beta  occ. eigenvalues --   -1.14627  -1.14612  -1.14583  -1.14546  -1.14496
  Beta  occ. eigenvalues --   -1.14375  -1.14358  -1.14280  -1.13909  -1.13889
  Beta  occ. eigenvalues --   -1.13800  -1.13563  -1.13552  -1.13534  -1.13095
  Beta  occ. eigenvalues --   -1.13090  -1.13037  -1.12220  -1.12167  -1.12115
  Beta  occ. eigenvalues --   -0.16528  -0.14276  -0.10862
  Beta virt. eigenvalues --   -0.07726  -0.06499  -0.05577  -0.04036  -0.02956
  Beta virt. eigenvalues --   -0.02544  -0.02450  -0.02014  -0.01088  -0.00692
  Beta virt. eigenvalues --   -0.00396  -0.00081   0.00124   0.00208   0.00359

 Mulliken charges and spin densities:
               1          2
     1  Na   1.000512   0.140565
     2  Na  -0.285692   0.517670
     3  Na   0.187341   0.008292
     4  Na  -1.672349   0.019466
     5  Na  -0.228435  -0.071407
     6  Na   0.592603   0.334897
     7  Na   0.406021   0.050516
 Sum of Mulliken charges =  -0.00000   1.00000

 Dipole moment (field-independent basis, Debye):
    X=             -0.9488    Y=              0.1087    Z=              0.0256  Tot=              0.9553
 Quadrupole moment (field-independent basis, Debye-Ang):
   XX=            -63.7315   YY=            -65.9509   ZZ=            -69.6356
   XY=             -0.6781   XZ=             -1.6730   YZ=              0.7584

 Normal termination of Gaussian 16 at Sun Dec  3 21:36:55 2023.
