 Gaussian 16, Revision B.01,
 Gaussian 16:  ES64L-G16RevB.01 20-Dec-2017

 -------------------------
 #P B3LYP/6-311+g(d) force
 -------------------------

 -----
 DPGEN
 -----
 Symbolic Z-matrix:
 Charge =  0 Multiplicity = 2

                         Standard orientation:
 ---------------------------------------------------------------------
 Center     Atomic      Atomic             Coordinates (Angstroms)
 Number     Number       Type             X           Y           Z
 ---------------------------------------------------------------------
      1         11           0       -1.770565    1.683283    0.953011
      2         11           0        1.081468    2.858984   -0.152691
      3         11           0        3.423709    0.490648   -0.739942
      4         11           0       -4.697909   -0.523639    1.071378
      5         11           0        5.115761   -2.291340    1.168693
      6         11           0        0.201149    0.009133   -1.202469
      7         11           0       -3.353613   -2.227069   -1.097980
 ---------------------------------------------------------------------

 SCF Done:  E(UB3LYP) =  -1136.10957449     A.U. after   22 cycles

 The electronic state is 2-A.
 Alpha  occ. eigenvalues --  -38.45022 -38.44820 -38.44741 -38.44403 -38.44217
 Alpha  occ. eigenvalues --  -38.43833 -38.43761  -2.20908  -2.20631  -2.20627
 Alpha  occ. eigenvalues --   -2.20215  -2.19979  -2.19647  -2.19618  -1.14587
 Alpha  occ. eigenvalues --   -1.14567  -1.14556  -1.14331  -1.14294  -1.14290
 Alpha  occ. eigenvalues --   -1.14273  -1.14269  -1.14268  -1.13870  -1.13857
 Alpha  occ. eigenvalues --   -1.13848  -1.13629  -1.13628  -1.13585  -1.13354
 Alpha  occ. eigenvalues --   -1.13334  -1.13304  -1.13289  -1.13275  -1.13222
 Alpha  occ. eigenvalues --   -0.17283  -0.14354  -0.12035  -0.10630
 Alpha virt. eigenvalues --   -0.07229  -0.06213  -0.04375  -0.03648  -0.02924
 Alpha virt. eigenvalues --   -0.02678  -0.02049  -0.01494  -0.01265  -0.00967
 Alpha virt. eigenvalues --   -0.00366  -0.00127   0.00019   0.00318   0.00487

  Beta  occ. eigenvalues --  -38.44983 -38.44817 -38.44739 -38.44373 -38.44134
  Beta  occ. eigenvalues --  -38.43857 -38.43725  -2.20834  -2.20628  -2.20622
  Beta  occ. eigenvalues --   -2.20157  -2.19824  -2.19696  -2.19551  -1.14534
  Beta  occ. eigenvalues --   -1.14531  -1.14500  -1.14325  -1.14293  -1.14290
  Beta  occ. eigenvalues --   -1.14274  -1.14260  -1.14247  -1.13830  -1.13820
  Beta  occ. eigenvalues --   -1.13807  -1.13523  -1.13522  -1.13484  -1.13387
  Beta  occ. eigenvalues --   -1.13370  -1.13281  -1.13255  -1.13243  -1.13178
  Beta  occ. eigenvalues --   -0.17006  -0.14181  -0.11427
  Beta virt. eigenvalues --   -0.07358  -0.06928  -0.05480  -0.04150  -0.03438
  Beta virt. eigenvalues --   -0.02633  -0.02577  -0.01770  -0.01222  -0.00879
  Beta virt. eigenvalues --   -0.00661  -0.00180   0.00078   0.00166   0.00498

 Mulliken charges and spin densities:
               1          2
     1  Na   0.110119   0.257705
     2  Na   0.881700   0.065758
     3  Na   0.251795  -0.115614
     4  Na  -0.153858  -0.038575
     5  Na   0.201557   0.434195
     6  Na  -1.502108   0.272942
     7  Na   0.210796   0.123589
 Sum of Mulliken charges =  -0.00000   1.00000

 Dipole moment (field-independent basis, Debye):
    X=             -1.2521    Y=              0.7794    Z=             -0.0030  Tot=              1.4748
 Quadrupole moment (field-independent basis, Debye-Ang):
   XX=            -67.7533   YY=            -64.1310   ZZ=            -70.7734
   XY=              7.2150   XZ=             -1.6672   YZ=             -2.3329

 Normal termination of Gaussian 16 at Wed Nov 29 01:51:45 2023.
