 Gaussian 16, Revision B.01,
 Gaussian 16:  ES64L-G16RevB.01 20-Dec-2017

 -------------------------
 #P B3LYP/6-311+g(d) force
 -------------------------

 -----
 DPGEN
 -----
 Symbolic Z-matrix:
 Charge =  0 Multiplicity = 2

                         Standard orientation:
 ---------------------------------------------------------------------
 Center     Atomic      Atomic             Coordinates (Angstroms)
 Number     Number       Type             X           Y           Z
 ---------------------------------------------------------------------
      1         11           0        2.567527    2.018105   -0.174312
      2         11           0       -3.562057   -0.162501   -0.109964
      3         11           0        2.818273   -1.472961   -0.115257
      4         11           0       -1.615739    2.117129    0.040007
      5         11           0        0.328261   -0.202723    2.122793
      6         11           0       -0.817354   -2.297593   -0.222243
      7         11           0        0.281089    0.000546   -1.541024
 ---------------------------------------------------------------------

 SCF Done:  E(UB3LYP) =  -1136.12569489     A.U. after   21 cycles

 The electronic state is 2-A.
 Alpha  occ. eigenvalues --  -38.44994 -38.44461 -38.43735 -38.43666 -38.43505
 Alpha  occ. eigenvalues --  -38.43390 -38.42816  -2.20828  -2.20312  -2.19563
 Alpha  occ. eigenvalues --   -2.19553  -2.19546  -2.19273  -2.18747  -1.14536
 Alpha  occ. eigenvalues --   -1.14477  -1.14458  -1.14002  -1.13977  -1.13935
 Alpha  occ. eigenvalues --   -1.13307  -1.13259  -1.13226  -1.13214  -1.13205
 Alpha  occ. eigenvalues --   -1.13189  -1.13178  -1.13175  -1.13140  -1.12950
 Alpha  occ. eigenvalues --   -1.12927  -1.12910  -1.12465  -1.12400  -1.12326
 Alpha  occ. eigenvalues --   -0.18910  -0.13770  -0.11710  -0.10832
 Alpha virt. eigenvalues --   -0.06535  -0.05396  -0.03603  -0.03458  -0.02652
 Alpha virt. eigenvalues --   -0.02459  -0.02258  -0.01277  -0.00314  -0.00094
 Alpha virt. eigenvalues --    0.00047   0.00256   0.00680   0.00803   0.00849

  Beta  occ. eigenvalues --  -38.44997 -38.44455 -38.43732 -38.43560 -38.43447
  Beta  occ. eigenvalues --  -38.43384 -38.42804  -2.20834  -2.20304  -2.19551
  Beta  occ. eigenvalues --   -2.19441  -2.19367  -2.19265  -2.18731  -1.14543
  Beta  occ. eigenvalues --   -1.14470  -1.14461  -1.13988  -1.13955  -1.13931
  Beta  occ. eigenvalues --   -1.13248  -1.13221  -1.13204  -1.13189  -1.13130
  Beta  occ. eigenvalues --   -1.13098  -1.13072  -1.13042  -1.13037  -1.12940
  Beta  occ. eigenvalues --   -1.12912  -1.12891  -1.12449  -1.12355  -1.12318
  Beta  occ. eigenvalues --   -0.18175  -0.13567  -0.11457
  Beta virt. eigenvalues --   -0.06845  -0.06447  -0.05412  -0.03607  -0.02707
  Beta virt. eigenvalues --   -0.02189  -0.01705  -0.01494  -0.01227  -0.00347
  Beta virt. eigenvalues --    0.00016   0.00086   0.00287   0.00744   0.00847

 Mulliken charges and spin densities:
               1          2
     1  Na   0.161914  -0.022572
     2  Na  -0.142894  -0.043665
     3  Na   0.523341   0.017401
     4  Na   0.488281   0.030232
     5  Na  -0.779069   0.696373
     6  Na   0.681658   0.064848
     7  Na  -0.933230   0.257384
 Sum of Mulliken charges =  -0.00000   1.00000

 Dipole moment (field-independent basis, Debye):
    X=              0.0263    Y=             -0.1818    Z=              0.2664  Tot=              0.3236
 Quadrupole moment (field-independent basis, Debye-Ang):
   XX=            -47.9980   YY=            -70.1613   ZZ=            -74.3728
   XY=              0.1559   XZ=              0.1689   YZ=              0.2981

 Normal termination of Gaussian 16 at Thu Dec  7 08:30:48 2023.
