 Gaussian 16, Revision B.01,
 Gaussian 16:  ES64L-G16RevB.01 20-Dec-2017

 -------------------------
 #P B3LYP/6-311+g(d) force
 -------------------------

 -----
 DPGEN
 -----
 Symbolic Z-matrix:
 Charge =  0 Multiplicity = 2

                         Standard orientation:
 ---------------------------------------------------------------------
 Center     Atomic      Atomic             Coordinates (Angstroms)
 Number     Number       Type             X           Y           Z
 ---------------------------------------------------------------------
      1         11           0        3.770647   -2.264787   -0.190746
      2         11           0       -2.691805   -1.151166    1.427322
      3         11           0       -4.497449   -0.392756   -1.196060
      4         11           0        1.429703    3.435695    0.594290
      5         11           0       -1.724780    2.298139   -0.184835
      6         11           0        0.192439   -2.855440    0.120738
      7         11           0        3.521245    0.930313   -0.570708
 ---------------------------------------------------------------------

 SCF Done:  E(UB3LYP) =  -1136.11595791     A.U. after   21 cycles

 The electronic state is 2-A.
 Alpha  occ. eigenvalues --  -38.45282 -38.44798 -38.44530 -38.44417 -38.44128
 Alpha  occ. eigenvalues --  -38.43849 -38.43441  -2.21040  -2.20606  -2.20330
 Alpha  occ. eigenvalues --   -2.20236  -2.19908  -2.19651  -2.19237  -1.14741
 Alpha  occ. eigenvalues --   -1.14723  -1.14637  -1.14297  -1.14272  -1.14245
 Alpha  occ. eigenvalues --   -1.14008  -1.13993  -1.13967  -1.13887  -1.13876
 Alpha  occ. eigenvalues --   -1.13843  -1.13578  -1.13568  -1.13519  -1.13321
 Alpha  occ. eigenvalues --   -1.13315  -1.13287  -1.12902  -1.12897  -1.12889
 Alpha  occ. eigenvalues --   -0.16105  -0.14097  -0.12763  -0.10576
 Alpha virt. eigenvalues --   -0.06917  -0.05808  -0.04568  -0.03250  -0.02739
 Alpha virt. eigenvalues --   -0.02508  -0.02213  -0.01718  -0.01261  -0.01022
 Alpha virt. eigenvalues --   -0.00358   0.00041   0.00117   0.00401   0.00616

  Beta  occ. eigenvalues --  -38.45263 -38.44784 -38.44501 -38.44341 -38.44070
  Beta  occ. eigenvalues --  -38.43841 -38.43438  -2.21008  -2.20586  -2.20279
  Beta  occ. eigenvalues --   -2.20093  -2.19803  -2.19639  -2.19232  -1.14721
  Beta  occ. eigenvalues --   -1.14703  -1.14597  -1.14282  -1.14263  -1.14191
  Beta  occ. eigenvalues --   -1.13975  -1.13962  -1.13921  -1.13790  -1.13777
  Beta  occ. eigenvalues --   -1.13751  -1.13507  -1.13497  -1.13444  -1.13310
  Beta  occ. eigenvalues --   -1.13304  -1.13271  -1.12899  -1.12897  -1.12876
  Beta  occ. eigenvalues --   -0.15561  -0.13601  -0.12320
  Beta virt. eigenvalues --   -0.07200  -0.06864  -0.05263  -0.04391  -0.03000
  Beta virt. eigenvalues --   -0.02286  -0.02251  -0.01981  -0.01557  -0.00943
  Beta virt. eigenvalues --   -0.00845  -0.00088   0.00240   0.00340   0.00492

 Mulliken charges and spin densities:
               1          2
     1  Na   0.471512   0.081444
     2  Na   0.123508   0.012127
     3  Na   0.498018   0.429358
     4  Na  -0.057339  -0.034595
     5  Na  -0.249708   0.158402
     6  Na  -0.446466   0.209597
     7  Na  -0.339526   0.143667
 Sum of Mulliken charges =  -0.00000   1.00000

 Dipole moment (field-independent basis, Debye):
    X=             -0.7519    Y=             -0.0793    Z=             -0.0549  Tot=              0.7581
 Quadrupole moment (field-independent basis, Debye-Ang):
   XX=            -64.3073   YY=            -68.3435   ZZ=            -68.3183
   XY=              0.8256   XZ=              0.3813   YZ=              1.0232

 Normal termination of Gaussian 16 at Sun Dec  3 20:50:11 2023.
