 Gaussian 16, Revision B.01,
 Gaussian 16:  ES64L-G16RevB.01 20-Dec-2017

 -------------------------
 #P B3LYP/6-311+g(d) force
 -------------------------

 -----
 DPGEN
 -----
 Symbolic Z-matrix:
 Charge =  0 Multiplicity = 2

                         Standard orientation:
 ---------------------------------------------------------------------
 Center     Atomic      Atomic             Coordinates (Angstroms)
 Number     Number       Type             X           Y           Z
 ---------------------------------------------------------------------
      1         11           0        0.842798    1.538641   -0.176021
      2         11           0       -2.468939    2.416499   -0.128601
      3         11           0        0.046523   -1.763425   -0.600572
      4         11           0       -3.654329   -1.337771   -0.964900
      5         11           0       -1.745874   -0.348298    1.657026
      6         11           0        4.314699    0.365140   -0.813647
      7         11           0        2.665122   -0.870785    1.026714
 ---------------------------------------------------------------------

 SCF Done:  E(UB3LYP) =  -1136.11477234     A.U. after   23 cycles

 The electronic state is 2-A.
 Alpha  occ. eigenvalues --  -38.44802 -38.44615 -38.44585 -38.43952 -38.43485
 Alpha  occ. eigenvalues --  -38.43480 -38.42963  -2.20693  -2.20596  -2.20477
 Alpha  occ. eigenvalues --   -2.19777  -2.19390  -2.19378  -2.18788  -1.14527
 Alpha  occ. eigenvalues --   -1.14391  -1.14367  -1.14313  -1.14252  -1.14235
 Alpha  occ. eigenvalues --   -1.14081  -1.14071  -1.13987  -1.13443  -1.13410
 Alpha  occ. eigenvalues --   -1.13389  -1.13117  -1.13083  -1.13062  -1.13042
 Alpha  occ. eigenvalues --   -1.12998  -1.12965  -1.12469  -1.12447  -1.12423
 Alpha  occ. eigenvalues --   -0.18417  -0.14920  -0.11108  -0.10828
 Alpha virt. eigenvalues --   -0.06759  -0.05384  -0.04913  -0.03300  -0.03015
 Alpha virt. eigenvalues --   -0.01957  -0.01872  -0.01394  -0.00957  -0.00349
 Alpha virt. eigenvalues --   -0.00103   0.00126   0.00375   0.00506   0.00690

  Beta  occ. eigenvalues --  -38.44790 -38.44596 -38.44512 -38.43877 -38.43468
  Beta  occ. eigenvalues --  -38.43465 -38.42961  -2.20679  -2.20568  -2.20343
  Beta  occ. eigenvalues --   -2.19637  -2.19363  -2.19354  -2.18785  -1.14457
  Beta  occ. eigenvalues --   -1.14383  -1.14319  -1.14302  -1.14225  -1.14210
  Beta  occ. eigenvalues --   -1.13987  -1.13978  -1.13911  -1.13346  -1.13316
  Beta  occ. eigenvalues --   -1.13295  -1.13097  -1.13058  -1.13033  -1.13016
  Beta  occ. eigenvalues --   -1.12973  -1.12954  -1.12469  -1.12447  -1.12406
  Beta  occ. eigenvalues --   -0.17767  -0.14242  -0.10959
  Beta virt. eigenvalues --   -0.07221  -0.06594  -0.05226  -0.04262  -0.03019
  Beta virt. eigenvalues --   -0.02782  -0.01675  -0.01327  -0.01134  -0.00677
  Beta virt. eigenvalues --   -0.00120   0.00081   0.00196   0.00473   0.00602

 Mulliken charges and spin densities:
               1          2
     1  Na  -1.142233  -0.034638
     2  Na   0.170385   0.033486
     3  Na  -0.291613  -0.157925
     4  Na   0.095738   0.428706
     5  Na  -0.050610   0.127953
     6  Na   0.406456   0.406874
     7  Na   0.811876   0.195544
 Sum of Mulliken charges =  -0.00000   1.00000

 Dipole moment (field-independent basis, Debye):
    X=              0.4563    Y=             -0.4433    Z=              0.3440  Tot=              0.7233
 Quadrupole moment (field-independent basis, Debye-Ang):
   XX=            -62.6401   YY=            -79.2470   ZZ=            -60.7571
   XY=             -2.0999   XZ=             -0.7948   YZ=             -1.8467

 Normal termination of Gaussian 16 at Wed Dec  6 01:11:58 2023.
