 Gaussian 16, Revision B.01,
 Gaussian 16:  ES64L-G16RevB.01 20-Dec-2017

 -------------------------
 #P B3LYP/6-311+g(d) force
 -------------------------

 -----
 DPGEN
 -----
 Symbolic Z-matrix:
 Charge =  0 Multiplicity = 2

                         Standard orientation:
 ---------------------------------------------------------------------
 Center     Atomic      Atomic             Coordinates (Angstroms)
 Number     Number       Type             X           Y           Z
 ---------------------------------------------------------------------
      1         11           0        3.364923   -2.130220   -1.007027
      2         11           0        1.292809    2.932757    1.001389
      3         11           0        4.319361    0.745552    0.067001
      4         11           0       -1.330016    2.934266   -0.877103
      5         11           0       -4.668649    0.687568   -0.092004
      6         11           0       -2.992282   -2.441834   -0.065163
      7         11           0        0.013854   -2.728089    0.972907
 ---------------------------------------------------------------------

 SCF Done:  E(UB3LYP) =  -1136.10766987     A.U. after   21 cycles

 The electronic state is 2-A.
 Alpha  occ. eigenvalues --  -38.44909 -38.44846 -38.44758 -38.44332 -38.44289
 Alpha  occ. eigenvalues --  -38.44191 -38.44010  -2.20696  -2.20625  -2.20516
 Alpha  occ. eigenvalues --   -2.20121  -2.20080  -2.19996  -2.19803  -1.14396
 Alpha  occ. eigenvalues --   -1.14360  -1.14337  -1.14291  -1.14270  -1.14239
 Alpha  occ. eigenvalues --   -1.14196  -1.14192  -1.14156  -1.13801  -1.13769
 Alpha  occ. eigenvalues --   -1.13766  -1.13755  -1.13747  -1.13714  -1.13642
 Alpha  occ. eigenvalues --   -1.13637  -1.13597  -1.13462  -1.13457  -1.13438
 Alpha  occ. eigenvalues --   -0.15542  -0.13876  -0.13053  -0.10868
 Alpha virt. eigenvalues --   -0.07356  -0.05035  -0.04468  -0.03591  -0.03309
 Alpha virt. eigenvalues --   -0.02619  -0.02286  -0.01456  -0.01025  -0.00912
 Alpha virt. eigenvalues --   -0.00636  -0.00317  -0.00053   0.00515   0.00603

  Beta  occ. eigenvalues --  -38.44881 -38.44832 -38.44758 -38.44288 -38.44240
  Beta  occ. eigenvalues --  -38.44128 -38.43980  -2.20647  -2.20604  -2.20520
  Beta  occ. eigenvalues --   -2.20085  -2.19950  -2.19880  -2.19749  -1.14360
  Beta  occ. eigenvalues --   -1.14329  -1.14300  -1.14279  -1.14255  -1.14205
  Beta  occ. eigenvalues --   -1.14198  -1.14195  -1.14140  -1.13778  -1.13766
  Beta  occ. eigenvalues --   -1.13715  -1.13652  -1.13633  -1.13629  -1.13565
  Beta  occ. eigenvalues --   -1.13562  -1.13523  -1.13425  -1.13420  -1.13401
  Beta  occ. eigenvalues --   -0.15043  -0.13076  -0.12454
  Beta virt. eigenvalues --   -0.07677  -0.07504  -0.04554  -0.04071  -0.03373
  Beta virt. eigenvalues --   -0.02936  -0.02351  -0.02087  -0.01294  -0.00849
  Beta virt. eigenvalues --   -0.00661  -0.00408  -0.00079   0.00144   0.00535

 Mulliken charges and spin densities:
               1          2
     1  Na   0.299721   0.065042
     2  Na  -0.033846   0.097894
     3  Na  -0.004151   0.120107
     4  Na  -0.048215  -0.006056
     5  Na   0.111489   0.454211
     6  Na   0.111107  -0.038670
     7  Na  -0.436103   0.307473
 Sum of Mulliken charges =  -0.00000   1.00000

 Dipole moment (field-independent basis, Debye):
    X=              0.8816    Y=              0.0397    Z=             -0.2170  Tot=              0.9087
 Quadrupole moment (field-independent basis, Debye-Ang):
   XX=            -63.7463   YY=            -69.3042   ZZ=            -68.7522
   XY=              0.6043   XZ=              2.1738   YZ=              2.1423

 Normal termination of Gaussian 16 at Sun Dec  3 18:46:19 2023.
