 Gaussian 16, Revision B.01,
 Gaussian 16:  ES64L-G16RevB.01 20-Dec-2017

 -------------------------
 #P B3LYP/6-311+g(d) force
 -------------------------

 -----
 DPGEN
 -----
 Symbolic Z-matrix:
 Charge =  0 Multiplicity = 2

                         Standard orientation:
 ---------------------------------------------------------------------
 Center     Atomic      Atomic             Coordinates (Angstroms)
 Number     Number       Type             X           Y           Z
 ---------------------------------------------------------------------
      1         11           0       -1.173094    2.873589    0.157066
      2         11           0       -4.792386    1.220128    0.551416
      3         11           0       -5.246426   -2.478330   -0.223131
      4         11           0       -2.368953   -0.995413   -0.021512
      5         11           0        1.199969    0.331132   -0.598701
      6         11           0        5.609232    0.085106   -1.213349
      7         11           0        6.771657   -1.036212    1.348212
 ---------------------------------------------------------------------

 SCF Done:  E(UB3LYP) =  -1136.11464996     A.U. after   19 cycles

 The electronic state is 2-A.
 Alpha  occ. eigenvalues --  -38.44546 -38.44498 -38.44306 -38.44240 -38.44168
 Alpha  occ. eigenvalues --  -38.43976 -38.43633  -2.20341  -2.20310  -2.20099
 Alpha  occ. eigenvalues --   -2.20018  -2.20007  -2.19785  -2.19417  -1.14055
 Alpha  occ. eigenvalues --   -1.13997  -1.13990  -1.13987  -1.13983  -1.13897
 Alpha  occ. eigenvalues --   -1.13755  -1.13745  -1.13724  -1.13719  -1.13709
 Alpha  occ. eigenvalues --   -1.13695  -1.13665  -1.13636  -1.13628  -1.13443
 Alpha  occ. eigenvalues --   -1.13441  -1.13392  -1.13088  -1.13081  -1.13023
 Alpha  occ. eigenvalues --   -0.16055  -0.13758  -0.12254  -0.10740
 Alpha virt. eigenvalues --   -0.06321  -0.05615  -0.04579  -0.03610  -0.02968
 Alpha virt. eigenvalues --   -0.02452  -0.02114  -0.01846  -0.01234  -0.00946
 Alpha virt. eigenvalues --   -0.00374  -0.00159   0.00030   0.00423   0.00592

  Beta  occ. eigenvalues --  -38.44534 -38.44432 -38.44309 -38.44222 -38.44145
  Beta  occ. eigenvalues --  -38.43949 -38.43592  -2.20318  -2.20190  -2.20106
  Beta  occ. eigenvalues --   -2.19980  -2.19975  -2.19735  -2.19339  -1.14043
  Beta  occ. eigenvalues --   -1.13975  -1.13972  -1.13919  -1.13903  -1.13798
  Beta  occ. eigenvalues --   -1.13761  -1.13749  -1.13721  -1.13696  -1.13678
  Beta  occ. eigenvalues --   -1.13659  -1.13643  -1.13599  -1.13593  -1.13408
  Beta  occ. eigenvalues --   -1.13400  -1.13364  -1.13035  -1.13024  -1.12978
  Beta  occ. eigenvalues --   -0.15375  -0.13588  -0.12036
  Beta virt. eigenvalues --   -0.07198  -0.05952  -0.05273  -0.04206  -0.03423
  Beta virt. eigenvalues --   -0.02635  -0.02256  -0.01741  -0.01674  -0.00973
  Beta virt. eigenvalues --   -0.00784  -0.00131   0.00118   0.00261   0.00515

 Mulliken charges and spin densities:
               1          2
     1  Na   0.083560   0.291313
     2  Na   0.256331   0.195077
     3  Na   0.905325   0.154444
     4  Na  -1.141683   0.510294
     5  Na  -0.051624  -0.156376
     6  Na  -0.189988  -0.050734
     7  Na   0.138080   0.055982
 Sum of Mulliken charges =  -0.00000   1.00000

 Dipole moment (field-independent basis, Debye):
    X=             -0.1221    Y=             -0.1995    Z=              0.3332  Tot=              0.4071
 Quadrupole moment (field-independent basis, Debye-Ang):
   XX=            -55.8188   YY=            -66.1584   ZZ=            -67.3599
   XY=              1.4729   XZ=              3.4865   YZ=             -2.4036

 Normal termination of Gaussian 16 at Tue Nov 28 20:39:46 2023.
