 Gaussian 16, Revision B.01,
 Gaussian 16:  ES64L-G16RevB.01 20-Dec-2017

 -------------------------
 #P B3LYP/6-311+g(d) force
 -------------------------

 -----
 DPGEN
 -----
 Symbolic Z-matrix:
 Charge =  0 Multiplicity = 2

                         Standard orientation:
 ---------------------------------------------------------------------
 Center     Atomic      Atomic             Coordinates (Angstroms)
 Number     Number       Type             X           Y           Z
 ---------------------------------------------------------------------
      1         11           0        3.315435    1.475025    1.232214
      2         11           0        3.119588   -1.241968   -0.567162
      3         11           0       -2.710109   -0.543949   -1.432473
      4         11           0       -2.596401    2.187867    0.698902
      5         11           0       -1.906745   -2.038796    1.935888
      6         11           0        0.255657    2.927964   -1.062285
      7         11           0        0.522576   -2.766143   -0.805083
 ---------------------------------------------------------------------

 SCF Done:  E(UB3LYP) =  -1136.11170562     A.U. after   21 cycles

 The electronic state is 2-A.
 Alpha  occ. eigenvalues --  -38.45561 -38.44966 -38.44899 -38.44026 -38.43988
 Alpha  occ. eigenvalues --  -38.43889 -38.43516  -2.21317  -2.20707  -2.20679
 Alpha  occ. eigenvalues --   -2.19822  -2.19782  -2.19733  -2.19356  -1.15003
 Alpha  occ. eigenvalues --   -1.14986  -1.14946  -1.14401  -1.14384  -1.14352
 Alpha  occ. eigenvalues --   -1.14348  -1.14332  -1.14297  -1.13494  -1.13475
 Alpha  occ. eigenvalues --   -1.13462  -1.13449  -1.13435  -1.13432  -1.13411
 Alpha  occ. eigenvalues --   -1.13384  -1.13343  -1.13020  -1.13011  -1.12970
 Alpha  occ. eigenvalues --   -0.16448  -0.13561  -0.12704  -0.10089
 Alpha virt. eigenvalues --   -0.06769  -0.06400  -0.04250  -0.03716  -0.03283
 Alpha virt. eigenvalues --   -0.02119  -0.01582  -0.01469  -0.01270  -0.00924
 Alpha virt. eigenvalues --   -0.00377  -0.00229   0.00094   0.00439   0.00580

  Beta  occ. eigenvalues --  -38.45564 -38.44966 -38.44902 -38.43940 -38.43939
  Beta  occ. eigenvalues --  -38.43872 -38.43476  -2.21325  -2.20707  -2.20686
  Beta  occ. eigenvalues --   -2.19708  -2.19688  -2.19660  -2.19287  -1.15001
  Beta  occ. eigenvalues --   -1.14992  -1.14945  -1.14405  -1.14384  -1.14356
  Beta  occ. eigenvalues --   -1.14344  -1.14332  -1.14290  -1.13438  -1.13418
  Beta  occ. eigenvalues --   -1.13375  -1.13365  -1.13364  -1.13350  -1.13345
  Beta  occ. eigenvalues --   -1.13329  -1.13299  -1.12976  -1.12959  -1.12908
  Beta  occ. eigenvalues --   -0.16042  -0.13090  -0.12306
  Beta virt. eigenvalues --   -0.06801  -0.06464  -0.06334  -0.03729  -0.03513
  Beta virt. eigenvalues --   -0.02868  -0.01574  -0.01407  -0.01305  -0.01233
  Beta virt. eigenvalues --   -0.00804  -0.00042   0.00003   0.00271   0.00528

 Mulliken charges and spin densities:
               1          2
     1  Na  -0.026186   0.300096
     2  Na  -0.002557  -0.023124
     3  Na   0.322130   0.043254
     4  Na   0.144632   0.026502
     5  Na  -0.061338   0.468695
     6  Na  -0.204488  -0.052091
     7  Na  -0.172192   0.236668
 Sum of Mulliken charges =  -0.00000   1.00000

 Dipole moment (field-independent basis, Debye):
    X=             -1.1926    Y=              0.9999    Z=             -0.3418  Tot=              1.5934
 Quadrupole moment (field-independent basis, Debye-Ang):
   XX=            -64.9175   YY=            -70.3839   ZZ=            -67.4620
   XY=             -1.1731   XZ=              1.9466   YZ=              1.5647

 Normal termination of Gaussian 16 at Sun Dec  3 21:08:41 2023.
