 Gaussian 16, Revision B.01,
 Gaussian 16:  ES64L-G16RevB.01 20-Dec-2017

 -------------------------
 #P B3LYP/6-311+g(d) force
 -------------------------

 -----
 DPGEN
 -----
 Symbolic Z-matrix:
 Charge =  0 Multiplicity = 2

                         Standard orientation:
 ---------------------------------------------------------------------
 Center     Atomic      Atomic             Coordinates (Angstroms)
 Number     Number       Type             X           Y           Z
 ---------------------------------------------------------------------
      1         11           0        0.208398   -0.024914   -1.850892
      2         11           0       -2.387341   -2.279508    0.150952
      3         11           0       -2.974864    0.928156   -0.485573
      4         11           0        0.109305    3.315740    0.260422
      5         11           0       -0.093131   -0.085966    2.118182
      6         11           0        3.076768    0.761654   -0.129618
      7         11           0        2.060866   -2.615163   -0.063473
 ---------------------------------------------------------------------

 SCF Done:  E(UB3LYP) =  -1136.13350598     A.U. after   18 cycles

 The electronic state is 2-A.
 Alpha  occ. eigenvalues --  -38.44300 -38.44018 -38.43966 -38.43940 -38.43922
 Alpha  occ. eigenvalues --  -38.43852 -38.43505  -2.20105  -2.19834  -2.19794
 Alpha  occ. eigenvalues --   -2.19725  -2.19720  -2.19714  -2.19272  -1.13797
 Alpha  occ. eigenvalues --   -1.13773  -1.13728  -1.13518  -1.13506  -1.13476
 Alpha  occ. eigenvalues --   -1.13458  -1.13426  -1.13415  -1.13406  -1.13395
 Alpha  occ. eigenvalues --   -1.13383  -1.13379  -1.13369  -1.13366  -1.13357
 Alpha  occ. eigenvalues --   -1.13349  -1.13332  -1.12947  -1.12927  -1.12923
 Alpha  occ. eigenvalues --   -0.17771  -0.13004  -0.11938  -0.10708
 Alpha virt. eigenvalues --   -0.05681  -0.05447  -0.05103  -0.03310  -0.02828
 Alpha virt. eigenvalues --   -0.02705  -0.01563  -0.01338  -0.00753  -0.00637
 Alpha virt. eigenvalues --   -0.00062   0.00363   0.00722   0.00770   0.00803

  Beta  occ. eigenvalues --  -38.44296 -38.44008 -38.43940 -38.43921 -38.43872
  Beta  occ. eigenvalues --  -38.43786 -38.43504  -2.20101  -2.19816  -2.19727
  Beta  occ. eigenvalues --   -2.19719  -2.19619  -2.19594  -2.19272  -1.13784
  Beta  occ. eigenvalues --   -1.13763  -1.13726  -1.13505  -1.13481  -1.13463
  Beta  occ. eigenvalues --   -1.13395  -1.13385  -1.13374  -1.13373  -1.13366
  Beta  occ. eigenvalues --   -1.13353  -1.13339  -1.13310  -1.13303  -1.13281
  Beta  occ. eigenvalues --   -1.13265  -1.13245  -1.12935  -1.12926  -1.12925
  Beta  occ. eigenvalues --   -0.17045  -0.12807  -0.11763
  Beta virt. eigenvalues --   -0.06853  -0.05675  -0.05351  -0.04979  -0.02564
  Beta virt. eigenvalues --   -0.02135  -0.01713  -0.01454  -0.01237  -0.00806
  Beta virt. eigenvalues --   -0.00676   0.00088   0.00394   0.00772   0.00819

 Mulliken charges and spin densities:
               1          2
     1  Na   0.100888   0.519529
     2  Na   0.018643  -0.091729
     3  Na   0.114206   0.005905
     4  Na  -0.084070  -0.075859
     5  Na  -0.276431   0.835767
     6  Na   0.138139  -0.070790
     7  Na  -0.011376  -0.122823
 Sum of Mulliken charges =  -0.00000   1.00000

 Dipole moment (field-independent basis, Debye):
    X=              0.1688    Y=             -0.2291    Z=             -0.0307  Tot=              0.2862
 Quadrupole moment (field-independent basis, Debye-Ang):
   XX=            -58.2584   YY=            -61.4697   ZZ=            -74.6631
   XY=              0.0576   XZ=              0.7204   YZ=             -0.1307

 Normal termination of Gaussian 16 at Tue Dec  5 15:17:45 2023.
