 Gaussian 16, Revision B.01,
 Gaussian 16:  ES64L-G16RevB.01 20-Dec-2017

 -------------------------
 #P B3LYP/6-311+g(d) force
 -------------------------

 -----
 DPGEN
 -----
 Symbolic Z-matrix:
 Charge =  0 Multiplicity = 2

                         Standard orientation:
 ---------------------------------------------------------------------
 Center     Atomic      Atomic             Coordinates (Angstroms)
 Number     Number       Type             X           Y           Z
 ---------------------------------------------------------------------
      1         11           0        0.762170    2.906384   -0.837166
      2         11           0       -2.229455   -2.326338   -0.926029
      3         11           0        0.674851   -1.524709   -0.184319
      4         11           0        3.773476   -2.047248    0.950421
      5         11           0       -5.063293   -0.290825    0.325081
      6         11           0       -1.689625    2.289121    1.057813
      7         11           0        3.771876    0.993615   -0.385800
 ---------------------------------------------------------------------

 SCF Done:  E(UB3LYP) =  -1136.11296423     A.U. after   24 cycles

 The electronic state is 2-A.
 Alpha  occ. eigenvalues --  -38.45373 -38.45175 -38.44641 -38.44078 -38.43795
 Alpha  occ. eigenvalues --  -38.43640 -38.43501  -2.21132  -2.20972  -2.20457
 Alpha  occ. eigenvalues --   -2.19862  -2.19608  -2.19507  -2.19315  -1.14818
 Alpha  occ. eigenvalues --   -1.14803  -1.14758  -1.14654  -1.14628  -1.14604
 Alpha  occ. eigenvalues --   -1.14124  -1.14114  -1.14091  -1.13511  -1.13499
 Alpha  occ. eigenvalues --   -1.13476  -1.13353  -1.13272  -1.13233  -1.13183
 Alpha  occ. eigenvalues --   -1.13151  -1.13099  -1.12986  -1.12971  -1.12964
 Alpha  occ. eigenvalues --   -0.16471  -0.13846  -0.12623  -0.10724
 Alpha virt. eigenvalues --   -0.07418  -0.04744  -0.04593  -0.03877  -0.03298
 Alpha virt. eigenvalues --   -0.02470  -0.01974  -0.01241  -0.01077  -0.00834
 Alpha virt. eigenvalues --   -0.00426  -0.00362   0.00279   0.00486   0.00600

  Beta  occ. eigenvalues --  -38.45368 -38.45155 -38.44630 -38.43981 -38.43772
  Beta  occ. eigenvalues --  -38.43586 -38.43497  -2.21125  -2.20936  -2.20438
  Beta  occ. eigenvalues --   -2.19679  -2.19573  -2.19412  -2.19307  -1.14815
  Beta  occ. eigenvalues --   -1.14793  -1.14747  -1.14629  -1.14604  -1.14572
  Beta  occ. eigenvalues --   -1.14110  -1.14101  -1.14071  -1.13386  -1.13374
  Beta  occ. eigenvalues --   -1.13358  -1.13293  -1.13253  -1.13197  -1.13121
  Beta  occ. eigenvalues --   -1.13091  -1.13020  -1.12980  -1.12966  -1.12960
  Beta  occ. eigenvalues --   -0.16078  -0.13150  -0.12259
  Beta virt. eigenvalues --   -0.07463  -0.07155  -0.04553  -0.04025  -0.03659
  Beta virt. eigenvalues --   -0.02932  -0.02355  -0.01577  -0.01055  -0.00680
  Beta virt. eigenvalues --   -0.00638  -0.00283  -0.00154   0.00406   0.00603

 Mulliken charges and spin densities:
               1          2
     1  Na  -0.316718  -0.067228
     2  Na  -0.021651  -0.244340
     3  Na  -2.175849   0.173005
     4  Na   1.983214   0.324817
     5  Na  -0.132121   0.471692
     6  Na   0.132377   0.129072
     7  Na   0.530748   0.212983
 Sum of Mulliken charges =  -0.00000   1.00000

 Dipole moment (field-independent basis, Debye):
    X=              1.7251    Y=              0.2275    Z=              0.3576  Tot=              1.7764
 Quadrupole moment (field-independent basis, Debye-Ang):
   XX=            -63.6885   YY=            -68.3331   ZZ=            -68.0031
   XY=             -0.9232   XZ=             -0.0566   YZ=             -1.5655

 Normal termination of Gaussian 16 at Mon Dec  4 02:19:43 2023.
