 Gaussian 16, Revision B.01,
 Gaussian 16:  ES64L-G16RevB.01 20-Dec-2017

 -------------------------
 #P B3LYP/6-311+g(d) force
 -------------------------

 -----
 DPGEN
 -----
 Symbolic Z-matrix:
 Charge =  0 Multiplicity = 2

                         Standard orientation:
 ---------------------------------------------------------------------
 Center     Atomic      Atomic             Coordinates (Angstroms)
 Number     Number       Type             X           Y           Z
 ---------------------------------------------------------------------
      1         11           0       -3.658674   -2.709740   -0.655796
      2         11           0       -1.809960    2.817120    0.029789
      3         11           0       -4.161017   -0.024817    0.930418
      4         11           0        5.679958   -1.374636    0.148351
      5         11           0        1.569059    2.631494   -0.626250
      6         11           0       -0.219754   -0.795518   -0.430800
      7         11           0        2.600388   -0.543904    0.604288
 ---------------------------------------------------------------------

 SCF Done:  E(UB3LYP) =  -1136.11480854     A.U. after   22 cycles

 The electronic state is 2-A.
 Alpha  occ. eigenvalues --  -38.45116 -38.44797 -38.44707 -38.44560 -38.43931
 Alpha  occ. eigenvalues --  -38.43667 -38.43292  -2.20899  -2.20648  -2.20502
 Alpha  occ. eigenvalues --   -2.20373  -2.19745  -2.19462  -2.19180  -1.14588
 Alpha  occ. eigenvalues --   -1.14546  -1.14538  -1.14362  -1.14302  -1.14241
 Alpha  occ. eigenvalues --   -1.14205  -1.14163  -1.14141  -1.14042  -1.14019
 Alpha  occ. eigenvalues --   -1.13981  -1.13386  -1.13377  -1.13376  -1.13140
 Alpha  occ. eigenvalues --   -1.13130  -1.13082  -1.12891  -1.12834  -1.12819
 Alpha  occ. eigenvalues --   -0.16846  -0.14192  -0.12288  -0.10787
 Alpha virt. eigenvalues --   -0.06977  -0.05852  -0.04177  -0.03654  -0.02968
 Alpha virt. eigenvalues --   -0.02524  -0.02188  -0.01415  -0.01160  -0.00875
 Alpha virt. eigenvalues --   -0.00399  -0.00035   0.00286   0.00365   0.00453

  Beta  occ. eigenvalues --  -38.45127 -38.44737 -38.44701 -38.44529 -38.43840
  Beta  occ. eigenvalues --  -38.43638 -38.43292  -2.20919  -2.20538  -2.20489
  Beta  occ. eigenvalues --   -2.20315  -2.19575  -2.19409  -2.19189  -1.14602
  Beta  occ. eigenvalues --   -1.14563  -1.14550  -1.14289  -1.14228  -1.14192
  Beta  occ. eigenvalues --   -1.14159  -1.14155  -1.14125  -1.14004  -1.13980
  Beta  occ. eigenvalues --   -1.13936  -1.13277  -1.13261  -1.13260  -1.13104
  Beta  occ. eigenvalues --   -1.13094  -1.13040  -1.12872  -1.12849  -1.12791
  Beta  occ. eigenvalues --   -0.16341  -0.13805  -0.11801
  Beta virt. eigenvalues --   -0.07446  -0.06695  -0.05294  -0.03985  -0.03315
  Beta virt. eigenvalues --   -0.02855  -0.02188  -0.01958  -0.01181  -0.00925
  Beta virt. eigenvalues --   -0.00493  -0.00119   0.00127   0.00376   0.00510

 Mulliken charges and spin densities:
               1          2
     1  Na   0.492090   0.017224
     2  Na  -0.050024   0.218882
     3  Na   0.162317   0.190004
     4  Na   0.229772   0.371002
     5  Na   0.270528  -0.121814
     6  Na  -2.057415   0.360080
     7  Na   0.952732  -0.035378
 Sum of Mulliken charges =  -0.00000   1.00000

 Dipole moment (field-independent basis, Debye):
    X=             -0.9420    Y=              0.1217    Z=             -0.5901  Tot=              1.1182
 Quadrupole moment (field-independent basis, Debye-Ang):
   XX=            -62.9089   YY=            -66.0352   ZZ=            -70.4495
   XY=              9.9487   XZ=             -3.0818   YZ=              1.0828

 Normal termination of Gaussian 16 at Mon Dec  4 01:07:39 2023.
