 Gaussian 16, Revision B.01,
 Gaussian 16:  ES64L-G16RevB.01 20-Dec-2017

 -------------------------
 #P B3LYP/6-311+g(d) force
 -------------------------

 -----
 DPGEN
 -----
 Symbolic Z-matrix:
 Charge =  0 Multiplicity = 2

                         Standard orientation:
 ---------------------------------------------------------------------
 Center     Atomic      Atomic             Coordinates (Angstroms)
 Number     Number       Type             X           Y           Z
 ---------------------------------------------------------------------
      1         11           0       -2.906864    1.262660    0.110078
      2         11           0        0.214717   -0.382399    2.009093
      3         11           0        3.496441    0.377851    0.150122
      4         11           0       -2.619555   -2.020568    0.015719
      5         11           0        0.352934    3.046510   -0.155014
      6         11           0       -0.190828    0.087288   -1.616503
      7         11           0        1.653154   -2.371341   -0.513495
 ---------------------------------------------------------------------

 SCF Done:  E(UB3LYP) =  -1136.13267658     A.U. after   21 cycles

 The electronic state is 2-A.
 Alpha  occ. eigenvalues --  -38.45024 -38.44252 -38.43883 -38.43796 -38.43539
 Alpha  occ. eigenvalues --  -38.43163 -38.43062  -2.20799  -2.20085  -2.19697
 Alpha  occ. eigenvalues --   -2.19648  -2.19398  -2.19114  -2.18866  -1.14472
 Alpha  occ. eigenvalues --   -1.14455  -1.14440  -1.13771  -1.13752  -1.13719
 Alpha  occ. eigenvalues --   -1.13364  -1.13359  -1.13344  -1.13325  -1.13286
 Alpha  occ. eigenvalues --   -1.13255  -1.13102  -1.13052  -1.13021  -1.12801
 Alpha  occ. eigenvalues --   -1.12754  -1.12737  -1.12545  -1.12528  -1.12498
 Alpha  occ. eigenvalues --   -0.18209  -0.13352  -0.11906  -0.10453
 Alpha virt. eigenvalues --   -0.06389  -0.05303  -0.04487  -0.03339  -0.02556
 Alpha virt. eigenvalues --   -0.02408  -0.02075  -0.01220  -0.00626  -0.00445
 Alpha virt. eigenvalues --   -0.00050   0.00316   0.00686   0.00767   0.00822

  Beta  occ. eigenvalues --  -38.45023 -38.44249 -38.43883 -38.43709 -38.43521
  Beta  occ. eigenvalues --  -38.43097 -38.43061  -2.20800  -2.20082  -2.19699
  Beta  occ. eigenvalues --   -2.19488  -2.19369  -2.18993  -2.18867  -1.14461
  Beta  occ. eigenvalues --   -1.14453  -1.14442  -1.13767  -1.13736  -1.13718
  Beta  occ. eigenvalues --   -1.13366  -1.13345  -1.13340  -1.13219  -1.13175
  Beta  occ. eigenvalues --   -1.13139  -1.13074  -1.13012  -1.13003  -1.12718
  Beta  occ. eigenvalues --   -1.12666  -1.12654  -1.12533  -1.12521  -1.12499
  Beta  occ. eigenvalues --   -0.17497  -0.13171  -0.11686
  Beta virt. eigenvalues --   -0.06599  -0.06263  -0.05318  -0.04430  -0.02599
  Beta virt. eigenvalues --   -0.01964  -0.01868  -0.01372  -0.01147  -0.00670
  Beta virt. eigenvalues --   -0.00458   0.00111   0.00342   0.00748   0.00819

 Mulliken charges and spin densities:
               1          2
     1  Na   0.064781  -0.018175
     2  Na  -0.416522   0.744901
     3  Na   0.029943  -0.015960
     4  Na   0.167672  -0.051075
     5  Na  -0.100066  -0.098355
     6  Na   0.059206   0.465947
     7  Na   0.194985  -0.027283
 Sum of Mulliken charges =  -0.00000   1.00000

 Dipole moment (field-independent basis, Debye):
    X=              0.2776    Y=             -0.0819    Z=              0.1967  Tot=              0.3499
 Quadrupole moment (field-independent basis, Debye-Ang):
   XX=            -50.9139   YY=            -65.2850   ZZ=            -76.1883
   XY=              1.1168   XZ=             -0.5126   YZ=              1.2707

 Normal termination of Gaussian 16 at Thu Dec  7 11:58:58 2023.
