 Gaussian 16, Revision B.01,
 Gaussian 16:  ES64L-G16RevB.01 20-Dec-2017

 -------------------------
 #P B3LYP/6-311+g(d) force
 -------------------------

 -----
 DPGEN
 -----
 Symbolic Z-matrix:
 Charge =  0 Multiplicity = 2

                         Standard orientation:
 ---------------------------------------------------------------------
 Center     Atomic      Atomic             Coordinates (Angstroms)
 Number     Number       Type             X           Y           Z
 ---------------------------------------------------------------------
      1         11           0       -0.099057   -0.362998    2.012915
      2         11           0       -2.884481    0.845457   -0.099568
      3         11           0        3.003179    0.732414   -0.133938
      4         11           0       -2.509121   -2.042972   -0.288979
      5         11           0        2.162025   -2.376805    0.010557
      6         11           0        0.266355    0.097462   -1.665097
      7         11           0        0.061100    3.107444    0.164110
 ---------------------------------------------------------------------

 SCF Done:  E(UB3LYP) =  -1136.13291425     A.U. after   19 cycles

 The electronic state is 2-A.
 Alpha  occ. eigenvalues --  -38.44353 -38.44100 -38.43923 -38.43758 -38.43611
 Alpha  occ. eigenvalues --  -38.43504 -38.42981  -2.20217  -2.19987  -2.19778
 Alpha  occ. eigenvalues --   -2.19594  -2.19479  -2.19439  -2.18790  -1.13922
 Alpha  occ. eigenvalues --   -1.13876  -1.13844  -1.13779  -1.13641  -1.13625
 Alpha  occ. eigenvalues --   -1.13418  -1.13405  -1.13397  -1.13260  -1.13257
 Alpha  occ. eigenvalues --   -1.13244  -1.13154  -1.13119  -1.13101  -1.13097
 Alpha  occ. eigenvalues --   -1.13080  -1.13057  -1.12460  -1.12450  -1.12441
 Alpha  occ. eigenvalues --   -0.18458  -0.13651  -0.11967  -0.10606
 Alpha virt. eigenvalues --   -0.05860  -0.05403  -0.04620  -0.03490  -0.02687
 Alpha virt. eigenvalues --   -0.02411  -0.01722  -0.01176  -0.00599  -0.00356
 Alpha virt. eigenvalues --   -0.00019   0.00355   0.00719   0.00824   0.00862

  Beta  occ. eigenvalues --  -38.44347 -38.44094 -38.43917 -38.43755 -38.43515
  Beta  occ. eigenvalues --  -38.43445 -38.42979  -2.20208  -2.19980  -2.19771
  Beta  occ. eigenvalues --   -2.19593  -2.19331  -2.19303  -2.18790  -1.13910
  Beta  occ. eigenvalues --   -1.13856  -1.13840  -1.13778  -1.13626  -1.13607
  Beta  occ. eigenvalues --   -1.13406  -1.13396  -1.13386  -1.13260  -1.13252
  Beta  occ. eigenvalues --   -1.13224  -1.13058  -1.13022  -1.12998  -1.12982
  Beta  occ. eigenvalues --   -1.12979  -1.12969  -1.12454  -1.12446  -1.12435
  Beta  occ. eigenvalues --   -0.17742  -0.13409  -0.11771
  Beta virt. eigenvalues --   -0.06734  -0.05758  -0.05395  -0.04582  -0.02683
  Beta virt. eigenvalues --   -0.01948  -0.01604  -0.01435  -0.01088  -0.00661
  Beta virt. eigenvalues --   -0.00383   0.00139   0.00390   0.00802   0.00828

 Mulliken charges and spin densities:
               1          2
     1  Na  -0.392732   0.729081
     2  Na   0.102826   0.040626
     3  Na   0.219376   0.013502
     4  Na   0.155637  -0.046973
     5  Na   0.096037  -0.085041
     6  Na  -0.059666   0.390656
     7  Na  -0.121478  -0.041850
 Sum of Mulliken charges =  -0.00000   1.00000

 Dipole moment (field-independent basis, Debye):
    X=              0.2181    Y=             -0.2627    Z=              0.0477  Tot=              0.3447
 Quadrupole moment (field-independent basis, Debye-Ang):
   XX=            -56.2830   YY=            -62.9856   ZZ=            -75.1873
   XY=              0.0620   XZ=              0.5831   YZ=              1.2405

 Normal termination of Gaussian 16 at Thu Dec  7 02:06:19 2023.
