 Gaussian 16, Revision B.01,
 Gaussian 16:  ES64L-G16RevB.01 20-Dec-2017

 -------------------------
 #P B3LYP/6-311+g(d) force
 -------------------------

 -----
 DPGEN
 -----
 Symbolic Z-matrix:
 Charge =  0 Multiplicity = 2

                         Standard orientation:
 ---------------------------------------------------------------------
 Center     Atomic      Atomic             Coordinates (Angstroms)
 Number     Number       Type             X           Y           Z
 ---------------------------------------------------------------------
      1         11           0       -0.669084    4.302907   -0.433454
      2         11           0        2.341822    2.474643    0.073255
      3         11           0       -3.485239   -1.901192    0.483169
      4         11           0       -1.301248   -3.898903   -0.400065
      5         11           0       -3.761407    2.079857    0.162557
      6         11           0        2.043682   -2.862048   -0.272570
      7         11           0        4.831474   -0.195264    0.387107
 ---------------------------------------------------------------------

 SCF Done:  E(UB3LYP) =  -1136.10518687     A.U. after   24 cycles

 The electronic state is 2-A.
 Alpha  occ. eigenvalues --  -38.46014 -38.45468 -38.45199 -38.45016 -38.43948
 Alpha  occ. eigenvalues --  -38.43944 -38.43885  -2.21749  -2.21216  -2.20928
 Alpha  occ. eigenvalues --   -2.20795  -2.19777  -2.19721  -2.19668  -1.15441
 Alpha  occ. eigenvalues --   -1.15429  -1.15357  -1.14910  -1.14900  -1.14822
 Alpha  occ. eigenvalues --   -1.14613  -1.14596  -1.14546  -1.14481  -1.14468
 Alpha  occ. eigenvalues --   -1.14435  -1.13444  -1.13430  -1.13420  -1.13390
 Alpha  occ. eigenvalues --   -1.13378  -1.13350  -1.13327  -1.13316  -1.13295
 Alpha  occ. eigenvalues --   -0.15370  -0.13883  -0.13372  -0.10873
 Alpha virt. eigenvalues --   -0.07973  -0.05069  -0.04531  -0.03580  -0.03328
 Alpha virt. eigenvalues --   -0.02346  -0.02232  -0.02134  -0.01913  -0.00724
 Alpha virt. eigenvalues --   -0.00536  -0.00286   0.00007   0.00343   0.00392

  Beta  occ. eigenvalues --  -38.45986 -38.45437 -38.45174 -38.45008 -38.43932
  Beta  occ. eigenvalues --  -38.43907 -38.43835  -2.21703  -2.21165  -2.20882
  Beta  occ. eigenvalues --   -2.20782  -2.19747  -2.19654  -2.19574  -1.15414
  Beta  occ. eigenvalues --   -1.15402  -1.15293  -1.14881  -1.14872  -1.14748
  Beta  occ. eigenvalues --   -1.14584  -1.14566  -1.14504  -1.14474  -1.14459
  Beta  occ. eigenvalues --   -1.14416  -1.13431  -1.13410  -1.13389  -1.13345
  Beta  occ. eigenvalues --   -1.13331  -1.13299  -1.13263  -1.13251  -1.13235
  Beta  occ. eigenvalues --   -0.14893  -0.13311  -0.12742
  Beta virt. eigenvalues --   -0.08049  -0.07574  -0.04626  -0.04013  -0.03435
  Beta virt. eigenvalues --   -0.02938  -0.02194  -0.02056  -0.01963  -0.01739
  Beta virt. eigenvalues --   -0.00412  -0.00280   0.00018   0.00182   0.00396

 Mulliken charges and spin densities:
               1          2
     1  Na   0.471097  -0.111953
     2  Na  -0.788747   0.428769
     3  Na  -0.006126   0.003387
     4  Na   0.105527  -0.023541
     5  Na  -0.076809   0.109074
     6  Na  -0.187799   0.247221
     7  Na   0.482857   0.347042
 Sum of Mulliken charges =  -0.00000   1.00000

 Dipole moment (field-independent basis, Debye):
    X=              0.1008    Y=             -0.4720    Z=             -0.0148  Tot=              0.4828
 Quadrupole moment (field-independent basis, Debye-Ang):
   XX=            -62.3957   YY=            -63.0671   ZZ=            -74.2966
   XY=             -2.0138   XZ=              0.0595   YZ=              0.1770

 Normal termination of Gaussian 16 at Sun Dec  3 19:34:44 2023.
