 Gaussian 16, Revision B.01,
 Gaussian 16:  ES64L-G16RevB.01 20-Dec-2017

 -------------------------
 #P B3LYP/6-311+g(d) force
 -------------------------

 -----
 DPGEN
 -----
 Symbolic Z-matrix:
 Charge =  0 Multiplicity = 2

                         Standard orientation:
 ---------------------------------------------------------------------
 Center     Atomic      Atomic             Coordinates (Angstroms)
 Number     Number       Type             X           Y           Z
 ---------------------------------------------------------------------
      1         11           0       -2.652891    1.558218    0.083721
      2         11           0       -2.028281   -1.207600    2.150303
      3         11           0       -3.199163   -1.104695   -1.651546
      4         11           0        0.152312   -1.034719   -0.337545
      5         11           0        3.380409   -2.299289   -0.194953
      6         11           0        0.407897    2.838600   -0.058695
      7         11           0        3.939716    1.249484    0.008715
 ---------------------------------------------------------------------

 SCF Done:  E(UB3LYP) =  -1136.11592515     A.U. after   25 cycles

 The electronic state is 2-A.
 Alpha  occ. eigenvalues --  -38.45552 -38.44440 -38.44363 -38.44336 -38.44329
 Alpha  occ. eigenvalues --  -38.44140 -38.42840  -2.21287  -2.20283  -2.20213
 Alpha  occ. eigenvalues --   -2.20178  -2.20136  -2.19999  -2.18634  -1.14979
 Alpha  occ. eigenvalues --   -1.14939  -1.14919  -1.14019  -1.13953  -1.13925
 Alpha  occ. eigenvalues --   -1.13905  -1.13879  -1.13872  -1.13825  -1.13807
 Alpha  occ. eigenvalues --   -1.13804  -1.13795  -1.13776  -1.13771  -1.13649
 Alpha  occ. eigenvalues --   -1.13638  -1.13594  -1.12317  -1.12300  -1.12272
 Alpha  occ. eigenvalues --   -0.17601  -0.13987  -0.11576  -0.10750
 Alpha virt. eigenvalues --   -0.07024  -0.06529  -0.04116  -0.03146  -0.02788
 Alpha virt. eigenvalues --   -0.02383  -0.02190  -0.01824  -0.01274  -0.00723
 Alpha virt. eigenvalues --   -0.00263   0.00111   0.00293   0.00415   0.00482

  Beta  occ. eigenvalues --  -38.45558 -38.44437 -38.44371 -38.44315 -38.44237
  Beta  occ. eigenvalues --  -38.44050 -38.42836  -2.21297  -2.20281  -2.20181
  Beta  occ. eigenvalues --   -2.20152  -2.20006  -2.19831  -2.18627  -1.14986
  Beta  occ. eigenvalues --   -1.14945  -1.14928  -1.13978  -1.13957  -1.13925
  Beta  occ. eigenvalues --   -1.13869  -1.13848  -1.13824  -1.13817  -1.13806
  Beta  occ. eigenvalues --   -1.13784  -1.13708  -1.13687  -1.13666  -1.13535
  Beta  occ. eigenvalues --   -1.13522  -1.13481  -1.12312  -1.12292  -1.12267
  Beta  occ. eigenvalues --   -0.16945  -0.13820  -0.11417
  Beta virt. eigenvalues --   -0.06909  -0.06629  -0.06391  -0.03889  -0.02907
  Beta virt. eigenvalues --   -0.02590  -0.01935  -0.01713  -0.01480  -0.00987
  Beta virt. eigenvalues --   -0.00195  -0.00186   0.00193   0.00469   0.00484

 Mulliken charges and spin densities:
               1          2
     1  Na   1.030626   0.442398
     2  Na   0.097428   0.306763
     3  Na   0.980381   0.545563
     4  Na  -2.372298  -0.011129
     5  Na   0.358392  -0.163176
     6  Na  -0.051424  -0.075977
     7  Na  -0.043105  -0.044441
 Sum of Mulliken charges =  -0.00000   1.00000

 Dipole moment (field-independent basis, Debye):
    X=              0.8469    Y=             -0.5575    Z=              0.5022  Tot=              1.1315
 Quadrupole moment (field-independent basis, Debye-Ang):
   XX=            -50.3973   YY=            -71.2219   ZZ=            -73.6020
   XY=              0.4052   XZ=             -2.2960   YZ=              0.9570

 Normal termination of Gaussian 16 at Tue Dec  5 21:48:50 2023.
