 Gaussian 16, Revision B.01,
 Gaussian 16:  ES64L-G16RevB.01 20-Dec-2017

 -------------------------
 #P B3LYP/6-311+g(d) force
 -------------------------

 -----
 DPGEN
 -----
 Symbolic Z-matrix:
 Charge =  0 Multiplicity = 2

                         Standard orientation:
 ---------------------------------------------------------------------
 Center     Atomic      Atomic             Coordinates (Angstroms)
 Number     Number       Type             X           Y           Z
 ---------------------------------------------------------------------
      1         11           0        0.560657    0.448940    2.356204
      2         11           0        0.878499   -2.300308   -0.558832
      3         11           0       -1.891640    2.531246    0.317328
      4         11           0       -2.869214   -1.868551    0.841626
      5         11           0        4.141823   -0.159597   -0.023614
      6         11           0        1.395226    1.341604   -1.167180
      7         11           0       -2.215351    0.006665   -1.765532
 ---------------------------------------------------------------------

 SCF Done:  E(UB3LYP) =  -1136.12381014     A.U. after   22 cycles

 The electronic state is 2-A.
 Alpha  occ. eigenvalues --  -38.45166 -38.44482 -38.44262 -38.44090 -38.43880
 Alpha  occ. eigenvalues --  -38.43771 -38.43134  -2.20938  -2.20286  -2.20024
 Alpha  occ. eigenvalues --   -2.19868  -2.19741  -2.19614  -2.18942  -1.14617
 Alpha  occ. eigenvalues --   -1.14597  -1.14565  -1.13939  -1.13912  -1.13903
 Alpha  occ. eigenvalues --   -1.13731  -1.13716  -1.13614  -1.13567  -1.13526
 Alpha  occ. eigenvalues --   -1.13502  -1.13417  -1.13398  -1.13344  -1.13313
 Alpha  occ. eigenvalues --   -1.13292  -1.13213  -1.12618  -1.12602  -1.12586
 Alpha  occ. eigenvalues --   -0.17564  -0.13434  -0.11289  -0.11086
 Alpha virt. eigenvalues --   -0.06724  -0.05186  -0.04674  -0.03182  -0.03034
 Alpha virt. eigenvalues --   -0.02795  -0.02403  -0.01192  -0.00624  -0.00254
 Alpha virt. eigenvalues --    0.00007   0.00135   0.00388   0.00553   0.00621

  Beta  occ. eigenvalues --  -38.45166 -38.44375 -38.44256 -38.44086 -38.43841
  Beta  occ. eigenvalues --  -38.43749 -38.43136  -2.20939  -2.20088  -2.20014
  Beta  occ. eigenvalues --   -2.19860  -2.19670  -2.19574  -2.18948  -1.14615
  Beta  occ. eigenvalues --   -1.14593  -1.14567  -1.13807  -1.13773  -1.13765
  Beta  occ. eigenvalues --   -1.13723  -1.13696  -1.13610  -1.13557  -1.13512
  Beta  occ. eigenvalues --   -1.13498  -1.13368  -1.13353  -1.13294  -1.13287
  Beta  occ. eigenvalues --   -1.13250  -1.13185  -1.12624  -1.12594  -1.12585
  Beta  occ. eigenvalues --   -0.16872  -0.13289  -0.11105
  Beta virt. eigenvalues --   -0.07227  -0.06587  -0.05141  -0.04068  -0.03013
  Beta virt. eigenvalues --   -0.02329  -0.02199  -0.02003  -0.01052  -0.00421
  Beta virt. eigenvalues --   -0.00124   0.00006   0.00209   0.00490   0.00681

 Mulliken charges and spin densities:
               1          2
     1  Na  -0.388583   0.681230
     2  Na  -0.224516   0.004459
     3  Na   0.164267  -0.083826
     4  Na   0.017259  -0.013403
     5  Na   0.419598  -0.000759
     6  Na  -0.178552   0.133526
     7  Na   0.190527   0.278773
 Sum of Mulliken charges =  -0.00000   1.00000

 Dipole moment (field-independent basis, Debye):
    X=              1.1738    Y=             -0.2410    Z=              0.2470  Tot=              1.2235
 Quadrupole moment (field-independent basis, Debye-Ang):
   XX=            -50.4601   YY=            -75.0899   ZZ=            -69.3025
   XY=             -1.3758   XZ=             -0.4129   YZ=             -0.4821

 Normal termination of Gaussian 16 at Fri Dec  8 06:11:39 2023.
