 Gaussian 16, Revision B.01,
 Gaussian 16:  ES64L-G16RevB.01 20-Dec-2017

 -------------------------
 #P B3LYP/6-311+g(d) force
 -------------------------

 -----
 DPGEN
 -----
 Symbolic Z-matrix:
 Charge =  0 Multiplicity = 2

                         Standard orientation:
 ---------------------------------------------------------------------
 Center     Atomic      Atomic             Coordinates (Angstroms)
 Number     Number       Type             X           Y           Z
 ---------------------------------------------------------------------
      1         11           0        2.580151   -3.068757   -0.183976
      2         11           0        2.365486    2.460538   -0.109770
      3         11           0       -0.809729   -3.024236    0.317746
      4         11           0       -3.440463    1.443604    0.134077
      5         11           0       -4.385084   -1.726321   -0.246198
      6         11           0       -1.088781    3.692230    0.008140
      7         11           0        4.778419    0.222942    0.079981
 ---------------------------------------------------------------------

 SCF Done:  E(UB3LYP) =  -1136.11216915     A.U. after   21 cycles

 The electronic state is 2-A.
 Alpha  occ. eigenvalues --  -38.45036 -38.44945 -38.44877 -38.44700 -38.44557
 Alpha  occ. eigenvalues --  -38.44163 -38.43567  -2.20800  -2.20700  -2.20675
 Alpha  occ. eigenvalues --   -2.20471  -2.20352  -2.19972  -2.19381  -1.14487
 Alpha  occ. eigenvalues --   -1.14476  -1.14441  -1.14386  -1.14382  -1.14356
 Alpha  occ. eigenvalues --   -1.14348  -1.14329  -1.14321  -1.14141  -1.14127
 Alpha  occ. eigenvalues --   -1.14093  -1.14007  -1.14001  -1.13979  -1.13623
 Alpha  occ. eigenvalues --   -1.13620  -1.13596  -1.13040  -1.13029  -1.13015
 Alpha  occ. eigenvalues --   -0.15577  -0.14103  -0.13431  -0.11184
 Alpha virt. eigenvalues --   -0.07420  -0.04825  -0.04358  -0.03617  -0.03468
 Alpha virt. eigenvalues --   -0.02562  -0.02184  -0.02059  -0.01432  -0.00827
 Alpha virt. eigenvalues --   -0.00391  -0.00093   0.00085   0.00523   0.00586

  Beta  occ. eigenvalues --  -38.45025 -38.44922 -38.44863 -38.44660 -38.44509
  Beta  occ. eigenvalues --  -38.44106 -38.43523  -2.20785  -2.20661  -2.20656
  Beta  occ. eigenvalues --   -2.20402  -2.20265  -2.19865  -2.19300  -1.14481
  Beta  occ. eigenvalues --   -1.14471  -1.14396  -1.14365  -1.14360  -1.14349
  Beta  occ. eigenvalues --   -1.14337  -1.14273  -1.14263  -1.14096  -1.14081
  Beta  occ. eigenvalues --   -1.14030  -1.13949  -1.13938  -1.13919  -1.13549
  Beta  occ. eigenvalues --   -1.13545  -1.13529  -1.12984  -1.12974  -1.12963
  Beta  occ. eigenvalues --   -0.15018  -0.13311  -0.12588
  Beta virt. eigenvalues --   -0.08074  -0.07626  -0.04328  -0.03981  -0.03416
  Beta virt. eigenvalues --   -0.03049  -0.02351  -0.02001  -0.01845  -0.01224
  Beta virt. eigenvalues --   -0.00467   0.00023   0.00113   0.00223   0.00507

 Mulliken charges and spin densities:
               1          2
     1  Na   0.041414   0.073115
     2  Na  -0.468565   0.151084
     3  Na  -0.379971   0.100360
     4  Na  -0.481881   0.158583
     5  Na   0.469379   0.269492
     6  Na   0.637168   0.281673
     7  Na   0.182456  -0.034307
 Sum of Mulliken charges =  -0.00000   1.00000

 Dipole moment (field-independent basis, Debye):
    X=              0.4362    Y=             -0.5120    Z=             -0.0318  Tot=              0.6734
 Quadrupole moment (field-independent basis, Debye-Ang):
   XX=            -56.2332   YY=            -67.3633   ZZ=            -74.3208
   XY=             -1.3729   XZ=              0.0099   YZ=              0.3206

 Normal termination of Gaussian 16 at Sun Dec  3 18:23:35 2023.
