 Gaussian 16, Revision B.01,
 Gaussian 16:  ES64L-G16RevB.01 20-Dec-2017

 -------------------------
 #P B3LYP/6-311+g(d) force
 -------------------------

 -----
 DPGEN
 -----
 Symbolic Z-matrix:
 Charge =  0 Multiplicity = 2

                         Standard orientation:
 ---------------------------------------------------------------------
 Center     Atomic      Atomic             Coordinates (Angstroms)
 Number     Number       Type             X           Y           Z
 ---------------------------------------------------------------------
      1         11           0       -2.608271   -2.417312    0.228836
      2         11           0        0.356146   -0.368252    2.078401
      3         11           0        0.508153   -0.996545   -1.583463
      4         11           0        3.510610   -1.354365    0.371308
      5         11           0        1.411691    1.804419   -1.475914
      6         11           0       -2.498250    0.656720   -0.935173
      7         11           0       -0.680079    2.675335    1.316004
 ---------------------------------------------------------------------

 SCF Done:  E(UB3LYP) =  -1136.12692315     A.U. after   21 cycles

 The electronic state is 2-A.
 Alpha  occ. eigenvalues --  -38.44632 -38.44300 -38.44168 -38.44013 -38.43857
 Alpha  occ. eigenvalues --  -38.43388 -38.43025  -2.20479  -2.20164  -2.19937
 Alpha  occ. eigenvalues --   -2.19862  -2.19780  -2.19187  -2.18872  -1.14145
 Alpha  occ. eigenvalues --   -1.14120  -1.14096  -1.13960  -1.13790  -1.13746
 Alpha  occ. eigenvalues --   -1.13610  -1.13600  -1.13570  -1.13563  -1.13534
 Alpha  occ. eigenvalues --   -1.13477  -1.13465  -1.13428  -1.13355  -1.12853
 Alpha  occ. eigenvalues --   -1.12849  -1.12827  -1.12557  -1.12525  -1.12495
 Alpha  occ. eigenvalues --   -0.18156  -0.12718  -0.11995  -0.11770
 Alpha virt. eigenvalues --   -0.05848  -0.05124  -0.04088  -0.03414  -0.03342
 Alpha virt. eigenvalues --   -0.03157  -0.01711  -0.01152  -0.00507   0.00055
 Alpha virt. eigenvalues --    0.00219   0.00342   0.00477   0.00717   0.00767

  Beta  occ. eigenvalues --  -38.44544 -38.44250 -38.44165 -38.44002 -38.43809
  Beta  occ. eigenvalues --  -38.43390 -38.43002  -2.20318  -2.20075  -2.19933
  Beta  occ. eigenvalues --   -2.19844  -2.19697  -2.19192  -2.18832  -1.14040
  Beta  occ. eigenvalues --   -1.14000  -1.13978  -1.13882  -1.13723  -1.13691
  Beta  occ. eigenvalues --   -1.13606  -1.13588  -1.13570  -1.13540  -1.13515
  Beta  occ. eigenvalues --   -1.13471  -1.13412  -1.13343  -1.13302  -1.12858
  Beta  occ. eigenvalues --   -1.12846  -1.12831  -1.12516  -1.12501  -1.12466
  Beta  occ. eigenvalues --   -0.17330  -0.12550  -0.11633
  Beta virt. eigenvalues --   -0.07921  -0.05635  -0.04973  -0.03755  -0.02945
  Beta virt. eigenvalues --   -0.02679  -0.02424  -0.01580  -0.00986  -0.00269
  Beta virt. eigenvalues --    0.00032   0.00326   0.00375   0.00608   0.00755

 Mulliken charges and spin densities:
               1          2
     1  Na   0.105358  -0.174344
     2  Na  -0.230736   0.703190
     3  Na  -0.110821   0.419496
     4  Na   0.021338  -0.114359
     5  Na   0.023951   0.074368
     6  Na   0.070514   0.170297
     7  Na   0.120396  -0.078648
 Sum of Mulliken charges =  -0.00000   1.00000

 Dipole moment (field-independent basis, Debye):
    X=              0.4596    Y=             -0.0380    Z=              0.1173  Tot=              0.4758
 Quadrupole moment (field-independent basis, Debye-Ang):
   XX=            -60.1925   YY=            -67.8693   ZZ=            -67.5305
   XY=             -0.5694   XZ=              0.0672   YZ=             -2.7947

 Normal termination of Gaussian 16 at Mon Dec  4 03:47:51 2023.
