 Gaussian 16, Revision B.01,
 Gaussian 16:  ES64L-G16RevB.01 20-Dec-2017

 -------------------------
 #P B3LYP/6-311+g(d) force
 -------------------------

 -----
 DPGEN
 -----
 Symbolic Z-matrix:
 Charge =  0 Multiplicity = 2

                         Standard orientation:
 ---------------------------------------------------------------------
 Center     Atomic      Atomic             Coordinates (Angstroms)
 Number     Number       Type             X           Y           Z
 ---------------------------------------------------------------------
      1         11           0       -3.800412   -0.844148   -0.088213
      2         11           0        2.123680    1.867682    0.344847
      3         11           0        0.994980   -2.225033   -0.532195
      4         11           0       -0.730985   -0.891887    2.319675
      5         11           0       -2.513092    2.068695    0.192603
      6         11           0        4.573076   -0.076194    0.037144
      7         11           0       -0.647247    0.100885   -2.273861
 ---------------------------------------------------------------------

 SCF Done:  E(UB3LYP) =  -1136.10802816     A.U. after   28 cycles

 The electronic state is 2-A.
 Alpha  occ. eigenvalues --  -38.46134 -38.45112 -38.44451 -38.44314 -38.44065
 Alpha  occ. eigenvalues --  -38.43697 -38.42357  -2.21908  -2.20882  -2.20247
 Alpha  occ. eigenvalues --   -2.20159  -2.19852  -2.19518  -2.18171  -1.15581
 Alpha  occ. eigenvalues --   -1.15572  -1.15543  -1.14554  -1.14545  -1.14525
 Alpha  occ. eigenvalues --   -1.13917  -1.13878  -1.13859  -1.13821  -1.13790
 Alpha  occ. eigenvalues --   -1.13770  -1.13527  -1.13501  -1.13500  -1.13182
 Alpha  occ. eigenvalues --   -1.13177  -1.13174  -1.11863  -1.11832  -1.11811
 Alpha  occ. eigenvalues --   -0.17322  -0.13604  -0.11321  -0.10761
 Alpha virt. eigenvalues --   -0.07696  -0.05217  -0.04145  -0.03682  -0.03136
 Alpha virt. eigenvalues --   -0.02725  -0.02502  -0.01493  -0.00731  -0.00512
 Alpha virt. eigenvalues --   -0.00255  -0.00089   0.00107   0.00563   0.00728

  Beta  occ. eigenvalues --  -38.46136 -38.45120 -38.44374 -38.44213 -38.44059
  Beta  occ. eigenvalues --  -38.43686 -38.42358  -2.21916  -2.20897  -2.20102
  Beta  occ. eigenvalues --   -2.19974  -2.19841  -2.19501  -2.18176  -1.15583
  Beta  occ. eigenvalues --   -1.15563  -1.15549  -1.14565  -1.14554  -1.14537
  Beta  occ. eigenvalues --   -1.13815  -1.13780  -1.13760  -1.13695  -1.13669
  Beta  occ. eigenvalues --   -1.13632  -1.13513  -1.13495  -1.13493  -1.13172
  Beta  occ. eigenvalues --   -1.13171  -1.13137  -1.11862  -1.11821  -1.11816
  Beta  occ. eigenvalues --   -0.16560  -0.13588  -0.10541
  Beta virt. eigenvalues --   -0.07567  -0.07341  -0.05169  -0.03676  -0.03057
  Beta virt. eigenvalues --   -0.02787  -0.02407  -0.01769  -0.01463  -0.00550
  Beta virt. eigenvalues --   -0.00465  -0.00210   0.00101   0.00211   0.00653

 Mulliken charges and spin densities:
               1          2
     1  Na   0.348338  -0.026300
     2  Na  -0.583014   0.051628
     3  Na  -0.410498   0.039187
     4  Na   0.115158   0.426000
     5  Na  -0.341352   0.088346
     6  Na   0.542292  -0.121147
     7  Na   0.329076   0.542287
 Sum of Mulliken charges =  -0.00000   1.00000

 Dipole moment (field-independent basis, Debye):
    X=             -0.5731    Y=             -0.8009    Z=             -0.0148  Tot=              0.9849
 Quadrupole moment (field-independent basis, Debye-Ang):
   XX=            -52.3216   YY=            -74.5623   ZZ=            -71.2742
   XY=             -0.2767   XZ=              0.0951   YZ=              1.2499

 Normal termination of Gaussian 16 at Mon Dec  4 01:30:22 2023.
