 Gaussian 16, Revision B.01,
 Gaussian 16:  ES64L-G16RevB.01 20-Dec-2017

 -------------------------
 #P B3LYP/6-311+g(d) force
 -------------------------

 -----
 DPGEN
 -----
 Symbolic Z-matrix:
 Charge =  0 Multiplicity = 2

                         Standard orientation:
 ---------------------------------------------------------------------
 Center     Atomic      Atomic             Coordinates (Angstroms)
 Number     Number       Type             X           Y           Z
 ---------------------------------------------------------------------
      1         11           0       -0.094395    0.199528   -0.884426
      2         11           0       -0.766311   -1.538905    1.637674
      3         11           0       -2.818553   -1.847572   -0.998186
      4         11           0        3.595218    1.201224   -0.833648
      5         11           0        2.972563   -1.993084    0.157822
      6         11           0       -3.244200    1.715946   -0.155159
      7         11           0        0.355678    2.262862    1.075923
 ---------------------------------------------------------------------

 SCF Done:  E(UB3LYP) =  -1136.11941879     A.U. after   21 cycles

 The electronic state is 2-A.
 Alpha  occ. eigenvalues --  -38.44734 -38.44619 -38.44151 -38.43944 -38.43716
 Alpha  occ. eigenvalues --  -38.43420 -38.43163  -2.20517  -2.20385  -2.19956
 Alpha  occ. eigenvalues --   -2.19944  -2.19560  -2.19301  -2.19035  -1.14202
 Alpha  occ. eigenvalues --   -1.14165  -1.14145  -1.14068  -1.14042  -1.14029
 Alpha  occ. eigenvalues --   -1.13748  -1.13630  -1.13624  -1.13594  -1.13584
 Alpha  occ. eigenvalues --   -1.13530  -1.13240  -1.13215  -1.13183  -1.12987
 Alpha  occ. eigenvalues --   -1.12919  -1.12913  -1.12751  -1.12662  -1.12621
 Alpha  occ. eigenvalues --   -0.17914  -0.13825  -0.11514  -0.10407
 Alpha virt. eigenvalues --   -0.06550  -0.05782  -0.04082  -0.03280  -0.03013
 Alpha virt. eigenvalues --   -0.02346  -0.01664  -0.01576  -0.00729  -0.00427
 Alpha virt. eigenvalues --   -0.00009   0.00128   0.00341   0.00592   0.00614

  Beta  occ. eigenvalues --  -38.44713 -38.44617 -38.44112 -38.43937 -38.43687
  Beta  occ. eigenvalues --  -38.43358 -38.43131  -2.20481  -2.20383  -2.19936
  Beta  occ. eigenvalues --   -2.19884  -2.19507  -2.19188  -2.18979  -1.14176
  Beta  occ. eigenvalues --   -1.14144  -1.14103  -1.14069  -1.14043  -1.14005
  Beta  occ. eigenvalues --   -1.13705  -1.13623  -1.13577  -1.13549  -1.13536
  Beta  occ. eigenvalues --   -1.13526  -1.13204  -1.13184  -1.13132  -1.12910
  Beta  occ. eigenvalues --   -1.12840  -1.12829  -1.12714  -1.12608  -1.12588
  Beta  occ. eigenvalues --   -0.17314  -0.13264  -0.11385
  Beta virt. eigenvalues --   -0.06882  -0.06443  -0.05516  -0.03694  -0.02914
  Beta virt. eigenvalues --   -0.02529  -0.02094  -0.01523  -0.01069  -0.00577
  Beta virt. eigenvalues --   -0.00127   0.00052   0.00236   0.00417   0.00638

 Mulliken charges and spin densities:
               1          2
     1  Na  -1.184818  -0.141897
     2  Na   0.026673   0.277652
     3  Na   0.360711   0.260362
     4  Na   0.591739   0.307699
     5  Na  -0.015426   0.067966
     6  Na   0.165073   0.112113
     7  Na   0.056048   0.116105
 Sum of Mulliken charges =  -0.00000   1.00000

 Dipole moment (field-independent basis, Debye):
    X=             -0.1512    Y=              0.0152    Z=              0.4944  Tot=              0.5172
 Quadrupole moment (field-independent basis, Debye-Ang):
   XX=            -57.2469   YY=            -68.0036   ZZ=            -69.5389
   XY=             -1.1867   XZ=             -0.4790   YZ=              0.6453

 Normal termination of Gaussian 16 at Tue Dec  5 10:32:14 2023.
