 Gaussian 16, Revision B.01,
 Gaussian 16:  ES64L-G16RevB.01 20-Dec-2017

 -------------------------
 #P B3LYP/6-311+g(d) force
 -------------------------

 -----
 DPGEN
 -----
 Symbolic Z-matrix:
 Charge =  0 Multiplicity = 2

                         Standard orientation:
 ---------------------------------------------------------------------
 Center     Atomic      Atomic             Coordinates (Angstroms)
 Number     Number       Type             X           Y           Z
 ---------------------------------------------------------------------
      1         11           0        2.147842    1.776503   -1.093771
      2         11           0       -3.757380    0.285439   -0.229129
      3         11           0       -0.315922    3.042881    0.859834
      4         11           0        2.119129   -0.125486    1.576013
      5         11           0       -1.286478   -0.624769   -1.796842
      6         11           0        2.253286   -2.159799   -0.907434
      7         11           0       -1.160477   -2.194770    1.591329
 ---------------------------------------------------------------------

 SCF Done:  E(UB3LYP) =  -1136.12384823     A.U. after   20 cycles

 The electronic state is 2-A.
 Alpha  occ. eigenvalues --  -38.44480 -38.44457 -38.44155 -38.44015 -38.43909
 Alpha  occ. eigenvalues --  -38.43761 -38.43760  -2.20257  -2.20252  -2.20012
 Alpha  occ. eigenvalues --   -2.19857  -2.19741  -2.19575  -2.19528  -1.13977
 Alpha  occ. eigenvalues --   -1.13928  -1.13909  -1.13896  -1.13889  -1.13863
 Alpha  occ. eigenvalues --   -1.13711  -1.13678  -1.13642  -1.13514  -1.13500
 Alpha  occ. eigenvalues --   -1.13487  -1.13416  -1.13412  -1.13363  -1.13246
 Alpha  occ. eigenvalues --   -1.13229  -1.13210  -1.13200  -1.13185  -1.13158
 Alpha  occ. eigenvalues --   -0.17360  -0.13242  -0.11907  -0.10838
 Alpha virt. eigenvalues --   -0.06071  -0.05329  -0.04897  -0.03672  -0.03228
 Alpha virt. eigenvalues --   -0.02560  -0.01597  -0.00978  -0.00805  -0.00260
 Alpha virt. eigenvalues --   -0.00139   0.00158   0.00444   0.00485   0.00709

  Beta  occ. eigenvalues --  -38.44457 -38.44422 -38.44129 -38.43971 -38.43898
  Beta  occ. eigenvalues --  -38.43751 -38.43746  -2.20255  -2.20148  -2.19965
  Beta  occ. eigenvalues --   -2.19776  -2.19721  -2.19548  -2.19510  -1.13969
  Beta  occ. eigenvalues --   -1.13896  -1.13889  -1.13849  -1.13835  -1.13788
  Beta  occ. eigenvalues --   -1.13675  -1.13637  -1.13609  -1.13459  -1.13444
  Beta  occ. eigenvalues --   -1.13426  -1.13400  -1.13399  -1.13337  -1.13228
  Beta  occ. eigenvalues --   -1.13207  -1.13182  -1.13179  -1.13174  -1.13146
  Beta  occ. eigenvalues --   -0.16714  -0.13100  -0.11699
  Beta virt. eigenvalues --   -0.07190  -0.05901  -0.05171  -0.04351  -0.03338
  Beta virt. eigenvalues --   -0.02684  -0.01819  -0.01508  -0.00915  -0.00583
  Beta virt. eigenvalues --   -0.00118   0.00003   0.00301   0.00511   0.00619

 Mulliken charges and spin densities:
               1          2
     1  Na   0.074281   0.161819
     2  Na   0.293365   0.016518
     3  Na  -0.269717  -0.025963
     4  Na   0.122307   0.335501
     5  Na  -0.392855   0.198182
     6  Na   0.330481   0.054674
     7  Na  -0.157862   0.259269
 Sum of Mulliken charges =  -0.00000   1.00000

 Dipole moment (field-independent basis, Debye):
    X=             -0.4713    Y=             -0.0986    Z=              0.1272  Tot=              0.4980
 Quadrupole moment (field-independent basis, Debye-Ang):
   XX=            -58.3449   YY=            -69.6955   ZZ=            -69.0050
   XY=             -2.3284   XZ=             -3.7063   YZ=              0.3813

 Normal termination of Gaussian 16 at Sun Dec  3 12:50:15 2023.
