 Gaussian 16, Revision B.01,
 Gaussian 16:  ES64L-G16RevB.01 20-Dec-2017

 -------------------------
 #P B3LYP/6-311+g(d) force
 -------------------------

 -----
 DPGEN
 -----
 Symbolic Z-matrix:
 Charge =  0 Multiplicity = 2

                         Standard orientation:
 ---------------------------------------------------------------------
 Center     Atomic      Atomic             Coordinates (Angstroms)
 Number     Number       Type             X           Y           Z
 ---------------------------------------------------------------------
      1         11           0        0.128201    0.070675   -1.612471
      2         11           0       -3.079676    0.401641   -0.140416
      3         11           0        0.313205   -0.391392    2.090542
      4         11           0        2.465515    1.713296   -0.519933
      5         11           0        2.478725   -2.066081    0.073211
      6         11           0       -1.621600   -2.596588   -0.314322
      7         11           0       -0.684371    2.868449    0.423390
 ---------------------------------------------------------------------

 SCF Done:  E(UB3LYP) =  -1136.13748198     A.U. after   19 cycles

 The electronic state is 2-A.
 Alpha  occ. eigenvalues --  -38.43951 -38.43788 -38.43757 -38.43736 -38.43724
 Alpha  occ. eigenvalues --  -38.43322 -38.43250  -2.19759  -2.19650  -2.19624
 Alpha  occ. eigenvalues --   -2.19564  -2.19560  -2.19226  -2.19163  -1.13446
 Alpha  occ. eigenvalues --   -1.13422  -1.13399  -1.13389  -1.13297  -1.13285
 Alpha  occ. eigenvalues --   -1.13270  -1.13261  -1.13253  -1.13243  -1.13239
 Alpha  occ. eigenvalues --   -1.13231  -1.13217  -1.13205  -1.13162  -1.12905
 Alpha  occ. eigenvalues --   -1.12864  -1.12853  -1.12829  -1.12815  -1.12803
 Alpha  occ. eigenvalues --   -0.18440  -0.12917  -0.12484  -0.10809
 Alpha virt. eigenvalues --   -0.05581  -0.05157  -0.04796  -0.03135  -0.03061
 Alpha virt. eigenvalues --   -0.02597  -0.01430  -0.01261  -0.00423  -0.00351
 Alpha virt. eigenvalues --   -0.00009   0.00350   0.00814   0.00852   0.00881

  Beta  occ. eigenvalues --  -38.43948 -38.43772 -38.43729 -38.43723 -38.43665
  Beta  occ. eigenvalues --  -38.43313 -38.43190  -2.19757  -2.19623  -2.19560
  Beta  occ. eigenvalues --   -2.19554  -2.19452  -2.19150  -2.19117  -1.13431
  Beta  occ. eigenvalues --   -1.13412  -1.13395  -1.13360  -1.13270  -1.13264
  Beta  occ. eigenvalues --   -1.13247  -1.13235  -1.13221  -1.13206  -1.13200
  Beta  occ. eigenvalues --   -1.13169  -1.13157  -1.13134  -1.13113  -1.12841
  Beta  occ. eigenvalues --   -1.12815  -1.12807  -1.12790  -1.12777  -1.12760
  Beta  occ. eigenvalues --   -0.17740  -0.12651  -0.12253
  Beta virt. eigenvalues --   -0.06936  -0.05561  -0.05081  -0.04730  -0.02394
  Beta virt. eigenvalues --   -0.02306  -0.01585  -0.01337  -0.01164  -0.00460
  Beta virt. eigenvalues --   -0.00368   0.00127   0.00386   0.00829   0.00884

 Mulliken charges and spin densities:
               1          2
     1  Na  -0.116809   0.326407
     2  Na   0.012965  -0.010255
     3  Na  -0.447059   0.735477
     4  Na   0.274701   0.030170
     5  Na   0.116365  -0.090451
     6  Na   0.124056  -0.069100
     7  Na   0.035781   0.077752
 Sum of Mulliken charges =  -0.00000   1.00000

 Dipole moment (field-independent basis, Debye):
    X=              0.1680    Y=             -0.2504    Z=              0.1323  Tot=              0.3293
 Quadrupole moment (field-independent basis, Debye-Ang):
   XX=            -58.3967   YY=            -61.2598   ZZ=            -74.1166
   XY=             -0.5417   XZ=             -0.6595   YZ=              1.1281

 Normal termination of Gaussian 16 at Thu Dec  7 22:12:52 2023.
