 Gaussian 16, Revision B.01,
 Gaussian 16:  ES64L-G16RevB.01 20-Dec-2017

 -------------------------
 #P B3LYP/6-311+g(d) force
 -------------------------

 -----
 DPGEN
 -----
 Symbolic Z-matrix:
 Charge =  0 Multiplicity = 2

                         Standard orientation:
 ---------------------------------------------------------------------
 Center     Atomic      Atomic             Coordinates (Angstroms)
 Number     Number       Type             X           Y           Z
 ---------------------------------------------------------------------
      1         11           0       -2.037149   -2.160166    0.072333
      2         11           0        0.030721    0.285620    1.736961
      3         11           0       -3.141057    1.169588    0.057835
      4         11           0       -0.556214   -0.184659   -1.722800
      5         11           0        0.807682    3.001187   -0.029152
      6         11           0        3.135915    0.330170   -0.331676
      7         11           0        1.760103   -2.441739    0.216499
 ---------------------------------------------------------------------

 SCF Done:  E(UB3LYP) =  -1136.13432663     A.U. after   21 cycles

 The electronic state is 2-A.
 Alpha  occ. eigenvalues --  -38.44693 -38.44153 -38.43858 -38.43466 -38.43348
 Alpha  occ. eigenvalues --  -38.43347 -38.43043  -2.20499  -2.19995  -2.19732
 Alpha  occ. eigenvalues --   -2.19292  -2.19279  -2.19199  -2.18978  -1.14176
 Alpha  occ. eigenvalues --   -1.14156  -1.14138  -1.13683  -1.13656  -1.13632
 Alpha  occ. eigenvalues --   -1.13473  -1.13388  -1.13343  -1.12977  -1.12968
 Alpha  occ. eigenvalues --   -1.12945  -1.12919  -1.12914  -1.12901  -1.12876
 Alpha  occ. eigenvalues --   -1.12859  -1.12836  -1.12663  -1.12602  -1.12595
 Alpha  occ. eigenvalues --   -0.18548  -0.13402  -0.12216  -0.10299
 Alpha virt. eigenvalues --   -0.06153  -0.05311  -0.04610  -0.03286  -0.02641
 Alpha virt. eigenvalues --   -0.02153  -0.01858  -0.01189  -0.00598  -0.00415
 Alpha virt. eigenvalues --    0.00006   0.00346   0.00763   0.00819   0.00874

  Beta  occ. eigenvalues --  -38.44689 -38.44147 -38.43849 -38.43464 -38.43343
  Beta  occ. eigenvalues --  -38.43278 -38.42965  -2.20496  -2.19985  -2.19721
  Beta  occ. eigenvalues --   -2.19280  -2.19195  -2.19163  -2.18836  -1.14160
  Beta  occ. eigenvalues --   -1.14151  -1.14132  -1.13679  -1.13632  -1.13628
  Beta  occ. eigenvalues --   -1.13457  -1.13357  -1.13337  -1.12963  -1.12929
  Beta  occ. eigenvalues --   -1.12917  -1.12889  -1.12876  -1.12840  -1.12832
  Beta  occ. eigenvalues --   -1.12828  -1.12802  -1.12567  -1.12498  -1.12492
  Beta  occ. eigenvalues --   -0.17839  -0.13175  -0.11984
  Beta virt. eigenvalues --   -0.06465  -0.06113  -0.05249  -0.04597  -0.02500
  Beta virt. eigenvalues --   -0.01914  -0.01771  -0.01177  -0.01107  -0.00625
  Beta virt. eigenvalues --   -0.00462   0.00151   0.00377   0.00787   0.00860

 Mulliken charges and spin densities:
               1          2
     1  Na   0.298214  -0.034856
     2  Na  -0.209042   0.686515
     3  Na   0.096774  -0.154308
     4  Na  -0.256529   0.650685
     5  Na  -0.007691  -0.137201
     6  Na  -0.002037   0.021337
     7  Na   0.080311  -0.032173
 Sum of Mulliken charges =  -0.00000   1.00000

 Dipole moment (field-independent basis, Debye):
    X=             -0.5116    Y=              0.2018    Z=             -0.0016  Tot=              0.5500
 Quadrupole moment (field-independent basis, Debye-Ang):
   XX=            -53.2810   YY=            -62.3753   ZZ=            -76.6247
   XY=             -0.7632   XZ=             -1.5200   YZ=             -1.2619

 Normal termination of Gaussian 16 at Sat Dec  9 06:14:15 2023.
