 Gaussian 16, Revision B.01,
 Gaussian 16:  ES64L-G16RevB.01 20-Dec-2017

 -------------------------
 #P B3LYP/6-311+g(d) force
 -------------------------

 -----
 DPGEN
 -----
 Symbolic Z-matrix:
 Charge =  0 Multiplicity = 2

                         Standard orientation:
 ---------------------------------------------------------------------
 Center     Atomic      Atomic             Coordinates (Angstroms)
 Number     Number       Type             X           Y           Z
 ---------------------------------------------------------------------
      1         11           0       -2.458322   -1.831814    0.019019
      2         11           0        1.196700    2.468089    0.307377
      3         11           0        1.449565   -2.233455    0.276634
      4         11           0       -3.326423    1.486582   -0.256280
      5         11           0       -0.103518    0.052841    1.926855
      6         11           0        3.377005    0.210437   -0.478947
      7         11           0       -0.135007   -0.152680   -1.794658
 ---------------------------------------------------------------------

 SCF Done:  E(UB3LYP) =  -1136.12800102     A.U. after   22 cycles

 The electronic state is 2-A.
 Alpha  occ. eigenvalues --  -38.44724 -38.44664 -38.44126 -38.44011 -38.43536
 Alpha  occ. eigenvalues --  -38.42963 -38.42821  -2.20520  -2.20489  -2.20025
 Alpha  occ. eigenvalues --   -2.19851  -2.19478  -2.18833  -2.18727  -1.14191
 Alpha  occ. eigenvalues --   -1.14171  -1.14169  -1.14165  -1.14149  -1.14127
 Alpha  occ. eigenvalues --   -1.13724  -1.13674  -1.13643  -1.13531  -1.13517
 Alpha  occ. eigenvalues --   -1.13468  -1.13159  -1.13117  -1.13090  -1.12522
 Alpha  occ. eigenvalues --   -1.12489  -1.12463  -1.12415  -1.12390  -1.12356
 Alpha  occ. eigenvalues --   -0.18643  -0.13684  -0.11577  -0.10913
 Alpha virt. eigenvalues --   -0.06566  -0.05438  -0.03781  -0.03437  -0.02699
 Alpha virt. eigenvalues --   -0.02565  -0.02234  -0.01280  -0.00415  -0.00091
 Alpha virt. eigenvalues --   -0.00023   0.00265   0.00644   0.00677   0.00822

  Beta  occ. eigenvalues --  -38.44724 -38.44652 -38.44069 -38.44007 -38.43437
  Beta  occ. eigenvalues --  -38.42952 -38.42810  -2.20499  -2.20490  -2.19920
  Beta  occ. eigenvalues --   -2.19846  -2.19296  -2.18817  -2.18713  -1.14179
  Beta  occ. eigenvalues --   -1.14163  -1.14158  -1.14143  -1.14139  -1.14129
  Beta  occ. eigenvalues --   -1.13654  -1.13605  -1.13567  -1.13513  -1.13504
  Beta  occ. eigenvalues --   -1.13462  -1.13041  -1.12979  -1.12965  -1.12506
  Beta  occ. eigenvalues --   -1.12458  -1.12453  -1.12408  -1.12358  -1.12336
  Beta  occ. eigenvalues --   -0.17905  -0.13448  -0.11310
  Beta virt. eigenvalues --   -0.07064  -0.06408  -0.05440  -0.03640  -0.02844
  Beta virt. eigenvalues --   -0.02148  -0.01835  -0.01566  -0.01248  -0.00415
  Beta virt. eigenvalues --   -0.00042   0.00047   0.00299   0.00728   0.00817

 Mulliken charges and spin densities:
               1          2
     1  Na   0.190401  -0.047612
     2  Na   0.056884  -0.045857
     3  Na   0.184551   0.040512
     4  Na  -0.087565  -0.076098
     5  Na  -0.154123   0.537473
     6  Na   0.109492   0.100750
     7  Na  -0.299640   0.490831
 Sum of Mulliken charges =  -0.00000   1.00000

 Dipole moment (field-independent basis, Debye):
    X=             -0.4555    Y=              0.0072    Z=             -0.2281  Tot=              0.5094
 Quadrupole moment (field-independent basis, Debye-Ang):
   XX=            -50.2573   YY=            -70.0298   ZZ=            -73.2301
   XY=             -0.7442   XZ=             -0.9144   YZ=             -0.8860

 Normal termination of Gaussian 16 at Thu Dec  7 01:40:54 2023.
