 Gaussian 16, Revision B.01,
 Gaussian 16:  ES64L-G16RevB.01 20-Dec-2017

 -------------------------
 #P B3LYP/6-311+g(d) force
 -------------------------

 -----
 DPGEN
 -----
 Symbolic Z-matrix:
 Charge =  0 Multiplicity = 2

                         Standard orientation:
 ---------------------------------------------------------------------
 Center     Atomic      Atomic             Coordinates (Angstroms)
 Number     Number       Type             X           Y           Z
 ---------------------------------------------------------------------
      1         11           0        2.743722   -2.200877    0.362500
      2         11           0       -4.044075   -1.611611   -0.586506
      3         11           0       -0.109034    2.785711   -0.418781
      4         11           0       -2.794388    1.014663    0.695722
      5         11           0        3.528255    0.746836   -0.849743
      6         11           0       -0.034958   -0.734063   -1.293174
      7         11           0        0.710478   -0.000659    2.089982
 ---------------------------------------------------------------------

 SCF Done:  E(UB3LYP) =  -1136.12130266     A.U. after   23 cycles

 The electronic state is 2-A.
 Alpha  occ. eigenvalues --  -38.45493 -38.45184 -38.44132 -38.44025 -38.43903
 Alpha  occ. eigenvalues --  -38.43393 -38.42696  -2.21305  -2.20993  -2.19994
 Alpha  occ. eigenvalues --   -2.19883  -2.19756  -2.19187  -2.18520  -1.15028
 Alpha  occ. eigenvalues --   -1.14973  -1.14905  -1.14660  -1.14633  -1.14620
 Alpha  occ. eigenvalues --   -1.13673  -1.13638  -1.13589  -1.13573  -1.13556
 Alpha  occ. eigenvalues --   -1.13515  -1.13427  -1.13406  -1.13403  -1.12863
 Alpha  occ. eigenvalues --   -1.12845  -1.12820  -1.12204  -1.12176  -1.12163
 Alpha  occ. eigenvalues --   -0.17982  -0.13950  -0.11326  -0.10823
 Alpha virt. eigenvalues --   -0.07075  -0.05578  -0.04538  -0.03187  -0.02894
 Alpha virt. eigenvalues --   -0.02501  -0.02333  -0.01392  -0.00832  -0.00500
 Alpha virt. eigenvalues --   -0.00177   0.00039   0.00363   0.00507   0.00685

  Beta  occ. eigenvalues --  -38.45478 -38.45133 -38.44035 -38.44025 -38.43890
  Beta  occ. eigenvalues --  -38.43390 -38.42696  -2.21278  -2.20898  -2.19884
  Beta  occ. eigenvalues --   -2.19815  -2.19737  -2.19183  -2.18522  -1.14990
  Beta  occ. eigenvalues --   -1.14955  -1.14886  -1.14586  -1.14570  -1.14555
  Beta  occ. eigenvalues --   -1.13571  -1.13559  -1.13551  -1.13521  -1.13513
  Beta  occ. eigenvalues --   -1.13455  -1.13417  -1.13394  -1.13356  -1.12862
  Beta  occ. eigenvalues --   -1.12840  -1.12816  -1.12206  -1.12177  -1.12154
  Beta  occ. eigenvalues --   -0.17315  -0.13747  -0.11100
  Beta virt. eigenvalues --   -0.07127  -0.06786  -0.05398  -0.04103  -0.02924
  Beta virt. eigenvalues --   -0.02650  -0.01929  -0.01676  -0.01212  -0.00609
  Beta virt. eigenvalues --   -0.00344  -0.00106   0.00132   0.00472   0.00610

 Mulliken charges and spin densities:
               1          2
     1  Na   0.494268   0.082386
     2  Na   0.081138  -0.012575
     3  Na  -0.175308  -0.030964
     4  Na   0.283632  -0.006465
     5  Na   0.054366   0.263106
     6  Na  -0.514240   0.272458
     7  Na  -0.223855   0.432054
 Sum of Mulliken charges =  -0.00000   1.00000

 Dipole moment (field-independent basis, Debye):
    X=              1.2485    Y=              0.0504    Z=              0.1393  Tot=              1.2572
 Quadrupole moment (field-independent basis, Debye-Ang):
   XX=            -58.4226   YY=            -69.1691   ZZ=            -71.3592
   XY=             -1.2599   XZ=             -0.9925   YZ=              1.0771

 Normal termination of Gaussian 16 at Thu Dec  7 10:10:05 2023.
