 Gaussian 16, Revision B.01,
 Gaussian 16:  ES64L-G16RevB.01 20-Dec-2017

 -------------------------
 #P B3LYP/6-311+g(d) force
 -------------------------

 -----
 DPGEN
 -----
 Symbolic Z-matrix:
 Charge =  0 Multiplicity = 2

                         Standard orientation:
 ---------------------------------------------------------------------
 Center     Atomic      Atomic             Coordinates (Angstroms)
 Number     Number       Type             X           Y           Z
 ---------------------------------------------------------------------
      1         11           0       -0.565654    0.661579    1.161449
      2         11           0       -2.219296    3.302558   -0.225580
      3         11           0       -4.100602   -0.003067   -0.584613
      4         11           0        0.132115   -1.489066   -1.287592
      5         11           0        3.038234    0.156452    1.196995
      6         11           0       -1.746279   -3.020030    0.594355
      7         11           0        5.461482    0.391574   -0.855015
 ---------------------------------------------------------------------

 SCF Done:  E(UB3LYP) =  -1136.11545980     A.U. after   19 cycles

 The electronic state is 2-A.
 Alpha  occ. eigenvalues --  -38.45260 -38.44765 -38.44096 -38.43860 -38.43755
 Alpha  occ. eigenvalues --  -38.43744 -38.43568  -2.21096  -2.20539  -2.19921
 Alpha  occ. eigenvalues --   -2.19673  -2.19639  -2.19516  -2.19372  -1.14775
 Alpha  occ. eigenvalues --   -1.14773  -1.14713  -1.14221  -1.14180  -1.14137
 Alpha  occ. eigenvalues --   -1.13599  -1.13575  -1.13555  -1.13348  -1.13331
 Alpha  occ. eigenvalues --   -1.13308  -1.13307  -1.13288  -1.13261  -1.13191
 Alpha  occ. eigenvalues --   -1.13173  -1.13144  -1.13046  -1.13041  -1.13019
 Alpha  occ. eigenvalues --   -0.17084  -0.13502  -0.12033  -0.10735
 Alpha virt. eigenvalues --   -0.06483  -0.05782  -0.04626  -0.03550  -0.02719
 Alpha virt. eigenvalues --   -0.02311  -0.01985  -0.01463  -0.01260  -0.00800
 Alpha virt. eigenvalues --   -0.00453  -0.00020   0.00266   0.00419   0.00620

  Beta  occ. eigenvalues --  -38.45254 -38.44695 -38.44092 -38.43780 -38.43751
  Beta  occ. eigenvalues --  -38.43704 -38.43574  -2.21086  -2.20408  -2.19914
  Beta  occ. eigenvalues --   -2.19546  -2.19529  -2.19524  -2.19389  -1.14770
  Beta  occ. eigenvalues --   -1.14765  -1.14699  -1.14133  -1.14093  -1.14043
  Beta  occ. eigenvalues --   -1.13597  -1.13570  -1.13538  -1.13287  -1.13241
  Beta  occ. eigenvalues --   -1.13228  -1.13208  -1.13206  -1.13205  -1.13201
  Beta  occ. eigenvalues --   -1.13160  -1.13139  -1.13064  -1.13055  -1.12976
  Beta  occ. eigenvalues --   -0.16523  -0.12740  -0.11943
  Beta virt. eigenvalues --   -0.07371  -0.06259  -0.05306  -0.04305  -0.03217
  Beta virt. eigenvalues --   -0.02422  -0.02228  -0.01469  -0.01269  -0.01017
  Beta virt. eigenvalues --   -0.00660  -0.00131   0.00148   0.00410   0.00514

 Mulliken charges and spin densities:
               1          2
     1  Na  -0.550719   0.194868
     2  Na   0.338953  -0.070883
     3  Na   0.139442   0.440737
     4  Na  -0.038080  -0.076687
     5  Na  -0.159284  -0.012222
     6  Na   0.236614   0.133847
     7  Na   0.033074   0.390340
 Sum of Mulliken charges =  -0.00000   1.00000

 Dipole moment (field-independent basis, Debye):
    X=             -0.9697    Y=             -0.6964    Z=             -0.6124  Tot=              1.3417
 Quadrupole moment (field-independent basis, Debye-Ang):
   XX=            -72.2891   YY=            -67.8999   ZZ=            -63.0161
   XY=              1.1514   XZ=             -3.5130   YZ=             -3.3423

 Normal termination of Gaussian 16 at Tue Nov 28 23:20:58 2023.
