 Gaussian 16, Revision B.01,
 Gaussian 16:  ES64L-G16RevB.01 20-Dec-2017

 -------------------------
 #P B3LYP/6-311+g(d) force
 -------------------------

 -----
 DPGEN
 -----
 Symbolic Z-matrix:
 Charge =  0 Multiplicity = 2

                         Standard orientation:
 ---------------------------------------------------------------------
 Center     Atomic      Atomic             Coordinates (Angstroms)
 Number     Number       Type             X           Y           Z
 ---------------------------------------------------------------------
      1         11           0       -1.300736    2.451304   -0.696458
      2         11           0        2.971408   -2.083791    0.373573
      3         11           0        2.671001    2.177533    0.588903
      4         11           0       -0.229306    0.022167    2.723765
      5         11           0        1.041480   -0.014374   -2.691856
      6         11           0       -1.191205   -2.356839   -0.484006
      7         11           0       -3.962643   -0.196000    0.186080
 ---------------------------------------------------------------------

 SCF Done:  E(UB3LYP) =  -1136.10954614     A.U. after   25 cycles

 The electronic state is 2-A.
 Alpha  occ. eigenvalues --  -38.46039 -38.45397 -38.44491 -38.44478 -38.44421
 Alpha  occ. eigenvalues --  -38.43833 -38.43687  -2.21778  -2.21160  -2.20208
 Alpha  occ. eigenvalues --   -2.20191  -2.20174  -2.19579  -2.19449  -1.15426
 Alpha  occ. eigenvalues --   -1.15413  -1.15396  -1.14824  -1.14790  -1.14773
 Alpha  occ. eigenvalues --   -1.13886  -1.13871  -1.13869  -1.13856  -1.13854
 Alpha  occ. eigenvalues --   -1.13849  -1.13838  -1.13832  -1.13818  -1.13268
 Alpha  occ. eigenvalues --   -1.13251  -1.13200  -1.13142  -1.13133  -1.13063
 Alpha  occ. eigenvalues --   -0.16592  -0.12444  -0.11796  -0.11118
 Alpha virt. eigenvalues --   -0.06643  -0.05767  -0.05012  -0.03475  -0.03233
 Alpha virt. eigenvalues --   -0.03159  -0.01886  -0.01371  -0.00749  -0.00674
 Alpha virt. eigenvalues --   -0.00229  -0.00073   0.00176   0.00378   0.00581

  Beta  occ. eigenvalues --  -38.45947 -38.45311 -38.44497 -38.44487 -38.44424
  Beta  occ. eigenvalues --  -38.43821 -38.43681  -2.21606  -2.20999  -2.20220
  Beta  occ. eigenvalues --   -2.20209  -2.20179  -2.19557  -2.19439  -1.15311
  Beta  occ. eigenvalues --   -1.15294  -1.15272  -1.14712  -1.14683  -1.14656
  Beta  occ. eigenvalues --   -1.13885  -1.13880  -1.13875  -1.13867  -1.13864
  Beta  occ. eigenvalues --   -1.13850  -1.13849  -1.13835  -1.13822  -1.13246
  Beta  occ. eigenvalues --   -1.13231  -1.13188  -1.13130  -1.13117  -1.13058
  Beta  occ. eigenvalues --   -0.15807  -0.12396  -0.11021
  Beta virt. eigenvalues --   -0.07942  -0.06135  -0.05805  -0.04391  -0.02996
  Beta virt. eigenvalues --   -0.02761  -0.02526  -0.01809  -0.01289  -0.00680
  Beta virt. eigenvalues --   -0.00247  -0.00103  -0.00025   0.00358   0.00447

 Mulliken charges and spin densities:
               1          2
     1  Na  -0.103223   0.075618
     2  Na   0.084771  -0.093817
     3  Na   0.031494  -0.067211
     4  Na  -0.191002   0.618248
     5  Na   0.044546   0.476449
     6  Na  -0.090150   0.052753
     7  Na   0.223563  -0.062040
 Sum of Mulliken charges =  -0.00000   1.00000

 Dipole moment (field-independent basis, Debye):
    X=              0.0894    Y=              0.0352    Z=              0.3615  Tot=              0.3740
 Quadrupole moment (field-independent basis, Debye-Ang):
   XX=            -57.4185   YY=            -76.2212   ZZ=            -64.5766
   XY=             -0.1794   XZ=             -0.3118   YZ=             -0.5982

 Normal termination of Gaussian 16 at Mon Dec  4 03:13:34 2023.
