 Gaussian 16, Revision B.01,
 Gaussian 16:  ES64L-G16RevB.01 20-Dec-2017

 -------------------------
 #P B3LYP/6-311+g(d) force
 -------------------------

 -----
 DPGEN
 -----
 Symbolic Z-matrix:
 Charge =  0 Multiplicity = 2

                         Standard orientation:
 ---------------------------------------------------------------------
 Center     Atomic      Atomic             Coordinates (Angstroms)
 Number     Number       Type             X           Y           Z
 ---------------------------------------------------------------------
      1         11           0       -0.296157   -0.412545    1.905478
      2         11           0       -0.170667    0.314232   -1.687982
      3         11           0       -2.808913   -1.340207    0.020079
      4         11           0        2.983400   -0.607625   -0.081558
      5         11           0       -2.046416    2.042384   -0.150445
      6         11           0        1.599243    2.508337    0.316618
      7         11           0        0.739511   -2.504575   -0.322190
 ---------------------------------------------------------------------

 SCF Done:  E(UB3LYP) =  -1136.13457441     A.U. after   20 cycles

 The electronic state is 2-A.
 Alpha  occ. eigenvalues --  -38.43916 -38.43909 -38.43737 -38.43447 -38.43429
 Alpha  occ. eigenvalues --  -38.43226 -38.43166  -2.19803  -2.19768  -2.19626
 Alpha  occ. eigenvalues --   -2.19391  -2.19263  -2.19238  -2.19114  -1.13541
 Alpha  occ. eigenvalues --   -1.13458  -1.13447  -1.13442  -1.13434  -1.13411
 Alpha  occ. eigenvalues --   -1.13388  -1.13276  -1.13226  -1.13081  -1.13025
 Alpha  occ. eigenvalues --   -1.13003  -1.12945  -1.12928  -1.12919  -1.12903
 Alpha  occ. eigenvalues --   -1.12882  -1.12829  -1.12777  -1.12752  -1.12730
 Alpha  occ. eigenvalues --   -0.19124  -0.13341  -0.12479  -0.10853
 Alpha virt. eigenvalues --   -0.05512  -0.05335  -0.04391  -0.03305  -0.02941
 Alpha virt. eigenvalues --   -0.02457  -0.01513  -0.01056  -0.00210  -0.00078
 Alpha virt. eigenvalues --    0.00004   0.00356   0.00810   0.00900   0.00942

  Beta  occ. eigenvalues --  -38.43913 -38.43904 -38.43728 -38.43423 -38.43363
  Beta  occ. eigenvalues --  -38.43154 -38.43152  -2.19801  -2.19762  -2.19614
  Beta  occ. eigenvalues --   -2.19255  -2.19236  -2.19108  -2.19095  -1.13541
  Beta  occ. eigenvalues --   -1.13449  -1.13445  -1.13422  -1.13411  -1.13405
  Beta  occ. eigenvalues --   -1.13368  -1.13248  -1.13223  -1.12984  -1.12936
  Beta  occ. eigenvalues --   -1.12920  -1.12907  -1.12897  -1.12885  -1.12843
  Beta  occ. eigenvalues --   -1.12799  -1.12754  -1.12742  -1.12715  -1.12694
  Beta  occ. eigenvalues --   -0.18387  -0.13074  -0.12230
  Beta virt. eigenvalues --   -0.06929  -0.05465  -0.05314  -0.04369  -0.02483
  Beta virt. eigenvalues --   -0.02165  -0.01437  -0.01402  -0.00994  -0.00252
  Beta virt. eigenvalues --   -0.00114   0.00134   0.00379   0.00866   0.00896

 Mulliken charges and spin densities:
               1          2
     1  Na  -0.581075   0.765487
     2  Na  -0.315146   0.482364
     3  Na   0.349616  -0.071590
     4  Na  -0.071644  -0.056724
     5  Na   0.195901  -0.073054
     6  Na   0.019599  -0.029885
     7  Na   0.402749  -0.016597
 Sum of Mulliken charges =  -0.00000   1.00000

 Dipole moment (field-independent basis, Debye):
    X=             -0.2409    Y=              0.0859    Z=              0.1528  Tot=              0.2979
 Quadrupole moment (field-independent basis, Debye-Ang):
   XX=            -55.7512   YY=            -64.3876   ZZ=            -73.8115
   XY=              0.8202   XZ=              0.3893   YZ=              1.5797

 Normal termination of Gaussian 16 at Thu Dec  7 15:31:55 2023.
