 Gaussian 16, Revision B.01,
 Gaussian 16:  ES64L-G16RevB.01 20-Dec-2017

 -------------------------
 #P B3LYP/6-311+g(d) force
 -------------------------

 -----
 DPGEN
 -----
 Symbolic Z-matrix:
 Charge =  0 Multiplicity = 2

                         Standard orientation:
 ---------------------------------------------------------------------
 Center     Atomic      Atomic             Coordinates (Angstroms)
 Number     Number       Type             X           Y           Z
 ---------------------------------------------------------------------
      1         11           0        2.408996   -1.724088   -0.007647
      2         11           0       -0.854384    2.823641   -0.104856
      3         11           0       -0.444857    0.006219    2.002167
      4         11           0       -0.948198   -2.529070    0.035088
      5         11           0        0.362020   -0.003364   -1.796524
      6         11           0        2.478988    1.542513    0.203984
      7         11           0       -3.002565   -0.115851   -0.332212
 ---------------------------------------------------------------------

 SCF Done:  E(UB3LYP) =  -1136.13978310     A.U. after   18 cycles

 The electronic state is 2-A.
 Alpha  occ. eigenvalues --  -38.43845 -38.43678 -38.43590 -38.43460 -38.43350
 Alpha  occ. eigenvalues --  -38.43326 -38.43115  -2.19712  -2.19548  -2.19513
 Alpha  occ. eigenvalues --   -2.19345  -2.19326  -2.19166  -2.19038  -1.13399
 Alpha  occ. eigenvalues --   -1.13375  -1.13352  -1.13254  -1.13219  -1.13190
 Alpha  occ. eigenvalues --   -1.13186  -1.13144  -1.13128  -1.13075  -1.13000
 Alpha  occ. eigenvalues --   -1.12985  -1.12980  -1.12955  -1.12924  -1.12836
 Alpha  occ. eigenvalues --   -1.12830  -1.12799  -1.12715  -1.12698  -1.12661
 Alpha  occ. eigenvalues --   -0.19022  -0.13145  -0.12523  -0.10998
 Alpha virt. eigenvalues --   -0.05413  -0.05012  -0.04624  -0.03374  -0.02980
 Alpha virt. eigenvalues --   -0.02680  -0.01315  -0.00994  -0.00183  -0.00101
 Alpha virt. eigenvalues --   -0.00017   0.00384   0.00851   0.00929   0.00956

  Beta  occ. eigenvalues --  -38.43838 -38.43673 -38.43502 -38.43457 -38.43323
  Beta  occ. eigenvalues --  -38.43277 -38.43106  -2.19701  -2.19542  -2.19352
  Beta  occ. eigenvalues --   -2.19340  -2.19194  -2.19162  -2.19027  -1.13394
  Beta  occ. eigenvalues --   -1.13351  -1.13338  -1.13247  -1.13197  -1.13179
  Beta  occ. eigenvalues --   -1.13086  -1.13047  -1.13030  -1.13015  -1.12983
  Beta  occ. eigenvalues --   -1.12972  -1.12910  -1.12870  -1.12846  -1.12820
  Beta  occ. eigenvalues --   -1.12805  -1.12800  -1.12708  -1.12663  -1.12648
  Beta  occ. eigenvalues --   -0.18263  -0.12911  -0.12273
  Beta virt. eigenvalues --   -0.07061  -0.05373  -0.05006  -0.04586  -0.02558
  Beta virt. eigenvalues --   -0.02179  -0.01621  -0.01225  -0.00934  -0.00236
  Beta virt. eigenvalues --   -0.00142   0.00114   0.00400   0.00908   0.00918

 Mulliken charges and spin densities:
               1          2
     1  Na   0.250043  -0.037007
     2  Na   0.060791  -0.107996
     3  Na  -0.556732   0.687915
     4  Na   0.357881  -0.008902
     5  Na  -0.389272   0.575106
     6  Na   0.127484  -0.055109
     7  Na   0.149806  -0.054008
 Sum of Mulliken charges =  -0.00000   1.00000

 Dipole moment (field-independent basis, Debye):
    X=             -0.0368    Y=              0.1507    Z=              0.0766  Tot=              0.1730
 Quadrupole moment (field-independent basis, Debye-Ang):
   XX=            -58.3223   YY=            -63.6250   ZZ=            -72.5365
   XY=             -0.4210   XZ=              1.7895   YZ=              0.0042

 Normal termination of Gaussian 16 at Tue Dec  5 23:34:39 2023.
