 Gaussian 16, Revision B.01,
 Gaussian 16:  ES64L-G16RevB.01 20-Dec-2017

 -------------------------
 #P B3LYP/6-311+g(d) force
 -------------------------

 -----
 DPGEN
 -----
 Symbolic Z-matrix:
 Charge =  0 Multiplicity = 2

                         Standard orientation:
 ---------------------------------------------------------------------
 Center     Atomic      Atomic             Coordinates (Angstroms)
 Number     Number       Type             X           Y           Z
 ---------------------------------------------------------------------
      1         11           0       -2.947088   -0.855568   -0.734463
      2         11           0        2.986355   -0.971804    0.438312
      3         11           0       -1.259455   -1.451013    2.380344
      4         11           0       -2.544087    2.384414   -1.119734
      5         11           0        4.326818    1.591393   -0.472660
      6         11           0        0.236809   -2.725213   -1.613894
      7         11           0       -0.799353    2.027792    1.122093
 ---------------------------------------------------------------------

 SCF Done:  E(UB3LYP) =  -1136.10833136     A.U. after   21 cycles

 The electronic state is 2-A.
 Alpha  occ. eigenvalues --  -38.44806 -38.44623 -38.44512 -38.44475 -38.44409
 Alpha  occ. eigenvalues --  -38.43977 -38.43748  -2.20624  -2.20465  -2.20316
 Alpha  occ. eigenvalues --   -2.20227  -2.20198  -2.19782  -2.19633  -1.14318
 Alpha  occ. eigenvalues --   -1.14287  -1.14249  -1.14219  -1.14113  -1.14094
 Alpha  occ. eigenvalues --   -1.13974  -1.13960  -1.13917  -1.13907  -1.13899
 Alpha  occ. eigenvalues --   -1.13879  -1.13848  -1.13848  -1.13841  -1.13450
 Alpha  occ. eigenvalues --   -1.13444  -1.13410  -1.13300  -1.13268  -1.13254
 Alpha  occ. eigenvalues --   -0.16919  -0.13493  -0.11884  -0.11281
 Alpha virt. eigenvalues --   -0.07070  -0.05286  -0.04274  -0.03681  -0.03157
 Alpha virt. eigenvalues --   -0.02801  -0.01935  -0.01493  -0.00826  -0.00783
 Alpha virt. eigenvalues --   -0.00410  -0.00157   0.00354   0.00538   0.00602

  Beta  occ. eigenvalues --  -38.44783 -38.44610 -38.44437 -38.44421 -38.44408
  Beta  occ. eigenvalues --  -38.43978 -38.43728  -2.20585  -2.20442  -2.20196
  Beta  occ. eigenvalues --   -2.20157  -2.20147  -2.19784  -2.19596  -1.14278
  Beta  occ. eigenvalues --   -1.14254  -1.14219  -1.14193  -1.14101  -1.14068
  Beta  occ. eigenvalues --   -1.13907  -1.13861  -1.13849  -1.13847  -1.13842
  Beta  occ. eigenvalues --   -1.13840  -1.13829  -1.13804  -1.13798  -1.13449
  Beta  occ. eigenvalues --   -1.13440  -1.13412  -1.13279  -1.13235  -1.13228
  Beta  occ. eigenvalues --   -0.16242  -0.13343  -0.11729
  Beta virt. eigenvalues --   -0.07409  -0.06891  -0.04961  -0.03913  -0.03280
  Beta virt. eigenvalues --   -0.02928  -0.02013  -0.01834  -0.01307  -0.00727
  Beta virt. eigenvalues --   -0.00627  -0.00146   0.00012   0.00410   0.00633

 Mulliken charges and spin densities:
               1          2
     1  Na   0.103167   0.323252
     2  Na  -0.409419   0.087887
     3  Na  -0.020624   0.410173
     4  Na   0.263617   0.049647
     5  Na   0.245234  -0.062635
     6  Na   0.040671   0.146702
     7  Na  -0.222646   0.044973
 Sum of Mulliken charges =  -0.00000   1.00000

 Dipole moment (field-independent basis, Debye):
    X=             -0.1747    Y=              0.2075    Z=             -0.2883  Tot=              0.3958
 Quadrupole moment (field-independent basis, Debye-Ang):
   XX=            -63.7308   YY=            -67.3555   ZZ=            -69.0366
   XY=              3.6188   XZ=             -0.4301   YZ=             -2.5229

 Normal termination of Gaussian 16 at Mon Dec  4 03:51:04 2023.
