 Gaussian 16, Revision B.01,
 Gaussian 16:  ES64L-G16RevB.01 20-Dec-2017

 -------------------------
 #P B3LYP/6-311+g(d) force
 -------------------------

 -----
 DPGEN
 -----
 Symbolic Z-matrix:
 Charge =  0 Multiplicity = 2

                         Standard orientation:
 ---------------------------------------------------------------------
 Center     Atomic      Atomic             Coordinates (Angstroms)
 Number     Number       Type             X           Y           Z
 ---------------------------------------------------------------------
      1         11           0       -1.909664    1.325043   -0.448267
      2         11           0       -0.741359   -2.139944   -0.035817
      3         11           0        1.599352   -0.592056   -0.943963
      4         11           0        0.755704    3.384249   -0.725566
      5         11           0        2.388453    1.843680    1.534792
      6         11           0        2.255343   -3.283746    0.030320
      7         11           0       -4.347827   -0.537226    0.588503
 ---------------------------------------------------------------------

 SCF Done:  E(UB3LYP) =  -1136.11929737     A.U. after   21 cycles

 The electronic state is 2-A.
 Alpha  occ. eigenvalues --  -38.45110 -38.44768 -38.44673 -38.43824 -38.43349
 Alpha  occ. eigenvalues --  -38.43200 -38.43171  -2.20983  -2.20662  -2.20625
 Alpha  occ. eigenvalues --   -2.19673  -2.19164  -2.19072  -2.19026  -1.14740
 Alpha  occ. eigenvalues --   -1.14649  -1.14609  -1.14524  -1.14340  -1.14281
 Alpha  occ. eigenvalues --   -1.14275  -1.14220  -1.14157  -1.13350  -1.13343
 Alpha  occ. eigenvalues --   -1.13312  -1.12853  -1.12815  -1.12788  -1.12758
 Alpha  occ. eigenvalues --   -1.12751  -1.12672  -1.12664  -1.12663  -1.12648
 Alpha  occ. eigenvalues --   -0.17752  -0.13938  -0.13112  -0.09660
 Alpha virt. eigenvalues --   -0.06434  -0.05745  -0.04875  -0.03438  -0.02765
 Alpha virt. eigenvalues --   -0.02238  -0.01807  -0.01336  -0.01115  -0.00665
 Alpha virt. eigenvalues --    0.00025   0.00150   0.00470   0.00582   0.00600

  Beta  occ. eigenvalues --  -38.45115 -38.44765 -38.44658 -38.43805 -38.43307
  Beta  occ. eigenvalues --  -38.43172 -38.43091  -2.20995  -2.20657  -2.20604
  Beta  occ. eigenvalues --   -2.19643  -2.19084  -2.19026  -2.18878  -1.14746
  Beta  occ. eigenvalues --   -1.14656  -1.14610  -1.14509  -1.14331  -1.14277
  Beta  occ. eigenvalues --   -1.14233  -1.14215  -1.14146  -1.13334  -1.13302
  Beta  occ. eigenvalues --   -1.13276  -1.12800  -1.12760  -1.12739  -1.12728
  Beta  occ. eigenvalues --   -1.12722  -1.12600  -1.12568  -1.12562  -1.12551
  Beta  occ. eigenvalues --   -0.17365  -0.13603  -0.12639
  Beta virt. eigenvalues --   -0.06330  -0.06019  -0.05669  -0.04621  -0.02907
  Beta virt. eigenvalues --   -0.02497  -0.02040  -0.01692  -0.00991  -0.00870
  Beta virt. eigenvalues --   -0.00342   0.00263   0.00341   0.00591   0.00666

 Mulliken charges and spin densities:
               1          2
     1  Na  -1.061761   0.118905
     2  Na  -0.585278  -0.197465
     3  Na  -1.016682   0.631401
     4  Na   0.530702   0.005293
     5  Na   0.006571   0.263642
     6  Na   1.062999  -0.205890
     7  Na   1.063449   0.384115
 Sum of Mulliken charges =  -0.00000   1.00000

 Dipole moment (field-independent basis, Debye):
    X=              0.8580    Y=             -1.6793    Z=             -0.3282  Tot=              1.9141
 Quadrupole moment (field-independent basis, Debye-Ang):
   XX=            -68.2836   YY=            -55.5634   ZZ=            -73.1855
   XY=             -7.1150   XZ=             -3.3367   YZ=             -2.9966

 Normal termination of Gaussian 16 at Wed Nov 29 03:03:17 2023.
