 Gaussian 16, Revision B.01,
 Gaussian 16:  ES64L-G16RevB.01 20-Dec-2017

 -------------------------
 #P B3LYP/6-311+g(d) force
 -------------------------

 -----
 DPGEN
 -----
 Symbolic Z-matrix:
 Charge =  0 Multiplicity = 2

                         Standard orientation:
 ---------------------------------------------------------------------
 Center     Atomic      Atomic             Coordinates (Angstroms)
 Number     Number       Type             X           Y           Z
 ---------------------------------------------------------------------
      1         11           0        4.234175   -0.331007    1.137790
      2         11           0        2.327627   -2.722706   -1.118957
      3         11           0       -1.504707   -1.596863   -1.239691
      4         11           0        2.813897    2.407459    0.410631
      5         11           0       -0.885539    2.429366   -0.906683
      6         11           0       -3.512313   -1.691595    1.883065
      7         11           0       -3.473140    1.505346   -0.166155
 ---------------------------------------------------------------------

 SCF Done:  E(UB3LYP) =  -1136.10629340     A.U. after   21 cycles

 The electronic state is 2-A.
 Alpha  occ. eigenvalues --  -38.45149 -38.44942 -38.44614 -38.44542 -38.44452
 Alpha  occ. eigenvalues --  -38.44382 -38.43675  -2.21007  -2.20691  -2.20405
 Alpha  occ. eigenvalues --   -2.20338  -2.20234  -2.20131  -2.19523  -1.14763
 Alpha  occ. eigenvalues --   -1.14662  -1.14608  -1.14387  -1.14375  -1.14307
 Alpha  occ. eigenvalues --   -1.14109  -1.14071  -1.14038  -1.13984  -1.13979
 Alpha  occ. eigenvalues --   -1.13944  -1.13902  -1.13887  -1.13856  -1.13802
 Alpha  occ. eigenvalues --   -1.13781  -1.13756  -1.13218  -1.13155  -1.13148
 Alpha  occ. eigenvalues --   -0.16356  -0.14139  -0.12165  -0.11110
 Alpha virt. eigenvalues --   -0.07024  -0.05852  -0.04208  -0.03640  -0.03324
 Alpha virt. eigenvalues --   -0.02384  -0.02052  -0.01684  -0.01261  -0.00890
 Alpha virt. eigenvalues --   -0.00301  -0.00174  -0.00105   0.00287   0.00550

  Beta  occ. eigenvalues --  -38.45132 -38.44934 -38.44598 -38.44447 -38.44434
  Beta  occ. eigenvalues --  -38.44338 -38.43656  -2.20981  -2.20680  -2.20379
  Beta  occ. eigenvalues --   -2.20204  -2.20161  -2.20049  -2.19490  -1.14726
  Beta  occ. eigenvalues --   -1.14643  -1.14585  -1.14384  -1.14358  -1.14283
  Beta  occ. eigenvalues --   -1.14081  -1.14055  -1.14016  -1.13882  -1.13870
  Beta  occ. eigenvalues --   -1.13863  -1.13856  -1.13829  -1.13827  -1.13747
  Beta  occ. eigenvalues --   -1.13726  -1.13698  -1.13194  -1.13133  -1.13124
  Beta  occ. eigenvalues --   -0.15867  -0.13613  -0.11548
  Beta virt. eigenvalues --   -0.07761  -0.07098  -0.05368  -0.03893  -0.03254
  Beta virt. eigenvalues --   -0.03092  -0.02031  -0.01819  -0.01386  -0.01047
  Beta virt. eigenvalues --   -0.00683  -0.00180   0.00052   0.00113   0.00379

 Mulliken charges and spin densities:
               1          2
     1  Na   0.003518  -0.001140
     2  Na   0.011316   0.224679
     3  Na  -0.447091  -0.023018
     4  Na  -0.041198   0.175329
     5  Na  -0.280625   0.045501
     6  Na   0.199518   0.513103
     7  Na   0.554562   0.065547
 Sum of Mulliken charges =  -0.00000   1.00000

 Dipole moment (field-independent basis, Debye):
    X=             -0.3261    Y=             -0.0299    Z=              0.4924  Tot=              0.5913
 Quadrupole moment (field-independent basis, Debye-Ang):
   XX=            -58.9024   YY=            -72.3553   ZZ=            -69.2014
   XY=             -4.5229   XZ=              1.3025   YZ=             -0.9016

 Normal termination of Gaussian 16 at Mon Dec  4 00:22:44 2023.
