 Gaussian 16, Revision B.01,
 Gaussian 16:  ES64L-G16RevB.01 20-Dec-2017

 -------------------------
 #P B3LYP/6-311+g(d) force
 -------------------------

 -----
 DPGEN
 -----
 Symbolic Z-matrix:
 Charge =  0 Multiplicity = 2

                         Standard orientation:
 ---------------------------------------------------------------------
 Center     Atomic      Atomic             Coordinates (Angstroms)
 Number     Number       Type             X           Y           Z
 ---------------------------------------------------------------------
      1         11           0        1.690594    1.980376    0.145625
      2         11           0       -1.469352    1.920596    0.622938
      3         11           0        3.405308   -0.814040   -0.459621
      4         11           0       -3.494705   -1.042606    0.102666
      5         11           0        0.135962   -2.090083   -0.703498
      6         11           0       -0.817779    0.832400   -1.848417
      7         11           0        0.549972   -0.786644    2.140308
 ---------------------------------------------------------------------

 SCF Done:  E(UB3LYP) =  -1136.12451639     A.U. after   21 cycles

 The electronic state is 2-A.
 Alpha  occ. eigenvalues --  -38.44802 -38.44632 -38.44166 -38.43937 -38.43213
 Alpha  occ. eigenvalues --  -38.43172 -38.42859  -2.20564  -2.20438  -2.20041
 Alpha  occ. eigenvalues --   -2.19909  -2.19133  -2.19101  -2.18766  -1.14243
 Alpha  occ. eigenvalues --   -1.14226  -1.14197  -1.14112  -1.14100  -1.14068
 Alpha  occ. eigenvalues --   -1.13732  -1.13714  -1.13676  -1.13638  -1.13571
 Alpha  occ. eigenvalues --   -1.13470  -1.12827  -1.12803  -1.12798  -1.12783
 Alpha  occ. eigenvalues --   -1.12723  -1.12679  -1.12442  -1.12435  -1.12391
 Alpha  occ. eigenvalues --   -0.18742  -0.13304  -0.11749  -0.11249
 Alpha virt. eigenvalues --   -0.06629  -0.04784  -0.03871  -0.03446  -0.02984
 Alpha virt. eigenvalues --   -0.02754  -0.02236  -0.00982  -0.00253   0.00081
 Alpha virt. eigenvalues --    0.00143   0.00282   0.00467   0.00849   0.00905

  Beta  occ. eigenvalues --  -38.44808 -38.44626 -38.44080 -38.43879 -38.43191
  Beta  occ. eigenvalues --  -38.43158 -38.42850  -2.20577  -2.20428  -2.19883
  Beta  occ. eigenvalues --   -2.19801  -2.19111  -2.19064  -2.18754  -1.14246
  Beta  occ. eigenvalues --   -1.14231  -1.14206  -1.14107  -1.14081  -1.14063
  Beta  occ. eigenvalues --   -1.13645  -1.13628  -1.13558  -1.13526  -1.13493
  Beta  occ. eigenvalues --   -1.13393  -1.12808  -1.12783  -1.12743  -1.12735
  Beta  occ. eigenvalues --   -1.12708  -1.12658  -1.12438  -1.12399  -1.12385
  Beta  occ. eigenvalues --   -0.17951  -0.13162  -0.11535
  Beta virt. eigenvalues --   -0.07287  -0.06480  -0.04760  -0.03457  -0.03083
  Beta virt. eigenvalues --   -0.02272  -0.02166  -0.01680  -0.00932  -0.00046
  Beta virt. eigenvalues --    0.00069   0.00144   0.00302   0.00644   0.00895

 Mulliken charges and spin densities:
               1          2
     1  Na   0.227249   0.099884
     2  Na   0.449255   0.174875
     3  Na   0.150962  -0.048850
     4  Na   0.107193  -0.100552
     5  Na   0.289541   0.161144
     6  Na  -0.477570   0.303437
     7  Na  -0.746629   0.410062
 Sum of Mulliken charges =  -0.00000   1.00000

 Dipole moment (field-independent basis, Debye):
    X=             -0.0822    Y=             -0.4268    Z=              0.1221  Tot=              0.4515
 Quadrupole moment (field-independent basis, Debye-Ang):
   XX=            -49.8295   YY=            -74.4774   ZZ=            -69.1511
   XY=              0.6512   XZ=             -2.0423   YZ=              0.9040

 Normal termination of Gaussian 16 at Tue Dec  5 14:04:32 2023.
