 Gaussian 16, Revision B.01,
 Gaussian 16:  ES64L-G16RevB.01 20-Dec-2017

 -------------------------
 #P B3LYP/6-311+g(d) force
 -------------------------

 -----
 DPGEN
 -----
 Symbolic Z-matrix:
 Charge =  0 Multiplicity = 2

                         Standard orientation:
 ---------------------------------------------------------------------
 Center     Atomic      Atomic             Coordinates (Angstroms)
 Number     Number       Type             X           Y           Z
 ---------------------------------------------------------------------
      1         11           0        1.737880    0.338313    1.801808
      2         11           0       -1.672864   -0.074874    1.826116
      3         11           0       -3.640668   -0.263213   -0.630621
      4         11           0       -0.606686   -0.098560   -1.932482
      5         11           0        0.234307    2.733572   -0.033562
      6         11           0        0.967359   -2.723383    0.230002
      7         11           0        2.980671    0.088144   -1.261261
 ---------------------------------------------------------------------

 SCF Done:  E(UB3LYP) =  -1136.12759996     A.U. after   24 cycles

 The electronic state is 2-A.
 Alpha  occ. eigenvalues --  -38.44772 -38.44329 -38.44262 -38.44232 -38.43792
 Alpha  occ. eigenvalues --  -38.43080 -38.42677  -2.20591  -2.20156  -2.20138
 Alpha  occ. eigenvalues --   -2.20101  -2.19700  -2.18885  -2.18507  -1.14284
 Alpha  occ. eigenvalues --   -1.14249  -1.14192  -1.13890  -1.13857  -1.13808
 Alpha  occ. eigenvalues --   -1.13792  -1.13775  -1.13772  -1.13739  -1.13720
 Alpha  occ. eigenvalues --   -1.13701  -1.13392  -1.13357  -1.13304  -1.12566
 Alpha  occ. eigenvalues --   -1.12546  -1.12513  -1.12195  -1.12167  -1.12137
 Alpha  occ. eigenvalues --   -0.18324  -0.13321  -0.12064  -0.11118
 Alpha virt. eigenvalues --   -0.06258  -0.05080  -0.04152  -0.03411  -0.03261
 Alpha virt. eigenvalues --   -0.02767  -0.01903  -0.00963  -0.00527   0.00031
 Alpha virt. eigenvalues --    0.00137   0.00207   0.00321   0.00794   0.00900

  Beta  occ. eigenvalues --  -38.44749 -38.44326 -38.44200 -38.44181 -38.43748
  Beta  occ. eigenvalues --  -38.43068 -38.42670  -2.20548  -2.20152  -2.20024
  Beta  occ. eigenvalues --   -2.20008  -2.19623  -2.18865  -2.18498  -1.14248
  Beta  occ. eigenvalues --   -1.14218  -1.14164  -1.13869  -1.13829  -1.13786
  Beta  occ. eigenvalues --   -1.13735  -1.13708  -1.13694  -1.13666  -1.13657
  Beta  occ. eigenvalues --   -1.13645  -1.13327  -1.13298  -1.13249  -1.12547
  Beta  occ. eigenvalues --   -1.12526  -1.12500  -1.12185  -1.12152  -1.12128
  Beta  occ. eigenvalues --   -0.17495  -0.13185  -0.10940
  Beta virt. eigenvalues --   -0.08061  -0.06112  -0.04423  -0.03902  -0.03171
  Beta virt. eigenvalues --   -0.02653  -0.02099  -0.01739  -0.00586  -0.00452
  Beta virt. eigenvalues --    0.00166   0.00227   0.00239   0.00370   0.00878

 Mulliken charges and spin densities:
               1          2
     1  Na   0.448997   0.176588
     2  Na   0.153858   0.125354
     3  Na   0.082378  -0.002705
     4  Na   0.067924   0.378006
     5  Na  -0.586022   0.119568
     6  Na  -0.574844   0.135082
     7  Na   0.407710   0.068106
 Sum of Mulliken charges =  -0.00000   1.00000

 Dipole moment (field-independent basis, Debye):
    X=             -0.1610    Y=              0.0194    Z=             -0.3321  Tot=              0.3695
 Quadrupole moment (field-independent basis, Debye-Ang):
   XX=            -54.8164   YY=            -75.1293   ZZ=            -65.4025
   XY=              1.0415   XZ=             -1.1326   YZ=             -3.6384

 Normal termination of Gaussian 16 at Sun Dec  3 17:45:50 2023.
