 Gaussian 16, Revision B.01,
 Gaussian 16:  ES64L-G16RevB.01 20-Dec-2017

 -------------------------
 #P B3LYP/6-311+g(d) force
 -------------------------

 -----
 DPGEN
 -----
 Symbolic Z-matrix:
 Charge =  0 Multiplicity = 2

                         Standard orientation:
 ---------------------------------------------------------------------
 Center     Atomic      Atomic             Coordinates (Angstroms)
 Number     Number       Type             X           Y           Z
 ---------------------------------------------------------------------
      1         11           0        0.186162   -0.175461   -1.408804
      2         11           0        2.325247    1.921724   -0.248712
      3         11           0       -1.003056   -2.737740   -0.030773
      4         11           0       -0.901255    2.727240    0.113879
      5         11           0        2.579060   -1.704189   -0.119700
      6         11           0       -3.068503    0.112678   -0.481348
      7         11           0       -0.117655   -0.144252    2.175458
 ---------------------------------------------------------------------

 SCF Done:  E(UB3LYP) =  -1136.13823125     A.U. after   19 cycles

 The electronic state is 2-A.
 Alpha  occ. eigenvalues --  -38.43815 -38.43683 -38.43660 -38.43604 -38.43603
 Alpha  occ. eigenvalues --  -38.43315 -38.42868  -2.19661  -2.19540  -2.19525
 Alpha  occ. eigenvalues --   -2.19474  -2.19461  -2.19183  -2.18934  -1.13376
 Alpha  occ. eigenvalues --   -1.13318  -1.13285  -1.13221  -1.13205  -1.13190
 Alpha  occ. eigenvalues --   -1.13179  -1.13173  -1.13169  -1.13162  -1.13154
 Alpha  occ. eigenvalues --   -1.13122  -1.13115  -1.13095  -1.13080  -1.12860
 Alpha  occ. eigenvalues --   -1.12846  -1.12817  -1.12612  -1.12570  -1.12558
 Alpha  occ. eigenvalues --   -0.18826  -0.12860  -0.12728  -0.10787
 Alpha virt. eigenvalues --   -0.05419  -0.05080  -0.04840  -0.02980  -0.02961
 Alpha virt. eigenvalues --   -0.02603  -0.01396  -0.01187  -0.00326  -0.00275
 Alpha virt. eigenvalues --   -0.00001   0.00348   0.00846   0.00881   0.00916

  Beta  occ. eigenvalues --  -38.43811 -38.43672 -38.43599 -38.43597 -38.43552
  Beta  occ. eigenvalues --  -38.43310 -38.42818  -2.19658  -2.19508  -2.19466
  Beta  occ. eigenvalues --   -2.19457  -2.19341  -2.19178  -2.18845  -1.13368
  Beta  occ. eigenvalues --   -1.13303  -1.13281  -1.13202  -1.13181  -1.13162
  Beta  occ. eigenvalues --   -1.13158  -1.13154  -1.13115  -1.13099  -1.13095
  Beta  occ. eigenvalues --   -1.13078  -1.13064  -1.13019  -1.13012  -1.12857
  Beta  occ. eigenvalues --   -1.12820  -1.12814  -1.12544  -1.12508  -1.12492
  Beta  occ. eigenvalues --   -0.18111  -0.12601  -0.12506
  Beta virt. eigenvalues --   -0.06822  -0.05416  -0.05044  -0.04793  -0.02226
  Beta virt. eigenvalues --   -0.02173  -0.01494  -0.01309  -0.01127  -0.00372
  Beta virt. eigenvalues --   -0.00308   0.00148   0.00385   0.00867   0.00911

 Mulliken charges and spin densities:
               1          2
     1  Na  -0.655554   0.125214
     2  Na   0.205120  -0.002077
     3  Na   0.338866   0.038105
     4  Na   0.241335   0.058983
     5  Na   0.295387  -0.000732
     6  Na   0.168181   0.040558
     7  Na  -0.593335   0.739950
 Sum of Mulliken charges =  -0.00000   1.00000

 Dipole moment (field-independent basis, Debye):
    X=              0.0892    Y=             -0.1734    Z=              0.2397  Tot=              0.3090
 Quadrupole moment (field-independent basis, Debye-Ang):
   XX=            -57.8255   YY=            -60.7931   ZZ=            -74.4536
   XY=             -0.1782   XZ=              0.7621   YZ=             -0.0910

 Normal termination of Gaussian 16 at Thu Dec  7 07:43:11 2023.
