 Gaussian 16, Revision B.01,
 Gaussian 16:  ES64L-G16RevB.01 20-Dec-2017

 -------------------------
 #P B3LYP/6-311+g(d) force
 -------------------------

 -----
 DPGEN
 -----
 Symbolic Z-matrix:
 Charge =  0 Multiplicity = 2

                         Standard orientation:
 ---------------------------------------------------------------------
 Center     Atomic      Atomic             Coordinates (Angstroms)
 Number     Number       Type             X           Y           Z
 ---------------------------------------------------------------------
      1         11           0       -2.365456   -2.026390    0.133142
      2         11           0       -0.061180    0.023510    2.085942
      3         11           0        1.272183   -2.548712   -0.219419
      4         11           0       -2.611087    1.397952   -0.527459
      5         11           0        3.145970    0.101136   -0.217224
      6         11           0        0.582954    3.058106    0.135073
      7         11           0        0.036616   -0.005601   -1.390055
 ---------------------------------------------------------------------

 SCF Done:  E(UB3LYP) =  -1136.13725880     A.U. after   19 cycles

 The electronic state is 2-A.
 Alpha  occ. eigenvalues --  -38.43911 -38.43757 -38.43596 -38.43579 -38.43523
 Alpha  occ. eigenvalues --  -38.43448 -38.42896  -2.19756  -2.19619  -2.19433
 Alpha  occ. eigenvalues --   -2.19410  -2.19394  -2.19346  -2.18959  -1.13446
 Alpha  occ. eigenvalues --   -1.13421  -1.13390  -1.13343  -1.13270  -1.13237
 Alpha  occ. eigenvalues --   -1.13113  -1.13103  -1.13084  -1.13083  -1.13074
 Alpha  occ. eigenvalues --   -1.13069  -1.13059  -1.13034  -1.13030  -1.13012
 Alpha  occ. eigenvalues --   -1.12991  -1.12953  -1.12640  -1.12603  -1.12567
 Alpha  occ. eigenvalues --   -0.18762  -0.13048  -0.12503  -0.10651
 Alpha virt. eigenvalues --   -0.05429  -0.05169  -0.04867  -0.03021  -0.02840
 Alpha virt. eigenvalues --   -0.02463  -0.01486  -0.01248  -0.00405  -0.00302
 Alpha virt. eigenvalues --    0.00013   0.00342   0.00813   0.00869   0.00895

  Beta  occ. eigenvalues --  -38.43906 -38.43740 -38.43592 -38.43577 -38.43440
  Beta  occ. eigenvalues --  -38.43421 -38.42846  -2.19751  -2.19592  -2.19430
  Beta  occ. eigenvalues --   -2.19392  -2.19336  -2.19222  -2.18869  -1.13439
  Beta  occ. eigenvalues --   -1.13412  -1.13379  -1.13317  -1.13239  -1.13222
  Beta  occ. eigenvalues --   -1.13103  -1.13086  -1.13071  -1.13065  -1.13064
  Beta  occ. eigenvalues --   -1.13048  -1.13030  -1.12980  -1.12956  -1.12940
  Beta  occ. eigenvalues --   -1.12903  -1.12878  -1.12568  -1.12535  -1.12505
  Beta  occ. eigenvalues --   -0.18053  -0.12765  -0.12286
  Beta virt. eigenvalues --   -0.06727  -0.05401  -0.05138  -0.04830  -0.02272
  Beta virt. eigenvalues --   -0.02086  -0.01407  -0.01371  -0.01164  -0.00428
  Beta virt. eigenvalues --   -0.00348   0.00152   0.00381   0.00863   0.00868

 Mulliken charges and spin densities:
               1          2
     1  Na   0.232213   0.033605
     2  Na  -0.541849   0.790672
     3  Na   0.340782   0.033290
     4  Na   0.235933   0.032301
     5  Na   0.180195  -0.011961
     6  Na   0.096906  -0.011477
     7  Na  -0.544181   0.133571
 Sum of Mulliken charges =  -0.00000   1.00000

 Dipole moment (field-independent basis, Debye):
    X=              0.0630    Y=              0.0900    Z=              0.2392  Tot=              0.2632
 Quadrupole moment (field-independent basis, Debye-Ang):
   XX=            -56.9685   YY=            -60.2964   ZZ=            -75.1631
   XY=              1.1147   XZ=              0.2414   YZ=             -0.1823

 Normal termination of Gaussian 16 at Fri Dec  8 06:05:07 2023.
