 Gaussian 16, Revision B.01,
 Gaussian 16:  ES64L-G16RevB.01 20-Dec-2017

 -------------------------
 #P B3LYP/6-311+g(d) force
 -------------------------

 -----
 DPGEN
 -----
 Symbolic Z-matrix:
 Charge =  0 Multiplicity = 2

                         Standard orientation:
 ---------------------------------------------------------------------
 Center     Atomic      Atomic             Coordinates (Angstroms)
 Number     Number       Type             X           Y           Z
 ---------------------------------------------------------------------
      1         11           0        0.063906   -1.839210   -0.840682
      2         11           0        7.302309    2.682745   -0.238496
      3         11           0        6.911050   -0.395649    0.618229
      4         11           0        3.234969   -1.698803    0.694211
      5         11           0       -2.871019   -0.574717   -0.897526
      6         11           0       -6.345328    1.154774   -0.917287
      7         11           0       -8.295887    0.670859    1.581551
 ---------------------------------------------------------------------

 SCF Done:  E(UB3LYP) =  -1136.10594648     A.U. after   20 cycles

 The electronic state is 2-A.
 Alpha  occ. eigenvalues --  -38.45042 -38.44997 -38.44749 -38.44410 -38.44379
 Alpha  occ. eigenvalues --  -38.44336 -38.43703  -2.20824  -2.20782  -2.20534
 Alpha  occ. eigenvalues --   -2.20187  -2.20150  -2.20142  -2.19494  -1.14473
 Alpha  occ. eigenvalues --   -1.14472  -1.14465  -1.14428  -1.14427  -1.14420
 Alpha  occ. eigenvalues --   -1.14186  -1.14182  -1.14138  -1.13859  -1.13850
 Alpha  occ. eigenvalues --   -1.13840  -1.13826  -1.13816  -1.13803  -1.13794
 Alpha  occ. eigenvalues --   -1.13792  -1.13772  -1.13170  -1.13169  -1.13156
 Alpha  occ. eigenvalues --   -0.14883  -0.14207  -0.13039  -0.11333
 Alpha virt. eigenvalues --   -0.07225  -0.05649  -0.03922  -0.03191  -0.03080
 Alpha virt. eigenvalues --   -0.02869  -0.02435  -0.01949  -0.01887  -0.01286
 Alpha virt. eigenvalues --   -0.00620  -0.00539  -0.00249   0.00204   0.00386

  Beta  occ. eigenvalues --  -38.45001 -38.44941 -38.44657 -38.44422 -38.44393
  Beta  occ. eigenvalues --  -38.44268 -38.43719  -2.20745  -2.20679  -2.20362
  Beta  occ. eigenvalues --   -2.20211  -2.20180  -2.20014  -2.19531  -1.14419
  Beta  occ. eigenvalues --   -1.14418  -1.14416  -1.14358  -1.14355  -1.14354
  Beta  occ. eigenvalues --   -1.14068  -1.14066  -1.14029  -1.13879  -1.13869
  Beta  occ. eigenvalues --   -1.13850  -1.13839  -1.13832  -1.13794  -1.13708
  Beta  occ. eigenvalues --   -1.13705  -1.13694  -1.13200  -1.13199  -1.13134
  Beta  occ. eigenvalues --   -0.14238  -0.13655  -0.12555
  Beta virt. eigenvalues --   -0.08267  -0.06686  -0.05233  -0.03693  -0.02979
  Beta virt. eigenvalues --   -0.02884  -0.02696  -0.02079  -0.01796  -0.01642
  Beta virt. eigenvalues --   -0.01126  -0.00349  -0.00223   0.00023   0.00311

 Mulliken charges and spin densities:
               1          2
     1  Na  -1.001265  -0.069636
     2  Na   0.231423   0.257319
     3  Na  -0.160676  -0.057421
     4  Na  -0.074210   0.437199
     5  Na   0.239986   0.276975
     6  Na   0.726953  -0.042224
     7  Na   0.037789   0.197788
 Sum of Mulliken charges =  -0.00000   1.00000

 Dipole moment (field-independent basis, Debye):
    X=             -0.3099    Y=              0.9652    Z=              0.5190  Tot=              1.1389
 Quadrupole moment (field-independent basis, Debye-Ang):
   XX=            -48.5572   YY=            -65.7388   ZZ=            -68.3168
   XY=              2.8402   XZ=             -6.5454   YZ=             -3.8508

 Normal termination of Gaussian 16 at Sun Dec  3 21:59:10 2023.
