 Gaussian 16, Revision B.01,
 Gaussian 16:  ES64L-G16RevB.01 20-Dec-2017

 -------------------------
 #P B3LYP/6-311+g(d) force
 -------------------------

 -----
 DPGEN
 -----
 Symbolic Z-matrix:
 Charge =  0 Multiplicity = 2

                         Standard orientation:
 ---------------------------------------------------------------------
 Center     Atomic      Atomic             Coordinates (Angstroms)
 Number     Number       Type             X           Y           Z
 ---------------------------------------------------------------------
      1         11           0        2.649401    0.914472   -1.548399
      2         11           0       -0.133984    2.569590   -0.752052
      3         11           0       -0.529677   -1.372748   -0.512643
      4         11           0       -4.561283   -1.354566   -0.664086
      5         11           0       -2.045098    1.333837    1.515876
      6         11           0        1.768407    0.270829    1.654358
      7         11           0        2.852234   -2.361414    0.306946
 ---------------------------------------------------------------------

 SCF Done:  E(UB3LYP) =  -1136.12196583     A.U. after   22 cycles

 The electronic state is 2-A.
 Alpha  occ. eigenvalues --  -38.44607 -38.44451 -38.44408 -38.44172 -38.43965
 Alpha  occ. eigenvalues --  -38.43926 -38.43159  -2.20397  -2.20356  -2.20149
 Alpha  occ. eigenvalues --   -2.19998  -2.19808  -2.19795  -2.19018  -1.14123
 Alpha  occ. eigenvalues --   -1.14091  -1.14041  -1.14025  -1.13989  -1.13978
 Alpha  occ. eigenvalues --   -1.13814  -1.13808  -1.13759  -1.13687  -1.13664
 Alpha  occ. eigenvalues --   -1.13602  -1.13482  -1.13463  -1.13455  -1.13453
 Alpha  occ. eigenvalues --   -1.13445  -1.13397  -1.12694  -1.12681  -1.12663
 Alpha  occ. eigenvalues --   -0.18072  -0.13453  -0.11881  -0.10794
 Alpha virt. eigenvalues --   -0.06715  -0.05648  -0.04615  -0.03251  -0.02829
 Alpha virt. eigenvalues --   -0.02454  -0.02047  -0.01521  -0.00777  -0.00542
 Alpha virt. eigenvalues --   -0.00092   0.00061   0.00264   0.00380   0.00673

  Beta  occ. eigenvalues --  -38.44611 -38.44409 -38.44363 -38.44139 -38.43961
  Beta  occ. eigenvalues --  -38.43864 -38.43152  -2.20408  -2.20280  -2.20065
  Beta  occ. eigenvalues --   -2.19938  -2.19802  -2.19680  -2.19011  -1.14108
  Beta  occ. eigenvalues --   -1.14098  -1.14017  -1.13979  -1.13958  -1.13921
  Beta  occ. eigenvalues --   -1.13756  -1.13750  -1.13705  -1.13651  -1.13620
  Beta  occ. eigenvalues --   -1.13550  -1.13469  -1.13451  -1.13437  -1.13384
  Beta  occ. eigenvalues --   -1.13375  -1.13315  -1.12691  -1.12667  -1.12639
  Beta  occ. eigenvalues --   -0.17541  -0.13154  -0.11397
  Beta virt. eigenvalues --   -0.07332  -0.06428  -0.05500  -0.04162  -0.02964
  Beta virt. eigenvalues --   -0.02507  -0.02088  -0.01556  -0.01295  -0.00451
  Beta virt. eigenvalues --   -0.00373   0.00078   0.00143   0.00342   0.00485

 Mulliken charges and spin densities:
               1          2
     1  Na   0.220328   0.309263
     2  Na  -0.296067   0.034939
     3  Na  -1.456147   0.007812
     4  Na  -0.059664   0.254501
     5  Na   0.549452   0.097436
     6  Na  -0.241331   0.322988
     7  Na   1.283430  -0.026938
 Sum of Mulliken charges =  -0.00000   1.00000

 Dipole moment (field-independent basis, Debye):
    X=              0.6257    Y=             -0.0194    Z=              0.3815  Tot=              0.7331
 Quadrupole moment (field-independent basis, Debye-Ang):
   XX=            -56.2538   YY=            -70.6243   ZZ=            -69.7813
   XY=             -5.7125   XZ=             -0.4982   YZ=              2.4318

 Normal termination of Gaussian 16 at Thu Dec  7 08:38:58 2023.
