 Gaussian 16, Revision B.01,
 Gaussian 16:  ES64L-G16RevB.01 20-Dec-2017

 -------------------------
 #P B3LYP/6-311+g(d) force
 -------------------------

 -----
 DPGEN
 -----
 Symbolic Z-matrix:
 Charge =  0 Multiplicity = 2

                         Standard orientation:
 ---------------------------------------------------------------------
 Center     Atomic      Atomic             Coordinates (Angstroms)
 Number     Number       Type             X           Y           Z
 ---------------------------------------------------------------------
      1         11           0        0.048959    0.139002    1.922936
      2         11           0       -1.140478    2.027488   -0.106785
      3         11           0        2.314689   -0.989068   -0.029897
      4         11           0        1.676719    1.570031   -0.073146
      5         11           0       -0.051699   -0.122874   -1.829975
      6         11           0       -0.352140   -2.143301    0.080701
      7         11           0       -2.496049   -0.481277    0.036166
 ---------------------------------------------------------------------

 SCF Done:  E(UB3LYP) =  -1136.08472459     A.U. after   19 cycles

 The electronic state is 2-A.
 Alpha  occ. eigenvalues --  -38.44248 -38.44235 -38.43857 -38.43826 -38.43707
 Alpha  occ. eigenvalues --  -38.43384 -38.43255  -2.20459  -2.20412  -2.19959
 Alpha  occ. eigenvalues --   -2.19956  -2.19848  -2.19553  -2.19375  -1.14276
 Alpha  occ. eigenvalues --   -1.14187  -1.14131  -1.14127  -1.14091  -1.14047
 Alpha  occ. eigenvalues --   -1.13971  -1.13820  -1.13674  -1.13638  -1.13556
 Alpha  occ. eigenvalues --   -1.13547  -1.13532  -1.13435  -1.13269  -1.13173
 Alpha  occ. eigenvalues --   -1.13157  -1.13068  -1.13028  -1.12995  -1.12943
 Alpha  occ. eigenvalues --   -0.21683  -0.13805  -0.12954  -0.12526
 Alpha virt. eigenvalues --   -0.05092  -0.04227  -0.04053  -0.03819  -0.03327
 Alpha virt. eigenvalues --   -0.03112  -0.00917  -0.00454  -0.00148   0.00353
 Alpha virt. eigenvalues --    0.00828   0.00881   0.01071   0.01183   0.01249

  Beta  occ. eigenvalues --  -38.44148 -38.44139 -38.43847 -38.43815 -38.43692
  Beta  occ. eigenvalues --  -38.43367 -38.43242  -2.20287  -2.20232  -2.19946
  Beta  occ. eigenvalues --   -2.19943  -2.19830  -2.19531  -2.19358  -1.14191
  Beta  occ. eigenvalues --   -1.14090  -1.14026  -1.14016  -1.13963  -1.13949
  Beta  occ. eigenvalues --   -1.13900  -1.13804  -1.13662  -1.13624  -1.13535
  Beta  occ. eigenvalues --   -1.13496  -1.13469  -1.13362  -1.13265  -1.13160
  Beta  occ. eigenvalues --   -1.13080  -1.13062  -1.13020  -1.12940  -1.12928
  Beta  occ. eigenvalues --   -0.20816  -0.13421  -0.12580
  Beta virt. eigenvalues --   -0.08323  -0.05125  -0.04218  -0.04019  -0.02826
  Beta virt. eigenvalues --   -0.02393  -0.02031  -0.00847  -0.00414   0.00011
  Beta virt. eigenvalues --    0.00370   0.00809   0.00850   0.01109   0.01179

 Mulliken charges and spin densities:
               1          2
     1  Na  -0.286403   0.472840
     2  Na   0.102236   0.020002
     3  Na   0.022543  -0.024216
     4  Na   0.157072   0.059090
     5  Na  -0.180644   0.423788
     6  Na   0.146707   0.071838
     7  Na   0.038489  -0.023341
 Sum of Mulliken charges =  -0.00000   1.00000

 Dipole moment (field-independent basis, Debye):
    X=             -0.0682    Y=              0.0127    Z=              0.1465  Tot=              0.1621
 Quadrupole moment (field-independent basis, Debye-Ang):
   XX=            -62.2374   YY=            -69.6971   ZZ=            -66.9009
   XY=             -0.5248   XZ=             -0.1807   YZ=             -0.4443

 Normal termination of Gaussian 16 at Thu Dec  7 10:39:00 2023.
