 Gaussian 16, Revision B.01,
 Gaussian 16:  ES64L-G16RevB.01 20-Dec-2017

 -------------------------
 #P B3LYP/6-311+g(d) force
 -------------------------

 -----
 DPGEN
 -----
 Symbolic Z-matrix:
 Charge =  0 Multiplicity = 2

                         Standard orientation:
 ---------------------------------------------------------------------
 Center     Atomic      Atomic             Coordinates (Angstroms)
 Number     Number       Type             X           Y           Z
 ---------------------------------------------------------------------
      1         11           0       -1.536293    2.675735   -0.178457
      2         11           0        2.522134   -1.901654   -0.477831
      3         11           0        0.066292    0.095932   -1.651109
      4         11           0        2.654229    1.957080    0.163150
      5         11           0       -3.242862   -0.408697   -0.082295
      6         11           0       -0.845924   -2.691052    0.415959
      7         11           0        0.382424    0.272656    1.810582
 ---------------------------------------------------------------------

 SCF Done:  E(UB3LYP) =  -1136.13708455     A.U. after   19 cycles

 The electronic state is 2-A.
 Alpha  occ. eigenvalues --  -38.44225 -38.44080 -38.43915 -38.43776 -38.43284
 Alpha  occ. eigenvalues --  -38.43199 -38.43112  -2.20032  -2.19899  -2.19740
 Alpha  occ. eigenvalues --   -2.19596  -2.19207  -2.19147  -2.18975  -1.13721
 Alpha  occ. eigenvalues --   -1.13686  -1.13664  -1.13573  -1.13562  -1.13545
 Alpha  occ. eigenvalues --   -1.13423  -1.13392  -1.13372  -1.13282  -1.13265
 Alpha  occ. eigenvalues --   -1.13219  -1.12905  -1.12836  -1.12827  -1.12827
 Alpha  occ. eigenvalues --   -1.12779  -1.12765  -1.12649  -1.12637  -1.12607
 Alpha  occ. eigenvalues --   -0.18450  -0.13026  -0.12414  -0.10452
 Alpha virt. eigenvalues --   -0.05873  -0.05453  -0.04574  -0.03086  -0.02823
 Alpha virt. eigenvalues --   -0.02252  -0.01702  -0.01407  -0.00558  -0.00357
 Alpha virt. eigenvalues --    0.00007   0.00328   0.00753   0.00800   0.00886

  Beta  occ. eigenvalues --  -38.44218 -38.44080 -38.43899 -38.43770 -38.43205
  Beta  occ. eigenvalues --  -38.43134 -38.43101  -2.20023  -2.19902  -2.19713
  Beta  occ. eigenvalues --   -2.19588  -2.19062  -2.19028  -2.18958  -1.13703
  Beta  occ. eigenvalues --   -1.13673  -1.13658  -1.13577  -1.13555  -1.13541
  Beta  occ. eigenvalues --   -1.13393  -1.13365  -1.13357  -1.13270  -1.13250
  Beta  occ. eigenvalues --   -1.13213  -1.12812  -1.12739  -1.12730  -1.12729
  Beta  occ. eigenvalues --   -1.12698  -1.12674  -1.12634  -1.12614  -1.12587
  Beta  occ. eigenvalues --   -0.17766  -0.12770  -0.12145
  Beta virt. eigenvalues --   -0.06644  -0.05835  -0.05365  -0.04546  -0.02365
  Beta virt. eigenvalues --   -0.02091  -0.01611  -0.01341  -0.01215  -0.00605
  Beta virt. eigenvalues --   -0.00367   0.00136   0.00368   0.00775   0.00852

 Mulliken charges and spin densities:
               1          2
     1  Na   0.094703  -0.108745
     2  Na   0.087603   0.038041
     3  Na  -0.177216   0.530381
     4  Na   0.080424  -0.118179
     5  Na  -0.027996  -0.040690
     6  Na   0.111795   0.031195
     7  Na  -0.169312   0.667996
 Sum of Mulliken charges =  -0.00000   1.00000

 Dipole moment (field-independent basis, Debye):
    X=              0.2020    Y=              0.3156    Z=             -0.0251  Tot=              0.3755
 Quadrupole moment (field-independent basis, Debye-Ang):
   XX=            -54.3145   YY=            -61.9265   ZZ=            -75.9270
   XY=              0.1299   XZ=             -0.8043   YZ=             -0.3067

 Normal termination of Gaussian 16 at Mon Dec  4 02:34:52 2023.
