 Gaussian 16, Revision B.01,
 Gaussian 16:  ES64L-G16RevB.01 20-Dec-2017

 -------------------------
 #P B3LYP/6-311+g(d) force
 -------------------------

 -----
 DPGEN
 -----
 Symbolic Z-matrix:
 Charge =  0 Multiplicity = 2

                         Standard orientation:
 ---------------------------------------------------------------------
 Center     Atomic      Atomic             Coordinates (Angstroms)
 Number     Number       Type             X           Y           Z
 ---------------------------------------------------------------------
      1         11           0       -0.006677   -0.167709    1.969361
      2         11           0       -0.200172    0.023103   -1.934707
      3         11           0       -2.238694    1.375624    0.134641
      4         11           0       -2.025779   -1.552529   -0.045659
      5         11           0        0.673834    2.143714   -0.018255
      6         11           0        1.036532   -2.043895   -0.080055
      7         11           0        2.760957    0.221691   -0.025325
 ---------------------------------------------------------------------

 SCF Done:  E(UB3LYP) =  -1136.11114655     A.U. after   20 cycles

 The electronic state is 2-A.
 Alpha  occ. eigenvalues --  -38.44086 -38.44076 -38.43939 -38.43412 -38.43294
 Alpha  occ. eigenvalues --  -38.43017 -38.42932  -2.20180  -2.20167  -2.19948
 Alpha  occ. eigenvalues --   -2.19432  -2.19329  -2.19098  -2.19011  -1.13911
 Alpha  occ. eigenvalues --   -1.13864  -1.13842  -1.13814  -1.13808  -1.13788
 Alpha  occ. eigenvalues --   -1.13696  -1.13666  -1.13548  -1.13218  -1.13135
 Alpha  occ. eigenvalues --   -1.13065  -1.13022  -1.12970  -1.12893  -1.12765
 Alpha  occ. eigenvalues --   -1.12744  -1.12688  -1.12680  -1.12648  -1.12617
 Alpha  occ. eigenvalues --   -0.20875  -0.13714  -0.12598  -0.12206
 Alpha virt. eigenvalues --   -0.05223  -0.04425  -0.03903  -0.03773  -0.03205
 Alpha virt. eigenvalues --   -0.03168  -0.01128  -0.00512  -0.00150   0.00335
 Alpha virt. eigenvalues --    0.00659   0.00665   0.00988   0.01054   0.01107

  Beta  occ. eigenvalues --  -38.43991 -38.43982 -38.43934 -38.43404 -38.43284
  Beta  occ. eigenvalues --  -38.43004 -38.42920  -2.20009  -2.19994  -2.19944
  Beta  occ. eigenvalues --   -2.19421  -2.19316  -2.19081  -2.18995  -1.13813
  Beta  occ. eigenvalues --   -1.13756  -1.13722  -1.13706  -1.13700  -1.13684
  Beta  occ. eigenvalues --   -1.13667  -1.13630  -1.13508  -1.13216  -1.13132
  Beta  occ. eigenvalues --   -1.13017  -1.13015  -1.12915  -1.12890  -1.12758
  Beta  occ. eigenvalues --   -1.12685  -1.12676  -1.12673  -1.12614  -1.12584
  Beta  occ. eigenvalues --   -0.20023  -0.13382  -0.12258
  Beta virt. eigenvalues --   -0.08082  -0.05224  -0.04431  -0.03883  -0.02828
  Beta virt. eigenvalues --   -0.02289  -0.02090  -0.01054  -0.00473   0.00015
  Beta virt. eigenvalues --    0.00342   0.00622   0.00636   0.01046   0.01083

 Mulliken charges and spin densities:
               1          2
     1  Na  -1.536771   0.435527
     2  Na  -1.564659   0.398766
     3  Na   0.428056   0.014884
     4  Na   0.734828   0.028832
     5  Na   0.987783   0.109264
     6  Na   1.065075   0.086592
     7  Na  -0.114312  -0.073865
 Sum of Mulliken charges =  -0.00000   1.00000

 Dipole moment (field-independent basis, Debye):
    X=             -0.0478    Y=             -0.0084    Z=              0.0674  Tot=              0.0830
 Quadrupole moment (field-independent basis, Debye-Ang):
   XX=            -59.7581   YY=            -70.4868   ZZ=            -67.2314
   XY=             -0.0095   XZ=             -0.3483   YZ=              0.4192

 Normal termination of Gaussian 16 at Fri Dec  8 18:37:09 2023.
