 Gaussian 16, Revision B.01,
 Gaussian 16:  ES64L-G16RevB.01 20-Dec-2017

 -------------------------
 #P B3LYP/6-311+g(d) force
 -------------------------

 -----
 DPGEN
 -----
 Symbolic Z-matrix:
 Charge =  0 Multiplicity = 2

                         Standard orientation:
 ---------------------------------------------------------------------
 Center     Atomic      Atomic             Coordinates (Angstroms)
 Number     Number       Type             X           Y           Z
 ---------------------------------------------------------------------
      1         11           0        0.048254   -0.252144   -1.490561
      2         11           0       -2.176771   -1.797384   -0.114484
      3         11           0        3.049596    0.535664    0.265384
      4         11           0       -2.560126    1.436715    0.066484
      5         11           0        1.275605   -2.706579   -0.186497
      6         11           0        0.552060    2.864774   -0.409309
      7         11           0       -0.188619   -0.081046    1.868984
 ---------------------------------------------------------------------

 SCF Done:  E(UB3LYP) =  -1136.13699728     A.U. after   19 cycles

 The electronic state is 2-A.
 Alpha  occ. eigenvalues --  -38.43873 -38.43615 -38.43535 -38.43470 -38.43418
 Alpha  occ. eigenvalues --  -38.43212 -38.42864  -2.19699  -2.19490  -2.19474
 Alpha  occ. eigenvalues --   -2.19366  -2.19276  -2.19177  -2.18946  -1.13371
 Alpha  occ. eigenvalues --   -1.13364  -1.13340  -1.13243  -1.13212  -1.13149
 Alpha  occ. eigenvalues --   -1.13141  -1.13120  -1.13089  -1.13049  -1.13027
 Alpha  occ. eigenvalues --   -1.12993  -1.12963  -1.12929  -1.12902  -1.12862
 Alpha  occ. eigenvalues --   -1.12792  -1.12783  -1.12618  -1.12564  -1.12559
 Alpha  occ. eigenvalues --   -0.19197  -0.13027  -0.12822  -0.10623
 Alpha virt. eigenvalues --   -0.05383  -0.05086  -0.04860  -0.03035  -0.02873
 Alpha virt. eigenvalues --   -0.02255  -0.01362  -0.01210  -0.00292  -0.00181
 Alpha virt. eigenvalues --    0.00046   0.00359   0.00865   0.00898   0.00933

  Beta  occ. eigenvalues --  -38.43869 -38.43608 -38.43525 -38.43463 -38.43409
  Beta  occ. eigenvalues --  -38.43123 -38.42800  -2.19694  -2.19482  -2.19460
  Beta  occ. eigenvalues --   -2.19359  -2.19262  -2.19014  -2.18830  -1.13362
  Beta  occ. eigenvalues --   -1.13348  -1.13339  -1.13230  -1.13200  -1.13131
  Beta  occ. eigenvalues --   -1.13108  -1.13095  -1.13086  -1.13042  -1.12996
  Beta  occ. eigenvalues --   -1.12985  -1.12946  -1.12906  -1.12895  -1.12758
  Beta  occ. eigenvalues --   -1.12679  -1.12663  -1.12536  -1.12479  -1.12476
  Beta  occ. eigenvalues --   -0.18473  -0.12772  -0.12534
  Beta virt. eigenvalues --   -0.06700  -0.05358  -0.05075  -0.04825  -0.02240
  Beta virt. eigenvalues --   -0.02099  -0.01291  -0.01201  -0.01139  -0.00318
  Beta virt. eigenvalues --   -0.00236   0.00166   0.00388   0.00885   0.00906

 Mulliken charges and spin densities:
               1          2
     1  Na  -0.473151   0.425498
     2  Na   0.412860  -0.042305
     3  Na   0.005138  -0.019191
     4  Na   0.243971   0.006131
     5  Na   0.209054  -0.075870
     6  Na   0.063430  -0.025442
     7  Na  -0.461304   0.731179
 Sum of Mulliken charges =  -0.00000   1.00000

 Dipole moment (field-independent basis, Debye):
    X=              0.2000    Y=             -0.0447    Z=              0.1986  Tot=              0.2854
 Quadrupole moment (field-independent basis, Debye-Ang):
   XX=            -57.2608   YY=            -59.9636   ZZ=            -75.2163
   XY=             -0.4646   XZ=              0.6649   YZ=             -0.3973

 Normal termination of Gaussian 16 at Fri Dec  8 03:22:25 2023.
