 Gaussian 16, Revision B.01,
 Gaussian 16:  ES64L-G16RevB.01 20-Dec-2017

 -------------------------
 #P B3LYP/6-311+g(d) force
 -------------------------

 -----
 DPGEN
 -----
 Symbolic Z-matrix:
 Charge =  0 Multiplicity = 2

                         Standard orientation:
 ---------------------------------------------------------------------
 Center     Atomic      Atomic             Coordinates (Angstroms)
 Number     Number       Type             X           Y           Z
 ---------------------------------------------------------------------
      1         11           0        2.467502    1.311104    0.363898
      2         11           0       -3.358963    0.037941    0.019373
      3         11           0       -0.614092    3.012184   -0.584824
      4         11           0        2.425810   -1.638071   -0.225845
      5         11           0       -1.029197   -2.724582   -0.013792
      6         11           0       -0.131209    0.239061    2.058045
      7         11           0        0.240148   -0.237638   -1.616854
 ---------------------------------------------------------------------

 SCF Done:  E(UB3LYP) =  -1136.13237150     A.U. after   19 cycles

 The electronic state is 2-A.
 Alpha  occ. eigenvalues --  -38.44487 -38.43752 -38.43569 -38.43558 -38.43537
 Alpha  occ. eigenvalues --  -38.43470 -38.43268  -2.20255  -2.19639  -2.19508
 Alpha  occ. eigenvalues --   -2.19466  -2.19362  -2.19320  -2.19284  -1.13935
 Alpha  occ. eigenvalues --   -1.13904  -1.13900  -1.13356  -1.13316  -1.13275
 Alpha  occ. eigenvalues --   -1.13256  -1.13240  -1.13136  -1.13115  -1.13107
 Alpha  occ. eigenvalues --   -1.13051  -1.13043  -1.13032  -1.13009  -1.12996
 Alpha  occ. eigenvalues --   -1.12988  -1.12935  -1.12934  -1.12885  -1.12871
 Alpha  occ. eigenvalues --   -0.18782  -0.13002  -0.12425  -0.10901
 Alpha virt. eigenvalues --   -0.05859  -0.04808  -0.04761  -0.03251  -0.03008
 Alpha virt. eigenvalues --   -0.02541  -0.01557  -0.01080  -0.00329  -0.00266
 Alpha virt. eigenvalues --    0.00007   0.00355   0.00783   0.00878   0.00911

  Beta  occ. eigenvalues --  -38.44489 -38.43660 -38.43561 -38.43543 -38.43523
  Beta  occ. eigenvalues --  -38.43467 -38.43204  -2.20261  -2.19498  -2.19471
  Beta  occ. eigenvalues --   -2.19447  -2.19336  -2.19316  -2.19169  -1.13928
  Beta  occ. eigenvalues --   -1.13909  -1.13904  -1.13337  -1.13221  -1.13215
  Beta  occ. eigenvalues --   -1.13160  -1.13138  -1.13106  -1.13096  -1.13053
  Beta  occ. eigenvalues --   -1.13033  -1.13024  -1.13012  -1.12989  -1.12981
  Beta  occ. eigenvalues --   -1.12970  -1.12932  -1.12864  -1.12811  -1.12792
  Beta  occ. eigenvalues --   -0.18045  -0.12788  -0.12147
  Beta virt. eigenvalues --   -0.06976  -0.05832  -0.04743  -0.04718  -0.02473
  Beta virt. eigenvalues --   -0.02246  -0.01582  -0.01432  -0.00995  -0.00345
  Beta virt. eigenvalues --   -0.00298   0.00131   0.00382   0.00807   0.00903

 Mulliken charges and spin densities:
               1          2
     1  Na   0.450762   0.171066
     2  Na  -0.093643  -0.102587
     3  Na  -0.088839  -0.017284
     4  Na   0.381282   0.010002
     5  Na   0.048993  -0.067186
     6  Na  -0.436453   0.580751
     7  Na  -0.262103   0.425237
 Sum of Mulliken charges =  -0.00000   1.00000

 Dipole moment (field-independent basis, Debye):
    X=             -0.5355    Y=              0.0167    Z=              0.1968  Tot=              0.5707
 Quadrupole moment (field-independent basis, Debye-Ang):
   XX=            -56.9810   YY=            -63.0305   ZZ=            -73.7349
   XY=             -0.6115   XZ=              0.6576   YZ=             -1.0362

 Normal termination of Gaussian 16 at Thu Dec  7 04:09:19 2023.
