 Gaussian 16, Revision B.01,
 Gaussian 16:  ES64L-G16RevB.01 20-Dec-2017

 -------------------------
 #P B3LYP/6-311+g(d) force
 -------------------------

 -----
 DPGEN
 -----
 Symbolic Z-matrix:
 Charge =  0 Multiplicity = 2

                         Standard orientation:
 ---------------------------------------------------------------------
 Center     Atomic      Atomic             Coordinates (Angstroms)
 Number     Number       Type             X           Y           Z
 ---------------------------------------------------------------------
      1         11           0        3.903634   -0.231798    0.638223
      2         11           0       -0.406041    0.086305    2.089537
      3         11           0        1.350826    1.946091   -0.645134
      4         11           0       -2.116859    2.283618   -0.094670
      5         11           0        1.452074   -2.015469   -0.764188
      6         11           0       -0.848579   -0.332845   -1.586009
      7         11           0       -3.335055   -1.735901    0.362239
 ---------------------------------------------------------------------

 SCF Done:  E(UB3LYP) =  -1136.12318205     A.U. after   22 cycles

 The electronic state is 2-A.
 Alpha  occ. eigenvalues --  -38.44824 -38.44818 -38.44287 -38.43765 -38.43604
 Alpha  occ. eigenvalues --  -38.43190 -38.43145  -2.20648  -2.20611  -2.20053
 Alpha  occ. eigenvalues --   -2.19637  -2.19450  -2.19155  -2.19057  -1.14325
 Alpha  occ. eigenvalues --   -1.14286  -1.14276  -1.14269  -1.14259  -1.14246
 Alpha  occ. eigenvalues --   -1.13733  -1.13709  -1.13694  -1.13416  -1.13284
 Alpha  occ. eigenvalues --   -1.13233  -1.13149  -1.13113  -1.13072  -1.12862
 Alpha  occ. eigenvalues --   -1.12796  -1.12772  -1.12731  -1.12708  -1.12653
 Alpha  occ. eigenvalues --   -0.18378  -0.13493  -0.11446  -0.11058
 Alpha virt. eigenvalues --   -0.06808  -0.05378  -0.03971  -0.03223  -0.02920
 Alpha virt. eigenvalues --   -0.02566  -0.02231  -0.01341  -0.00667  -0.00131
 Alpha virt. eigenvalues --    0.00120   0.00151   0.00398   0.00629   0.00727

  Beta  occ. eigenvalues --  -38.44805 -38.44751 -38.44290 -38.43737 -38.43601
  Beta  occ. eigenvalues --  -38.43175 -38.43072  -2.20586  -2.20512  -2.20061
  Beta  occ. eigenvalues --   -2.19590  -2.19448  -2.19034  -2.19025  -1.14260
  Beta  occ. eigenvalues --   -1.14248  -1.14232  -1.14229  -1.14191  -1.14159
  Beta  occ. eigenvalues --   -1.13736  -1.13710  -1.13698  -1.13362  -1.13239
  Beta  occ. eigenvalues --   -1.13205  -1.13140  -1.13104  -1.13067  -1.12791
  Beta  occ. eigenvalues --   -1.12735  -1.12699  -1.12680  -1.12646  -1.12622
  Beta  occ. eigenvalues --   -0.17627  -0.13309  -0.11198
  Beta virt. eigenvalues --   -0.07263  -0.06465  -0.05367  -0.03666  -0.02922
  Beta virt. eigenvalues --   -0.02250  -0.01922  -0.01699  -0.01251  -0.00459
  Beta virt. eigenvalues --   -0.00074   0.00136   0.00176   0.00585   0.00702

 Mulliken charges and spin densities:
               1          2
     1  Na   0.104929   0.133228
     2  Na  -0.506732   0.704228
     3  Na  -0.062946   0.074275
     4  Na   0.339915  -0.038729
     5  Na  -0.002939   0.070639
     6  Na   0.130062   0.046852
     7  Na  -0.002289   0.009508
 Sum of Mulliken charges =  -0.00000   1.00000

 Dipole moment (field-independent basis, Debye):
    X=              0.1869    Y=              0.1829    Z=              0.6584  Tot=              0.7084
 Quadrupole moment (field-independent basis, Debye-Ang):
   XX=            -49.4837   YY=            -72.1707   ZZ=            -71.6636
   XY=             -0.6870   XZ=              1.2449   YZ=             -0.9747

 Normal termination of Gaussian 16 at Fri Dec  8 01:24:35 2023.
