 Gaussian 16, Revision B.01,
 Gaussian 16:  ES64L-G16RevB.01 20-Dec-2017

 -------------------------
 #P B3LYP/6-311+g(d) force
 -------------------------

 -----
 DPGEN
 -----
 Symbolic Z-matrix:
 Charge =  0 Multiplicity = 2

                         Standard orientation:
 ---------------------------------------------------------------------
 Center     Atomic      Atomic             Coordinates (Angstroms)
 Number     Number       Type             X           Y           Z
 ---------------------------------------------------------------------
      1         11           0       -0.473883   -2.612104   -0.396518
      2         11           0        1.897608    2.028932    0.355244
      3         11           0       -1.285545    2.325561   -0.363992
      4         11           0       -2.771835   -0.428610    0.405698
      5         11           0        0.115439    0.219432   -1.775884
      6         11           0        0.025457   -0.206792    1.793938
      7         11           0        2.492758   -1.326418   -0.018485
 ---------------------------------------------------------------------

 SCF Done:  E(UB3LYP) =  -1136.13350542     A.U. after   17 cycles

 The electronic state is 2-A.
 Alpha  occ. eigenvalues --  -38.43436 -38.43373 -38.43360 -38.43341 -38.43335
 Alpha  occ. eigenvalues --  -38.43302 -38.43236  -2.19502  -2.19404  -2.19293
 Alpha  occ. eigenvalues --   -2.19270  -2.19264  -2.19257  -2.19182  -1.13308
 Alpha  occ. eigenvalues --   -1.13194  -1.13137  -1.13114  -1.13093  -1.13061
 Alpha  occ. eigenvalues --   -1.12976  -1.12964  -1.12953  -1.12948  -1.12934
 Alpha  occ. eigenvalues --   -1.12924  -1.12915  -1.12895  -1.12894  -1.12888
 Alpha  occ. eigenvalues --   -1.12856  -1.12843  -1.12824  -1.12819  -1.12775
 Alpha  occ. eigenvalues --   -0.19828  -0.13063  -0.12975  -0.11370
 Alpha virt. eigenvalues --   -0.04914  -0.04812  -0.04595  -0.03257  -0.03250
 Alpha virt. eigenvalues --   -0.02716  -0.01095  -0.00954  -0.00071   0.00263
 Alpha virt. eigenvalues --    0.00281   0.00371   0.00965   0.00995   0.01011

  Beta  occ. eigenvalues --  -38.43367 -38.43353 -38.43331 -38.43325 -38.43290
  Beta  occ. eigenvalues --  -38.43278 -38.43224  -2.19353  -2.19287  -2.19259
  Beta  occ. eigenvalues --   -2.19252  -2.19246  -2.19241  -2.19164  -1.13224
  Beta  occ. eigenvalues --   -1.13111  -1.13063  -1.13025  -1.13012  -1.12988
  Beta  occ. eigenvalues --   -1.12967  -1.12954  -1.12926  -1.12909  -1.12899
  Beta  occ. eigenvalues --   -1.12893  -1.12879  -1.12867  -1.12845  -1.12835
  Beta  occ. eigenvalues --   -1.12834  -1.12817  -1.12811  -1.12786  -1.12762
  Beta  occ. eigenvalues --   -0.19074  -0.12763  -0.12678
  Beta virt. eigenvalues --   -0.07355  -0.04913  -0.04799  -0.04583  -0.02422
  Beta virt. eigenvalues --   -0.02396  -0.01616  -0.01022  -0.00889   0.00048
  Beta virt. eigenvalues --    0.00213   0.00250   0.00386   0.00982   0.00992

 Mulliken charges and spin densities:
               1          2
     1  Na   0.199966   0.008216
     2  Na   0.123041  -0.037286
     3  Na   0.333773   0.021406
     4  Na   0.155313  -0.001313
     5  Na  -0.423166   0.499491
     6  Na  -0.481012   0.595283
     7  Na   0.092085  -0.085796
 Sum of Mulliken charges =  -0.00000   1.00000

 Dipole moment (field-independent basis, Debye):
    X=              0.1352    Y=             -0.0422    Z=              0.0730  Tot=              0.1594
 Quadrupole moment (field-independent basis, Debye-Ang):
   XX=            -60.4002   YY=            -62.8579   ZZ=            -71.5888
   XY=              0.1509   XZ=              0.1461   YZ=              0.9973

 Normal termination of Gaussian 16 at Fri Dec  8 18:23:07 2023.
