 Gaussian 16, Revision B.01,
 Gaussian 16:  ES64L-G16RevB.01 20-Dec-2017

 -------------------------
 #P B3LYP/6-311+g(d) force
 -------------------------

 -----
 DPGEN
 -----
 Symbolic Z-matrix:
 Charge =  0 Multiplicity = 2

                         Standard orientation:
 ---------------------------------------------------------------------
 Center     Atomic      Atomic             Coordinates (Angstroms)
 Number     Number       Type             X           Y           Z
 ---------------------------------------------------------------------
      1         11           0       -2.900831   -0.987546    0.176657
      2         11           0       -0.040144   -2.885462    0.091188
      3         11           0        2.737682   -0.940139   -0.236485
      4         11           0        0.476447    0.213157    1.691156
      5         11           0        1.863283    2.295455   -0.045467
      6         11           0       -0.157975   -0.124108   -1.579505
      7         11           0       -1.978463    2.428643   -0.097543
 ---------------------------------------------------------------------

 SCF Done:  E(UB3LYP) =  -1136.13707551     A.U. after   23 cycles

 The electronic state is 2-A.
 Alpha  occ. eigenvalues --  -38.43894 -38.43822 -38.43697 -38.43622 -38.43293
 Alpha  occ. eigenvalues --  -38.42990 -38.42784  -2.19736  -2.19638  -2.19590
 Alpha  occ. eigenvalues --   -2.19547  -2.19186  -2.19001  -2.18815  -1.13418
 Alpha  occ. eigenvalues --   -1.13399  -1.13381  -1.13333  -1.13315  -1.13297
 Alpha  occ. eigenvalues --   -1.13274  -1.13264  -1.13235  -1.13217  -1.13211
 Alpha  occ. eigenvalues --   -1.13153  -1.12884  -1.12846  -1.12817  -1.12693
 Alpha  occ. eigenvalues --   -1.12620  -1.12607  -1.12500  -1.12438  -1.12431
 Alpha  occ. eigenvalues --   -0.19145  -0.13191  -0.12744  -0.10354
 Alpha virt. eigenvalues --   -0.05483  -0.05288  -0.04877  -0.03034  -0.02758
 Alpha virt. eigenvalues --   -0.02007  -0.01410  -0.01255  -0.00427  -0.00297
 Alpha virt. eigenvalues --    0.00051   0.00362   0.00861   0.00878   0.00901

  Beta  occ. eigenvalues --  -38.43891 -38.43820 -38.43689 -38.43610 -38.43286
  Beta  occ. eigenvalues --  -38.42914 -38.42714  -2.19733  -2.19637  -2.19581
  Beta  occ. eigenvalues --   -2.19529  -2.19177  -2.18861  -2.18688  -1.13413
  Beta  occ. eigenvalues --   -1.13385  -1.13377  -1.13323  -1.13302  -1.13289
  Beta  occ. eigenvalues --   -1.13276  -1.13244  -1.13218  -1.13207  -1.13159
  Beta  occ. eigenvalues --   -1.13148  -1.12877  -1.12819  -1.12807  -1.12600
  Beta  occ. eigenvalues --   -1.12518  -1.12508  -1.12411  -1.12346  -1.12334
  Beta  occ. eigenvalues --   -0.18423  -0.12940  -0.12480
  Beta virt. eigenvalues --   -0.06442  -0.05472  -0.05253  -0.04865  -0.02239
  Beta virt. eigenvalues --   -0.01988  -0.01341  -0.01191  -0.00994  -0.00472
  Beta virt. eigenvalues --   -0.00354   0.00184   0.00394   0.00869   0.00893

 Mulliken charges and spin densities:
               1          2
     1  Na  -0.017415  -0.065913
     2  Na   0.148623  -0.039600
     3  Na   0.411511   0.008881
     4  Na  -0.446134   0.733557
     5  Na   0.273123  -0.096654
     6  Na  -0.347940   0.589681
     7  Na  -0.021767  -0.129952
 Sum of Mulliken charges =  -0.00000   1.00000

 Dipole moment (field-independent basis, Debye):
    X=             -0.1784    Y=              0.1639    Z=              0.0262  Tot=              0.2437
 Quadrupole moment (field-independent basis, Debye-Ang):
   XX=            -56.3728   YY=            -59.0268   ZZ=            -76.4456
   XY=             -0.0590   XZ=             -1.5071   YZ=             -0.8242

 Normal termination of Gaussian 16 at Tue Nov 28 21:02:36 2023.
