 Gaussian 16, Revision B.01,
 Gaussian 16:  ES64L-G16RevB.01 20-Dec-2017

 -------------------------
 #P B3LYP/6-311+g(d) force
 -------------------------

 -----
 DPGEN
 -----
 Symbolic Z-matrix:
 Charge =  0 Multiplicity = 2

                         Standard orientation:
 ---------------------------------------------------------------------
 Center     Atomic      Atomic             Coordinates (Angstroms)
 Number     Number       Type             X           Y           Z
 ---------------------------------------------------------------------
      1         11           0        0.245617   -0.446398    1.623869
      2         11           0        1.269889   -2.050818   -1.065594
      3         11           0        3.378733   -0.508269    0.829143
      4         11           0        1.892451    2.439385   -0.914857
      5         11           0       -1.600484    2.046664   -0.731088
      6         11           0       -2.875948    0.583339    1.217317
      7         11           0       -2.310258   -2.063904   -0.958790
 ---------------------------------------------------------------------

 SCF Done:  E(UB3LYP) =  -1136.12128705     A.U. after   21 cycles

 The electronic state is 2-A.
 Alpha  occ. eigenvalues --  -38.44564 -38.44352 -38.44032 -38.43938 -38.43925
 Alpha  occ. eigenvalues --  -38.43897 -38.43697  -2.20424  -2.20293  -2.19950
 Alpha  occ. eigenvalues --   -2.19818  -2.19752  -2.19735  -2.19481  -1.14156
 Alpha  occ. eigenvalues --   -1.14109  -1.14094  -1.14043  -1.13938  -1.13883
 Alpha  occ. eigenvalues --   -1.13642  -1.13589  -1.13579  -1.13459  -1.13452
 Alpha  occ. eigenvalues --   -1.13433  -1.13418  -1.13410  -1.13401  -1.13393
 Alpha  occ. eigenvalues --   -1.13375  -1.13357  -1.13152  -1.13136  -1.13113
 Alpha  occ. eigenvalues --   -0.18171  -0.14121  -0.12068  -0.10719
 Alpha virt. eigenvalues --   -0.06172  -0.05786  -0.04659  -0.03778  -0.02946
 Alpha virt. eigenvalues --   -0.02035  -0.01936  -0.01200  -0.00472  -0.00278
 Alpha virt. eigenvalues --    0.00032   0.00242   0.00340   0.00463   0.00714

  Beta  occ. eigenvalues --  -38.44548 -38.44323 -38.43976 -38.43931 -38.43894
  Beta  occ. eigenvalues --  -38.43877 -38.43667  -2.20397  -2.20240  -2.19849
  Beta  occ. eigenvalues --   -2.19808  -2.19717  -2.19679  -2.19428  -1.14128
  Beta  occ. eigenvalues --   -1.14082  -1.14074  -1.14024  -1.13887  -1.13847
  Beta  occ. eigenvalues --   -1.13567  -1.13525  -1.13506  -1.13448  -1.13431
  Beta  occ. eigenvalues --   -1.13408  -1.13405  -1.13375  -1.13361  -1.13355
  Beta  occ. eigenvalues --   -1.13337  -1.13318  -1.13110  -1.13102  -1.13075
  Beta  occ. eigenvalues --   -0.17610  -0.13947  -0.11547
  Beta virt. eigenvalues --   -0.07201  -0.06004  -0.05766  -0.03894  -0.03505
  Beta virt. eigenvalues --   -0.02385  -0.01911  -0.01275  -0.01061  -0.00314
  Beta virt. eigenvalues --   -0.00083   0.00082   0.00312   0.00483   0.00600

 Mulliken charges and spin densities:
               1          2
     1  Na  -1.286692   0.219060
     2  Na  -0.322620   0.258638
     3  Na   1.273030   0.167156
     4  Na  -0.144968   0.030836
     5  Na  -0.729845   0.232776
     6  Na   1.328486   0.029824
     7  Na  -0.117392   0.061710
 Sum of Mulliken charges =  -0.00000   1.00000

 Dipole moment (field-independent basis, Debye):
    X=              0.4014    Y=             -0.4179    Z=              0.1434  Tot=              0.5969
 Quadrupole moment (field-independent basis, Debye-Ang):
   XX=            -50.7447   YY=            -74.4262   ZZ=            -71.5386
   XY=             -0.5541   XZ=              0.1430   YZ=              0.7060

 Normal termination of Gaussian 16 at Tue Dec  5 20:00:25 2023.
