 Gaussian 16, Revision B.01,
 Gaussian 16:  ES64L-G16RevB.01 20-Dec-2017

 -------------------------
 #P B3LYP/6-311+g(d) force
 -------------------------

 -----
 DPGEN
 -----
 Symbolic Z-matrix:
 Charge =  0 Multiplicity = 2

                         Standard orientation:
 ---------------------------------------------------------------------
 Center     Atomic      Atomic             Coordinates (Angstroms)
 Number     Number       Type             X           Y           Z
 ---------------------------------------------------------------------
      1         11           0        1.771253    1.148316    1.060929
      2         11           0       -1.142512    0.161251   -0.555130
      3         11           0       -2.689021   -2.476435    0.513979
      4         11           0        1.717796   -2.040695   -0.135154
      5         11           0        4.557177   -0.767588   -0.478151
      6         11           0       -4.276345    0.403517   -0.300813
      7         11           0        0.061653    3.571633   -0.105660
 ---------------------------------------------------------------------

 SCF Done:  E(UB3LYP) =  -1136.12456384     A.U. after   20 cycles

 The electronic state is 2-A.
 Alpha  occ. eigenvalues --  -38.44712 -38.44014 -38.43872 -38.43510 -38.43507
 Alpha  occ. eigenvalues --  -38.43497 -38.43360  -2.20526  -2.19893  -2.19735
 Alpha  occ. eigenvalues --   -2.19457  -2.19369  -2.19356  -2.19172  -1.14207
 Alpha  occ. eigenvalues --   -1.14199  -1.14156  -1.13602  -1.13579  -1.13501
 Alpha  occ. eigenvalues --   -1.13427  -1.13371  -1.13340  -1.13160  -1.13145
 Alpha  occ. eigenvalues --   -1.13090  -1.13054  -1.13051  -1.13050  -1.12993
 Alpha  occ. eigenvalues --   -1.12990  -1.12907  -1.12841  -1.12833  -1.12808
 Alpha  occ. eigenvalues --   -0.17347  -0.14292  -0.12262  -0.10295
 Alpha virt. eigenvalues --   -0.06159  -0.05387  -0.04395  -0.03764  -0.02754
 Alpha virt. eigenvalues --   -0.02012  -0.01763  -0.01526  -0.00763  -0.00590
 Alpha virt. eigenvalues --   -0.00204  -0.00086   0.00510   0.00575   0.00705

  Beta  occ. eigenvalues --  -38.44705 -38.44009 -38.43799 -38.43482 -38.43479
  Beta  occ. eigenvalues --  -38.43445 -38.43367  -2.20517  -2.19886  -2.19596
  Beta  occ. eigenvalues --   -2.19419  -2.19343  -2.19235  -2.19185  -1.14205
  Beta  occ. eigenvalues --   -1.14197  -1.14115  -1.13583  -1.13576  -1.13499
  Beta  occ. eigenvalues --   -1.13338  -1.13276  -1.13250  -1.13137  -1.13069
  Beta  occ. eigenvalues --   -1.13045  -1.13040  -1.13033  -1.13004  -1.12910
  Beta  occ. eigenvalues --   -1.12906  -1.12849  -1.12842  -1.12838  -1.12816
  Beta  occ. eigenvalues --   -0.16746  -0.13800  -0.12032
  Beta virt. eigenvalues --   -0.06750  -0.05967  -0.05138  -0.04047  -0.03242
  Beta virt. eigenvalues --   -0.02543  -0.01930  -0.01484  -0.01089  -0.00620
  Beta virt. eigenvalues --   -0.00253  -0.00047   0.00219   0.00607   0.00678

 Mulliken charges and spin densities:
               1          2
     1  Na   0.246714   0.023402
     2  Na  -1.801903   0.153857
     3  Na   0.469593   0.018900
     4  Na  -0.137830   0.087049
     5  Na   0.437633   0.384747
     6  Na   0.542870   0.372463
     7  Na   0.242922  -0.040417
 Sum of Mulliken charges =  -0.00000   1.00000

 Dipole moment (field-independent basis, Debye):
    X=             -0.6363    Y=             -0.2280    Z=              0.3085  Tot=              0.7430
 Quadrupole moment (field-independent basis, Debye-Ang):
   XX=            -66.4391   YY=            -61.9596   ZZ=            -68.8663
   XY=              4.3207   XZ=             -1.3868   YZ=             -2.2204

 Normal termination of Gaussian 16 at Tue Nov 28 19:40:06 2023.
