 Gaussian 16, Revision B.01,
 Gaussian 16:  ES64L-G16RevB.01 20-Dec-2017

 -------------------------
 #P B3LYP/6-311+g(d) force
 -------------------------

 -----
 DPGEN
 -----
 Symbolic Z-matrix:
 Charge =  0 Multiplicity = 2

                         Standard orientation:
 ---------------------------------------------------------------------
 Center     Atomic      Atomic             Coordinates (Angstroms)
 Number     Number       Type             X           Y           Z
 ---------------------------------------------------------------------
      1         11           0       -1.620669    2.545402   -0.214019
      2         11           0       -3.527290   -0.281010   -1.770684
      3         11           0        1.753828    2.244951    0.337452
      4         11           0       -1.593433   -2.717116   -0.065365
      5         11           0       -1.525101    0.107350    2.244149
      6         11           0        4.147970   -0.267544   -1.463091
      7         11           0        2.364695   -1.632034    0.931559
 ---------------------------------------------------------------------

 SCF Done:  E(UB3LYP) =  -1136.11971124     A.U. after   21 cycles

 The electronic state is 2-A.
 Alpha  occ. eigenvalues --  -38.44904 -38.44602 -38.44571 -38.44367 -38.44337
 Alpha  occ. eigenvalues --  -38.43737 -38.43258  -2.20699  -2.20394  -2.20345
 Alpha  occ. eigenvalues --   -2.20167  -2.20103  -2.19504  -2.19072  -1.14362
 Alpha  occ. eigenvalues --   -1.14353  -1.14315  -1.14082  -1.14052  -1.14034
 Alpha  occ. eigenvalues --   -1.14025  -1.14012  -1.13942  -1.13823  -1.13805
 Alpha  occ. eigenvalues --   -1.13800  -1.13786  -1.13784  -1.13709  -1.13187
 Alpha  occ. eigenvalues --   -1.13170  -1.13150  -1.12755  -1.12741  -1.12707
 Alpha  occ. eigenvalues --   -0.16622  -0.13808  -0.11698  -0.11039
 Alpha virt. eigenvalues --   -0.06236  -0.05821  -0.04971  -0.03487  -0.02989
 Alpha virt. eigenvalues --   -0.02713  -0.01762  -0.01033  -0.01004  -0.00686
 Alpha virt. eigenvalues --   -0.00367  -0.00080   0.00080   0.00327   0.00487

  Beta  occ. eigenvalues --  -38.44844 -38.44573 -38.44568 -38.44339 -38.44279
  Beta  occ. eigenvalues --  -38.43739 -38.43253  -2.20588  -2.20341  -2.20338
  Beta  occ. eigenvalues --   -2.20107  -2.20003  -2.19512  -2.19064  -1.14283
  Beta  occ. eigenvalues --   -1.14278  -1.14235  -1.14057  -1.14023  -1.14017
  Beta  occ. eigenvalues --   -1.14007  -1.13989  -1.13918  -1.13808  -1.13786
  Beta  occ. eigenvalues --   -1.13712  -1.13709  -1.13685  -1.13677  -1.13194
  Beta  occ. eigenvalues --   -1.13178  -1.13133  -1.12750  -1.12738  -1.12683
  Beta  occ. eigenvalues --   -0.16036  -0.13331  -0.11585
  Beta virt. eigenvalues --   -0.07536  -0.06073  -0.05373  -0.04518  -0.03412
  Beta virt. eigenvalues --   -0.02406  -0.02098  -0.01572  -0.00960  -0.00683
  Beta virt. eigenvalues --   -0.00521  -0.00284   0.00169   0.00265   0.00436

 Mulliken charges and spin densities:
               1          2
     1  Na   0.043127   0.100866
     2  Na  -0.016182   0.440871
     3  Na  -0.287701  -0.007680
     4  Na  -0.131159   0.006723
     5  Na   0.254560   0.324856
     6  Na   0.309915   0.164726
     7  Na  -0.172560  -0.030361
 Sum of Mulliken charges =  -0.00000   1.00000

 Dipole moment (field-independent basis, Debye):
    X=              0.8801    Y=             -0.0674    Z=             -0.1353  Tot=              0.8930
 Quadrupole moment (field-independent basis, Debye-Ang):
   XX=            -61.2878   YY=            -72.3177   ZZ=            -65.2408
   XY=             -0.6251   XZ=             -3.6314   YZ=             -0.6955

 Normal termination of Gaussian 16 at Sun Dec  3 12:06:17 2023.
