 Gaussian 16, Revision B.01,
 Gaussian 16:  ES64L-G16RevB.01 20-Dec-2017

 -------------------------
 #P B3LYP/6-311+g(d) force
 -------------------------

 -----
 DPGEN
 -----
 Symbolic Z-matrix:
 Charge =  0 Multiplicity = 2

                         Standard orientation:
 ---------------------------------------------------------------------
 Center     Atomic      Atomic             Coordinates (Angstroms)
 Number     Number       Type             X           Y           Z
 ---------------------------------------------------------------------
      1         11           0        2.852101   -1.308978   -0.583547
      2         11           0       -1.013718   -2.641827    0.314400
      3         11           0        2.561951    1.703271    0.284583
      4         11           0       -3.361406    0.255274   -0.431587
      5         11           0       -0.964801    2.563724    0.174814
      6         11           0       -0.042286   -0.472862    1.956371
      7         11           0       -0.031841   -0.098603   -1.715034
 ---------------------------------------------------------------------

 SCF Done:  E(UB3LYP) =  -1136.13260453     A.U. after   21 cycles

 The electronic state is 2-A.
 Alpha  occ. eigenvalues --  -38.44570 -38.44098 -38.43741 -38.43662 -38.43643
 Alpha  occ. eigenvalues --  -38.43154 -38.42975  -2.20380  -2.19952  -2.19601
 Alpha  occ. eigenvalues --   -2.19592  -2.19586  -2.19044  -2.18834  -1.14053
 Alpha  occ. eigenvalues --   -1.14034  -1.14013  -1.13646  -1.13627  -1.13574
 Alpha  occ. eigenvalues --   -1.13356  -1.13283  -1.13255  -1.13248  -1.13237
 Alpha  occ. eigenvalues --   -1.13231  -1.13223  -1.13203  -1.13200  -1.12732
 Alpha  occ. eigenvalues --   -1.12687  -1.12640  -1.12520  -1.12505  -1.12460
 Alpha  occ. eigenvalues --   -0.18677  -0.13368  -0.12125  -0.10975
 Alpha virt. eigenvalues --   -0.06088  -0.05040  -0.04221  -0.03381  -0.02897
 Alpha virt. eigenvalues --   -0.02608  -0.01972  -0.00992  -0.00339  -0.00111
 Alpha virt. eigenvalues --   -0.00016   0.00312   0.00768   0.00862   0.00888

  Beta  occ. eigenvalues --  -38.44559 -38.44081 -38.43737 -38.43582 -38.43571
  Beta  occ. eigenvalues --  -38.43143 -38.42970  -2.20362  -2.19923  -2.19585
  Beta  occ. eigenvalues --   -2.19478  -2.19436  -2.19029  -2.18828  -1.14030
  Beta  occ. eigenvalues --   -1.14021  -1.14003  -1.13630  -1.13592  -1.13551
  Beta  occ. eigenvalues --   -1.13252  -1.13250  -1.13241  -1.13216  -1.13195
  Beta  occ. eigenvalues --   -1.13158  -1.13118  -1.13111  -1.13090  -1.12705
  Beta  occ. eigenvalues --   -1.12654  -1.12636  -1.12518  -1.12490  -1.12445
  Beta  occ. eigenvalues --   -0.17976  -0.13108  -0.11833
  Beta virt. eigenvalues --   -0.07132  -0.05989  -0.04990  -0.04147  -0.02707
  Beta virt. eigenvalues --   -0.02133  -0.01822  -0.01605  -0.00917  -0.00322
  Beta virt. eigenvalues --   -0.00138   0.00099   0.00357   0.00837   0.00869

 Mulliken charges and spin densities:
               1          2
     1  Na   0.331763   0.045816
     2  Na   0.187371  -0.059329
     3  Na  -0.040136  -0.003078
     4  Na   0.126923  -0.002680
     5  Na  -0.047691   0.009782
     6  Na  -0.281508   0.530119
     7  Na  -0.276722   0.479369
 Sum of Mulliken charges =  -0.00000   1.00000

 Dipole moment (field-independent basis, Debye):
    X=             -0.1521    Y=             -0.1170    Z=             -0.0898  Tot=              0.2119
 Quadrupole moment (field-independent basis, Debye-Ang):
   XX=            -53.3097   YY=            -67.5623   ZZ=            -73.1966
   XY=              0.2225   XZ=              0.6713   YZ=              1.7624

 Normal termination of Gaussian 16 at Thu Dec  7 09:55:11 2023.
