 Gaussian 16, Revision B.01,
 Gaussian 16:  ES64L-G16RevB.01 20-Dec-2017

 -------------------------
 #P B3LYP/6-311+g(d) force
 -------------------------

 -----
 DPGEN
 -----
 Symbolic Z-matrix:
 Charge =  0 Multiplicity = 2

                         Standard orientation:
 ---------------------------------------------------------------------
 Center     Atomic      Atomic             Coordinates (Angstroms)
 Number     Number       Type             X           Y           Z
 ---------------------------------------------------------------------
      1         11           0        2.281968    1.821256    0.242444
      2         11           0        4.687907   -0.130948   -0.999120
      3         11           0       -2.042211   -1.814565    0.052461
      4         11           0       -1.654574    1.762518    0.223308
      5         11           0        1.261964   -1.688459   -0.810357
      6         11           0       -4.250349    0.551390   -1.512344
      7         11           0       -0.284705   -0.501191    2.803607
 ---------------------------------------------------------------------

 SCF Done:  E(UB3LYP) =  -1136.12166116     A.U. after   24 cycles

 The electronic state is 2-A.
 Alpha  occ. eigenvalues --  -38.44953 -38.44756 -38.44294 -38.44123 -38.44086
 Alpha  occ. eigenvalues --  -38.43841 -38.42574  -2.20762  -2.20560  -2.20086
 Alpha  occ. eigenvalues --   -2.19966  -2.19954  -2.19629  -2.18385  -1.14458
 Alpha  occ. eigenvalues --   -1.14413  -1.14362  -1.14250  -1.14217  -1.14178
 Alpha  occ. eigenvalues --   -1.13751  -1.13747  -1.13714  -1.13665  -1.13658
 Alpha  occ. eigenvalues --   -1.13647  -1.13604  -1.13570  -1.13538  -1.13317
 Alpha  occ. eigenvalues --   -1.13288  -1.13260  -1.12050  -1.12048  -1.12029
 Alpha  occ. eigenvalues --   -0.17441  -0.13823  -0.11829  -0.11040
 Alpha virt. eigenvalues --   -0.06739  -0.05523  -0.04561  -0.03331  -0.02748
 Alpha virt. eigenvalues --   -0.02608  -0.02353  -0.01468  -0.01171  -0.00410
 Alpha virt. eigenvalues --    0.00004   0.00078   0.00215   0.00508   0.00605

  Beta  occ. eigenvalues --  -38.44893 -38.44719 -38.44286 -38.44082 -38.44046
  Beta  occ. eigenvalues --  -38.43841 -38.42571  -2.20652  -2.20494  -2.20070
  Beta  occ. eigenvalues --   -2.19892  -2.19881  -2.19632  -2.18380  -1.14385
  Beta  occ. eigenvalues --   -1.14337  -1.14274  -1.14207  -1.14175  -1.14112
  Beta  occ. eigenvalues --   -1.13740  -1.13733  -1.13704  -1.13617  -1.13608
  Beta  occ. eigenvalues --   -1.13595  -1.13559  -1.13497  -1.13480  -1.13322
  Beta  occ. eigenvalues --   -1.13275  -1.13260  -1.12045  -1.12042  -1.12026
  Beta  occ. eigenvalues --   -0.16664  -0.13680  -0.10988
  Beta virt. eigenvalues --   -0.07911  -0.06317  -0.04884  -0.04431  -0.02798
  Beta virt. eigenvalues --   -0.02566  -0.02226  -0.02092  -0.01157  -0.00849
  Beta virt. eigenvalues --   -0.00237   0.00052   0.00229   0.00278   0.00626

 Mulliken charges and spin densities:
               1          2
     1  Na  -0.221379   0.153753
     2  Na   0.513590   0.028089
     3  Na  -0.008582   0.161154
     4  Na  -0.446428   0.199609
     5  Na  -0.374282   0.364436
     6  Na   0.380586   0.008864
     7  Na   0.156495   0.084096
 Sum of Mulliken charges =  -0.00000   1.00000

 Dipole moment (field-independent basis, Debye):
    X=              1.5421    Y=             -0.4661    Z=              0.5559  Tot=              1.7042
 Quadrupole moment (field-independent basis, Debye-Ang):
   XX=            -62.6649   YY=            -68.3140   ZZ=            -68.7785
   XY=              2.2265   XZ=             -2.1000   YZ=              3.3132

 Normal termination of Gaussian 16 at Sun Dec  3 13:12:14 2023.
