 Gaussian 16, Revision B.01,
 Gaussian 16:  ES64L-G16RevB.01 20-Dec-2017

 -------------------------
 #P B3LYP/6-311+g(d) force
 -------------------------

 -----
 DPGEN
 -----
 Symbolic Z-matrix:
 Charge =  0 Multiplicity = 2

                         Standard orientation:
 ---------------------------------------------------------------------
 Center     Atomic      Atomic             Coordinates (Angstroms)
 Number     Number       Type             X           Y           Z
 ---------------------------------------------------------------------
      1         11           0       -2.822215   -1.704535   -0.503387
      2         11           0       -0.096017    0.220809   -1.089095
      3         11           0        1.377471    2.747282   -0.130327
      4         11           0       -0.284910   -0.132952    2.196457
      5         11           0       -2.574088    1.798651   -0.120567
      6         11           0        3.279578   -0.324332   -0.293952
      7         11           0        1.120182   -2.604922   -0.059130
 ---------------------------------------------------------------------

 SCF Done:  E(UB3LYP) =  -1136.13103956     A.U. after   20 cycles

 The electronic state is 2-A.
 Alpha  occ. eigenvalues --  -38.44284 -38.44197 -38.44110 -38.43481 -38.43464
 Alpha  occ. eigenvalues --  -38.43272 -38.42846  -2.20125  -2.20040  -2.19923
 Alpha  occ. eigenvalues --   -2.19360  -2.19297  -2.19147  -2.18937  -1.13841
 Alpha  occ. eigenvalues --   -1.13782  -1.13740  -1.13723  -1.13700  -1.13677
 Alpha  occ. eigenvalues --   -1.13600  -1.13568  -1.13558  -1.13043  -1.13031
 Alpha  occ. eigenvalues --   -1.12973  -1.12967  -1.12950  -1.12916  -1.12856
 Alpha  occ. eigenvalues --   -1.12798  -1.12779  -1.12632  -1.12580  -1.12551
 Alpha  occ. eigenvalues --   -0.18575  -0.13389  -0.12167  -0.10446
 Alpha virt. eigenvalues --   -0.05840  -0.05639  -0.04433  -0.03038  -0.02521
 Alpha virt. eigenvalues --   -0.02319  -0.01854  -0.01361  -0.00605  -0.00377
 Alpha virt. eigenvalues --   -0.00035   0.00290   0.00706   0.00787   0.00865

  Beta  occ. eigenvalues --  -38.44278 -38.44190 -38.44095 -38.43462 -38.43364
  Beta  occ. eigenvalues --  -38.43267 -38.42817  -2.20117  -2.20030  -2.19896
  Beta  occ. eigenvalues --   -2.19297  -2.19146  -2.19140  -2.18888  -1.13835
  Beta  occ. eigenvalues --   -1.13763  -1.13730  -1.13718  -1.13680  -1.13672
  Beta  occ. eigenvalues --   -1.13574  -1.13550  -1.13536  -1.13030  -1.12942
  Beta  occ. eigenvalues --   -1.12913  -1.12900  -1.12851  -1.12825  -1.12813
  Beta  occ. eigenvalues --   -1.12784  -1.12760  -1.12570  -1.12550  -1.12516
  Beta  occ. eigenvalues --   -0.17894  -0.13115  -0.11973
  Beta virt. eigenvalues --   -0.06538  -0.05762  -0.05538  -0.04412  -0.02351
  Beta virt. eigenvalues --   -0.01815  -0.01736  -0.01348  -0.01225  -0.00597
  Beta virt. eigenvalues --   -0.00397   0.00153   0.00360   0.00784   0.00801

 Mulliken charges and spin densities:
               1          2
     1  Na   0.280755   0.112568
     2  Na  -1.332441  -0.137616
     3  Na   0.418244   0.096357
     4  Na  -0.399874   0.648136
     5  Na   0.420011   0.119619
     6  Na   0.205618   0.056110
     7  Na   0.407686   0.104826
 Sum of Mulliken charges =  -0.00000   1.00000

 Dipole moment (field-independent basis, Debye):
    X=             -0.2464    Y=              0.0927    Z=              0.2700  Tot=              0.3771
 Quadrupole moment (field-independent basis, Debye-Ang):
   XX=            -53.1094   YY=            -62.6817   ZZ=            -76.0306
   XY=              0.1505   XZ=              0.2599   YZ=              0.9899

 Normal termination of Gaussian 16 at Thu Dec  7 18:22:01 2023.
