 Gaussian 16, Revision B.01,
 Gaussian 16:  ES64L-G16RevB.01 20-Dec-2017

 -------------------------
 #P B3LYP/6-311+g(d) force
 -------------------------

 -----
 DPGEN
 -----
 Symbolic Z-matrix:
 Charge =  0 Multiplicity = 2

                         Standard orientation:
 ---------------------------------------------------------------------
 Center     Atomic      Atomic             Coordinates (Angstroms)
 Number     Number       Type             X           Y           Z
 ---------------------------------------------------------------------
      1         11           0        0.118771   -0.937316   -1.121438
      2         11           0       -1.329454   -0.035416    1.709375
      3         11           0       -2.689807   -1.100108   -0.770808
      4         11           0       -1.603204    1.668351   -0.593049
      5         11           0        1.331362   -1.188431    1.391977
      6         11           0        1.138676    1.831295    0.318048
      7         11           0        3.033655   -0.238375   -0.934105
 ---------------------------------------------------------------------

 SCF Done:  E(UB3LYP) =  -1136.09560542     A.U. after   30 cycles

 The electronic state is 2-A.
 Alpha  occ. eigenvalues --  -38.44667 -38.44177 -38.44153 -38.44108 -38.43448
 Alpha  occ. eigenvalues --  -38.43265 -38.42374  -2.20636  -2.20311  -2.20243
 Alpha  occ. eigenvalues --   -2.20118  -2.19664  -2.19360  -2.18437  -1.14375
 Alpha  occ. eigenvalues --   -1.14300  -1.14259  -1.14189  -1.14087  -1.13990
 Alpha  occ. eigenvalues --   -1.13922  -1.13878  -1.13813  -1.13789  -1.13750
 Alpha  occ. eigenvalues --   -1.13694  -1.13327  -1.13280  -1.13245  -1.13060
 Alpha  occ. eigenvalues --   -1.12996  -1.12967  -1.12132  -1.12084  -1.12061
 Alpha  occ. eigenvalues --   -0.20851  -0.14648  -0.12340  -0.11474
 Alpha virt. eigenvalues --   -0.06100  -0.04568  -0.04326  -0.03461  -0.02585
 Alpha virt. eigenvalues --   -0.02503  -0.01757  -0.00536  -0.00338   0.00259
 Alpha virt. eigenvalues --    0.00494   0.00646   0.00833   0.00939   0.00959

  Beta  occ. eigenvalues --  -38.44645 -38.44102 -38.44092 -38.44091 -38.43410
  Beta  occ. eigenvalues --  -38.43245 -38.42363  -2.20597  -2.20179  -2.20133
  Beta  occ. eigenvalues --   -2.20091  -2.19600  -2.19328  -2.18422  -1.14348
  Beta  occ. eigenvalues --   -1.14261  -1.14230  -1.14085  -1.14017  -1.13918
  Beta  occ. eigenvalues --   -1.13858  -1.13816  -1.13743  -1.13727  -1.13681
  Beta  occ. eigenvalues --   -1.13645  -1.13281  -1.13221  -1.13187  -1.13039
  Beta  occ. eigenvalues --   -1.12976  -1.12917  -1.12127  -1.12069  -1.12016
  Beta  occ. eigenvalues --   -0.20018  -0.14412  -0.11254
  Beta virt. eigenvalues --   -0.08020  -0.05936  -0.04317  -0.03859  -0.03091
  Beta virt. eigenvalues --   -0.01859  -0.01708  -0.01622  -0.00342  -0.00162
  Beta virt. eigenvalues --    0.00302   0.00564   0.00724   0.00923   0.00967

 Mulliken charges and spin densities:
               1          2
     1  Na  -1.083151   0.542820
     2  Na   0.371779   0.051839
     3  Na   0.562128   0.078621
     4  Na  -0.052492   0.063674
     5  Na  -0.460721   0.119839
     6  Na  -0.954951   0.303738
     7  Na   1.617408  -0.160532
 Sum of Mulliken charges =  -0.00000   1.00000

 Dipole moment (field-independent basis, Debye):
    X=              0.3138    Y=             -0.0450    Z=             -0.0840  Tot=              0.3280
 Quadrupole moment (field-independent basis, Debye-Ang):
   XX=            -51.7513   YY=            -77.5707   ZZ=            -66.0228
   XY=              0.5527   XZ=             -0.9075   YZ=             -1.7761

 Normal termination of Gaussian 16 at Sat Dec  9 05:58:24 2023.
