 Gaussian 16, Revision B.01,
 Gaussian 16:  ES64L-G16RevB.01 20-Dec-2017

 -------------------------
 #P B3LYP/6-311+g(d) force
 -------------------------

 -----
 DPGEN
 -----
 Symbolic Z-matrix:
 Charge =  0 Multiplicity = 2

                         Standard orientation:
 ---------------------------------------------------------------------
 Center     Atomic      Atomic             Coordinates (Angstroms)
 Number     Number       Type             X           Y           Z
 ---------------------------------------------------------------------
      1         11           0       -0.359342    2.851451   -1.031277
      2         11           0        1.247022   -1.114961   -0.880237
      3         11           0       -2.146178   -0.675139   -1.724119
      4         11           0        4.806721   -0.901503   -0.204130
      5         11           0        1.723091    0.634763    1.848447
      6         11           0       -2.061927    1.442641    1.057887
      7         11           0       -3.209386   -2.237251    0.933429
 ---------------------------------------------------------------------

 SCF Done:  E(UB3LYP) =  -1136.11842747     A.U. after   23 cycles

 The electronic state is 2-A.
 Alpha  occ. eigenvalues --  -38.45464 -38.44960 -38.44450 -38.43831 -38.43416
 Alpha  occ. eigenvalues --  -38.43377 -38.43306  -2.21200  -2.20753  -2.20276
 Alpha  occ. eigenvalues --   -2.19704  -2.19250  -2.19244  -2.19113  -1.14878
 Alpha  occ. eigenvalues --   -1.14874  -1.14816  -1.14475  -1.14413  -1.14327
 Alpha  occ. eigenvalues --   -1.13986  -1.13938  -1.13869  -1.13424  -1.13370
 Alpha  occ. eigenvalues --   -1.13328  -1.12932  -1.12924  -1.12918  -1.12890
 Alpha  occ. eigenvalues --   -1.12879  -1.12874  -1.12769  -1.12762  -1.12732
 Alpha  occ. eigenvalues --   -0.17418  -0.13598  -0.11570  -0.10645
 Alpha virt. eigenvalues --   -0.07135  -0.04938  -0.04665  -0.03125  -0.03059
 Alpha virt. eigenvalues --   -0.02703  -0.02256  -0.01209  -0.00948  -0.00420
 Alpha virt. eigenvalues --   -0.00101   0.00043   0.00226   0.00624   0.00780

  Beta  occ. eigenvalues --  -38.45470 -38.44915 -38.44413 -38.43809 -38.43405
  Beta  occ. eigenvalues --  -38.43345 -38.43280  -2.21213  -2.20668  -2.20211
  Beta  occ. eigenvalues --   -2.19664  -2.19227  -2.19193  -2.19063  -1.14886
  Beta  occ. eigenvalues --   -1.14879  -1.14824  -1.14419  -1.14353  -1.14264
  Beta  occ. eigenvalues --   -1.13934  -1.13894  -1.13814  -1.13383  -1.13340
  Beta  occ. eigenvalues --   -1.13302  -1.12913  -1.12896  -1.12875  -1.12869
  Beta  occ. eigenvalues --   -1.12849  -1.12833  -1.12735  -1.12719  -1.12698
  Beta  occ. eigenvalues --   -0.16719  -0.13455  -0.11408
  Beta virt. eigenvalues --   -0.07031  -0.06846  -0.04604  -0.04227  -0.03006
  Beta virt. eigenvalues --   -0.02749  -0.02408  -0.01547  -0.01071  -0.00681
  Beta virt. eigenvalues --   -0.00264   0.00021   0.00134   0.00348   0.00748

 Mulliken charges and spin densities:
               1          2
     1  Na   0.028990   0.053798
     2  Na  -1.010760   0.276014
     3  Na   0.452896   0.028153
     4  Na   0.523215  -0.056025
     5  Na   0.085060   0.106450
     6  Na  -0.116526   0.451975
     7  Na   0.037125   0.139635
 Sum of Mulliken charges =  -0.00000   1.00000

 Dipole moment (field-independent basis, Debye):
    X=              2.2176    Y=              0.1590    Z=              0.0713  Tot=              2.2244
 Quadrupole moment (field-independent basis, Debye-Ang):
   XX=            -52.1226   YY=            -71.5162   ZZ=            -69.1263
   XY=             -1.8658   XZ=             -1.0951   YZ=             -2.8779

 Normal termination of Gaussian 16 at Sun Dec  3 16:51:08 2023.
