 Gaussian 16, Revision B.01,
 Gaussian 16:  ES64L-G16RevB.01 20-Dec-2017

 -------------------------
 #P B3LYP/6-311+g(d) force
 -------------------------

 -----
 DPGEN
 -----
 Symbolic Z-matrix:
 Charge =  0 Multiplicity = 2

                         Standard orientation:
 ---------------------------------------------------------------------
 Center     Atomic      Atomic             Coordinates (Angstroms)
 Number     Number       Type             X           Y           Z
 ---------------------------------------------------------------------
      1         11           0        0.060758   -2.906234   -0.248388
      2         11           0       -0.174334    0.190004    2.046940
      3         11           0        2.079827    1.926705   -0.431262
      4         11           0       -0.342330   -0.138918   -1.517854
      5         11           0       -3.129713   -0.952465    0.032039
      6         11           0       -1.588212    2.700760   -0.103122
      7         11           0        3.094005   -0.819853    0.221648
 ---------------------------------------------------------------------

 SCF Done:  E(UB3LYP) =  -1136.13437937     A.U. after   19 cycles

 The electronic state is 2-A.
 Alpha  occ. eigenvalues --  -38.44572 -38.43957 -38.43610 -38.43569 -38.43536
 Alpha  occ. eigenvalues --  -38.43489 -38.42987  -2.20381  -2.19805  -2.19455
 Alpha  occ. eigenvalues --   -2.19428  -2.19413  -2.19337  -2.18998  -1.14068
 Alpha  occ. eigenvalues --   -1.14041  -1.14006  -1.13552  -1.13454  -1.13434
 Alpha  occ. eigenvalues --   -1.13136  -1.13112  -1.13109  -1.13100  -1.13089
 Alpha  occ. eigenvalues --   -1.13078  -1.13074  -1.13056  -1.13035  -1.13024
 Alpha  occ. eigenvalues --   -1.12988  -1.12947  -1.12675  -1.12625  -1.12622
 Alpha  occ. eigenvalues --   -0.18600  -0.13142  -0.12353  -0.10576
 Alpha virt. eigenvalues --   -0.05989  -0.05174  -0.04564  -0.03193  -0.02769
 Alpha virt. eigenvalues --   -0.02440  -0.01742  -0.01218  -0.00461  -0.00284
 Alpha virt. eigenvalues --   -0.00000   0.00345   0.00774   0.00844   0.00900

  Beta  occ. eigenvalues --  -38.44569 -38.43955 -38.43606 -38.43559 -38.43483
  Beta  occ. eigenvalues --  -38.43440 -38.42928  -2.20378  -2.19804  -2.19439
  Beta  occ. eigenvalues --   -2.19425  -2.19329  -2.19237  -2.18891  -1.14057
  Beta  occ. eigenvalues --   -1.14029  -1.14006  -1.13554  -1.13437  -1.13433
  Beta  occ. eigenvalues --   -1.13122  -1.13103  -1.13084  -1.13075  -1.13068
  Beta  occ. eigenvalues --   -1.13067  -1.13053  -1.12974  -1.12961  -1.12945
  Beta  occ. eigenvalues --   -1.12912  -1.12898  -1.12598  -1.12547  -1.12546
  Beta  occ. eigenvalues --   -0.17883  -0.12935  -0.12105
  Beta virt. eigenvalues --   -0.06664  -0.05963  -0.05143  -0.04533  -0.02430
  Beta virt. eigenvalues --   -0.02016  -0.01656  -0.01370  -0.01150  -0.00505
  Beta virt. eigenvalues --   -0.00316   0.00142   0.00373   0.00799   0.00869

 Mulliken charges and spin densities:
               1          2
     1  Na   0.197172  -0.023246
     2  Na  -0.514916   0.815369
     3  Na   0.217149   0.015100
     4  Na  -0.218765   0.307921
     5  Na   0.144829  -0.071635
     6  Na   0.115204  -0.074475
     7  Na   0.059327   0.030966
 Sum of Mulliken charges =  -0.00000   1.00000

 Dipole moment (field-independent basis, Debye):
    X=             -0.4976    Y=             -0.1156    Z=              0.2160  Tot=              0.5546
 Quadrupole moment (field-independent basis, Debye-Ang):
   XX=            -54.4832   YY=            -62.5711   ZZ=            -75.5816
   XY=             -0.6218   XZ=             -0.1567   YZ=             -1.0053

 Normal termination of Gaussian 16 at Thu Dec  7 10:22:21 2023.
