 Gaussian 16, Revision B.01,
 Gaussian 16:  ES64L-G16RevB.01 20-Dec-2017

 -------------------------
 #P B3LYP/6-311+g(d) force
 -------------------------

 -----
 DPGEN
 -----
 Symbolic Z-matrix:
 Charge =  0 Multiplicity = 2

                         Standard orientation:
 ---------------------------------------------------------------------
 Center     Atomic      Atomic             Coordinates (Angstroms)
 Number     Number       Type             X           Y           Z
 ---------------------------------------------------------------------
      1         11           0       -0.170678   -0.137178    1.898356
      2         11           0       -2.881437   -0.677262   -0.091074
      3         11           0       -0.061751    0.234642   -1.752842
      4         11           0        2.308146    1.830421   -0.579443
      5         11           0       -1.448719    2.720635    0.393925
      6         11           0        2.619386   -1.237514    0.639777
      7         11           0       -0.364948   -2.733744   -0.508699
 ---------------------------------------------------------------------

 SCF Done:  E(UB3LYP) =  -1136.13758981     A.U. after   19 cycles

 The electronic state is 2-A.
 Alpha  occ. eigenvalues --  -38.43737 -38.43658 -38.43606 -38.43571 -38.43449
 Alpha  occ. eigenvalues --  -38.43398 -38.43183  -2.19615  -2.19554  -2.19520
 Alpha  occ. eigenvalues --   -2.19392  -2.19388  -2.19325  -2.19084  -1.13317
 Alpha  occ. eigenvalues --   -1.13300  -1.13277  -1.13244  -1.13235  -1.13193
 Alpha  occ. eigenvalues --   -1.13181  -1.13171  -1.13144  -1.13067  -1.13063
 Alpha  occ. eigenvalues --   -1.13054  -1.13021  -1.13006  -1.12997  -1.12995
 Alpha  occ. eigenvalues --   -1.12966  -1.12954  -1.12763  -1.12734  -1.12706
 Alpha  occ. eigenvalues --   -0.18952  -0.13014  -0.12471  -0.11223
 Alpha virt. eigenvalues --   -0.05305  -0.04960  -0.04563  -0.03335  -0.03124
 Alpha virt. eigenvalues --   -0.02749  -0.01291  -0.01111  -0.00254   0.00023
 Alpha virt. eigenvalues --    0.00095   0.00371   0.00879   0.00893   0.00936

  Beta  occ. eigenvalues --  -38.43732 -38.43644 -38.43565 -38.43524 -38.43434
  Beta  occ. eigenvalues --  -38.43325 -38.43171  -2.19610  -2.19498  -2.19403
  Beta  occ. eigenvalues --   -2.19381  -2.19301  -2.19256  -2.19065  -1.13309
  Beta  occ. eigenvalues --   -1.13274  -1.13241  -1.13232  -1.13158  -1.13138
  Beta  occ. eigenvalues --   -1.13126  -1.13097  -1.13083  -1.13046  -1.13033
  Beta  occ. eigenvalues --   -1.13011  -1.12977  -1.12958  -1.12950  -1.12930
  Beta  occ. eigenvalues --   -1.12918  -1.12909  -1.12741  -1.12717  -1.12680
  Beta  occ. eigenvalues --   -0.18221  -0.12732  -0.12189
  Beta virt. eigenvalues --   -0.07300  -0.05294  -0.04876  -0.04518  -0.02567
  Beta virt. eigenvalues --   -0.02367  -0.01707  -0.01201  -0.01021  -0.00196
  Beta virt. eigenvalues --   -0.00005   0.00145   0.00396   0.00888   0.00928

 Mulliken charges and spin densities:
               1          2
     1  Na  -0.177258   0.594357
     2  Na   0.086623  -0.077359
     3  Na  -0.018806   0.426242
     4  Na   0.006738  -0.031941
     5  Na  -0.137822  -0.047404
     6  Na   0.104728   0.076680
     7  Na   0.135797   0.059424
 Sum of Mulliken charges =  -0.00000   1.00000

 Dipole moment (field-independent basis, Debye):
    X=             -0.1783    Y=              0.1376    Z=              0.1156  Tot=              0.2532
 Quadrupole moment (field-independent basis, Debye-Ang):
   XX=            -59.3364   YY=            -62.6957   ZZ=            -72.1695
   XY=             -0.1411   XZ=              0.2046   YZ=              0.6472

 Normal termination of Gaussian 16 at Tue Dec  5 18:40:58 2023.
