 Gaussian 16, Revision B.01,
 Gaussian 16:  ES64L-G16RevB.01 20-Dec-2017

 -------------------------
 #P B3LYP/6-311+g(d) force
 -------------------------

 -----
 DPGEN
 -----
 Symbolic Z-matrix:
 Charge =  0 Multiplicity = 2

                         Standard orientation:
 ---------------------------------------------------------------------
 Center     Atomic      Atomic             Coordinates (Angstroms)
 Number     Number       Type             X           Y           Z
 ---------------------------------------------------------------------
      1         11           0        2.450601    2.320737   -0.416311
      2         11           0       -1.960228    2.409200   -0.073638
      3         11           0       -0.215734    0.243280   -1.615622
      4         11           0       -0.032922    0.065156    2.114964
      5         11           0       -3.212096   -0.998163    0.272447
      6         11           0        2.756913   -1.279263    0.602426
      7         11           0        0.213465   -2.760947   -0.884265
 ---------------------------------------------------------------------

 SCF Done:  E(UB3LYP) =  -1136.13110759     A.U. after   21 cycles

 The electronic state is 2-A.
 Alpha  occ. eigenvalues --  -38.44499 -38.44145 -38.44040 -38.43977 -38.43854
 Alpha  occ. eigenvalues --  -38.43311 -38.43084  -2.20278  -2.19995  -2.19862
 Alpha  occ. eigenvalues --   -2.19743  -2.19691  -2.19272  -2.18948  -1.13957
 Alpha  occ. eigenvalues --   -1.13928  -1.13921  -1.13663  -1.13630  -1.13614
 Alpha  occ. eigenvalues --   -1.13576  -1.13523  -1.13472  -1.13425  -1.13395
 Alpha  occ. eigenvalues --   -1.13388  -1.13368  -1.13353  -1.13321  -1.12973
 Alpha  occ. eigenvalues --   -1.12943  -1.12876  -1.12633  -1.12584  -1.12568
 Alpha  occ. eigenvalues --   -0.18168  -0.13001  -0.11974  -0.10985
 Alpha virt. eigenvalues --   -0.05949  -0.05440  -0.04341  -0.03388  -0.02875
 Alpha virt. eigenvalues --   -0.02709  -0.01773  -0.01250  -0.00453  -0.00292
 Alpha virt. eigenvalues --    0.00003   0.00347   0.00733   0.00754   0.00790

  Beta  occ. eigenvalues --  -38.44495 -38.44055 -38.44037 -38.43975 -38.43844
  Beta  occ. eigenvalues --  -38.43246 -38.43062  -2.20274  -2.19858  -2.19828
  Beta  occ. eigenvalues --   -2.19741  -2.19674  -2.19155  -2.18911  -1.13943
  Beta  occ. eigenvalues --   -1.13926  -1.13916  -1.13569  -1.13552  -1.13524
  Beta  occ. eigenvalues --   -1.13504  -1.13491  -1.13468  -1.13416  -1.13392
  Beta  occ. eigenvalues --   -1.13386  -1.13351  -1.13326  -1.13315  -1.12891
  Beta  occ. eigenvalues --   -1.12857  -1.12795  -1.12595  -1.12552  -1.12545
  Beta  occ. eigenvalues --   -0.17446  -0.12798  -0.11714
  Beta virt. eigenvalues --   -0.07112  -0.05934  -0.05296  -0.04232  -0.02670
  Beta virt. eigenvalues --   -0.02212  -0.01734  -0.01659  -0.01159  -0.00459
  Beta virt. eigenvalues --   -0.00256   0.00099   0.00371   0.00761   0.00812

 Mulliken charges and spin densities:
               1          2
     1  Na  -0.148036  -0.053980
     2  Na  -0.012977  -0.062499
     3  Na   0.258252   0.330968
     4  Na  -0.180892   0.581853
     5  Na  -0.000965   0.048526
     6  Na   0.081346   0.129043
     7  Na   0.003272   0.026089
 Sum of Mulliken charges =  -0.00000   1.00000

 Dipole moment (field-independent basis, Debye):
    X=             -0.4294    Y=              0.2366    Z=              0.3632  Tot=              0.6102
 Quadrupole moment (field-independent basis, Debye-Ang):
   XX=            -55.3886   YY=            -64.5398   ZZ=            -73.5296
   XY=              0.4718   XZ=             -0.3693   YZ=             -0.0549

 Normal termination of Gaussian 16 at Thu Dec  7 05:56:03 2023.
