 Gaussian 16, Revision B.01,
 Gaussian 16:  ES64L-G16RevB.01 20-Dec-2017

 -------------------------
 #P B3LYP/6-311+g(d) force
 -------------------------

 -----
 DPGEN
 -----
 Symbolic Z-matrix:
 Charge =  0 Multiplicity = 2

                         Standard orientation:
 ---------------------------------------------------------------------
 Center     Atomic      Atomic             Coordinates (Angstroms)
 Number     Number       Type             X           Y           Z
 ---------------------------------------------------------------------
      1         11           0        2.028795    1.913960   -0.577788
      2         11           0       -0.693128    3.315375    0.230562
      3         11           0       -3.245048   -0.259684    0.594325
      4         11           0        5.027675   -0.735220   -0.934449
      5         11           0       -5.885545   -1.310525   -1.168243
      6         11           0        0.042926   -0.567323    1.481407
      7         11           0        2.724325   -2.356583    0.374187
 ---------------------------------------------------------------------

 SCF Done:  E(UB3LYP) =  -1136.11530774     A.U. after   20 cycles

 The electronic state is 2-A.
 Alpha  occ. eigenvalues --  -38.44648 -38.44580 -38.44431 -38.44429 -38.44291
 Alpha  occ. eigenvalues --  -38.44259 -38.43677  -2.20461  -2.20426  -2.20261
 Alpha  occ. eigenvalues --   -2.20242  -2.20072  -2.20055  -2.19462  -1.14160
 Alpha  occ. eigenvalues --   -1.14111  -1.14097  -1.14095  -1.14090  -1.14029
 Alpha  occ. eigenvalues --   -1.13928  -1.13923  -1.13918  -1.13915  -1.13892
 Alpha  occ. eigenvalues --   -1.13879  -1.13719  -1.13719  -1.13719  -1.13701
 Alpha  occ. eigenvalues --   -1.13695  -1.13675  -1.13151  -1.13144  -1.13102
 Alpha  occ. eigenvalues --   -0.16731  -0.13763  -0.12383  -0.11394
 Alpha virt. eigenvalues --   -0.06644  -0.05980  -0.04307  -0.03455  -0.03054
 Alpha virt. eigenvalues --   -0.02307  -0.02287  -0.01641  -0.01191  -0.00873
 Alpha virt. eigenvalues --   -0.00593  -0.00346   0.00141   0.00314   0.00657

  Beta  occ. eigenvalues --  -38.44614 -38.44495 -38.44414 -38.44411 -38.44250
  Beta  occ. eigenvalues --  -38.44234 -38.43691  -2.20397  -2.20270  -2.20238
  Beta  occ. eigenvalues --   -2.20205  -2.20040  -2.19965  -2.19491  -1.14123
  Beta  occ. eigenvalues --   -1.14067  -1.14048  -1.13996  -1.13989  -1.13921
  Beta  occ. eigenvalues --   -1.13912  -1.13904  -1.13889  -1.13882  -1.13864
  Beta  occ. eigenvalues --   -1.13836  -1.13708  -1.13681  -1.13666  -1.13646
  Beta  occ. eigenvalues --   -1.13646  -1.13630  -1.13171  -1.13163  -1.13096
  Beta  occ. eigenvalues --   -0.16087  -0.13525  -0.11824
  Beta virt. eigenvalues --   -0.08090  -0.06144  -0.05549  -0.04045  -0.03110
  Beta virt. eigenvalues --   -0.02734  -0.02211  -0.01913  -0.01468  -0.01029
  Beta virt. eigenvalues --   -0.00523  -0.00274  -0.00116   0.00223   0.00441

 Mulliken charges and spin densities:
               1          2
     1  Na  -0.227771   0.111571
     2  Na   0.548584   0.093985
     3  Na  -0.223636  -0.064932
     4  Na   0.015824   0.120834
     5  Na   0.112122   0.288463
     6  Na  -0.924463   0.481849
     7  Na   0.699340  -0.031770
 Sum of Mulliken charges =  -0.00000   1.00000

 Dipole moment (field-independent basis, Debye):
    X=              1.0432    Y=              0.2875    Z=             -0.3951  Tot=              1.1520
 Quadrupole moment (field-independent basis, Debye-Ang):
   XX=            -58.2330   YY=            -66.9457   ZZ=            -70.2657
   XY=             -3.3857   XZ=              0.7663   YZ=              1.8155

 Normal termination of Gaussian 16 at Wed Nov 29 01:55:29 2023.
