 Gaussian 16, Revision B.01,
 Gaussian 16:  ES64L-G16RevB.01 20-Dec-2017

 -------------------------
 #P B3LYP/6-311+g(d) force
 -------------------------

 -----
 DPGEN
 -----
 Symbolic Z-matrix:
 Charge =  0 Multiplicity = 2

                         Standard orientation:
 ---------------------------------------------------------------------
 Center     Atomic      Atomic             Coordinates (Angstroms)
 Number     Number       Type             X           Y           Z
 ---------------------------------------------------------------------
      1         11           0       -0.935395   -2.678067    0.073185
      2         11           0       -0.980940    2.878181    0.370462
      3         11           0       -0.097025    0.006976    1.861377
      4         11           0        2.926879    1.472959   -0.212099
      5         11           0        2.902421   -1.734405   -0.082564
      6         11           0       -3.340546   -0.372612   -0.180504
      7         11           0       -0.475393    0.426969   -1.829857
 ---------------------------------------------------------------------

 SCF Done:  E(UB3LYP) =  -1136.13300534     A.U. after   20 cycles

 The electronic state is 2-A.
 Alpha  occ. eigenvalues --  -38.44727 -38.44333 -38.43990 -38.43704 -38.43377
 Alpha  occ. eigenvalues --  -38.43248 -38.43223  -2.20551  -2.20132  -2.19788
 Alpha  occ. eigenvalues --   -2.19595  -2.19286  -2.19083  -2.19075  -1.14227
 Alpha  occ. eigenvalues --   -1.14207  -1.14189  -1.13817  -1.13804  -1.13765
 Alpha  occ. eigenvalues --   -1.13456  -1.13447  -1.13427  -1.13275  -1.13239
 Alpha  occ. eigenvalues --   -1.13215  -1.12968  -1.12936  -1.12906  -1.12756
 Alpha  occ. eigenvalues --   -1.12748  -1.12746  -1.12740  -1.12711  -1.12703
 Alpha  occ. eigenvalues --   -0.18220  -0.13265  -0.12092  -0.10562
 Alpha virt. eigenvalues --   -0.06205  -0.05338  -0.04520  -0.03225  -0.02800
 Alpha virt. eigenvalues --   -0.02431  -0.01973  -0.01169  -0.00619  -0.00449
 Alpha virt. eigenvalues --   -0.00044   0.00323   0.00752   0.00790   0.00798

  Beta  occ. eigenvalues --  -38.44719 -38.44328 -38.43991 -38.43639 -38.43289
  Beta  occ. eigenvalues --  -38.43237 -38.43217  -2.20539  -2.20126  -2.19791
  Beta  occ. eigenvalues --   -2.19476  -2.19124  -2.19067  -2.19066  -1.14208
  Beta  occ. eigenvalues --   -1.14190  -1.14180  -1.13815  -1.13786  -1.13762
  Beta  occ. eigenvalues --   -1.13456  -1.13445  -1.13426  -1.13194  -1.13157
  Beta  occ. eigenvalues --   -1.13125  -1.12865  -1.12830  -1.12795  -1.12743
  Beta  occ. eigenvalues --   -1.12731  -1.12716  -1.12707  -1.12702  -1.12689
  Beta  occ. eigenvalues --   -0.17514  -0.13047  -0.11850
  Beta virt. eigenvalues --   -0.06736  -0.06071  -0.05343  -0.04457  -0.02536
  Beta virt. eigenvalues --   -0.02050  -0.01857  -0.01425  -0.01115  -0.00654
  Beta virt. eigenvalues --   -0.00473   0.00111   0.00370   0.00794   0.00823

 Mulliken charges and spin densities:
               1          2
     1  Na  -0.095833  -0.101849
     2  Na  -0.041455  -0.159548
     3  Na  -0.021979   0.715161
     4  Na   0.064624  -0.046281
     5  Na  -0.126479  -0.073937
     6  Na   0.356400  -0.010256
     7  Na  -0.135278   0.676708
 Sum of Mulliken charges =  -0.00000   1.00000

 Dipole moment (field-independent basis, Debye):
    X=             -0.2284    Y=              0.1126    Z=             -0.0790  Tot=              0.2667
 Quadrupole moment (field-independent basis, Debye-Ang):
   XX=            -53.9367   YY=            -64.5510   ZZ=            -75.2673
   XY=             -0.0182   XZ=             -0.7522   YZ=              0.8143

 Normal termination of Gaussian 16 at Thu Dec  7 15:13:22 2023.
