 Gaussian 16, Revision B.01,
 Gaussian 16:  ES64L-G16RevB.01 20-Dec-2017

 -------------------------
 #P B3LYP/6-311+g(d) force
 -------------------------

 -----
 DPGEN
 -----
 Symbolic Z-matrix:
 Charge =  0 Multiplicity = 2

                         Standard orientation:
 ---------------------------------------------------------------------
 Center     Atomic      Atomic             Coordinates (Angstroms)
 Number     Number       Type             X           Y           Z
 ---------------------------------------------------------------------
      1         11           0       -2.747899    0.323574    1.895427
      2         11           0        1.965449    1.766613   -0.188158
      3         11           0        1.957776   -0.966909    1.795553
      4         11           0       -0.027307   -0.868540   -0.498234
      5         11           0       -3.627444   -1.836401   -1.236470
      6         11           0        3.993677   -0.904182   -0.928342
      7         11           0       -1.514252    2.485845   -0.839777
 ---------------------------------------------------------------------

 SCF Done:  E(UB3LYP) =  -1136.11233520     A.U. after   26 cycles

 The electronic state is 2-A.
 Alpha  occ. eigenvalues --  -38.45818 -38.44993 -38.44619 -38.44001 -38.43733
 Alpha  occ. eigenvalues --  -38.43476 -38.42969  -2.21558  -2.20813  -2.20520
 Alpha  occ. eigenvalues --   -2.19915  -2.19510  -2.19355  -2.18769  -1.15236
 Alpha  occ. eigenvalues --   -1.15213  -1.15192  -1.14480  -1.14470  -1.14435
 Alpha  occ. eigenvalues --   -1.14289  -1.14173  -1.14133  -1.13607  -1.13562
 Alpha  occ. eigenvalues --   -1.13493  -1.13170  -1.13164  -1.13122  -1.13062
 Alpha  occ. eigenvalues --   -1.13047  -1.12945  -1.12452  -1.12426  -1.12397
 Alpha  occ. eigenvalues --   -0.17902  -0.14137  -0.10897  -0.10437
 Alpha virt. eigenvalues --   -0.07157  -0.05790  -0.05119  -0.03080  -0.02867
 Alpha virt. eigenvalues --   -0.02221  -0.01908  -0.01590  -0.01027  -0.00392
 Alpha virt. eigenvalues --   -0.00103   0.00033   0.00053   0.00271   0.00507

  Beta  occ. eigenvalues --  -38.45816 -38.44964 -38.44600 -38.43938 -38.43676
  Beta  occ. eigenvalues --  -38.43476 -38.42965  -2.21556  -2.20759  -2.20491
  Beta  occ. eigenvalues --   -2.19800  -2.19404  -2.19356  -2.18762  -1.15226
  Beta  occ. eigenvalues --   -1.15212  -1.15187  -1.14444  -1.14424  -1.14401
  Beta  occ. eigenvalues --   -1.14216  -1.14161  -1.14120  -1.13527  -1.13486
  Beta  occ. eigenvalues --   -1.13403  -1.13095  -1.13091  -1.13066  -1.13055
  Beta  occ. eigenvalues --   -1.13025  -1.12950  -1.12442  -1.12420  -1.12399
  Beta  occ. eigenvalues --   -0.17362  -0.13874  -0.10678
  Beta virt. eigenvalues --   -0.07043  -0.06729  -0.05447  -0.04724  -0.02827
  Beta virt. eigenvalues --   -0.02712  -0.01855  -0.01455  -0.01203  -0.00692
  Beta virt. eigenvalues --   -0.00313   0.00045   0.00180   0.00231   0.00410

 Mulliken charges and spin densities:
               1          2
     1  Na   0.218642   0.030973
     2  Na  -0.029308   0.186826
     3  Na   0.586382   0.268615
     4  Na  -1.878217   0.083603
     5  Na   0.227931   0.187104
     6  Na   0.886719   0.193399
     7  Na  -0.012149   0.049480
 Sum of Mulliken charges =  -0.00000   1.00000

 Dipole moment (field-independent basis, Debye):
    X=              0.6411    Y=              0.0915    Z=              0.8641  Tot=              1.0798
 Quadrupole moment (field-independent basis, Debye-Ang):
   XX=            -52.4933   YY=            -77.1181   ZZ=            -66.4229
   XY=             -5.6756   XZ=             -4.0220   YZ=              4.4234

 Normal termination of Gaussian 16 at Tue Dec  5 21:34:50 2023.
