 Gaussian 16, Revision B.01,
 Gaussian 16:  ES64L-G16RevB.01 20-Dec-2017

 -------------------------
 #P B3LYP/6-311+g(d) force
 -------------------------

 -----
 DPGEN
 -----
 Symbolic Z-matrix:
 Charge =  0 Multiplicity = 2

                         Standard orientation:
 ---------------------------------------------------------------------
 Center     Atomic      Atomic             Coordinates (Angstroms)
 Number     Number       Type             X           Y           Z
 ---------------------------------------------------------------------
      1         11           0       -0.434484   -2.758079   -0.484331
      2         11           0       -2.468430    2.177737   -0.172405
      3         11           0       -3.085273   -0.940647    0.234790
      4         11           0       -0.380039    0.218120    0.294170
      5         11           0        2.309128   -0.847156    1.612063
      6         11           0        2.381666   -0.415104   -1.466118
      7         11           0        1.677431    2.565128   -0.018168
 ---------------------------------------------------------------------

 SCF Done:  E(UB3LYP) =  -1136.11875556     A.U. after   21 cycles

 The electronic state is 2-A.
 Alpha  occ. eigenvalues --  -38.44334 -38.44241 -38.44210 -38.43728 -38.43544
 Alpha  occ. eigenvalues --  -38.43431 -38.42683  -2.20246  -2.20110  -2.20050
 Alpha  occ. eigenvalues --   -2.19647  -2.19460  -2.19302  -2.18915  -1.14007
 Alpha  occ. eigenvalues --   -1.13905  -1.13885  -1.13837  -1.13758  -1.13748
 Alpha  occ. eigenvalues --   -1.13710  -1.13704  -1.13670  -1.13358  -1.13319
 Alpha  occ. eigenvalues --   -1.13252  -1.13141  -1.13082  -1.13052  -1.13037
 Alpha  occ. eigenvalues --   -1.12946  -1.12921  -1.12587  -1.12572  -1.12555
 Alpha  occ. eigenvalues --   -0.18790  -0.14153  -0.12416  -0.09897
 Alpha virt. eigenvalues --   -0.06132  -0.05725  -0.04605  -0.03258  -0.02279
 Alpha virt. eigenvalues --   -0.01957  -0.01483  -0.01183  -0.00781  -0.00464
 Alpha virt. eigenvalues --   -0.00120   0.00328   0.00682   0.00748   0.00832

  Beta  occ. eigenvalues --  -38.44335 -38.44244 -38.44199 -38.43677 -38.43467
  Beta  occ. eigenvalues --  -38.43420 -38.42660  -2.20250  -2.20117  -2.20034
  Beta  occ. eigenvalues --   -2.19555  -2.19318  -2.19284  -2.18881  -1.14008
  Beta  occ. eigenvalues --   -1.13911  -1.13878  -1.13841  -1.13751  -1.13746
  Beta  occ. eigenvalues --   -1.13709  -1.13675  -1.13657  -1.13286  -1.13248
  Beta  occ. eigenvalues --   -1.13185  -1.13042  -1.13027  -1.12983  -1.12951
  Beta  occ. eigenvalues --   -1.12913  -1.12912  -1.12570  -1.12543  -1.12484
  Beta  occ. eigenvalues --   -0.18206  -0.13909  -0.12237
  Beta virt. eigenvalues --   -0.06095  -0.05918  -0.05593  -0.04470  -0.02745
  Beta virt. eigenvalues --   -0.01774  -0.01666  -0.01225  -0.00722  -0.00594
  Beta virt. eigenvalues --   -0.00449   0.00217   0.00433   0.00728   0.00838

 Mulliken charges and spin densities:
               1          2
     1  Na   0.569064   0.097885
     2  Na  -0.167203  -0.370235
     3  Na   0.089847  -0.283923
     4  Na  -2.545415   0.829643
     5  Na   0.551575   0.192558
     6  Na   0.225337   0.250672
     7  Na   1.276795   0.283399
 Sum of Mulliken charges =  -0.00000   1.00000

 Dipole moment (field-independent basis, Debye):
    X=             -0.6006    Y=              0.3156    Z=             -0.1942  Tot=              0.7057
 Quadrupole moment (field-independent basis, Debye-Ang):
   XX=            -53.5535   YY=            -60.7486   ZZ=            -77.0003
   XY=              0.7870   XZ=             -0.2503   YZ=              0.1194

 Normal termination of Gaussian 16 at Fri Dec  8 06:53:29 2023.
