 Gaussian 16, Revision B.01,
 Gaussian 16:  ES64L-G16RevB.01 20-Dec-2017

 -------------------------
 #P B3LYP/6-311+g(d) force
 -------------------------

 -----
 DPGEN
 -----
 Symbolic Z-matrix:
 Charge =  0 Multiplicity = 2

                         Standard orientation:
 ---------------------------------------------------------------------
 Center     Atomic      Atomic             Coordinates (Angstroms)
 Number     Number       Type             X           Y           Z
 ---------------------------------------------------------------------
      1         11           0        1.439835   -1.433150    1.663544
      2         11           0        7.334005    1.637847   -0.494339
      3         11           0       -1.040161   -2.837199    0.269243
      4         11           0       -3.962580   -1.921336   -1.049763
      5         11           0       -4.298730    2.815193    1.766027
      6         11           0       -4.330498    1.834646   -1.677083
      7         11           0        4.858128   -0.096001   -0.477629
 ---------------------------------------------------------------------

 SCF Done:  E(UB3LYP) =  -1136.10237231     A.U. after   20 cycles

 The electronic state is 2-A.
 Alpha  occ. eigenvalues --  -38.45554 -38.45106 -38.44835 -38.44359 -38.44028
 Alpha  occ. eigenvalues --  -38.43813 -38.43769  -2.21310  -2.20836  -2.20640
 Alpha  occ. eigenvalues --   -2.20166  -2.19834  -2.19604  -2.19576  -1.14963
 Alpha  occ. eigenvalues --   -1.14960  -1.14916  -1.14525  -1.14504  -1.14486
 Alpha  occ. eigenvalues --   -1.14290  -1.14287  -1.14249  -1.13820  -1.13808
 Alpha  occ. eigenvalues --   -1.13798  -1.13551  -1.13476  -1.13476  -1.13266
 Alpha  occ. eigenvalues --   -1.13264  -1.13248  -1.13246  -1.13245  -1.13220
 Alpha  occ. eigenvalues --   -0.15222  -0.13745  -0.12754  -0.11413
 Alpha virt. eigenvalues --   -0.07091  -0.05512  -0.04284  -0.03454  -0.03009
 Alpha virt. eigenvalues --   -0.02589  -0.02245  -0.02037  -0.01611  -0.01183
 Alpha virt. eigenvalues --   -0.00750  -0.00534  -0.00405   0.00257   0.00363

  Beta  occ. eigenvalues --  -38.45480 -38.45133 -38.44747 -38.44292 -38.44004
  Beta  occ. eigenvalues --  -38.43819 -38.43779  -2.21171  -2.20891  -2.20475
  Beta  occ. eigenvalues --   -2.20040  -2.19789  -2.19617  -2.19602  -1.14867
  Beta  occ. eigenvalues --   -1.14864  -1.14826  -1.14565  -1.14539  -1.14504
  Beta  occ. eigenvalues --   -1.14179  -1.14176  -1.14141  -1.13741  -1.13722
  Beta  occ. eigenvalues --   -1.13713  -1.13525  -1.13446  -1.13446  -1.13278
  Beta  occ. eigenvalues --   -1.13275  -1.13273  -1.13269  -1.13210  -1.13208
  Beta  occ. eigenvalues --   -0.14548  -0.13280  -0.12293
  Beta virt. eigenvalues --   -0.08232  -0.06616  -0.05157  -0.03967  -0.03275
  Beta virt. eigenvalues --   -0.02644  -0.02321  -0.02168  -0.01857  -0.01303
  Beta virt. eigenvalues --   -0.01030  -0.00462  -0.00193  -0.00070   0.00303

 Mulliken charges and spin densities:
               1          2
     1  Na  -0.215306   0.297711
     2  Na   0.725287   0.086975
     3  Na  -0.210730  -0.031631
     4  Na   0.196715   0.381393
     5  Na   0.056786   0.380098
     6  Na  -0.011217  -0.124207
     7  Na  -0.541535   0.009660
 Sum of Mulliken charges =  -0.00000   1.00000

 Dipole moment (field-independent basis, Debye):
    X=             -1.5804    Y=              1.1870    Z=              0.2776  Tot=              1.9960
 Quadrupole moment (field-independent basis, Debye-Ang):
   XX=            -62.7958   YY=            -69.6906   ZZ=            -64.0010
   XY=              3.8621   XZ=              0.8465   YZ=              1.9892

 Normal termination of Gaussian 16 at Sun Dec  3 14:36:15 2023.
