 Gaussian 16, Revision B.01,
 Gaussian 16:  ES64L-G16RevB.01 20-Dec-2017

 -------------------------
 #P B3LYP/6-311+g(d) force
 -------------------------

 -----
 DPGEN
 -----
 Symbolic Z-matrix:
 Charge =  0 Multiplicity = 2

                         Standard orientation:
 ---------------------------------------------------------------------
 Center     Atomic      Atomic             Coordinates (Angstroms)
 Number     Number       Type             X           Y           Z
 ---------------------------------------------------------------------
      1         11           0       -2.530929    2.272687   -0.776644
      2         11           0        0.323235    3.985725   -0.287426
      3         11           0        2.873192    1.957140    1.127278
      4         11           0       -2.423050   -3.195179   -0.111400
      5         11           0        1.658335   -2.503533    0.243500
      6         11           0       -4.280601   -0.724372    0.569249
      7         11           0        4.379817   -1.792468   -0.764556
 ---------------------------------------------------------------------

 SCF Done:  E(UB3LYP) =  -1136.10756773     A.U. after   20 cycles

 The electronic state is 2-A.
 Alpha  occ. eigenvalues --  -38.45056 -38.44911 -38.44877 -38.44540 -38.44127
 Alpha  occ. eigenvalues --  -38.43966 -38.43860  -2.20823  -2.20707  -2.20657
 Alpha  occ. eigenvalues --   -2.20361  -2.19932  -2.19739  -2.19660  -1.14487
 Alpha  occ. eigenvalues --   -1.14466  -1.14428  -1.14427  -1.14368  -1.14360
 Alpha  occ. eigenvalues --   -1.14338  -1.14330  -1.14312  -1.14004  -1.13998
 Alpha  occ. eigenvalues --   -1.13979  -1.13581  -1.13574  -1.13571  -1.13428
 Alpha  occ. eigenvalues --   -1.13422  -1.13396  -1.13318  -1.13307  -1.13265
 Alpha  occ. eigenvalues --   -0.15467  -0.13907  -0.13313  -0.10587
 Alpha virt. eigenvalues --   -0.07405  -0.05496  -0.04160  -0.03447  -0.03179
 Alpha virt. eigenvalues --   -0.02724  -0.02213  -0.01957  -0.01356  -0.00899
 Alpha virt. eigenvalues --   -0.00405  -0.00190   0.00133   0.00305   0.00470

  Beta  occ. eigenvalues --  -38.44973 -38.44905 -38.44887 -38.44507 -38.44082
  Beta  occ. eigenvalues --  -38.43982 -38.43791  -2.20699  -2.20680  -2.20671
  Beta  occ. eigenvalues --   -2.20302  -2.19846  -2.19775  -2.19530  -1.14401
  Beta  occ. eigenvalues --   -1.14384  -1.14365  -1.14363  -1.14357  -1.14354
  Beta  occ. eigenvalues --   -1.14348  -1.14318  -1.14301  -1.13963  -1.13954
  Beta  occ. eigenvalues --   -1.13944  -1.13523  -1.13520  -1.13513  -1.13452
  Beta  occ. eigenvalues --   -1.13450  -1.13384  -1.13228  -1.13219  -1.13192
  Beta  occ. eigenvalues --   -0.14987  -0.13377  -0.12738
  Beta virt. eigenvalues --   -0.07385  -0.07178  -0.05118  -0.03947  -0.03106
  Beta virt. eigenvalues --   -0.02752  -0.02565  -0.01918  -0.01776  -0.01321
  Beta virt. eigenvalues --   -0.00493  -0.00193   0.00052   0.00233   0.00392

 Mulliken charges and spin densities:
               1          2
     1  Na  -0.146321   0.344803
     2  Na   0.189804  -0.058104
     3  Na  -0.096349   0.403472
     4  Na   0.051378   0.206521
     5  Na  -0.788771   0.114373
     6  Na  -0.013053  -0.057718
     7  Na   0.803312   0.046653
 Sum of Mulliken charges =  -0.00000   1.00000

 Dipole moment (field-independent basis, Debye):
    X=              0.8890    Y=             -0.6301    Z=              0.0750  Tot=              1.0923
 Quadrupole moment (field-independent basis, Debye-Ang):
   XX=            -56.9587   YY=            -71.6964   ZZ=            -71.4387
   XY=              0.7258   XZ=             -3.1594   YZ=             -0.1369

 Normal termination of Gaussian 16 at Mon Dec  4 03:00:22 2023.
