 Gaussian 16, Revision B.01,
 Gaussian 16:  ES64L-G16RevB.01 20-Dec-2017

 -------------------------
 #P B3LYP/6-311+g(d) force
 -------------------------

 -----
 DPGEN
 -----
 Symbolic Z-matrix:
 Charge =  0 Multiplicity = 2

                         Standard orientation:
 ---------------------------------------------------------------------
 Center     Atomic      Atomic             Coordinates (Angstroms)
 Number     Number       Type             X           Y           Z
 ---------------------------------------------------------------------
      1         11           0        3.572814   -2.010362   -0.415078
      2         11           0       -2.231542   -3.083456   -0.248482
      3         11           0       -4.467423    0.185412   -0.688648
      4         11           0       -2.421700    2.622799    0.370028
      5         11           0        1.057425    3.535309    0.494324
      6         11           0        0.690130   -2.730609    1.166687
      7         11           0        3.800296    1.480907   -0.678832
 ---------------------------------------------------------------------

 SCF Done:  E(UB3LYP) =  -1136.10878839     A.U. after   23 cycles

 The electronic state is 2-A.
 Alpha  occ. eigenvalues --  -38.45229 -38.45029 -38.44894 -38.44460 -38.44425
 Alpha  occ. eigenvalues --  -38.44098 -38.43683  -2.20980  -2.20805  -2.20660
 Alpha  occ. eigenvalues --   -2.20262  -2.20228  -2.19895  -2.19473  -1.14667
 Alpha  occ. eigenvalues --   -1.14649  -1.14620  -1.14476  -1.14469  -1.14433
 Alpha  occ. eigenvalues --   -1.14346  -1.14335  -1.14301  -1.13947  -1.13921
 Alpha  occ. eigenvalues --   -1.13901  -1.13891  -1.13884  -1.13846  -1.13547
 Alpha  occ. eigenvalues --   -1.13540  -1.13525  -1.13131  -1.13123  -1.13102
 Alpha  occ. eigenvalues --   -0.15588  -0.13847  -0.13433  -0.10783
 Alpha virt. eigenvalues --   -0.07746  -0.04800  -0.04485  -0.03598  -0.03573
 Alpha virt. eigenvalues --   -0.02211  -0.02051  -0.01853  -0.01387  -0.00975
 Alpha virt. eigenvalues --   -0.00731  -0.00134   0.00072   0.00394   0.00716

  Beta  occ. eigenvalues --  -38.45227 -38.44993 -38.44881 -38.44420 -38.44411
  Beta  occ. eigenvalues --  -38.44038 -38.43627  -2.20980  -2.20743  -2.20643
  Beta  occ. eigenvalues --   -2.20206  -2.20189  -2.19785  -2.19367  -1.14671
  Beta  occ. eigenvalues --   -1.14653  -1.14589  -1.14430  -1.14428  -1.14379
  Beta  occ. eigenvalues --   -1.14340  -1.14331  -1.14242  -1.13914  -1.13880
  Beta  occ. eigenvalues --   -1.13876  -1.13863  -1.13840  -1.13805  -1.13473
  Beta  occ. eigenvalues --   -1.13463  -1.13450  -1.13059  -1.13052  -1.13033
  Beta  occ. eigenvalues --   -0.15093  -0.13070  -0.12706
  Beta virt. eigenvalues --   -0.07963  -0.07649  -0.04314  -0.03966  -0.03404
  Beta virt. eigenvalues --   -0.03300  -0.01996  -0.01827  -0.01700  -0.01137
  Beta virt. eigenvalues --   -0.00710  -0.00513   0.00083   0.00272   0.00353

 Mulliken charges and spin densities:
               1          2
     1  Na   0.361494   0.184511
     2  Na   0.067735   0.142216
     3  Na   0.335228   0.229584
     4  Na  -0.147805   0.112722
     5  Na   0.101289   0.263344
     6  Na  -0.606231   0.046627
     7  Na  -0.111709   0.020997
 Sum of Mulliken charges =  -0.00000   1.00000

 Dipole moment (field-independent basis, Debye):
    X=              0.2161    Y=             -0.7638    Z=             -0.2536  Tot=              0.8333
 Quadrupole moment (field-independent basis, Debye-Ang):
   XX=            -61.8315   YY=            -67.7604   ZZ=            -70.7714
   XY=              3.6672   XZ=              0.3094   YZ=              1.7165

 Normal termination of Gaussian 16 at Sun Dec  3 14:17:54 2023.
