 Gaussian 16, Revision B.01,
 Gaussian 16:  ES64L-G16RevB.01 20-Dec-2017

 -------------------------
 #P B3LYP/6-311+g(d) force
 -------------------------

 -----
 DPGEN
 -----
 Symbolic Z-matrix:
 Charge =  0 Multiplicity = 2

                         Standard orientation:
 ---------------------------------------------------------------------
 Center     Atomic      Atomic             Coordinates (Angstroms)
 Number     Number       Type             X           Y           Z
 ---------------------------------------------------------------------
      1         11           0        0.098774   -0.054814    2.218943
      2         11           0       -2.149602   -1.769050    0.204274
      3         11           0        3.317841    0.100564   -0.157202
      4         11           0        0.949586    2.829032   -0.065527
      5         11           0        1.189759   -2.512680   -0.538874
      6         11           0       -0.293660    0.195629   -1.322168
      7         11           0       -3.112698    1.211320   -0.339446
 ---------------------------------------------------------------------

 SCF Done:  E(UB3LYP) =  -1136.13123007     A.U. after   20 cycles

 The electronic state is 2-A.
 Alpha  occ. eigenvalues --  -38.44603 -38.44291 -38.43780 -38.43483 -38.43390
 Alpha  occ. eigenvalues --  -38.43055 -38.42926  -2.20408  -2.20140  -2.19651
 Alpha  occ. eigenvalues --   -2.19413  -2.19218  -2.19120  -2.18806  -1.14082
 Alpha  occ. eigenvalues --   -1.14067  -1.14044  -1.13838  -1.13800  -1.13767
 Alpha  occ. eigenvalues --   -1.13319  -1.13272  -1.13266  -1.13143  -1.13064
 Alpha  occ. eigenvalues --   -1.13036  -1.12955  -1.12877  -1.12839  -1.12803
 Alpha  occ. eigenvalues --   -1.12769  -1.12731  -1.12491  -1.12451  -1.12436
 Alpha  occ. eigenvalues --   -0.18753  -0.13394  -0.12101  -0.10810
 Alpha virt. eigenvalues --   -0.06195  -0.05014  -0.04302  -0.03281  -0.02640
 Alpha virt. eigenvalues --   -0.02583  -0.01950  -0.01019  -0.00441  -0.00184
 Alpha virt. eigenvalues --   -0.00023   0.00305   0.00774   0.00835   0.00903

  Beta  occ. eigenvalues --  -38.44600 -38.44283 -38.43668 -38.43474 -38.43388
  Beta  occ. eigenvalues --  -38.43012 -38.42914  -2.20404  -2.20128  -2.19445
  Beta  occ. eigenvalues --   -2.19400  -2.19217  -2.19045  -2.18788  -1.14070
  Beta  occ. eigenvalues --   -1.14062  -1.14043  -1.13828  -1.13784  -1.13755
  Beta  occ. eigenvalues --   -1.13188  -1.13134  -1.13128  -1.13113  -1.13037
  Beta  occ. eigenvalues --   -1.13012  -1.12946  -1.12860  -1.12840  -1.12747
  Beta  occ. eigenvalues --   -1.12712  -1.12680  -1.12472  -1.12435  -1.12413
  Beta  occ. eigenvalues --   -0.18041  -0.13163  -0.11870
  Beta virt. eigenvalues --   -0.06835  -0.06134  -0.04965  -0.04278  -0.02523
  Beta virt. eigenvalues --   -0.01901  -0.01861  -0.01495  -0.00958  -0.00462
  Beta virt. eigenvalues --   -0.00184   0.00132   0.00354   0.00822   0.00863

 Mulliken charges and spin densities:
               1          2
     1  Na  -0.539662   0.649110
     2  Na   0.511541   0.215939
     3  Na   0.099321  -0.001480
     4  Na   0.085750   0.028373
     5  Na   0.187463   0.094476
     6  Na  -0.603446  -0.039370
     7  Na   0.259034   0.052952
 Sum of Mulliken charges =  -0.00000   1.00000

 Dipole moment (field-independent basis, Debye):
    X=              0.1057    Y=              0.2759    Z=              0.3193  Tot=              0.4351
 Quadrupole moment (field-independent basis, Debye-Ang):
   XX=            -52.5327   YY=            -65.7988   ZZ=            -74.4503
   XY=             -0.5666   XZ=             -0.3350   YZ=              0.2299

 Normal termination of Gaussian 16 at Fri Dec  8 07:44:14 2023.
