 Gaussian 16, Revision B.01,
 Gaussian 16:  ES64L-G16RevB.01 20-Dec-2017

 -------------------------
 #P B3LYP/6-311+g(d) force
 -------------------------

 -----
 DPGEN
 -----
 Symbolic Z-matrix:
 Charge =  0 Multiplicity = 2

                         Standard orientation:
 ---------------------------------------------------------------------
 Center     Atomic      Atomic             Coordinates (Angstroms)
 Number     Number       Type             X           Y           Z
 ---------------------------------------------------------------------
      1         11           0       -1.452675   -1.383604    2.045030
      2         11           0        3.296694   -1.218175    1.180899
      3         11           0        2.205409    2.276799   -1.631835
      4         11           0        0.702654    0.191031   -0.252427
      5         11           0       -0.393359   -2.792190   -1.560830
      6         11           0       -3.108306    0.316982   -1.353156
      7         11           0       -1.250417    2.609157    1.572319
 ---------------------------------------------------------------------

 SCF Done:  E(UB3LYP) =  -1136.10955102     A.U. after   24 cycles

 The electronic state is 2-A.
 Alpha  occ. eigenvalues --  -38.45179 -38.44937 -38.44851 -38.44203 -38.44027
 Alpha  occ. eigenvalues --  -38.43953 -38.42125  -2.20914  -2.20688  -2.20628
 Alpha  occ. eigenvalues --   -2.20013  -2.19797  -2.19709  -2.18145  -1.14594
 Alpha  occ. eigenvalues --   -1.14552  -1.14543  -1.14361  -1.14337  -1.14317
 Alpha  occ. eigenvalues --   -1.14312  -1.14263  -1.14244  -1.13746  -1.13637
 Alpha  occ. eigenvalues --   -1.13612  -1.13487  -1.13438  -1.13423  -1.13387
 Alpha  occ. eigenvalues --   -1.13358  -1.13344  -1.11890  -1.11802  -1.11762
 Alpha  occ. eigenvalues --   -0.17053  -0.12333  -0.11459  -0.11014
 Alpha virt. eigenvalues --   -0.06520  -0.05535  -0.04512  -0.03042  -0.02884
 Alpha virt. eigenvalues --   -0.02468  -0.01952  -0.01220  -0.01077  -0.00094
 Alpha virt. eigenvalues --   -0.00041   0.00061   0.00304   0.00344   0.00642

  Beta  occ. eigenvalues --  -38.45152 -38.44916 -38.44802 -38.44168 -38.44005
  Beta  occ. eigenvalues --  -38.43937 -38.42110  -2.20864  -2.20650  -2.20538
  Beta  occ. eigenvalues --   -2.19946  -2.19758  -2.19681  -2.18123  -1.14556
  Beta  occ. eigenvalues --   -1.14522  -1.14503  -1.14332  -1.14312  -1.14289
  Beta  occ. eigenvalues --   -1.14249  -1.14199  -1.14178  -1.13698  -1.13591
  Beta  occ. eigenvalues --   -1.13568  -1.13458  -1.13414  -1.13390  -1.13365
  Beta  occ. eigenvalues --   -1.13340  -1.13321  -1.11828  -1.11788  -1.11756
  Beta  occ. eigenvalues --   -0.16400  -0.12007  -0.11234
  Beta virt. eigenvalues --   -0.07593  -0.06085  -0.05194  -0.04277  -0.02725
  Beta virt. eigenvalues --   -0.02548  -0.01848  -0.01695  -0.01086  -0.00703
  Beta virt. eigenvalues --    0.00015   0.00070   0.00136   0.00361   0.00432

 Mulliken charges and spin densities:
               1          2
     1  Na   0.797447   0.185875
     2  Na   0.517325  -0.061259
     3  Na   0.590548  -0.145617
     4  Na  -2.449519   0.983745
     5  Na   0.395500   0.047436
     6  Na   0.181180  -0.009831
     7  Na  -0.032481  -0.000349
 Sum of Mulliken charges =  -0.00000   1.00000

 Dipole moment (field-independent basis, Debye):
    X=             -0.2578    Y=             -0.2951    Z=              0.1955  Tot=              0.4379
 Quadrupole moment (field-independent basis, Debye-Ang):
   XX=            -59.4340   YY=            -66.3909   ZZ=            -64.2603
   XY=             -1.2427   XZ=              2.1640   YZ=             -1.8629

 Normal termination of Gaussian 16 at Tue Dec  5 19:03:47 2023.
