 Gaussian 16, Revision B.01,
 Gaussian 16:  ES64L-G16RevB.01 20-Dec-2017

 -------------------------
 #P B3LYP/6-311+g(d) force
 -------------------------

 -----
 DPGEN
 -----
 Symbolic Z-matrix:
 Charge =  0 Multiplicity = 2

                         Standard orientation:
 ---------------------------------------------------------------------
 Center     Atomic      Atomic             Coordinates (Angstroms)
 Number     Number       Type             X           Y           Z
 ---------------------------------------------------------------------
      1         11           0       -0.797003    2.780926    0.030237
      2         11           0       -0.403263   -0.055911    1.989698
      3         11           0        0.177635   -0.034465   -1.726086
      4         11           0        2.518410   -1.757231   -0.241604
      5         11           0       -3.142720    0.064800   -0.497125
      6         11           0       -1.056003   -2.534465    0.272222
      7         11           0        2.702943    1.536347    0.172658
 ---------------------------------------------------------------------

 SCF Done:  E(UB3LYP) =  -1136.13859245     A.U. after   18 cycles

 The electronic state is 2-A.
 Alpha  occ. eigenvalues --  -38.44149 -38.43915 -38.43638 -38.43582 -38.43364
 Alpha  occ. eigenvalues --  -38.43177 -38.43120  -2.19988  -2.19743  -2.19508
 Alpha  occ. eigenvalues --   -2.19490  -2.19327  -2.19022  -2.19020  -1.13661
 Alpha  occ. eigenvalues --   -1.13641  -1.13629  -1.13421  -1.13416  -1.13383
 Alpha  occ. eigenvalues --   -1.13207  -1.13192  -1.13148  -1.13145  -1.13121
 Alpha  occ. eigenvalues --   -1.13115  -1.13008  -1.12965  -1.12944  -1.12713
 Alpha  occ. eigenvalues --   -1.12695  -1.12694  -1.12677  -1.12646  -1.12634
 Alpha  occ. eigenvalues --   -0.18765  -0.13184  -0.12312  -0.10897
 Alpha virt. eigenvalues --   -0.05702  -0.05113  -0.04461  -0.03326  -0.02889
 Alpha virt. eigenvalues --   -0.02622  -0.01613  -0.01010  -0.00276  -0.00240
 Alpha virt. eigenvalues --   -0.00002   0.00358   0.00799   0.00893   0.00916

  Beta  occ. eigenvalues --  -38.44135 -38.43914 -38.43635 -38.43490 -38.43299
  Beta  occ. eigenvalues --  -38.43173 -38.43109  -2.19966  -2.19742  -2.19487
  Beta  occ. eigenvalues --   -2.19339  -2.19208  -2.19016  -2.19006  -1.13637
  Beta  occ. eigenvalues --   -1.13618  -1.13613  -1.13422  -1.13404  -1.13379
  Beta  occ. eigenvalues --   -1.13178  -1.13137  -1.13116  -1.13093  -1.13025
  Beta  occ. eigenvalues --   -1.13001  -1.12930  -1.12884  -1.12854  -1.12695
  Beta  occ. eigenvalues --   -1.12691  -1.12671  -1.12641  -1.12635  -1.12628
  Beta  occ. eigenvalues --   -0.18035  -0.12947  -0.12051
  Beta virt. eigenvalues --   -0.06985  -0.05637  -0.05111  -0.04425  -0.02567
  Beta virt. eigenvalues --   -0.02100  -0.01604  -0.01465  -0.00949  -0.00322
  Beta virt. eigenvalues --   -0.00258   0.00119   0.00385   0.00870   0.00882

 Mulliken charges and spin densities:
               1          2
     1  Na  -0.012775  -0.086610
     2  Na  -0.356064   0.671645
     3  Na  -0.223046   0.547443
     4  Na   0.171405  -0.063373
     5  Na   0.137934   0.002941
     6  Na   0.296721  -0.003480
     7  Na  -0.014175  -0.068567
 Sum of Mulliken charges =  -0.00000   1.00000

 Dipole moment (field-independent basis, Debye):
    X=             -0.0128    Y=              0.0883    Z=              0.0095  Tot=              0.0897
 Quadrupole moment (field-independent basis, Debye-Ang):
   XX=            -55.5762   YY=            -64.6860   ZZ=            -73.4502
   XY=             -0.0587   XZ=              1.6239   YZ=              0.3341

 Normal termination of Gaussian 16 at Fri Dec  8 01:37:53 2023.
