 Gaussian 16, Revision B.01,
 Gaussian 16:  ES64L-G16RevB.01 20-Dec-2017

 -------------------------
 #P B3LYP/6-311+g(d) force
 -------------------------

 -----
 DPGEN
 -----
 Symbolic Z-matrix:
 Charge =  0 Multiplicity = 2

                         Standard orientation:
 ---------------------------------------------------------------------
 Center     Atomic      Atomic             Coordinates (Angstroms)
 Number     Number       Type             X           Y           Z
 ---------------------------------------------------------------------
      1         11           0        0.387449   -1.520041   -1.560874
      2         11           0       -0.078174    3.309313    0.326048
      3         11           0        2.540072    1.040502   -0.718707
      4         11           0       -1.805176    0.596258   -1.188514
      5         11           0       -0.002787   -0.020459    2.045404
      6         11           0       -4.107603   -1.355375    0.424671
      7         11           0        3.066218   -2.050199    0.671973
 ---------------------------------------------------------------------

 SCF Done:  E(UB3LYP) =  -1136.12352894     A.U. after   21 cycles

 The electronic state is 2-A.
 Alpha  occ. eigenvalues --  -38.44734 -38.44730 -38.44545 -38.44103 -38.43933
 Alpha  occ. eigenvalues --  -38.43402 -38.42845  -2.20541  -2.20474  -2.20379
 Alpha  occ. eigenvalues --   -2.19989  -2.19747  -2.19300  -2.18652  -1.14220
 Alpha  occ. eigenvalues --   -1.14166  -1.14161  -1.14150  -1.14137  -1.14105
 Alpha  occ. eigenvalues --   -1.14076  -1.14054  -1.13988  -1.13712  -1.13632
 Alpha  occ. eigenvalues --   -1.13592  -1.13421  -1.13399  -1.13380  -1.13029
 Alpha  occ. eigenvalues --   -1.12957  -1.12882  -1.12325  -1.12314  -1.12294
 Alpha  occ. eigenvalues --   -0.17951  -0.13100  -0.11712  -0.10977
 Alpha virt. eigenvalues --   -0.06788  -0.05287  -0.04160  -0.03445  -0.02868
 Alpha virt. eigenvalues --   -0.02622  -0.02228  -0.01386  -0.00666  -0.00342
 Alpha virt. eigenvalues --    0.00172   0.00189   0.00344   0.00602   0.00707

  Beta  occ. eigenvalues --  -38.44731 -38.44655 -38.44533 -38.44043 -38.43923
  Beta  occ. eigenvalues --  -38.43374 -38.42847  -2.20475  -2.20395  -2.20359
  Beta  occ. eigenvalues --   -2.19881  -2.19729  -2.19253  -2.18656  -1.14152
  Beta  occ. eigenvalues --   -1.14134  -1.14122  -1.14107  -1.14065  -1.14054
  Beta  occ. eigenvalues --   -1.14050  -1.14027  -1.13980  -1.13635  -1.13539
  Beta  occ. eigenvalues --   -1.13522  -1.13410  -1.13374  -1.13367  -1.12989
  Beta  occ. eigenvalues --   -1.12906  -1.12852  -1.12328  -1.12306  -1.12298
  Beta  occ. eigenvalues --   -0.17168  -0.12979  -0.11566
  Beta virt. eigenvalues --   -0.07149  -0.06481  -0.05127  -0.04007  -0.02975
  Beta virt. eigenvalues --   -0.02290  -0.02067  -0.01728  -0.01222  -0.00574
  Beta virt. eigenvalues --   -0.00218   0.00201   0.00262   0.00524   0.00705

 Mulliken charges and spin densities:
               1          2
     1  Na   0.023352   0.112628
     2  Na   0.301086  -0.189756
     3  Na  -0.024930   0.170601
     4  Na   0.000790   0.268065
     5  Na  -0.599780   0.731619
     6  Na   0.050329  -0.102663
     7  Na   0.249153   0.009507
 Sum of Mulliken charges =  -0.00000   1.00000

 Dipole moment (field-independent basis, Debye):
    X=              0.2677    Y=             -0.4866    Z=              0.3792  Tot=              0.6725
 Quadrupole moment (field-independent basis, Debye-Ang):
   XX=            -54.9645   YY=            -67.0485   ZZ=            -71.6770
   XY=              0.2854   XZ=             -1.7853   YZ=             -2.3997

 Normal termination of Gaussian 16 at Fri Dec  8 04:59:09 2023.
