 Gaussian 16, Revision B.01,
 Gaussian 16:  ES64L-G16RevB.01 20-Dec-2017

 -------------------------
 #P B3LYP/6-311+g(d) force
 -------------------------

 -----
 DPGEN
 -----
 Symbolic Z-matrix:
 Charge =  0 Multiplicity = 2

                         Standard orientation:
 ---------------------------------------------------------------------
 Center     Atomic      Atomic             Coordinates (Angstroms)
 Number     Number       Type             X           Y           Z
 ---------------------------------------------------------------------
      1         11           0       -7.467189    2.557656   -0.038762
      2         11           0        9.441135    0.682064   -0.510730
      3         11           0        6.374597    0.082248   -0.035899
      4         11           0       -3.486005   -1.934691   -0.476126
      5         11           0        2.687135    0.467948    0.655283
      6         11           0       -6.983907   -0.480411   -0.244696
      7         11           0       -0.565765   -1.374814    0.650929
 ---------------------------------------------------------------------

 SCF Done:  E(UB3LYP) =  -1136.10562515     A.U. after   20 cycles

 The electronic state is 2-A.
 Alpha  occ. eigenvalues --  -38.45123 -38.45003 -38.44771 -38.44610 -38.44427
 Alpha  occ. eigenvalues --  -38.44171 -38.43948  -2.20918  -2.20785  -2.20572
 Alpha  occ. eigenvalues --   -2.20420  -2.20220  -2.19945  -2.19728  -1.14584
 Alpha  occ. eigenvalues --   -1.14561  -1.14559  -1.14435  -1.14432  -1.14388
 Alpha  occ. eigenvalues --   -1.14218  -1.14209  -1.14209  -1.14080  -1.14068
 Alpha  occ. eigenvalues --   -1.14050  -1.13887  -1.13885  -1.13873  -1.13624
 Alpha  occ. eigenvalues --   -1.13622  -1.13599  -1.13405  -1.13404  -1.13385
 Alpha  occ. eigenvalues --   -0.15050  -0.14312  -0.13109  -0.11730
 Alpha virt. eigenvalues --   -0.07286  -0.05434  -0.03868  -0.03353  -0.03077
 Alpha virt. eigenvalues --   -0.02873  -0.02605  -0.02036  -0.01835  -0.01390
 Alpha virt. eigenvalues --   -0.00994  -0.00746  -0.00239   0.00294   0.00472

  Beta  occ. eigenvalues --  -38.45083 -38.44909 -38.44708 -38.44546 -38.44436
  Beta  occ. eigenvalues --  -38.44190 -38.43960  -2.20844  -2.20610  -2.20454
  Beta  occ. eigenvalues --   -2.20301  -2.20241  -2.19987  -2.19755  -1.14536
  Beta  occ. eigenvalues --   -1.14510  -1.14508  -1.14316  -1.14312  -1.14278
  Beta  occ. eigenvalues --   -1.14141  -1.14129  -1.14129  -1.14008  -1.13987
  Beta  occ. eigenvalues --   -1.13974  -1.13903  -1.13898  -1.13866  -1.13657
  Beta  occ. eigenvalues --   -1.13656  -1.13585  -1.13430  -1.13429  -1.13358
  Beta  occ. eigenvalues --   -0.14487  -0.13586  -0.12552
  Beta virt. eigenvalues --   -0.08690  -0.06827  -0.04996  -0.03617  -0.03202
  Beta virt. eigenvalues --   -0.02783  -0.02675  -0.02351  -0.01891  -0.01585
  Beta virt. eigenvalues --   -0.01014  -0.00561  -0.00422  -0.00107   0.00367

 Mulliken charges and spin densities:
               1          2
     1  Na   0.342246   0.177548
     2  Na   0.847807   0.233073
     3  Na  -0.808530   0.065956
     4  Na  -0.166327   0.289404
     5  Na   0.276877   0.380350
     6  Na  -0.143229  -0.037484
     7  Na  -0.348844  -0.108846
 Sum of Mulliken charges =  -0.00000   1.00000

 Dipole moment (field-independent basis, Debye):
    X=             -0.8222    Y=              1.0039    Z=             -0.1110  Tot=              1.3023
 Quadrupole moment (field-independent basis, Debye-Ang):
   XX=            -44.4887   YY=            -63.9234   ZZ=            -74.5980
   XY=             -1.5242   XZ=             -1.2011   YZ=              1.0893

 Normal termination of Gaussian 16 at Mon Dec  4 00:50:58 2023.
