 Gaussian 16, Revision B.01,
 Gaussian 16:  ES64L-G16RevB.01 20-Dec-2017

 -------------------------
 #P B3LYP/6-311+g(d) force
 -------------------------

 -----
 DPGEN
 -----
 Symbolic Z-matrix:
 Charge =  0 Multiplicity = 2

                         Standard orientation:
 ---------------------------------------------------------------------
 Center     Atomic      Atomic             Coordinates (Angstroms)
 Number     Number       Type             X           Y           Z
 ---------------------------------------------------------------------
      1         11           0        1.266497    2.670339   -0.049027
      2         11           0        3.234371   -0.085115    0.126224
      3         11           0       -2.992322    1.709578   -0.199577
      4         11           0        1.448993   -2.578410   -0.267159
      5         11           0        0.012536    0.043026   -1.714863
      6         11           0       -3.021102   -1.899094    0.209019
      7         11           0        0.051027    0.139675    1.895383
 ---------------------------------------------------------------------

 SCF Done:  E(UB3LYP) =  -1136.12878791     A.U. after   22 cycles

 The electronic state is 2-A.
 Alpha  occ. eigenvalues --  -38.44837 -38.44673 -38.44484 -38.43672 -38.43401
 Alpha  occ. eigenvalues --  -38.43135 -38.43012  -2.20598  -2.20422  -2.20360
 Alpha  occ. eigenvalues --   -2.19549  -2.19320  -2.19001  -2.18870  -1.14280
 Alpha  occ. eigenvalues --   -1.14250  -1.14238  -1.14099  -1.14074  -1.14064
 Alpha  occ. eigenvalues --   -1.14045  -1.14017  -1.14004  -1.13238  -1.13181
 Alpha  occ. eigenvalues --   -1.13162  -1.13014  -1.12967  -1.12936  -1.12677
 Alpha  occ. eigenvalues --   -1.12659  -1.12637  -1.12548  -1.12533  -1.12507
 Alpha  occ. eigenvalues --   -0.18285  -0.13385  -0.11817  -0.10411
 Alpha virt. eigenvalues --   -0.06263  -0.05954  -0.04156  -0.03318  -0.02532
 Alpha virt. eigenvalues --   -0.02359  -0.02041  -0.01508  -0.00693  -0.00398
 Alpha virt. eigenvalues --   -0.00052   0.00295   0.00641   0.00729   0.00806

  Beta  occ. eigenvalues --  -38.44835 -38.44673 -38.44479 -38.43590 -38.43328
  Beta  occ. eigenvalues --  -38.43128 -38.43007  -2.20596  -2.20422  -2.20354
  Beta  occ. eigenvalues --   -2.19399  -2.19186  -2.18991  -2.18864  -1.14265
  Beta  occ. eigenvalues --   -1.14250  -1.14238  -1.14087  -1.14075  -1.14065
  Beta  occ. eigenvalues --   -1.14046  -1.14006  -1.13980  -1.13136  -1.13075
  Beta  occ. eigenvalues --   -1.13050  -1.12922  -1.12871  -1.12838  -1.12672
  Beta  occ. eigenvalues --   -1.12645  -1.12612  -1.12545  -1.12514  -1.12491
  Beta  occ. eigenvalues --   -0.17555  -0.13210  -0.11568
  Beta virt. eigenvalues --   -0.06575  -0.06148  -0.05927  -0.04146  -0.02602
  Beta virt. eigenvalues --   -0.01958  -0.01818  -0.01433  -0.01305  -0.00743
  Beta virt. eigenvalues --   -0.00422   0.00110   0.00328   0.00713   0.00732

 Mulliken charges and spin densities:
               1          2
     1  Na   0.025404  -0.117068
     2  Na   0.352038   0.088334
     3  Na   0.018339  -0.112594
     4  Na   0.016977  -0.068895
     5  Na  -0.044792   0.589171
     6  Na  -0.089454  -0.059892
     7  Na  -0.278512   0.680945
 Sum of Mulliken charges =  -0.00000   1.00000

 Dipole moment (field-independent basis, Debye):
    X=             -0.6316    Y=              0.1177    Z=              0.0933  Tot=              0.6492
 Quadrupole moment (field-independent basis, Debye-Ang):
   XX=            -51.1968   YY=            -64.8382   ZZ=            -76.4736
   XY=              0.2058   XZ=              0.1913   YZ=             -0.5297

 Normal termination of Gaussian 16 at Tue Dec  5 15:37:43 2023.
