 Gaussian 16, Revision B.01,
 Gaussian 16:  ES64L-G16RevB.01 20-Dec-2017

 -------------------------
 #P B3LYP/6-311+g(d) force
 -------------------------

 -----
 DPGEN
 -----
 Symbolic Z-matrix:
 Charge =  0 Multiplicity = 2

                         Standard orientation:
 ---------------------------------------------------------------------
 Center     Atomic      Atomic             Coordinates (Angstroms)
 Number     Number       Type             X           Y           Z
 ---------------------------------------------------------------------
      1         11           0        2.594371   -2.046722   -0.232675
      2         11           0       -0.173841   -0.172141    2.105889
      3         11           0       -0.483361    3.019994    0.087660
      4         11           0       -0.280660   -0.255605   -1.589928
      5         11           0       -2.146424   -2.498096    0.134496
      6         11           0       -2.768189    0.838925   -0.415071
      7         11           0        3.258103    1.113645   -0.090370
 ---------------------------------------------------------------------

 SCF Done:  E(UB3LYP) =  -1136.12979460     A.U. after   20 cycles

 The electronic state is 2-A.
 Alpha  occ. eigenvalues --  -38.44634 -38.44203 -38.43873 -38.43752 -38.43637
 Alpha  occ. eigenvalues --  -38.43587 -38.43006  -2.20416  -2.20008  -2.19811
 Alpha  occ. eigenvalues --   -2.19607  -2.19588  -2.19417  -2.18839  -1.14089
 Alpha  occ. eigenvalues --   -1.14085  -1.14058  -1.13677  -1.13662  -1.13647
 Alpha  occ. eigenvalues --   -1.13611  -1.13457  -1.13428  -1.13281  -1.13248
 Alpha  occ. eigenvalues --   -1.13235  -1.13221  -1.13210  -1.13201  -1.13077
 Alpha  occ. eigenvalues --   -1.13069  -1.13064  -1.12511  -1.12497  -1.12488
 Alpha  occ. eigenvalues --   -0.18268  -0.13412  -0.11985  -0.10655
 Alpha virt. eigenvalues --   -0.05902  -0.05524  -0.04622  -0.03296  -0.02700
 Alpha virt. eigenvalues --   -0.02571  -0.01703  -0.01293  -0.00670  -0.00456
 Alpha virt. eigenvalues --   -0.00030   0.00320   0.00713   0.00765   0.00855

  Beta  occ. eigenvalues --  -38.44635 -38.44200 -38.43856 -38.43650 -38.43583
  Beta  occ. eigenvalues --  -38.43582 -38.43005  -2.20419  -2.20003  -2.19784
  Beta  occ. eigenvalues --   -2.19488  -2.19418  -2.19413  -2.18839  -1.14093
  Beta  occ. eigenvalues --   -1.14079  -1.14060  -1.13665  -1.13658  -1.13642
  Beta  occ. eigenvalues --   -1.13577  -1.13420  -1.13408  -1.13197  -1.13143
  Beta  occ. eigenvalues --   -1.13140  -1.13132  -1.13104  -1.13087  -1.13075
  Beta  occ. eigenvalues --   -1.13054  -1.13038  -1.12514  -1.12494  -1.12472
  Beta  occ. eigenvalues --   -0.17549  -0.13211  -0.11783
  Beta virt. eigenvalues --   -0.06715  -0.05852  -0.05470  -0.04572  -0.02588
  Beta virt. eigenvalues --   -0.01970  -0.01617  -0.01534  -0.01193  -0.00716
  Beta virt. eigenvalues --   -0.00473   0.00133   0.00368   0.00755   0.00818

 Mulliken charges and spin densities:
               1          2
     1  Na   0.099205  -0.057963
     2  Na  -0.421019   0.768768
     3  Na  -0.217086  -0.055299
     4  Na   0.001898   0.250820
     5  Na   0.062199  -0.053382
     6  Na   0.554863   0.170909
     7  Na  -0.080060  -0.023853
 Sum of Mulliken charges =  -0.00000   1.00000

 Dipole moment (field-independent basis, Debye):
    X=              0.5259    Y=             -0.2795    Z=              0.0960  Tot=              0.6032
 Quadrupole moment (field-independent basis, Debye-Ang):
   XX=            -56.4466   YY=            -62.5405   ZZ=            -75.3718
   XY=              1.8726   XZ=             -0.0426   YZ=             -0.0447

 Normal termination of Gaussian 16 at Thu Dec  7 12:50:56 2023.
