 Gaussian 16, Revision B.01,
 Gaussian 16:  ES64L-G16RevB.01 20-Dec-2017

 -------------------------
 #P B3LYP/6-311+g(d) force
 -------------------------

 -----
 DPGEN
 -----
 Symbolic Z-matrix:
 Charge =  0 Multiplicity = 2

                         Standard orientation:
 ---------------------------------------------------------------------
 Center     Atomic      Atomic             Coordinates (Angstroms)
 Number     Number       Type             X           Y           Z
 ---------------------------------------------------------------------
      1         11           0       -3.024117   -1.204471   -1.228923
      2         11           0        3.767017   -0.761729   -0.719042
      3         11           0       -2.274835   -0.366501    1.908786
      4         11           0        1.756701    1.921620    0.894323
      5         11           0        0.919546   -1.430010    1.335962
      6         11           0       -1.605072    2.185946   -0.747617
      7         11           0        0.460762   -0.344856   -1.443489
 ---------------------------------------------------------------------

 SCF Done:  E(UB3LYP) =  -1136.12337054     A.U. after   26 cycles

 The electronic state is 2-A.
 Alpha  occ. eigenvalues --  -38.44943 -38.44473 -38.44219 -38.44009 -38.43679
 Alpha  occ. eigenvalues --  -38.43549 -38.42599  -2.20756  -2.20296  -2.20063
 Alpha  occ. eigenvalues --   -2.19974  -2.19585  -2.19387  -2.18435  -1.14434
 Alpha  occ. eigenvalues --   -1.14403  -1.14379  -1.13974  -1.13946  -1.13928
 Alpha  occ. eigenvalues --   -1.13752  -1.13735  -1.13698  -1.13692  -1.13600
 Alpha  occ. eigenvalues --   -1.13588  -1.13294  -1.13244  -1.13165  -1.13072
 Alpha  occ. eigenvalues --   -1.13041  -1.12996  -1.12131  -1.12106  -1.12053
 Alpha  occ. eigenvalues --   -0.18465  -0.14037  -0.11440  -0.10748
 Alpha virt. eigenvalues --   -0.06579  -0.05517  -0.04438  -0.03137  -0.02592
 Alpha virt. eigenvalues --   -0.02463  -0.02352  -0.01274  -0.00597  -0.00161
 Alpha virt. eigenvalues --    0.00171   0.00268   0.00435   0.00611   0.00709

  Beta  occ. eigenvalues --  -38.44925 -38.44445 -38.44176 -38.43969 -38.43643
  Beta  occ. eigenvalues --  -38.43522 -38.42600  -2.20724  -2.20245  -2.19985
  Beta  occ. eigenvalues --   -2.19902  -2.19524  -2.19338  -2.18438  -1.14404
  Beta  occ. eigenvalues --   -1.14381  -1.14361  -1.13934  -1.13914  -1.13887
  Beta  occ. eigenvalues --   -1.13700  -1.13669  -1.13644  -1.13638  -1.13549
  Beta  occ. eigenvalues --   -1.13529  -1.13257  -1.13182  -1.13109  -1.13032
  Beta  occ. eigenvalues --   -1.13003  -1.12967  -1.12128  -1.12107  -1.12047
  Beta  occ. eigenvalues --   -0.17762  -0.13793  -0.10570
  Beta virt. eigenvalues --   -0.07599  -0.06400  -0.05013  -0.04175  -0.02856
  Beta virt. eigenvalues --   -0.02353  -0.01956  -0.01702  -0.00887  -0.00455
  Beta virt. eigenvalues --   -0.00026   0.00218   0.00378   0.00445   0.00692

 Mulliken charges and spin densities:
               1          2
     1  Na   0.132170   0.026310
     2  Na   0.918417   0.099414
     3  Na   0.128075   0.145794
     4  Na  -0.368974   0.186232
     5  Na  -0.268895   0.268534
     6  Na  -0.075558   0.067117
     7  Na  -0.465236   0.206599
 Sum of Mulliken charges =  -0.00000   1.00000

 Dipole moment (field-independent basis, Debye):
    X=              0.6793    Y=             -0.1871    Z=             -0.1317  Tot=              0.7168
 Quadrupole moment (field-independent basis, Debye-Ang):
   XX=            -46.9281   YY=            -78.1489   ZZ=            -67.6890
   XY=             -0.0489   XZ=             -0.0145   YZ=              4.6512

 Normal termination of Gaussian 16 at Fri Dec  8 17:42:32 2023.
