 Gaussian 16, Revision B.01,
 Gaussian 16:  ES64L-G16RevB.01 20-Dec-2017

 -------------------------
 #P B3LYP/6-311+g(d) force
 -------------------------

 -----
 DPGEN
 -----
 Symbolic Z-matrix:
 Charge =  0 Multiplicity = 2

                         Standard orientation:
 ---------------------------------------------------------------------
 Center     Atomic      Atomic             Coordinates (Angstroms)
 Number     Number       Type             X           Y           Z
 ---------------------------------------------------------------------
      1         11           0       -0.630281    2.645841   -0.406795
      2         11           0        2.397194   -1.923012   -0.133929
      3         11           0       -3.747141    0.580023    0.111843
      4         11           0        3.572696    1.309338    0.211075
      5         11           0        0.166371   -0.136723   -1.672780
      6         11           0       -1.602118   -2.357694   -0.210491
      7         11           0       -0.156722   -0.117773    2.101078
 ---------------------------------------------------------------------

 SCF Done:  E(UB3LYP) =  -1136.12284865     A.U. after   22 cycles

 The electronic state is 2-A.
 Alpha  occ. eigenvalues --  -38.45589 -38.45008 -38.44259 -38.43919 -38.43321
 Alpha  occ. eigenvalues --  -38.43145 -38.43095  -2.21333  -2.20755  -2.20091
 Alpha  occ. eigenvalues --   -2.19752  -2.19283  -2.18969  -2.18946  -1.15012
 Alpha  occ. eigenvalues --   -1.14992  -1.14966  -1.14429  -1.14423  -1.14389
 Alpha  occ. eigenvalues --   -1.13766  -1.13725  -1.13703  -1.13459  -1.13415
 Alpha  occ. eigenvalues --   -1.13370  -1.12977  -1.12951  -1.12907  -1.12667
 Alpha  occ. eigenvalues --   -1.12633  -1.12630  -1.12612  -1.12570  -1.12561
 Alpha  occ. eigenvalues --   -0.18047  -0.13255  -0.11575  -0.10572
 Alpha virt. eigenvalues --   -0.07115  -0.05420  -0.03849  -0.03303  -0.02624
 Alpha virt. eigenvalues --   -0.02551  -0.02528  -0.01551  -0.00476  -0.00247
 Alpha virt. eigenvalues --   -0.00181   0.00182   0.00520   0.00637   0.00775

  Beta  occ. eigenvalues --  -38.45593 -38.45009 -38.44172 -38.43914 -38.43244
  Beta  occ. eigenvalues --  -38.43130 -38.43088  -2.21342  -2.20759  -2.19931
  Beta  occ. eigenvalues --   -2.19745  -2.19145  -2.18944  -2.18937  -1.15010
  Beta  occ. eigenvalues --   -1.14995  -1.14973  -1.14429  -1.14419  -1.14392
  Beta  occ. eigenvalues --   -1.13657  -1.13613  -1.13587  -1.13446  -1.13397
  Beta  occ. eigenvalues --   -1.13367  -1.12885  -1.12854  -1.12812  -1.12640
  Beta  occ. eigenvalues --   -1.12619  -1.12594  -1.12584  -1.12557  -1.12554
  Beta  occ. eigenvalues --   -0.17316  -0.13121  -0.11301
  Beta virt. eigenvalues --   -0.07062  -0.06616  -0.05444  -0.03801  -0.02703
  Beta virt. eigenvalues --   -0.02409  -0.01836  -0.01506  -0.01479  -0.00510
  Beta virt. eigenvalues --   -0.00214  -0.00043   0.00199   0.00687   0.00709

 Mulliken charges and spin densities:
               1          2
     1  Na  -0.036188  -0.085928
     2  Na   0.249985  -0.044178
     3  Na   0.046926  -0.033609
     4  Na  -0.078874  -0.020857
     5  Na   0.187956   0.485996
     6  Na   0.101717  -0.086116
     7  Na  -0.471521   0.784691
 Sum of Mulliken charges =  -0.00000   1.00000

 Dipole moment (field-independent basis, Debye):
    X=             -0.2072    Y=              0.0961    Z=              0.3064  Tot=              0.3822
 Quadrupole moment (field-independent basis, Debye-Ang):
   XX=            -45.5876   YY=            -70.0499   ZZ=            -75.6572
   XY=              0.5920   XZ=              0.4486   YZ=              0.5576

 Normal termination of Gaussian 16 at Thu Dec  7 20:53:08 2023.
