 Gaussian 16, Revision B.01,
 Gaussian 16:  ES64L-G16RevB.01 20-Dec-2017

 -------------------------
 #P B3LYP/6-311+g(d) force
 -------------------------

 -----
 DPGEN
 -----
 Symbolic Z-matrix:
 Charge =  0 Multiplicity = 2

                         Standard orientation:
 ---------------------------------------------------------------------
 Center     Atomic      Atomic             Coordinates (Angstroms)
 Number     Number       Type             X           Y           Z
 ---------------------------------------------------------------------
      1         11           0       -4.960664   -0.083712   -0.669937
      2         11           0        1.315702   -0.983555    1.918410
      3         11           0        4.448292   -0.004052   -0.817075
      4         11           0       -1.844983    1.112247   -0.819655
      5         11           0        1.471414    2.582755    0.607551
      6         11           0        1.719587   -1.677621   -1.315697
      7         11           0       -2.149348   -0.946062    1.096404
 ---------------------------------------------------------------------

 SCF Done:  E(UB3LYP) =  -1136.10886553     A.U. after   27 cycles

 The electronic state is 2-A.
 Alpha  occ. eigenvalues --  -38.45080 -38.44442 -38.44435 -38.44333 -38.44130
 Alpha  occ. eigenvalues --  -38.43748 -38.43278  -2.20967  -2.20355  -2.20263
 Alpha  occ. eigenvalues --   -2.20125  -2.19969  -2.19567  -2.19075  -1.14796
 Alpha  occ. eigenvalues --   -1.14642  -1.14516  -1.14062  -1.14016  -1.13951
 Alpha  occ. eigenvalues --   -1.13923  -1.13908  -1.13885  -1.13788  -1.13758
 Alpha  occ. eigenvalues --   -1.13733  -1.13653  -1.13615  -1.13581  -1.13240
 Alpha  occ. eigenvalues --   -1.13228  -1.13199  -1.12743  -1.12731  -1.12720
 Alpha  occ. eigenvalues --   -0.17447  -0.14322  -0.11568  -0.10676
 Alpha virt. eigenvalues --   -0.07020  -0.05212  -0.04603  -0.03578  -0.03097
 Alpha virt. eigenvalues --   -0.02538  -0.02010  -0.01452  -0.01369  -0.00498
 Alpha virt. eigenvalues --   -0.00175   0.00001   0.00270   0.00607   0.00687

  Beta  occ. eigenvalues --  -38.45063 -38.44418 -38.44417 -38.44244 -38.44094
  Beta  occ. eigenvalues --  -38.43750 -38.43274  -2.20936  -2.20311  -2.20230
  Beta  occ. eigenvalues --   -2.19960  -2.19907  -2.19571  -2.19066  -1.14771
  Beta  occ. eigenvalues --   -1.14620  -1.14491  -1.14036  -1.13982  -1.13921
  Beta  occ. eigenvalues --   -1.13904  -1.13865  -1.13855  -1.13672  -1.13644
  Beta  occ. eigenvalues --   -1.13626  -1.13600  -1.13560  -1.13542  -1.13242
  Beta  occ. eigenvalues --   -1.13231  -1.13202  -1.12738  -1.12720  -1.12713
  Beta  occ. eigenvalues --   -0.16845  -0.14117  -0.10435
  Beta virt. eigenvalues --   -0.07702  -0.06790  -0.04970  -0.04095  -0.03350
  Beta virt. eigenvalues --   -0.02671  -0.02151  -0.01626  -0.01270  -0.00959
  Beta virt. eigenvalues --   -0.00436  -0.00066   0.00150   0.00322   0.00680

 Mulliken charges and spin densities:
               1          2
     1  Na   0.744637   0.019751
     2  Na  -0.268737   0.090792
     3  Na   0.044992  -0.095777
     4  Na  -0.705838   0.141050
     5  Na   0.125806   0.528840
     6  Na   0.128308   0.167907
     7  Na  -0.069168   0.147437
 Sum of Mulliken charges =  -0.00000   1.00000

 Dipole moment (field-independent basis, Debye):
    X=             -0.9939    Y=              0.0189    Z=              0.4140  Tot=              1.0769
 Quadrupole moment (field-independent basis, Debye-Ang):
   XX=            -64.1555   YY=            -70.5768   ZZ=            -69.2135
   XY=              5.9038   XZ=              5.7808   YZ=             -2.4975

 Normal termination of Gaussian 16 at Wed Dec  6 00:55:59 2023.
