 Gaussian 16, Revision B.01,
 Gaussian 16:  ES64L-G16RevB.01 20-Dec-2017

 -------------------------
 #P B3LYP/6-311+g(d) force
 -------------------------

 -----
 DPGEN
 -----
 Symbolic Z-matrix:
 Charge =  0 Multiplicity = 2

                         Standard orientation:
 ---------------------------------------------------------------------
 Center     Atomic      Atomic             Coordinates (Angstroms)
 Number     Number       Type             X           Y           Z
 ---------------------------------------------------------------------
      1         11           0        3.215783    0.292777   -0.025381
      2         11           0       -2.258986    1.796862   -0.124552
      3         11           0       -0.553070   -0.167694    2.046896
      4         11           0        1.433955   -2.384923    0.197420
      5         11           0        0.670301    2.470082    0.041079
      6         11           0        0.141675   -0.189562   -1.804350
      7         11           0       -2.649658   -1.817542   -0.331114
 ---------------------------------------------------------------------

 SCF Done:  E(UB3LYP) =  -1136.13542927     A.U. after   19 cycles

 The electronic state is 2-A.
 Alpha  occ. eigenvalues --  -38.44095 -38.43932 -38.43681 -38.43622 -38.43543
 Alpha  occ. eigenvalues --  -38.43498 -38.42799  -2.19945  -2.19741  -2.19586
 Alpha  occ. eigenvalues --   -2.19528  -2.19459  -2.19415  -2.18737  -1.13615
 Alpha  occ. eigenvalues --   -1.13606  -1.13601  -1.13416  -1.13402  -1.13384
 Alpha  occ. eigenvalues --   -1.13277  -1.13245  -1.13225  -1.13202  -1.13179
 Alpha  occ. eigenvalues --   -1.13174  -1.13151  -1.13126  -1.13079  -1.13069
 Alpha  occ. eigenvalues --   -1.13043  -1.13030  -1.12420  -1.12384  -1.12375
 Alpha  occ. eigenvalues --   -0.18933  -0.13269  -0.12306  -0.11034
 Alpha virt. eigenvalues --   -0.05747  -0.05227  -0.04195  -0.03397  -0.02962
 Alpha virt. eigenvalues --   -0.02727  -0.01618  -0.01019  -0.00212  -0.00056
 Alpha virt. eigenvalues --    0.00021   0.00356   0.00779   0.00896   0.00946

  Beta  occ. eigenvalues --  -38.44095 -38.43926 -38.43616 -38.43591 -38.43536
  Beta  occ. eigenvalues --  -38.43425 -38.42791  -2.19947  -2.19733  -2.19521
  Beta  occ. eigenvalues --   -2.19421  -2.19405  -2.19326  -2.18727  -1.13621
  Beta  occ. eigenvalues --   -1.13609  -1.13585  -1.13399  -1.13388  -1.13380
  Beta  occ. eigenvalues --   -1.13252  -1.13177  -1.13151  -1.13147  -1.13123
  Beta  occ. eigenvalues --   -1.13089  -1.13085  -1.13048  -1.13044  -1.13028
  Beta  occ. eigenvalues --   -1.12983  -1.12962  -1.12416  -1.12378  -1.12340
  Beta  occ. eigenvalues --   -0.18175  -0.13052  -0.12049
  Beta virt. eigenvalues --   -0.07093  -0.05699  -0.05198  -0.04173  -0.02622
  Beta virt. eigenvalues --   -0.02145  -0.01679  -0.01528  -0.00953  -0.00256
  Beta virt. eigenvalues --   -0.00021   0.00095   0.00376   0.00845   0.00903

 Mulliken charges and spin densities:
               1          2
     1  Na   0.063302  -0.026330
     2  Na   0.323059   0.003374
     3  Na  -0.532170   0.615559
     4  Na   0.256910  -0.063693
     5  Na   0.168742   0.007603
     6  Na  -0.447555   0.565550
     7  Na   0.167712  -0.102064
 Sum of Mulliken charges =  -0.00000   1.00000

 Dipole moment (field-independent basis, Debye):
    X=             -0.0418    Y=             -0.3263    Z=              0.0624  Tot=              0.3348
 Quadrupole moment (field-independent basis, Debye-Ang):
   XX=            -55.2043   YY=            -66.7165   ZZ=            -72.5050
   XY=              0.6425   XZ=              1.2292   YZ=              0.0262

 Normal termination of Gaussian 16 at Thu Dec  7 14:01:05 2023.
