 Gaussian 16, Revision B.01,
 Gaussian 16:  ES64L-G16RevB.01 20-Dec-2017

 -------------------------
 #P B3LYP/6-311+g(d) force
 -------------------------

 -----
 DPGEN
 -----
 Symbolic Z-matrix:
 Charge =  0 Multiplicity = 2

                         Standard orientation:
 ---------------------------------------------------------------------
 Center     Atomic      Atomic             Coordinates (Angstroms)
 Number     Number       Type             X           Y           Z
 ---------------------------------------------------------------------
      1         11           0       -2.966876    1.602331   -0.201669
      2         11           0        1.145816   -2.410795    0.326632
      3         11           0       -2.467583   -2.025464   -0.339618
      4         11           0       -0.071679   -0.050301   -1.585351
      5         11           0        3.596934   -0.226995   -0.251400
      6         11           0        1.197256    2.869789   -0.079667
      7         11           0       -0.433869    0.241435    2.131074
 ---------------------------------------------------------------------

 SCF Done:  E(UB3LYP) =  -1136.13226758     A.U. after   20 cycles

 The electronic state is 2-A.
 Alpha  occ. eigenvalues --  -38.44670 -38.44592 -38.43849 -38.43694 -38.43566
 Alpha  occ. eigenvalues --  -38.43502 -38.43028  -2.20449  -2.20375  -2.19674
 Alpha  occ. eigenvalues --   -2.19471  -2.19436  -2.19427  -2.18902  -1.14123
 Alpha  occ. eigenvalues --   -1.14113  -1.14082  -1.14054  -1.14030  -1.14012
 Alpha  occ. eigenvalues --   -1.13366  -1.13329  -1.13309  -1.13164  -1.13150
 Alpha  occ. eigenvalues --   -1.13136  -1.13099  -1.13088  -1.13073  -1.13054
 Alpha  occ. eigenvalues --   -1.13047  -1.13039  -1.12595  -1.12566  -1.12524
 Alpha  occ. eigenvalues --   -0.18139  -0.13086  -0.11964  -0.10584
 Alpha virt. eigenvalues --   -0.06378  -0.05438  -0.04317  -0.03147  -0.02757
 Alpha virt. eigenvalues --   -0.02498  -0.02048  -0.01346  -0.00740  -0.00259
 Alpha virt. eigenvalues --   -0.00071   0.00278   0.00673   0.00714   0.00808

  Beta  occ. eigenvalues --  -38.44670 -38.44587 -38.43840 -38.43693 -38.43462
  Beta  occ. eigenvalues --  -38.43452 -38.43018  -2.20449  -2.20368  -2.19662
  Beta  occ. eigenvalues --   -2.19471  -2.19344  -2.19235  -2.18887  -1.14118
  Beta  occ. eigenvalues --   -1.14111  -1.14083  -1.14033  -1.14029  -1.14005
  Beta  occ. eigenvalues --   -1.13349  -1.13314  -1.13297  -1.13155  -1.13135
  Beta  occ. eigenvalues --   -1.13099  -1.13075  -1.13013  -1.12979  -1.12959
  Beta  occ. eigenvalues --   -1.12921  -1.12899  -1.12587  -1.12529  -1.12516
  Beta  occ. eigenvalues --   -0.17430  -0.12881  -0.11757
  Beta virt. eigenvalues --   -0.06672  -0.06325  -0.05402  -0.04258  -0.02474
  Beta virt. eigenvalues --   -0.02014  -0.01933  -0.01472  -0.01287  -0.00766
  Beta virt. eigenvalues --   -0.00265   0.00089   0.00323   0.00733   0.00776

 Mulliken charges and spin densities:
               1          2
     1  Na   0.088016  -0.077856
     2  Na   0.188826   0.075716
     3  Na   0.255646   0.046722
     4  Na  -0.137597   0.388227
     5  Na   0.000670  -0.035487
     6  Na  -0.054623  -0.105905
     7  Na  -0.340937   0.708583
 Sum of Mulliken charges =  -0.00000   1.00000

 Dipole moment (field-independent basis, Debye):
    X=             -0.1407    Y=              0.2479    Z=             -0.0140  Tot=              0.2854
 Quadrupole moment (field-independent basis, Debye-Ang):
   XX=            -51.1797   YY=            -65.6536   ZZ=            -75.4168
   XY=             -0.0315   XZ=              0.3317   YZ=             -0.4468

 Normal termination of Gaussian 16 at Thu Dec  7 03:13:05 2023.
