 Gaussian 16, Revision B.01,
 Gaussian 16:  ES64L-G16RevB.01 20-Dec-2017

 -------------------------
 #P B3LYP/6-311+g(d) force
 -------------------------

 -----
 DPGEN
 -----
 Symbolic Z-matrix:
 Charge =  0 Multiplicity = 2

                         Standard orientation:
 ---------------------------------------------------------------------
 Center     Atomic      Atomic             Coordinates (Angstroms)
 Number     Number       Type             X           Y           Z
 ---------------------------------------------------------------------
      1         11           0        2.108368    1.018518    1.300164
      2         11           0       -0.775248    0.645253   -1.047247
      3         11           0       -2.782683   -1.747817    0.783462
      4         11           0        1.456880   -2.108378   -0.919182
      5         11           0        4.196745   -1.093432    0.143359
      6         11           0       -4.847539    0.175680    0.085196
      7         11           0        0.643477    3.110175   -0.345752
 ---------------------------------------------------------------------

 SCF Done:  E(UB3LYP) =  -1136.11611646     A.U. after   19 cycles

 The electronic state is 2-A.
 Alpha  occ. eigenvalues --  -38.44546 -38.44451 -38.44179 -38.43721 -38.43588
 Alpha  occ. eigenvalues --  -38.43516 -38.43116  -2.20387  -2.20293  -2.20087
 Alpha  occ. eigenvalues --   -2.19638  -2.19446  -2.19384  -2.19019  -1.14210
 Alpha  occ. eigenvalues --   -1.14047  -1.14026  -1.13920  -1.13912  -1.13850
 Alpha  occ. eigenvalues --   -1.13775  -1.13745  -1.13731  -1.13341  -1.13312
 Alpha  occ. eigenvalues --   -1.13279  -1.13158  -1.13111  -1.13101  -1.13042
 Alpha  occ. eigenvalues --   -1.13021  -1.12962  -1.12681  -1.12668  -1.12636
 Alpha  occ. eigenvalues --   -0.17414  -0.14304  -0.12230  -0.10801
 Alpha virt. eigenvalues --   -0.06341  -0.04712  -0.04337  -0.03970  -0.03308
 Alpha virt. eigenvalues --   -0.02260  -0.01582  -0.01279  -0.00911  -0.00421
 Alpha virt. eigenvalues --   -0.00256  -0.00020   0.00486   0.00691   0.00717

  Beta  occ. eigenvalues --  -38.44547 -38.44402 -38.44137 -38.43679 -38.43544
  Beta  occ. eigenvalues --  -38.43491 -38.43113  -2.20393  -2.20202  -2.20012
  Beta  occ. eigenvalues --   -2.19563  -2.19368  -2.19337  -2.19016  -1.14181
  Beta  occ. eigenvalues --   -1.14055  -1.14013  -1.13858  -1.13848  -1.13806
  Beta  occ. eigenvalues --   -1.13725  -1.13682  -1.13674  -1.13285  -1.13262
  Beta  occ. eigenvalues --   -1.13222  -1.13115  -1.13059  -1.13042  -1.12997
  Beta  occ. eigenvalues --   -1.12989  -1.12916  -1.12670  -1.12661  -1.12635
  Beta  occ. eigenvalues --   -0.16759  -0.13793  -0.12088
  Beta virt. eigenvalues --   -0.07187  -0.06090  -0.04514  -0.03809  -0.03674
  Beta virt. eigenvalues --   -0.02909  -0.02113  -0.01225  -0.01068  -0.00540
  Beta virt. eigenvalues --   -0.00258  -0.00044   0.00141   0.00572   0.00730

 Mulliken charges and spin densities:
               1          2
     1  Na  -0.205986   0.243947
     2  Na  -1.137392   0.254801
     3  Na   0.168228   0.073133
     4  Na   0.062879   0.104051
     5  Na   0.193375   0.184759
     6  Na   0.185002   0.173432
     7  Na   0.733894  -0.034125
 Sum of Mulliken charges =  -0.00000   1.00000

 Dipole moment (field-independent basis, Debye):
    X=             -0.6871    Y=              0.1234    Z=             -0.0141  Tot=              0.6982
 Quadrupole moment (field-independent basis, Debye-Ang):
   XX=            -63.7384   YY=            -67.2163   ZZ=            -68.4047
   XY=             -2.9432   XZ=              0.4703   YZ=             -2.3633

 Normal termination of Gaussian 16 at Wed Nov 29 00:57:06 2023.
