 Gaussian 16, Revision B.01,
 Gaussian 16:  ES64L-G16RevB.01 20-Dec-2017

 -------------------------
 #P B3LYP/6-311+g(d) force
 -------------------------

 -----
 DPGEN
 -----
 Symbolic Z-matrix:
 Charge =  0 Multiplicity = 2

                         Standard orientation:
 ---------------------------------------------------------------------
 Center     Atomic      Atomic             Coordinates (Angstroms)
 Number     Number       Type             X           Y           Z
 ---------------------------------------------------------------------
      1         11           0       -1.126869    2.263849    1.476373
      2         11           0       -2.791517    0.433248   -0.627582
      3         11           0        1.953818   -0.550909   -1.039672
      4         11           0       -2.460140   -2.745298   -0.244663
      5         11           0        4.723151   -0.547852    0.415149
      6         11           0        0.102391    2.246251   -1.215039
      7         11           0       -0.400833   -1.099289    1.235434
 ---------------------------------------------------------------------

 SCF Done:  E(UB3LYP) =  -1136.11375055     A.U. after   24 cycles

 The electronic state is 2-A.
 Alpha  occ. eigenvalues --  -38.45402 -38.44666 -38.43971 -38.43809 -38.43423
 Alpha  occ. eigenvalues --  -38.43421 -38.43306  -2.21165  -2.20580  -2.19911
 Alpha  occ. eigenvalues --   -2.19682  -2.19344  -2.19291  -2.19245  -1.14836
 Alpha  occ. eigenvalues --   -1.14821  -1.14812  -1.14272  -1.14258  -1.14202
 Alpha  occ. eigenvalues --   -1.13610  -1.13583  -1.13552  -1.13364  -1.13339
 Alpha  occ. eigenvalues --   -1.13311  -1.13120  -1.12999  -1.12973  -1.12954
 Alpha  occ. eigenvalues --   -1.12946  -1.12920  -1.12896  -1.12870  -1.12803
 Alpha  occ. eigenvalues --   -0.18394  -0.13449  -0.12504  -0.10358
 Alpha virt. eigenvalues --   -0.07397  -0.04998  -0.03715  -0.03627  -0.03039
 Alpha virt. eigenvalues --   -0.02597  -0.01936  -0.01118  -0.00724  -0.00517
 Alpha virt. eigenvalues --   -0.00049   0.00232   0.00289   0.00653   0.00859

  Beta  occ. eigenvalues --  -38.45406 -38.44645 -38.43932 -38.43789 -38.43416
  Beta  occ. eigenvalues --  -38.43381 -38.43257  -2.21174  -2.20545  -2.19841
  Beta  occ. eigenvalues --   -2.19647  -2.19283  -2.19268  -2.19154  -1.14843
  Beta  occ. eigenvalues --   -1.14827  -1.14816  -1.14245  -1.14207  -1.14181
  Beta  occ. eigenvalues --   -1.13563  -1.13524  -1.13497  -1.13343  -1.13308
  Beta  occ. eigenvalues --   -1.13270  -1.13062  -1.12944  -1.12942  -1.12938
  Beta  occ. eigenvalues --   -1.12918  -1.12910  -1.12834  -1.12800  -1.12735
  Beta  occ. eigenvalues --   -0.17684  -0.13311  -0.12368
  Beta virt. eigenvalues --   -0.07153  -0.06473  -0.04884  -0.03523  -0.03302
  Beta virt. eigenvalues --   -0.02559  -0.02300  -0.01269  -0.00940  -0.00674
  Beta virt. eigenvalues --   -0.00162   0.00057   0.00306   0.00480   0.00701

 Mulliken charges and spin densities:
               1          2
     1  Na   0.194186   0.181788
     2  Na   0.087571   0.287236
     3  Na   0.322069   0.066796
     4  Na   0.389012  -0.042291
     5  Na  -0.042523  -0.002872
     6  Na  -0.097425   0.217767
     7  Na  -0.852889   0.291577
 Sum of Mulliken charges =  -0.00000   1.00000

 Dipole moment (field-independent basis, Debye):
    X=              0.7616    Y=              0.0239    Z=              0.2223  Tot=              0.7937
 Quadrupole moment (field-independent basis, Debye-Ang):
   XX=            -50.0700   YY=            -67.5316   ZZ=            -73.9785
   XY=             -0.0292   XZ=              4.4602   YZ=              0.9981

 Normal termination of Gaussian 16 at Wed Nov 29 01:27:55 2023.
