 Gaussian 16, Revision B.01,
 Gaussian 16:  ES64L-G16RevB.01 20-Dec-2017

 -------------------------
 #P B3LYP/6-311+g(d) force
 -------------------------

 -----
 DPGEN
 -----
 Symbolic Z-matrix:
 Charge =  0 Multiplicity = 2

                         Standard orientation:
 ---------------------------------------------------------------------
 Center     Atomic      Atomic             Coordinates (Angstroms)
 Number     Number       Type             X           Y           Z
 ---------------------------------------------------------------------
      1         11           0       -2.628427   -1.742419   -0.916672
      2         11           0        1.367472   -1.546404   -1.315435
      3         11           0       -0.376784   -0.641018    1.895654
      4         11           0       -0.807323    1.613294   -0.998901
      5         11           0        3.658488   -0.648352    0.987831
      6         11           0        2.284464    1.960905   -0.536311
      7         11           0       -3.497889    1.003994    0.883834
 ---------------------------------------------------------------------

 SCF Done:  E(UB3LYP) =  -1136.12081274     A.U. after   25 cycles

 The electronic state is 2-A.
 Alpha  occ. eigenvalues --  -38.45200 -38.44829 -38.44743 -38.44480 -38.44013
 Alpha  occ. eigenvalues --  -38.43113 -38.42452  -2.20994  -2.20670  -2.20567
 Alpha  occ. eigenvalues --   -2.20292  -2.19850  -2.18975  -2.18349  -1.14691
 Alpha  occ. eigenvalues --   -1.14652  -1.14602  -1.14336  -1.14320  -1.14300
 Alpha  occ. eigenvalues --   -1.14231  -1.14226  -1.14196  -1.13958  -1.13941
 Alpha  occ. eigenvalues --   -1.13932  -1.13536  -1.13499  -1.13479  -1.12674
 Alpha  occ. eigenvalues --   -1.12637  -1.12614  -1.12046  -1.12007  -1.11979
 Alpha  occ. eigenvalues --   -0.18176  -0.14428  -0.11020  -0.10814
 Alpha virt. eigenvalues --   -0.07148  -0.05623  -0.04811  -0.03136  -0.02781
 Alpha virt. eigenvalues --   -0.02476  -0.02156  -0.01321  -0.00970  -0.00331
 Alpha virt. eigenvalues --    0.00094   0.00185   0.00228   0.00467   0.00621

  Beta  occ. eigenvalues --  -38.45161 -38.44798 -38.44719 -38.44454 -38.43976
  Beta  occ. eigenvalues --  -38.43111 -38.42434  -2.20923  -2.20614  -2.20521
  Beta  occ. eigenvalues --   -2.20246  -2.19785  -2.18975  -2.18320  -1.14641
  Beta  occ. eigenvalues --   -1.14595  -1.14547  -1.14294  -1.14284  -1.14260
  Beta  occ. eigenvalues --   -1.14199  -1.14196  -1.14166  -1.13924  -1.13908
  Beta  occ. eigenvalues --   -1.13888  -1.13494  -1.13443  -1.13422  -1.12668
  Beta  occ. eigenvalues --   -1.12626  -1.12617  -1.12030  -1.11965  -1.11956
  Beta  occ. eigenvalues --   -0.17532  -0.14192  -0.10626
  Beta virt. eigenvalues --   -0.07329  -0.06869  -0.05480  -0.04210  -0.02932
  Beta virt. eigenvalues --   -0.02573  -0.01907  -0.01481  -0.01097  -0.00656
  Beta virt. eigenvalues --   -0.00287   0.00136   0.00220   0.00365   0.00583

 Mulliken charges and spin densities:
               1          2
     1  Na   0.043233   0.057434
     2  Na  -0.204101   0.183246
     3  Na  -0.555031   0.299657
     4  Na  -0.759156   0.254772
     5  Na   0.537839   0.249436
     6  Na  -0.076013  -0.118732
     7  Na   1.013229   0.074187
 Sum of Mulliken charges =  -0.00000   1.00000

 Dipole moment (field-independent basis, Debye):
    X=             -0.4736    Y=             -0.5397    Z=              0.5708  Tot=              0.9173
 Quadrupole moment (field-independent basis, Debye-Ang):
   XX=            -45.7959   YY=            -79.0872   ZZ=            -69.8082
   XY=             -0.2240   XZ=              1.1332   YZ=              4.1652

 Normal termination of Gaussian 16 at Thu Dec  7 17:22:33 2023.
