 Gaussian 16, Revision B.01,
 Gaussian 16:  ES64L-G16RevB.01 20-Dec-2017

 -------------------------
 #P B3LYP/6-311+g(d) force
 -------------------------

 -----
 DPGEN
 -----
 Symbolic Z-matrix:
 Charge =  0 Multiplicity = 2

                         Standard orientation:
 ---------------------------------------------------------------------
 Center     Atomic      Atomic             Coordinates (Angstroms)
 Number     Number       Type             X           Y           Z
 ---------------------------------------------------------------------
      1         11           0       -2.621017   -2.082455   -0.060208
      2         11           0        3.364507    0.292167    0.341158
      3         11           0        0.344444    2.913825   -0.016013
      4         11           0        1.493397   -2.346727   -0.602976
      5         11           0       -0.253224   -0.479528    2.075093
      6         11           0       -2.660456    1.546218   -0.234941
      7         11           0        0.332350    0.156500   -1.502113
 ---------------------------------------------------------------------

 SCF Done:  E(UB3LYP) =  -1136.13187816     A.U. after   19 cycles

 The electronic state is 2-A.
 Alpha  occ. eigenvalues --  -38.44530 -38.43949 -38.43909 -38.43709 -38.43693
 Alpha  occ. eigenvalues --  -38.43204 -38.43167  -2.20335  -2.19785  -2.19696
 Alpha  occ. eigenvalues --   -2.19589  -2.19564  -2.19219  -2.19026  -1.13999
 Alpha  occ. eigenvalues --   -1.13993  -1.13982  -1.13465  -1.13456  -1.13422
 Alpha  occ. eigenvalues --   -1.13403  -1.13371  -1.13349  -1.13343  -1.13242
 Alpha  occ. eigenvalues --   -1.13220  -1.13195  -1.13179  -1.13170  -1.12919
 Alpha  occ. eigenvalues --   -1.12874  -1.12810  -1.12691  -1.12678  -1.12648
 Alpha  occ. eigenvalues --   -0.18426  -0.13169  -0.12252  -0.10567
 Alpha virt. eigenvalues --   -0.05987  -0.05314  -0.04506  -0.03260  -0.02784
 Alpha virt. eigenvalues --   -0.02425  -0.01842  -0.01183  -0.00459  -0.00346
 Alpha virt. eigenvalues --   -0.00024   0.00317   0.00737   0.00831   0.00849

  Beta  occ. eigenvalues --  -38.44525 -38.43944 -38.43911 -38.43670 -38.43620
  Beta  occ. eigenvalues --  -38.43165 -38.43145  -2.20326  -2.19779  -2.19702
  Beta  occ. eigenvalues --   -2.19551  -2.19399  -2.19114  -2.19024  -1.13991
  Beta  occ. eigenvalues --   -1.13983  -1.13969  -1.13455  -1.13445  -1.13417
  Beta  occ. eigenvalues --   -1.13363  -1.13359  -1.13354  -1.13345  -1.13181
  Beta  occ. eigenvalues --   -1.13159  -1.13121  -1.13083  -1.13050  -1.12851
  Beta  occ. eigenvalues --   -1.12806  -1.12738  -1.12672  -1.12664  -1.12640
  Beta  occ. eigenvalues --   -0.17724  -0.12965  -0.12029
  Beta virt. eigenvalues --   -0.06687  -0.05864  -0.05318  -0.04460  -0.02530
  Beta virt. eigenvalues --   -0.02068  -0.01735  -0.01390  -0.01108  -0.00492
  Beta virt. eigenvalues --   -0.00347   0.00127   0.00353   0.00803   0.00840

 Mulliken charges and spin densities:
               1          2
     1  Na   0.122480  -0.087591
     2  Na   0.050347   0.105353
     3  Na   0.095695   0.001184
     4  Na   0.324287  -0.034597
     5  Na  -0.581995   0.779225
     6  Na   0.084075  -0.047849
     7  Na  -0.094888   0.284276
 Sum of Mulliken charges =  -0.00000   1.00000

 Dipole moment (field-independent basis, Debye):
    X=              0.1600    Y=             -0.0704    Z=              0.2582  Tot=              0.3118
 Quadrupole moment (field-independent basis, Debye-Ang):
   XX=            -53.1947   YY=            -64.1813   ZZ=            -75.3856
   XY=              1.0769   XZ=              1.9620   YZ=              1.5584

 Normal termination of Gaussian 16 at Thu Dec  7 12:43:19 2023.
