 Gaussian 16, Revision B.01,
 Gaussian 16:  ES64L-G16RevB.01 20-Dec-2017

 -------------------------
 #P B3LYP/6-311+g(d) force
 -------------------------

 -----
 DPGEN
 -----
 Symbolic Z-matrix:
 Charge =  0 Multiplicity = 2

                         Standard orientation:
 ---------------------------------------------------------------------
 Center     Atomic      Atomic             Coordinates (Angstroms)
 Number     Number       Type             X           Y           Z
 ---------------------------------------------------------------------
      1         11           0       -0.358320    2.052564    1.673780
      2         11           0       -0.938678   -0.615932   -1.846115
      3         11           0       -3.939699    0.671625   -0.791826
      4         11           0       -1.798322   -1.674956    1.869496
      5         11           0        2.056861    2.713331   -0.738729
      6         11           0        1.357938   -2.476154   -0.544518
      7         11           0        3.620220   -0.670478    0.377912
 ---------------------------------------------------------------------

 SCF Done:  E(UB3LYP) =  -1136.11303926     A.U. after   22 cycles

 The electronic state is 2-A.
 Alpha  occ. eigenvalues --  -38.45244 -38.45175 -38.44548 -38.44501 -38.44135
 Alpha  occ. eigenvalues --  -38.43649 -38.43167  -2.21025  -2.20939  -2.20332
 Alpha  occ. eigenvalues --   -2.20327  -2.19894  -2.19413  -2.19025  -1.14725
 Alpha  occ. eigenvalues --   -1.14693  -1.14646  -1.14603  -1.14595  -1.14566
 Alpha  occ. eigenvalues --   -1.14001  -1.13988  -1.13983  -1.13965  -1.13960
 Alpha  occ. eigenvalues --   -1.13948  -1.13573  -1.13564  -1.13514  -1.13089
 Alpha  occ. eigenvalues --   -1.13064  -1.13062  -1.12713  -1.12696  -1.12651
 Alpha  occ. eigenvalues --   -0.16927  -0.13188  -0.11800  -0.11011
 Alpha virt. eigenvalues --   -0.07128  -0.05603  -0.04067  -0.03544  -0.03102
 Alpha virt. eigenvalues --   -0.02837  -0.02402  -0.01213  -0.00785  -0.00417
 Alpha virt. eigenvalues --   -0.00159  -0.00078   0.00299   0.00379   0.00680

  Beta  occ. eigenvalues --  -38.45252 -38.45141 -38.44460 -38.44458 -38.44110
  Beta  occ. eigenvalues --  -38.43650 -38.43165  -2.21041  -2.20878  -2.20251
  Beta  occ. eigenvalues --   -2.20170  -2.19849  -2.19416  -2.19022  -1.14737
  Beta  occ. eigenvalues --   -1.14700  -1.14658  -1.14557  -1.14545  -1.14527
  Beta  occ. eigenvalues --   -1.13936  -1.13931  -1.13905  -1.13873  -1.13848
  Beta  occ. eigenvalues --   -1.13844  -1.13543  -1.13531  -1.13477  -1.13089
  Beta  occ. eigenvalues --   -1.13065  -1.13063  -1.12712  -1.12694  -1.12639
  Beta  occ. eigenvalues --   -0.16355  -0.12900  -0.11717
  Beta virt. eigenvalues --   -0.07202  -0.06980  -0.05213  -0.03923  -0.03138
  Beta virt. eigenvalues --   -0.02703  -0.02367  -0.01912  -0.01022  -0.00500
  Beta virt. eigenvalues --   -0.00330  -0.00093   0.00112   0.00359   0.00526

 Mulliken charges and spin densities:
               1          2
     1  Na  -0.074268   0.221064
     2  Na  -0.154010   0.311523
     3  Na   0.171332   0.018297
     4  Na  -0.239928   0.462445
     5  Na   0.020321  -0.096685
     6  Na   0.500392   0.139465
     7  Na  -0.223839  -0.056109
 Sum of Mulliken charges =  -0.00000   1.00000

 Dipole moment (field-independent basis, Debye):
    X=             -0.4210    Y=              0.0631    Z=              0.1543  Tot=              0.4528
 Quadrupole moment (field-independent basis, Debye-Ang):
   XX=            -53.1840   YY=            -73.3721   ZZ=            -70.7804
   XY=             -1.9008   XZ=             -0.4808   YZ=             -3.1562

 Normal termination of Gaussian 16 at Mon Dec  4 00:52:02 2023.
