 Gaussian 16, Revision B.01,
 Gaussian 16:  ES64L-G16RevB.01 20-Dec-2017

 -------------------------
 #P B3LYP/6-311+g(d) force
 -------------------------

 -----
 DPGEN
 -----
 Symbolic Z-matrix:
 Charge =  0 Multiplicity = 2

                         Standard orientation:
 ---------------------------------------------------------------------
 Center     Atomic      Atomic             Coordinates (Angstroms)
 Number     Number       Type             X           Y           Z
 ---------------------------------------------------------------------
      1         11           0        2.614622   -2.384362    0.521393
      2         11           0        3.688788    0.535409   -1.008117
      3         11           0       -0.239596   -3.417069   -0.928956
      4         11           0       -3.183373   -2.276697    1.164906
      5         11           0        3.969665    3.072157    0.904768
      6         11           0       -3.183085    0.808209   -0.307040
      7         11           0       -3.667022    3.662354   -0.346952
 ---------------------------------------------------------------------

 SCF Done:  E(UB3LYP) =  -1136.10683626     A.U. after   18 cycles

 The electronic state is 2-A.
 Alpha  occ. eigenvalues --  -38.44772 -38.44655 -38.44642 -38.44550 -38.44201
 Alpha  occ. eigenvalues --  -38.43946 -38.43410  -2.20573  -2.20435  -2.20408
 Alpha  occ. eigenvalues --   -2.20359  -2.20000  -2.19789  -2.19255  -1.14220
 Alpha  occ. eigenvalues --   -1.14218  -1.14184  -1.14103  -1.14095  -1.14088
 Alpha  occ. eigenvalues --   -1.14078  -1.14075  -1.14057  -1.14014  -1.14008
 Alpha  occ. eigenvalues --   -1.13965  -1.13673  -1.13667  -1.13644  -1.13531
 Alpha  occ. eigenvalues --   -1.13408  -1.13407  -1.12917  -1.12912  -1.12901
 Alpha  occ. eigenvalues --   -0.15444  -0.14165  -0.12702  -0.11170
 Alpha virt. eigenvalues --   -0.06565  -0.05073  -0.04545  -0.03505  -0.02880
 Alpha virt. eigenvalues --   -0.02330  -0.02094  -0.01700  -0.01667  -0.01188
 Alpha virt. eigenvalues --   -0.00470  -0.00310  -0.00079   0.00510   0.00577

  Beta  occ. eigenvalues --  -38.44688 -38.44675 -38.44587 -38.44494 -38.44210
  Beta  occ. eigenvalues --  -38.43885 -38.43410  -2.20450  -2.20416  -2.20331
  Beta  occ. eigenvalues --   -2.20256  -2.20022  -2.19675  -2.19264  -1.14131
  Beta  occ. eigenvalues --   -1.14122  -1.14115  -1.14110  -1.14086  -1.14054
  Beta  occ. eigenvalues --   -1.14020  -1.14007  -1.14005  -1.13944  -1.13939
  Beta  occ. eigenvalues --   -1.13908  -1.13691  -1.13685  -1.13626  -1.13458
  Beta  occ. eigenvalues --   -1.13330  -1.13330  -1.12927  -1.12922  -1.12857
  Beta  occ. eigenvalues --   -0.14927  -0.13460  -0.12035
  Beta virt. eigenvalues --   -0.08124  -0.06215  -0.04864  -0.04090  -0.03324
  Beta virt. eigenvalues --   -0.02603  -0.02093  -0.01814  -0.01545  -0.01468
  Beta virt. eigenvalues --   -0.00723  -0.00280  -0.00096   0.00126   0.00541

 Mulliken charges and spin densities:
               1          2
     1  Na  -0.058232   0.252938
     2  Na  -0.189929  -0.036177
     3  Na   0.133884  -0.119520
     4  Na   0.902040   0.315123
     5  Na   0.181508   0.250062
     6  Na  -0.766866   0.173025
     7  Na  -0.202405   0.164550
 Sum of Mulliken charges =  -0.00000   1.00000

 Dipole moment (field-independent basis, Debye):
    X=              0.6785    Y=             -0.1546    Z=              0.5663  Tot=              0.8972
 Quadrupole moment (field-independent basis, Debye-Ang):
   XX=            -73.1377   YY=            -59.8676   ZZ=            -65.7891
   XY=              2.8490   XZ=              0.2150   YZ=              2.4714

 Normal termination of Gaussian 16 at Sun Dec  3 13:31:15 2023.
