 Gaussian 16, Revision B.01,
 Gaussian 16:  ES64L-G16RevB.01 20-Dec-2017

 -------------------------
 #P B3LYP/6-311+g(d) force
 -------------------------

 -----
 DPGEN
 -----
 Symbolic Z-matrix:
 Charge =  0 Multiplicity = 2

                         Standard orientation:
 ---------------------------------------------------------------------
 Center     Atomic      Atomic             Coordinates (Angstroms)
 Number     Number       Type             X           Y           Z
 ---------------------------------------------------------------------
      1         11           0       -2.389441   -1.940245   -0.146207
      2         11           0       -2.623043    1.967758   -0.228418
      3         11           0        0.872691    2.369761    0.184245
      4         11           0       -0.230420   -0.670280   -1.864322
      5         11           0       -0.631657   -0.093266    1.890882
      6         11           0        1.648923   -2.184120    0.524500
      7         11           0        3.352947    0.550392   -0.360680
 ---------------------------------------------------------------------

 SCF Done:  E(UB3LYP) =  -1136.13235979     A.U. after   19 cycles

 The electronic state is 2-A.
 Alpha  occ. eigenvalues --  -38.44153 -38.44048 -38.44037 -38.43717 -38.43698
 Alpha  occ. eigenvalues --  -38.43432 -38.43097  -2.19992  -2.19908  -2.19850
 Alpha  occ. eigenvalues --   -2.19637  -2.19558  -2.19379  -2.18974  -1.13684
 Alpha  occ. eigenvalues --   -1.13655  -1.13646  -1.13634  -1.13586  -1.13525
 Alpha  occ. eigenvalues --   -1.13517  -1.13504  -1.13491  -1.13309  -1.13266
 Alpha  occ. eigenvalues --   -1.13261  -1.13247  -1.13205  -1.13173  -1.13051
 Alpha  occ. eigenvalues --   -1.13020  -1.12981  -1.12660  -1.12641  -1.12603
 Alpha  occ. eigenvalues --   -0.18658  -0.13316  -0.12197  -0.10918
 Alpha virt. eigenvalues --   -0.05824  -0.05663  -0.04047  -0.03365  -0.02934
 Alpha virt. eigenvalues --   -0.02635  -0.01681  -0.01314  -0.00358  -0.00051
 Alpha virt. eigenvalues --    0.00029   0.00322   0.00749   0.00788   0.00851

  Beta  occ. eigenvalues --  -38.44152 -38.44046 -38.44028 -38.43683 -38.43646
  Beta  occ. eigenvalues --  -38.43347 -38.43092  -2.19991  -2.19896  -2.19848
  Beta  occ. eigenvalues --   -2.19534  -2.19506  -2.19223  -2.18967  -1.13685
  Beta  occ. eigenvalues --   -1.13642  -1.13631  -1.13627  -1.13556  -1.13514
  Beta  occ. eigenvalues --   -1.13509  -1.13501  -1.13487  -1.13251  -1.13204
  Beta  occ. eigenvalues --   -1.13192  -1.13171  -1.13161  -1.13139  -1.12947
  Beta  occ. eigenvalues --   -1.12916  -1.12863  -1.12652  -1.12615  -1.12602
  Beta  occ. eigenvalues --   -0.17930  -0.13105  -0.11959
  Beta virt. eigenvalues --   -0.07000  -0.05721  -0.05639  -0.03984  -0.02667
  Beta virt. eigenvalues --   -0.02165  -0.01615  -0.01575  -0.01264  -0.00358
  Beta virt. eigenvalues --   -0.00013   0.00109   0.00359   0.00798   0.00839

 Mulliken charges and spin densities:
               1          2
     1  Na   0.395130  -0.111117
     2  Na  -0.015525  -0.071642
     3  Na   0.028136  -0.010876
     4  Na  -0.472121   0.681062
     5  Na  -0.134234   0.560114
     6  Na   0.301932  -0.020536
     7  Na  -0.103319  -0.027005
 Sum of Mulliken charges =  -0.00000   1.00000

 Dipole moment (field-independent basis, Debye):
    X=             -0.2484    Y=             -0.1952    Z=             -0.1447  Tot=              0.3475
 Quadrupole moment (field-independent basis, Debye-Ang):
   XX=            -53.5491   YY=            -67.5024   ZZ=            -73.1732
   XY=             -0.6456   XZ=              0.0369   YZ=             -1.6244

 Normal termination of Gaussian 16 at Wed Nov 29 17:03:22 2023.
