 Gaussian 16, Revision B.01,
 Gaussian 16:  ES64L-G16RevB.01 20-Dec-2017

 -------------------------
 #P B3LYP/6-311+g(d) force
 -------------------------

 -----
 DPGEN
 -----
 Symbolic Z-matrix:
 Charge =  0 Multiplicity = 2

                         Standard orientation:
 ---------------------------------------------------------------------
 Center     Atomic      Atomic             Coordinates (Angstroms)
 Number     Number       Type             X           Y           Z
 ---------------------------------------------------------------------
      1         11           0        3.086699   -1.549414   -0.482407
      2         11           0        0.360524   -0.069125    2.103446
      3         11           0       -1.592937   -2.596560    0.291885
      4         11           0       -0.097643   -0.528866   -1.569352
      5         11           0        2.243646    1.731953    0.127185
      6         11           0       -3.171596    0.328719   -0.156621
      7         11           0       -0.828693    2.683293   -0.314136
 ---------------------------------------------------------------------

 SCF Done:  E(UB3LYP) =  -1136.13398823     A.U. after   19 cycles

 The electronic state is 2-A.
 Alpha  occ. eigenvalues --  -38.44309 -38.44229 -38.43804 -38.43637 -38.43630
 Alpha  occ. eigenvalues --  -38.43441 -38.42782  -2.20155  -2.20029  -2.19683
 Alpha  occ. eigenvalues --   -2.19530  -2.19486  -2.19391  -2.18657  -1.13827
 Alpha  occ. eigenvalues --   -1.13819  -1.13801  -1.13696  -1.13685  -1.13668
 Alpha  occ. eigenvalues --   -1.13366  -1.13326  -1.13298  -1.13220  -1.13204
 Alpha  occ. eigenvalues --   -1.13192  -1.13154  -1.13137  -1.13116  -1.13070
 Alpha  occ. eigenvalues --   -1.13022  -1.12997  -1.12333  -1.12320  -1.12301
 Alpha  occ. eigenvalues --   -0.18581  -0.13411  -0.12161  -0.10813
 Alpha virt. eigenvalues --   -0.06045  -0.05283  -0.04372  -0.03385  -0.02749
 Alpha virt. eigenvalues --   -0.02555  -0.01867  -0.01093  -0.00474  -0.00140
 Alpha virt. eigenvalues --   -0.00049   0.00314   0.00746   0.00814   0.00863

  Beta  occ. eigenvalues --  -38.44305 -38.44216 -38.43704 -38.43629 -38.43623
  Beta  occ. eigenvalues --  -38.43391 -38.42777  -2.20151  -2.20005  -2.19520
  Beta  occ. eigenvalues --   -2.19500  -2.19475  -2.19300  -2.18652  -1.13822
  Beta  occ. eigenvalues --   -1.13810  -1.13794  -1.13673  -1.13665  -1.13653
  Beta  occ. eigenvalues --   -1.13267  -1.13214  -1.13195  -1.13191  -1.13172
  Beta  occ. eigenvalues --   -1.13148  -1.13131  -1.13116  -1.13104  -1.13009
  Beta  occ. eigenvalues --   -1.12964  -1.12929  -1.12330  -1.12320  -1.12276
  Beta  occ. eigenvalues --   -0.17883  -0.13174  -0.11910
  Beta virt. eigenvalues --   -0.06947  -0.05969  -0.05199  -0.04298  -0.02654
  Beta virt. eigenvalues --   -0.02060  -0.01744  -0.01523  -0.01012  -0.00508
  Beta virt. eigenvalues --   -0.00154   0.00113   0.00358   0.00816   0.00840

 Mulliken charges and spin densities:
               1          2
     1  Na   0.092725   0.015551
     2  Na  -0.364239   0.512484
     3  Na   0.169536   0.030511
     4  Na  -0.213161   0.278966
     5  Na   0.324075   0.149497
     6  Na   0.112887   0.019773
     7  Na  -0.121823  -0.006782
 Sum of Mulliken charges =  -0.00000   1.00000

 Dipole moment (field-independent basis, Debye):
    X=             -0.0041    Y=             -0.4292    Z=              0.1579  Tot=              0.4574
 Quadrupole moment (field-independent basis, Debye-Ang):
   XX=            -54.5767   YY=            -65.6092   ZZ=            -73.9415
   XY=             -0.4016   XZ=             -0.7435   YZ=             -0.6837

 Normal termination of Gaussian 16 at Thu Dec  7 20:21:45 2023.
