 Gaussian 16, Revision B.01,
 Gaussian 16:  ES64L-G16RevB.01 20-Dec-2017

 -------------------------
 #P B3LYP/6-311+g(d) force
 -------------------------

 -----
 DPGEN
 -----
 Symbolic Z-matrix:
 Charge =  0 Multiplicity = 2

                         Standard orientation:
 ---------------------------------------------------------------------
 Center     Atomic      Atomic             Coordinates (Angstroms)
 Number     Number       Type             X           Y           Z
 ---------------------------------------------------------------------
      1         11           0        1.829433    0.432229    1.950987
      2         11           0        0.196393   -0.690145   -1.242094
      3         11           0       -3.553471   -1.101852   -1.287659
      4         11           0        1.649147    2.343465   -1.372242
      5         11           0       -1.481876    2.209700    0.486678
      6         11           0       -1.869476   -1.010600    1.891673
      7         11           0        3.229851   -2.182796   -0.427344
 ---------------------------------------------------------------------

 SCF Done:  E(UB3LYP) =  -1136.12592337     A.U. after   22 cycles

 The electronic state is 2-A.
 Alpha  occ. eigenvalues --  -38.44793 -38.44454 -38.44401 -38.43746 -38.43625
 Alpha  occ. eigenvalues --  -38.43554 -38.43378  -2.20591  -2.20271  -2.20179
 Alpha  occ. eigenvalues --   -2.19551  -2.19442  -2.19438  -2.19149  -1.14274
 Alpha  occ. eigenvalues --   -1.14239  -1.14200  -1.13946  -1.13935  -1.13888
 Alpha  occ. eigenvalues --   -1.13844  -1.13838  -1.13792  -1.13237  -1.13231
 Alpha  occ. eigenvalues --   -1.13171  -1.13160  -1.13141  -1.13094  -1.13070
 Alpha  occ. eigenvalues --   -1.13051  -1.13048  -1.12822  -1.12813  -1.12785
 Alpha  occ. eigenvalues --   -0.17692  -0.13080  -0.11447  -0.11180
 Alpha virt. eigenvalues --   -0.05902  -0.05539  -0.05013  -0.03137  -0.02780
 Alpha virt. eigenvalues --   -0.02672  -0.01823  -0.01340  -0.00954  -0.00153
 Alpha virt. eigenvalues --    0.00102   0.00236   0.00267   0.00372   0.00585

  Beta  occ. eigenvalues --  -38.44743 -38.44413 -38.44374 -38.43740 -38.43595
  Beta  occ. eigenvalues --  -38.43517 -38.43383  -2.20499  -2.20197  -2.20129
  Beta  occ. eigenvalues --   -2.19543  -2.19387  -2.19374  -2.19159  -1.14207
  Beta  occ. eigenvalues --   -1.14170  -1.14134  -1.13898  -1.13884  -1.13824
  Beta  occ. eigenvalues --   -1.13803  -1.13802  -1.13760  -1.13234  -1.13201
  Beta  occ. eigenvalues --   -1.13169  -1.13111  -1.13087  -1.13053  -1.13026
  Beta  occ. eigenvalues --   -1.13017  -1.13005  -1.12826  -1.12817  -1.12792
  Beta  occ. eigenvalues --   -0.16942  -0.12887  -0.11042
  Beta virt. eigenvalues --   -0.07648  -0.05521  -0.05390  -0.04531  -0.02883
  Beta virt. eigenvalues --   -0.02254  -0.02078  -0.01660  -0.01120  -0.00618
  Beta virt. eigenvalues --   -0.00053   0.00269   0.00292   0.00369   0.00427

 Mulliken charges and spin densities:
               1          2
     1  Na   0.144061   0.250406
     2  Na  -0.465756   0.377249
     3  Na   0.195803   0.022458
     4  Na   0.101846  -0.029680
     5  Na  -0.004930   0.145234
     6  Na   0.007861   0.285261
     7  Na   0.021115  -0.050928
 Sum of Mulliken charges =  -0.00000   1.00000

 Dipole moment (field-independent basis, Debye):
    X=             -0.4976    Y=              0.3324    Z=              0.3383  Tot=              0.6875
 Quadrupole moment (field-independent basis, Debye-Ang):
   XX=            -56.5162   YY=            -72.5485   ZZ=            -65.2068
   XY=              1.8419   XZ=              1.4586   YZ=             -0.2158

 Normal termination of Gaussian 16 at Thu Dec  7 20:40:48 2023.
