 Gaussian 16, Revision B.01,
 Gaussian 16:  ES64L-G16RevB.01 20-Dec-2017

 -------------------------
 #P B3LYP/6-311+g(d) force
 -------------------------

 -----
 DPGEN
 -----
 Symbolic Z-matrix:
 Charge =  0 Multiplicity = 2

                         Standard orientation:
 ---------------------------------------------------------------------
 Center     Atomic      Atomic             Coordinates (Angstroms)
 Number     Number       Type             X           Y           Z
 ---------------------------------------------------------------------
      1         11           0        3.663465   -0.206087    0.515027
      2         11           0       -3.933375   -0.004591    0.277495
      3         11           0       -1.777569    2.709702   -0.097830
      4         11           0        1.918912    2.768037   -0.639744
      5         11           0       -1.941411   -2.611545   -0.361886
      6         11           0        1.737354   -2.808226   -0.388858
      7         11           0        0.332624    0.152711    0.695797
 ---------------------------------------------------------------------

 SCF Done:  E(UB3LYP) =  -1136.12693641     A.U. after   24 cycles

 The electronic state is 2-A.
 Alpha  occ. eigenvalues --  -38.44499 -38.44428 -38.44152 -38.44113 -38.44086
 Alpha  occ. eigenvalues --  -38.43174 -38.43156  -2.20311  -2.20238  -2.20027
 Alpha  occ. eigenvalues --   -2.19979  -2.19898  -2.19037  -2.19018  -1.13991
 Alpha  occ. eigenvalues --   -1.13983  -1.13941  -1.13933  -1.13918  -1.13852
 Alpha  occ. eigenvalues --   -1.13748  -1.13695  -1.13668  -1.13659  -1.13622
 Alpha  occ. eigenvalues --   -1.13613  -1.13577  -1.13561  -1.13531  -1.12693
 Alpha  occ. eigenvalues --   -1.12673  -1.12671  -1.12668  -1.12665  -1.12640
 Alpha  occ. eigenvalues --   -0.17402  -0.13973  -0.13170  -0.09599
 Alpha virt. eigenvalues --   -0.06785  -0.05831  -0.04189  -0.03326  -0.02608
 Alpha virt. eigenvalues --   -0.02509  -0.02192  -0.01483  -0.01063  -0.00340
 Alpha virt. eigenvalues --   -0.00064   0.00245   0.00527   0.00692   0.00726

  Beta  occ. eigenvalues --  -38.44484 -38.44417 -38.44139 -38.44112 -38.44066
  Beta  occ. eigenvalues --  -38.43109 -38.43089  -2.20288  -2.20224  -2.20027
  Beta  occ. eigenvalues --   -2.19962  -2.19866  -2.18911  -2.18896  -1.13979
  Beta  occ. eigenvalues --   -1.13971  -1.13932  -1.13916  -1.13895  -1.13801
  Beta  occ. eigenvalues --   -1.13744  -1.13697  -1.13667  -1.13652  -1.13618
  Beta  occ. eigenvalues --   -1.13560  -1.13557  -1.13544  -1.13474  -1.12607
  Beta  occ. eigenvalues --   -1.12592  -1.12588  -1.12584  -1.12580  -1.12561
  Beta  occ. eigenvalues --   -0.17056  -0.13322  -0.12538
  Beta virt. eigenvalues --   -0.06841  -0.06326  -0.05651  -0.04009  -0.02699
  Beta virt. eigenvalues --   -0.02215  -0.02157  -0.01818  -0.01407  -0.00912
  Beta virt. eigenvalues --   -0.00237   0.00268   0.00473   0.00533   0.00780

 Mulliken charges and spin densities:
               1          2
     1  Na   0.813114   0.441111
     2  Na   0.392770   0.495041
     3  Na   0.314292   0.116006
     4  Na   0.430809   0.050251
     5  Na   0.065812   0.069275
     6  Na   0.291264   0.032666
     7  Na  -2.308060  -0.204350
 Sum of Mulliken charges =  -0.00000   1.00000

 Dipole moment (field-independent basis, Debye):
    X=              0.5825    Y=              0.4264    Z=             -0.6942  Tot=              1.0015
 Quadrupole moment (field-independent basis, Debye-Ang):
   XX=            -69.9016   YY=            -59.8447   ZZ=            -70.3500
   XY=              2.1559   XZ=             -1.7170   YZ=             -0.2898

 Normal termination of Gaussian 16 at Wed Nov 29 17:18:24 2023.
