 Gaussian 16, Revision B.01,
 Gaussian 16:  ES64L-G16RevB.01 20-Dec-2017

 -------------------------
 #P B3LYP/6-311+g(d) force
 -------------------------

 -----
 DPGEN
 -----
 Symbolic Z-matrix:
 Charge =  0 Multiplicity = 2

                         Standard orientation:
 ---------------------------------------------------------------------
 Center     Atomic      Atomic             Coordinates (Angstroms)
 Number     Number       Type             X           Y           Z
 ---------------------------------------------------------------------
      1         11           0       -0.267154    0.443368    1.936894
      2         11           0       -1.955339    2.191053   -0.094136
      3         11           0        0.153973   -0.085195   -1.683862
      4         11           0        3.020680   -1.035425   -0.049771
      5         11           0        0.211891   -2.736209    0.321341
      6         11           0        1.939342    2.363182   -0.131080
      7         11           0       -3.103392   -1.140773   -0.299386
 ---------------------------------------------------------------------

 SCF Done:  E(UB3LYP) =  -1136.13829676     A.U. after   19 cycles

 The electronic state is 2-A.
 Alpha  occ. eigenvalues --  -38.44157 -38.44009 -38.43729 -38.43608 -38.43366
 Alpha  occ. eigenvalues --  -38.43248 -38.43109  -2.19958  -2.19849  -2.19591
 Alpha  occ. eigenvalues --   -2.19439  -2.19284  -2.19208  -2.18978  -1.13629
 Alpha  occ. eigenvalues --   -1.13612  -1.13606  -1.13525  -1.13512  -1.13495
 Alpha  occ. eigenvalues --   -1.13309  -1.13263  -1.13203  -1.13123  -1.13111
 Alpha  occ. eigenvalues --   -1.13068  -1.12953  -1.12916  -1.12896  -1.12890
 Alpha  occ. eigenvalues --   -1.12852  -1.12820  -1.12656  -1.12641  -1.12603
 Alpha  occ. eigenvalues --   -0.18637  -0.13136  -0.12363  -0.10607
 Alpha virt. eigenvalues --   -0.05711  -0.05465  -0.04461  -0.03193  -0.02845
 Alpha virt. eigenvalues --   -0.02400  -0.01684  -0.01211  -0.00407  -0.00274
 Alpha virt. eigenvalues --   -0.00012   0.00346   0.00761   0.00845   0.00903

  Beta  occ. eigenvalues --  -38.44151 -38.44008 -38.43721 -38.43603 -38.43278
  Beta  occ. eigenvalues --  -38.43184 -38.43099  -2.19950  -2.19850  -2.19582
  Beta  occ. eigenvalues --   -2.19434  -2.19121  -2.19089  -2.18964  -1.13610
  Beta  occ. eigenvalues --   -1.13607  -1.13601  -1.13525  -1.13499  -1.13493
  Beta  occ. eigenvalues --   -1.13294  -1.13234  -1.13201  -1.13115  -1.13092
  Beta  occ. eigenvalues --   -1.13064  -1.12852  -1.12813  -1.12797  -1.12777
  Beta  occ. eigenvalues --   -1.12773  -1.12732  -1.12644  -1.12604  -1.12597
  Beta  occ. eigenvalues --   -0.17917  -0.12899  -0.12121
  Beta virt. eigenvalues --   -0.06729  -0.05649  -0.05461  -0.04419  -0.02424
  Beta virt. eigenvalues --   -0.02084  -0.01581  -0.01365  -0.01164  -0.00466
  Beta virt. eigenvalues --   -0.00293   0.00127   0.00371   0.00825   0.00837

 Mulliken charges and spin densities:
               1          2
     1  Na  -0.339977   0.731144
     2  Na   0.257735  -0.103283
     3  Na  -0.256806   0.614003
     4  Na   0.103328  -0.060470
     5  Na   0.067856  -0.022470
     6  Na   0.136915  -0.134659
     7  Na   0.030950  -0.024265
 Sum of Mulliken charges =  -0.00000   1.00000

 Dipole moment (field-independent basis, Debye):
    X=             -0.0616    Y=              0.1021    Z=              0.0048  Tot=              0.1194
 Quadrupole moment (field-independent basis, Debye-Ang):
   XX=            -54.1235   YY=            -63.7705   ZZ=            -74.9244
   XY=              0.5739   XZ=              0.9557   YZ=             -0.9986

 Normal termination of Gaussian 16 at Fri Dec  8 02:24:34 2023.
