 Gaussian 16, Revision B.01,
 Gaussian 16:  ES64L-G16RevB.01 20-Dec-2017

 -------------------------
 #P B3LYP/6-311+g(d) force
 -------------------------

 -----
 DPGEN
 -----
 Symbolic Z-matrix:
 Charge =  0 Multiplicity = 2

                         Standard orientation:
 ---------------------------------------------------------------------
 Center     Atomic      Atomic             Coordinates (Angstroms)
 Number     Number       Type             X           Y           Z
 ---------------------------------------------------------------------
      1         11           0        6.360272   -1.434557   -0.668334
      2         11           0       -3.965856    1.767472    0.541028
      3         11           0       -3.319738   -1.863388   -0.475677
      4         11           0       -0.874850   -0.912450    1.636451
      5         11           0       -6.287018    0.209552   -1.227820
      6         11           0        2.913220    0.481450    1.095185
      7         11           0        5.173970    1.751920   -0.900834
 ---------------------------------------------------------------------

 SCF Done:  E(UB3LYP) =  -1136.10519136     A.U. after   22 cycles

 The electronic state is 2-A.
 Alpha  occ. eigenvalues --  -38.45921 -38.44826 -38.44587 -38.44405 -38.43928
 Alpha  occ. eigenvalues --  -38.43917 -38.42622  -2.21700  -2.20623  -2.20408
 Alpha  occ. eigenvalues --   -2.20201  -2.19730  -2.19710  -2.18400  -1.15381
 Alpha  occ. eigenvalues --   -1.15338  -1.15319  -1.14301  -1.14295  -1.14269
 Alpha  occ. eigenvalues --   -1.14084  -1.14055  -1.14014  -1.13852  -1.13850
 Alpha  occ. eigenvalues --   -1.13802  -1.13404  -1.13393  -1.13381  -1.13379
 Alpha  occ. eigenvalues --   -1.13358  -1.13324  -1.12086  -1.12078  -1.12053
 Alpha  occ. eigenvalues --   -0.15639  -0.14832  -0.11629  -0.10015
 Alpha virt. eigenvalues --   -0.07247  -0.06148  -0.04072  -0.03565  -0.02959
 Alpha virt. eigenvalues --   -0.02693  -0.02325  -0.01667  -0.01364  -0.01001
 Alpha virt. eigenvalues --   -0.00593  -0.00106   0.00139   0.00264   0.00312

  Beta  occ. eigenvalues --  -38.45889 -38.44836 -38.44532 -38.44319 -38.43929
  Beta  occ. eigenvalues --  -38.43862 -38.42638  -2.21641  -2.20646  -2.20305
  Beta  occ. eigenvalues --   -2.20040  -2.19734  -2.19607  -2.18434  -1.15341
  Beta  occ. eigenvalues --   -1.15300  -1.15274  -1.14316  -1.14305  -1.14262
  Beta  occ. eigenvalues --   -1.14012  -1.13990  -1.13944  -1.13740  -1.13738
  Beta  occ. eigenvalues --   -1.13698  -1.13397  -1.13389  -1.13371  -1.13317
  Beta  occ. eigenvalues --   -1.13307  -1.13251  -1.12113  -1.12106  -1.12048
  Beta  occ. eigenvalues --   -0.15361  -0.14258  -0.11262
  Beta virt. eigenvalues --   -0.06904  -0.06560  -0.05865  -0.04037  -0.03417
  Beta virt. eigenvalues --   -0.02728  -0.02317  -0.01930  -0.01420  -0.01171
  Beta virt. eigenvalues --   -0.00796  -0.00240   0.00158   0.00262   0.00372

 Mulliken charges and spin densities:
               1          2
     1  Na   0.174398   0.488792
     2  Na  -0.037545   0.173248
     3  Na   0.042378   0.225144
     4  Na  -0.560459  -0.075364
     5  Na   0.383516  -0.049597
     6  Na  -0.855612   0.313715
     7  Na   0.853324  -0.075938
 Sum of Mulliken charges =  -0.00000   1.00000

 Dipole moment (field-independent basis, Debye):
    X=             -0.7946    Y=              0.8028    Z=             -0.7811  Tot=              1.3732
 Quadrupole moment (field-independent basis, Debye-Ang):
   XX=            -64.5624   YY=            -62.5589   ZZ=            -70.8283
   XY=              5.3833   XZ=              1.6752   YZ=              1.5387

 Normal termination of Gaussian 16 at Mon Dec  4 02:17:14 2023.
