 Gaussian 16, Revision B.01,
 Gaussian 16:  ES64L-G16RevB.01 20-Dec-2017

 -------------------------
 #P B3LYP/6-311+g(d) force
 -------------------------

 -----
 DPGEN
 -----
 Symbolic Z-matrix:
 Charge =  0 Multiplicity = 2

                         Standard orientation:
 ---------------------------------------------------------------------
 Center     Atomic      Atomic             Coordinates (Angstroms)
 Number     Number       Type             X           Y           Z
 ---------------------------------------------------------------------
      1         11           0        0.130291   -0.045239    0.081365
      2         11           0        2.701969   -2.181042    1.057054
      3         11           0        3.823970    0.107316   -0.617650
      4         11           0        1.017492    3.127122   -0.348677
      5         11           0       -2.318021    2.374362    0.384597
      6         11           0       -3.216401   -0.533290    0.417322
      7         11           0       -2.139300   -2.849229   -0.974011
 ---------------------------------------------------------------------

 SCF Done:  E(UB3LYP) =  -1136.11974378     A.U. after   23 cycles

 The electronic state is 2-A.
 Alpha  occ. eigenvalues --  -38.45273 -38.44112 -38.44013 -38.43788 -38.43496
 Alpha  occ. eigenvalues --  -38.43178 -38.43174  -2.21087  -2.19966  -2.19924
 Alpha  occ. eigenvalues --   -2.19748  -2.19364  -2.19078  -2.19014  -1.14775
 Alpha  occ. eigenvalues --   -1.14758  -1.14719  -1.13662  -1.13627  -1.13615
 Alpha  occ. eigenvalues --   -1.13601  -1.13567  -1.13562  -1.13519  -1.13410
 Alpha  occ. eigenvalues --   -1.13390  -1.13005  -1.12990  -1.12966  -1.12756
 Alpha  occ. eigenvalues --   -1.12726  -1.12701  -1.12676  -1.12674  -1.12622
 Alpha  occ. eigenvalues --   -0.17449  -0.14475  -0.12709  -0.09958
 Alpha virt. eigenvalues --   -0.06596  -0.05343  -0.04533  -0.03071  -0.02878
 Alpha virt. eigenvalues --   -0.02666  -0.01720  -0.01360  -0.01078  -0.00333
 Alpha virt. eigenvalues --    0.00028   0.00152   0.00343   0.00627   0.00701

  Beta  occ. eigenvalues --  -38.45269 -38.44071 -38.44016 -38.43761 -38.43445
  Beta  occ. eigenvalues --  -38.43140 -38.43124  -2.21086  -2.19931  -2.19890
  Beta  occ. eigenvalues --   -2.19708  -2.19268  -2.18988  -2.18943  -1.14765
  Beta  occ. eigenvalues --   -1.14763  -1.14694  -1.13655  -1.13613  -1.13571
  Beta  occ. eigenvalues --   -1.13563  -1.13552  -1.13537  -1.13426  -1.13392
  Beta  occ. eigenvalues --   -1.13372  -1.12941  -1.12923  -1.12903  -1.12690
  Beta  occ. eigenvalues --   -1.12668  -1.12643  -1.12627  -1.12615  -1.12568
  Beta  occ. eigenvalues --   -0.17096  -0.13838  -0.12244
  Beta virt. eigenvalues --   -0.06668  -0.06358  -0.05025  -0.04333  -0.02753
  Beta virt. eigenvalues --   -0.02463  -0.02386  -0.01475  -0.01101  -0.00844
  Beta virt. eigenvalues --   -0.00124   0.00241   0.00353   0.00456   0.00715

 Mulliken charges and spin densities:
               1          2
     1  Na  -3.683082  -0.061407
     2  Na   0.702891   0.208335
     3  Na   1.245294  -0.035047
     4  Na   0.249216   0.161660
     5  Na   0.377063   0.291047
     6  Na   0.659762   0.202972
     7  Na   0.448856   0.232441
 Sum of Mulliken charges =  -0.00000   1.00000

 Dipole moment (field-independent basis, Debye):
    X=              1.3792    Y=             -0.2227    Z=             -0.2819  Tot=              1.4252
 Quadrupole moment (field-independent basis, Debye-Ang):
   XX=            -60.5551   YY=            -66.6404   ZZ=            -70.1409
   XY=              2.3100   XZ=             -2.8071   YZ=             -1.5581

 Normal termination of Gaussian 16 at Fri Dec  8 19:11:25 2023.
