 Gaussian 16, Revision B.01,
 Gaussian 16:  ES64L-G16RevB.01 20-Dec-2017

 -------------------------
 #P B3LYP/6-311+g(d) force
 -------------------------

 -----
 DPGEN
 -----
 Symbolic Z-matrix:
 Charge =  0 Multiplicity = 2

                         Standard orientation:
 ---------------------------------------------------------------------
 Center     Atomic      Atomic             Coordinates (Angstroms)
 Number     Number       Type             X           Y           Z
 ---------------------------------------------------------------------
      1         11           0       -3.499842    0.215837   -1.410604
      2         11           0       -2.516765   -1.485555    1.261191
      3         11           0        0.817590   -0.131570    2.040757
      4         11           0        2.809826    1.652491   -0.301781
      5         11           0        3.500376   -1.594765   -0.683060
      6         11           0       -0.145654   -0.780009   -1.302160
      7         11           0       -0.965531    2.123571    0.395657
 ---------------------------------------------------------------------

 SCF Done:  E(UB3LYP) =  -1136.12519190     A.U. after   25 cycles

 The electronic state is 2-A.
 Alpha  occ. eigenvalues --  -38.44779 -38.44625 -38.44508 -38.44198 -38.43484
 Alpha  occ. eigenvalues --  -38.43240 -38.42652  -2.20603  -2.20475  -2.20365
 Alpha  occ. eigenvalues --   -2.20044  -2.19372  -2.19042  -2.18531  -1.14297
 Alpha  occ. eigenvalues --   -1.14260  -1.14208  -1.14155  -1.14124  -1.14100
 Alpha  occ. eigenvalues --   -1.14082  -1.14052  -1.13956  -1.13709  -1.13688
 Alpha  occ. eigenvalues --   -1.13671  -1.13071  -1.13004  -1.12996  -1.12714
 Alpha  occ. eigenvalues --   -1.12708  -1.12684  -1.12231  -1.12192  -1.12141
 Alpha  occ. eigenvalues --   -0.18353  -0.14124  -0.11416  -0.10700
 Alpha virt. eigenvalues --   -0.06625  -0.05526  -0.04743  -0.03072  -0.02653
 Alpha virt. eigenvalues --   -0.02536  -0.02187  -0.01277  -0.00846  -0.00255
 Alpha virt. eigenvalues --    0.00117   0.00247   0.00395   0.00411   0.00617

  Beta  occ. eigenvalues --  -38.44763 -38.44572 -38.44491 -38.44167 -38.43440
  Beta  occ. eigenvalues --  -38.43245 -38.42628  -2.20573  -2.20378  -2.20337
  Beta  occ. eigenvalues --   -2.19988  -2.19293  -2.19052  -2.18488  -1.14272
  Beta  occ. eigenvalues --   -1.14241  -1.14189  -1.14086  -1.14064  -1.14041
  Beta  occ. eigenvalues --   -1.14019  -1.14017  -1.13940  -1.13668  -1.13641
  Beta  occ. eigenvalues --   -1.13636  -1.13019  -1.12951  -1.12919  -1.12719
  Beta  occ. eigenvalues --   -1.12714  -1.12691  -1.12204  -1.12146  -1.12109
  Beta  occ. eigenvalues --   -0.17636  -0.13943  -0.10587
  Beta virt. eigenvalues --   -0.07472  -0.06452  -0.05076  -0.04403  -0.02778
  Beta virt. eigenvalues --   -0.02464  -0.01985  -0.01648  -0.00867  -0.00621
  Beta virt. eigenvalues --   -0.00159   0.00148   0.00326   0.00473   0.00579

 Mulliken charges and spin densities:
               1          2
     1  Na   0.958832   0.077658
     2  Na  -0.002532   0.043916
     3  Na   0.050042   0.351219
     4  Na   0.316192  -0.004415
     5  Na   0.237743  -0.094327
     6  Na  -1.192689   0.400412
     7  Na  -0.367588   0.225537
 Sum of Mulliken charges =  -0.00000   1.00000

 Dipole moment (field-independent basis, Debye):
    X=             -0.4356    Y=              0.4398    Z=              0.3182  Tot=              0.6959
 Quadrupole moment (field-independent basis, Debye-Ang):
   XX=            -53.5415   YY=            -71.1628   ZZ=            -71.5325
   XY=              2.4115   XZ=              1.0149   YZ=             -6.3690

 Normal termination of Gaussian 16 at Tue Dec  5 18:48:08 2023.
