 Gaussian 16, Revision B.01,
 Gaussian 16:  ES64L-G16RevB.01 20-Dec-2017

 -------------------------
 #P B3LYP/6-311+g(d) force
 -------------------------

 -----
 DPGEN
 -----
 Symbolic Z-matrix:
 Charge =  0 Multiplicity = 2

                         Standard orientation:
 ---------------------------------------------------------------------
 Center     Atomic      Atomic             Coordinates (Angstroms)
 Number     Number       Type             X           Y           Z
 ---------------------------------------------------------------------
      1         11           0        1.807308    2.643356   -0.788332
      2         11           0       -2.373044   -1.817845    0.409516
      3         11           0       -2.571600    1.650552    0.021195
      4         11           0       -5.603486    0.023441    0.088218
      5         11           0        3.729723    1.239397    1.057997
      6         11           0        4.109212   -1.860059   -0.090237
      7         11           0        0.901888   -1.878842   -0.698357
 ---------------------------------------------------------------------

 SCF Done:  E(UB3LYP) =  -1136.11257245     A.U. after   24 cycles

 The electronic state is 2-A.
 Alpha  occ. eigenvalues --  -38.45649 -38.44846 -38.44737 -38.44217 -38.43947
 Alpha  occ. eigenvalues --  -38.43391 -38.43314  -2.21416  -2.20660  -2.20557
 Alpha  occ. eigenvalues --   -2.20056  -2.19779  -2.19200  -2.19123  -1.15112
 Alpha  occ. eigenvalues --   -1.15097  -1.15029  -1.14313  -1.14308  -1.14264
 Alpha  occ. eigenvalues --   -1.14242  -1.14231  -1.14158  -1.13766  -1.13722
 Alpha  occ. eigenvalues --   -1.13703  -1.13435  -1.13431  -1.13415  -1.12873
 Alpha  occ. eigenvalues --   -1.12851  -1.12831  -1.12806  -1.12786  -1.12769
 Alpha  occ. eigenvalues --   -0.16468  -0.14795  -0.11656  -0.11028
 Alpha virt. eigenvalues --   -0.06850  -0.05787  -0.04069  -0.03748  -0.03220
 Alpha virt. eigenvalues --   -0.02813  -0.01829  -0.01508  -0.01240  -0.00836
 Alpha virt. eigenvalues --   -0.00149  -0.00120   0.00212   0.00372   0.00569

  Beta  occ. eigenvalues --  -38.45638 -38.44772 -38.44695 -38.44220 -38.43914
  Beta  occ. eigenvalues --  -38.43377 -38.43305  -2.21400  -2.20520  -2.20485
  Beta  occ. eigenvalues --   -2.20063  -2.19716  -2.19171  -2.19110  -1.15105
  Beta  occ. eigenvalues --   -1.15080  -1.14992  -1.14215  -1.14212  -1.14193
  Beta  occ. eigenvalues --   -1.14181  -1.14175  -1.14085  -1.13771  -1.13723
  Beta  occ. eigenvalues --   -1.13699  -1.13401  -1.13389  -1.13369  -1.12861
  Beta  occ. eigenvalues --   -1.12832  -1.12805  -1.12799  -1.12779  -1.12733
  Beta  occ. eigenvalues --   -0.15831  -0.14405  -0.11312
  Beta virt. eigenvalues --   -0.07659  -0.06657  -0.05182  -0.03696  -0.03457
  Beta virt. eigenvalues --   -0.03036  -0.02415  -0.01565  -0.01223  -0.00937
  Beta virt. eigenvalues --   -0.00481  -0.00075   0.00089   0.00263   0.00514

 Mulliken charges and spin densities:
               1          2
     1  Na  -0.189004   0.062379
     2  Na  -0.010642   0.044806
     3  Na  -0.430891   0.231152
     4  Na   0.712984   0.367057
     5  Na   0.107447  -0.009882
     6  Na   0.614849   0.279098
     7  Na  -0.804743   0.025391
 Sum of Mulliken charges =  -0.00000   1.00000

 Dipole moment (field-independent basis, Debye):
    X=             -1.7458    Y=             -0.2621    Z=              0.3460  Tot=              1.7989
 Quadrupole moment (field-independent basis, Debye-Ang):
   XX=            -52.8629   YY=            -74.4741   ZZ=            -69.4999
   XY=              0.0207   XZ=              1.2097   YZ=             -1.0960

 Normal termination of Gaussian 16 at Sun Dec  3 18:31:06 2023.
