 Gaussian 16, Revision B.01,
 Gaussian 16:  ES64L-G16RevB.01 20-Dec-2017

 -------------------------
 #P B3LYP/6-311+g(d) force
 -------------------------

 -----
 DPGEN
 -----
 Symbolic Z-matrix:
 Charge =  0 Multiplicity = 2

                         Standard orientation:
 ---------------------------------------------------------------------
 Center     Atomic      Atomic             Coordinates (Angstroms)
 Number     Number       Type             X           Y           Z
 ---------------------------------------------------------------------
      1         11           0       -2.073457    1.657582   -0.755020
      2         11           0        3.538511   -1.146569    0.833790
      3         11           0       -3.614767   -0.628983    0.647167
      4         11           0       -0.190269   -0.011660    2.018290
      5         11           0        1.521398    2.631212   -0.111516
      6         11           0       -0.890280   -2.112223   -1.106559
      7         11           0        1.708865   -0.389359   -1.526153
 ---------------------------------------------------------------------

 SCF Done:  E(UB3LYP) =  -1136.12115562     A.U. after   23 cycles

 The electronic state is 2-A.
 Alpha  occ. eigenvalues --  -38.45088 -38.44929 -38.44703 -38.44043 -38.43554
 Alpha  occ. eigenvalues --  -38.43408 -38.42889  -2.20881  -2.20741  -2.20544
 Alpha  occ. eigenvalues --   -2.19882  -2.19403  -2.19345  -2.18701  -1.14577
 Alpha  occ. eigenvalues --   -1.14519  -1.14512  -1.14425  -1.14379  -1.14359
 Alpha  occ. eigenvalues --   -1.14253  -1.14188  -1.14172  -1.13555  -1.13548
 Alpha  occ. eigenvalues --   -1.13509  -1.13166  -1.13057  -1.13026  -1.13000
 Alpha  occ. eigenvalues --   -1.12987  -1.12948  -1.12388  -1.12360  -1.12330
 Alpha  occ. eigenvalues --   -0.18125  -0.13916  -0.11300  -0.10977
 Alpha virt. eigenvalues --   -0.06984  -0.05294  -0.04496  -0.03356  -0.02748
 Alpha virt. eigenvalues --   -0.02498  -0.02354  -0.01170  -0.00699  -0.00199
 Alpha virt. eigenvalues --    0.00067   0.00198   0.00228   0.00623   0.00733

  Beta  occ. eigenvalues --  -38.45070 -38.44864 -38.44698 -38.44033 -38.43511
  Beta  occ. eigenvalues --  -38.43369 -38.42885  -2.20848  -2.20620  -2.20536
  Beta  occ. eigenvalues --   -2.19865  -2.19328  -2.19276  -2.18696  -1.14556
  Beta  occ. eigenvalues --   -1.14495  -1.14485  -1.14341  -1.14297  -1.14268
  Beta  occ. eigenvalues --   -1.14248  -1.14170  -1.14168  -1.13540  -1.13522
  Beta  occ. eigenvalues --   -1.13503  -1.13104  -1.12994  -1.12976  -1.12946
  Beta  occ. eigenvalues --   -1.12933  -1.12895  -1.12378  -1.12354  -1.12325
  Beta  occ. eigenvalues --   -0.17435  -0.13763  -0.10994
  Beta virt. eigenvalues --   -0.07290  -0.06713  -0.05171  -0.03973  -0.03143
  Beta virt. eigenvalues --   -0.02347  -0.01928  -0.01703  -0.00995  -0.00502
  Beta virt. eigenvalues --   -0.00116   0.00095   0.00228   0.00384   0.00716

 Mulliken charges and spin densities:
               1          2
     1  Na  -0.384154   0.065773
     2  Na   0.019908   0.152320
     3  Na   0.807852   0.118186
     4  Na  -0.421825   0.484580
     5  Na  -0.076802  -0.019996
     6  Na  -0.266488   0.153713
     7  Na   0.321510   0.045424
 Sum of Mulliken charges =  -0.00000   1.00000

 Dipole moment (field-independent basis, Debye):
    X=             -0.3828    Y=             -0.2652    Z=              0.7148  Tot=              0.8532
 Quadrupole moment (field-independent basis, Debye-Ang):
   XX=            -48.7341   YY=            -75.3155   ZZ=            -70.5417
   XY=              0.3286   XZ=              1.2902   YZ=             -2.3176

 Normal termination of Gaussian 16 at Thu Dec  7 02:36:23 2023.
