 Gaussian 16, Revision B.01,
 Gaussian 16:  ES64L-G16RevB.01 20-Dec-2017

 -------------------------
 #P B3LYP/6-311+g(d) force
 -------------------------

 -----
 DPGEN
 -----
 Symbolic Z-matrix:
 Charge =  0 Multiplicity = 2

                         Standard orientation:
 ---------------------------------------------------------------------
 Center     Atomic      Atomic             Coordinates (Angstroms)
 Number     Number       Type             X           Y           Z
 ---------------------------------------------------------------------
      1         11           0       -0.085286    1.202566   -0.343964
      2         11           0        2.708092    3.311905   -0.261021
      3         11           0        3.631088    0.398513    0.818715
      4         11           0        3.152247   -2.878891   -0.631066
      5         11           0       -0.094059   -1.880291    0.223636
      6         11           0       -3.418867   -0.938302    0.346169
      7         11           0       -5.893216    0.784500   -0.152468
 ---------------------------------------------------------------------

 SCF Done:  E(UB3LYP) =  -1136.12113566     A.U. after   21 cycles

 The electronic state is 2-A.
 Alpha  occ. eigenvalues --  -38.44959 -38.44766 -38.44548 -38.43731 -38.43690
 Alpha  occ. eigenvalues --  -38.43600 -38.43482  -2.20794  -2.20583  -2.20380
 Alpha  occ. eigenvalues --   -2.19572  -2.19488  -2.19474  -2.19304  -1.14505
 Alpha  occ. eigenvalues --   -1.14478  -1.14367  -1.14276  -1.14242  -1.14197
 Alpha  occ. eigenvalues --   -1.14048  -1.14001  -1.13998  -1.13266  -1.13245
 Alpha  occ. eigenvalues --   -1.13219  -1.13189  -1.13152  -1.13148  -1.13139
 Alpha  occ. eigenvalues --   -1.13127  -1.13047  -1.12975  -1.12962  -1.12943
 Alpha  occ. eigenvalues --   -0.16899  -0.14273  -0.12211  -0.11484
 Alpha virt. eigenvalues --   -0.06077  -0.05378  -0.04437  -0.03828  -0.02961
 Alpha virt. eigenvalues --   -0.02458  -0.01922  -0.01464  -0.01079  -0.00888
 Alpha virt. eigenvalues --   -0.00544  -0.00066   0.00366   0.00549   0.00688

  Beta  occ. eigenvalues --  -38.44911 -38.44732 -38.44455 -38.43729 -38.43661
  Beta  occ. eigenvalues --  -38.43570 -38.43481  -2.20708  -2.20521  -2.20207
  Beta  occ. eigenvalues --   -2.19579  -2.19434  -2.19423  -2.19303  -1.14443
  Beta  occ. eigenvalues --   -1.14422  -1.14300  -1.14234  -1.14203  -1.14144
  Beta  occ. eigenvalues --   -1.13935  -1.13884  -1.13881  -1.13259  -1.13258
  Beta  occ. eigenvalues --   -1.13174  -1.13149  -1.13118  -1.13112  -1.13100
  Beta  occ. eigenvalues --   -1.13089  -1.12999  -1.12969  -1.12962  -1.12942
  Beta  occ. eigenvalues --   -0.16266  -0.13469  -0.11925
  Beta virt. eigenvalues --   -0.08092  -0.05667  -0.05233  -0.03946  -0.03585
  Beta virt. eigenvalues --   -0.02679  -0.02154  -0.01757  -0.01174  -0.00801
  Beta virt. eigenvalues --   -0.00570  -0.00251   0.00066   0.00508   0.00638

 Mulliken charges and spin densities:
               1          2
     1  Na  -0.808184   0.110636
     2  Na   0.769324  -0.006661
     3  Na  -0.214125   0.299134
     4  Na   1.642973   0.368896
     5  Na  -0.115081  -0.146990
     6  Na  -1.062079  -0.028639
     7  Na  -0.212827   0.403624
 Sum of Mulliken charges =  -0.00000   1.00000

 Dipole moment (field-independent basis, Debye):
    X=              0.2950    Y=              0.6661    Z=             -0.2143  Tot=              0.7593
 Quadrupole moment (field-independent basis, Debye-Ang):
   XX=            -61.9304   YY=            -65.0071   ZZ=            -70.6163
   XY=             -1.6604   XZ=              1.1984   YZ=             -1.0325

 Normal termination of Gaussian 16 at Tue Nov 28 22:57:46 2023.
