 Gaussian 16, Revision B.01,
 Gaussian 16:  ES64L-G16RevB.01 20-Dec-2017

 -------------------------
 #P B3LYP/6-311+g(d) force
 -------------------------

 -----
 DPGEN
 -----
 Symbolic Z-matrix:
 Charge =  0 Multiplicity = 2

                         Standard orientation:
 ---------------------------------------------------------------------
 Center     Atomic      Atomic             Coordinates (Angstroms)
 Number     Number       Type             X           Y           Z
 ---------------------------------------------------------------------
      1         11           0        7.349963    2.595279   -0.752002
      2         11           0        6.157336   -0.204626    0.736846
      3         11           0       -3.080372    0.158089   -0.337730
      4         11           0       -0.510245   -2.193785   -0.214791
      5         11           0        2.923053   -2.367889    0.257107
      6         11           0       -7.037618   -0.123910   -0.720902
      7         11           0       -5.802117    2.136843    1.031472
 ---------------------------------------------------------------------

 SCF Done:  E(UB3LYP) =  -1136.10684144     A.U. after   19 cycles

 The electronic state is 2-A.
 Alpha  occ. eigenvalues --  -38.46297 -38.46139 -38.44219 -38.43856 -38.43660
 Alpha  occ. eigenvalues --  -38.43462 -38.43066  -2.22095  -2.21946  -2.20041
 Alpha  occ. eigenvalues --   -2.19631  -2.19448  -2.19211  -2.18840  -1.15791
 Alpha  occ. eigenvalues --   -1.15750  -1.15733  -1.15604  -1.15599  -1.15551
 Alpha  occ. eigenvalues --   -1.13719  -1.13705  -1.13626  -1.13282  -1.13281
 Alpha  occ. eigenvalues --   -1.13255  -1.13105  -1.13099  -1.13058  -1.12899
 Alpha  occ. eigenvalues --   -1.12892  -1.12850  -1.12525  -1.12521  -1.12494
 Alpha  occ. eigenvalues --   -0.16162  -0.13618  -0.12306  -0.10616
 Alpha virt. eigenvalues --   -0.07290  -0.06139  -0.04248  -0.03846  -0.02722
 Alpha virt. eigenvalues --   -0.02383  -0.02047  -0.01742  -0.01613  -0.01333
 Alpha virt. eigenvalues --   -0.00644  -0.00199  -0.00125   0.00012   0.00170

  Beta  occ. eigenvalues --  -38.46269 -38.46135 -38.44147 -38.43799 -38.43582
  Beta  occ. eigenvalues --  -38.43480 -38.43083  -2.22044  -2.21940  -2.19906
  Beta  occ. eigenvalues --   -2.19524  -2.19300  -2.19248  -2.18878  -1.15758
  Beta  occ. eigenvalues --   -1.15716  -1.15693  -1.15602  -1.15578  -1.15542
  Beta  occ. eigenvalues --   -1.13628  -1.13614  -1.13536  -1.13209  -1.13208
  Beta  occ. eigenvalues --   -1.13188  -1.13003  -1.13000  -1.12969  -1.12928
  Beta  occ. eigenvalues --   -1.12920  -1.12844  -1.12557  -1.12552  -1.12476
  Beta  occ. eigenvalues --   -0.15731  -0.12983  -0.11756
  Beta virt. eigenvalues --   -0.07540  -0.07081  -0.05676  -0.03990  -0.03477
  Beta virt. eigenvalues --   -0.02513  -0.02215  -0.01908  -0.01547  -0.01187
  Beta virt. eigenvalues --   -0.01133  -0.00444  -0.00031   0.00028   0.00176

 Mulliken charges and spin densities:
               1          2
     1  Na   0.083481   0.290434
     2  Na  -0.030248  -0.133694
     3  Na  -1.154761   0.231517
     4  Na   0.140982  -0.071588
     5  Na   0.196581   0.414446
     6  Na   0.281521   0.177253
     7  Na   0.482443   0.091631
 Sum of Mulliken charges =  -0.00000   1.00000

 Dipole moment (field-independent basis, Debye):
    X=             -6.2477    Y=              1.6374    Z=             -0.0529  Tot=              6.4590
 Quadrupole moment (field-independent basis, Debye-Ang):
   XX=            -50.4591   YY=            -62.3620   ZZ=            -69.6760
   XY=              0.5445   XZ=              0.2438   YZ=              2.8827

 Normal termination of Gaussian 16 at Sun Dec  3 15:33:26 2023.
