 Gaussian 16, Revision B.01,
 Gaussian 16:  ES64L-G16RevB.01 20-Dec-2017

 -------------------------
 #P B3LYP/6-311+g(d) force
 -------------------------

 -----
 DPGEN
 -----
 Symbolic Z-matrix:
 Charge =  0 Multiplicity = 2

                         Standard orientation:
 ---------------------------------------------------------------------
 Center     Atomic      Atomic             Coordinates (Angstroms)
 Number     Number       Type             X           Y           Z
 ---------------------------------------------------------------------
      1         11           0        0.590656    1.172742    2.076052
      2         11           0        2.616791   -3.038469   -0.336120
      3         11           0       -4.307911   -0.451035   -0.480707
      4         11           0       -1.160039   -2.235274    0.711049
      5         11           0       -1.506910    0.700824   -0.776875
      6         11           0        2.969983    0.325577   -0.833907
      7         11           0        0.797430    3.525635   -0.359492
 ---------------------------------------------------------------------

 SCF Done:  E(UB3LYP) =  -1136.12334858     A.U. after   20 cycles

 The electronic state is 2-A.
 Alpha  occ. eigenvalues --  -38.44351 -38.44278 -38.44210 -38.44157 -38.44110
 Alpha  occ. eigenvalues --  -38.43887 -38.43563  -2.20149  -2.20119  -2.20040
 Alpha  occ. eigenvalues --   -2.19951  -2.19918  -2.19790  -2.19327  -1.13864
 Alpha  occ. eigenvalues --   -1.13818  -1.13789  -1.13772  -1.13763  -1.13742
 Alpha  occ. eigenvalues --   -1.13734  -1.13684  -1.13655  -1.13641  -1.13615
 Alpha  occ. eigenvalues --   -1.13590  -1.13576  -1.13558  -1.13542  -1.13481
 Alpha  occ. eigenvalues --   -1.13465  -1.13373  -1.13001  -1.12988  -1.12971
 Alpha  occ. eigenvalues --   -0.17328  -0.13505  -0.12328  -0.10319
 Alpha virt. eigenvalues --   -0.06197  -0.05498  -0.05423  -0.03222  -0.02736
 Alpha virt. eigenvalues --   -0.02262  -0.01901  -0.01512  -0.00983  -0.00890
 Alpha virt. eigenvalues --   -0.00219   0.00148   0.00473   0.00605   0.00690

  Beta  occ. eigenvalues --  -38.44324 -38.44206 -38.44179 -38.44118 -38.44104
  Beta  occ. eigenvalues --  -38.43876 -38.43564  -2.20101  -2.19987  -2.19982
  Beta  occ. eigenvalues --   -2.19908  -2.19878  -2.19772  -2.19332  -1.13833
  Beta  occ. eigenvalues --   -1.13771  -1.13728  -1.13711  -1.13698  -1.13683
  Beta  occ. eigenvalues --   -1.13643  -1.13641  -1.13617  -1.13590  -1.13580
  Beta  occ. eigenvalues --   -1.13565  -1.13557  -1.13534  -1.13500  -1.13464
  Beta  occ. eigenvalues --   -1.13431  -1.13360  -1.13006  -1.12983  -1.12972
  Beta  occ. eigenvalues --   -0.16744  -0.13160  -0.12114
  Beta virt. eigenvalues --   -0.06881  -0.05791  -0.05360  -0.05067  -0.02799
  Beta virt. eigenvalues --   -0.02352  -0.01986  -0.01483  -0.01362  -0.00864
  Beta virt. eigenvalues --   -0.00565   0.00054   0.00246   0.00545   0.00718

 Mulliken charges and spin densities:
               1          2
     1  Na   0.106912   0.256211
     2  Na  -0.004038  -0.118721
     3  Na   0.657046   0.089087
     4  Na  -0.151439   0.155554
     5  Na  -1.334764   0.058262
     6  Na  -0.167119   0.355376
     7  Na   0.893402   0.204231
 Sum of Mulliken charges =  -0.00000   1.00000

 Dipole moment (field-independent basis, Debye):
    X=             -0.7912    Y=              0.5321    Z=              0.5747  Tot=              1.1133
 Quadrupole moment (field-independent basis, Debye-Ang):
   XX=            -63.6202   YY=            -59.5632   ZZ=            -72.6340
   XY=              4.3360   XZ=              0.2279   YZ=             -1.6269

 Normal termination of Gaussian 16 at Mon Dec  4 03:10:04 2023.
