 Gaussian 16, Revision B.01,
 Gaussian 16:  ES64L-G16RevB.01 20-Dec-2017

 -------------------------
 #P B3LYP/6-311+g(d) force
 -------------------------

 -----
 DPGEN
 -----
 Symbolic Z-matrix:
 Charge =  0 Multiplicity = 2

                         Standard orientation:
 ---------------------------------------------------------------------
 Center     Atomic      Atomic             Coordinates (Angstroms)
 Number     Number       Type             X           Y           Z
 ---------------------------------------------------------------------
      1         11           0        2.629924    0.520693   -1.402570
      2         11           0        1.782353    0.793696    1.598585
      3         11           0       -3.691179   -0.551608   -0.637490
      4         11           0        1.572291   -2.095048    0.239451
      5         11           0       -0.912693    2.276142   -0.225127
      6         11           0       -1.216965   -0.376736    1.923317
      7         11           0       -0.163731   -0.567140   -1.496166
 ---------------------------------------------------------------------

 SCF Done:  E(UB3LYP) =  -1136.12064250     A.U. after   27 cycles

 The electronic state is 2-A.
 Alpha  occ. eigenvalues --  -38.44541 -38.44387 -38.44180 -38.44164 -38.43244
 Alpha  occ. eigenvalues --  -38.42808 -38.42591  -2.20316  -2.20264  -2.20158
 Alpha  occ. eigenvalues --   -2.20108  -2.19159  -2.18845  -2.18554  -1.13996
 Alpha  occ. eigenvalues --   -1.13979  -1.13978  -1.13947  -1.13918  -1.13891
 Alpha  occ. eigenvalues --   -1.13857  -1.13832  -1.13800  -1.13764  -1.13750
 Alpha  occ. eigenvalues --   -1.13682  -1.12865  -1.12810  -1.12774  -1.12574
 Alpha  occ. eigenvalues --   -1.12512  -1.12425  -1.12236  -1.12225  -1.12177
 Alpha  occ. eigenvalues --   -0.19455  -0.13604  -0.12147  -0.11054
 Alpha virt. eigenvalues --   -0.06396  -0.04714  -0.04199  -0.03342  -0.02787
 Alpha virt. eigenvalues --   -0.02585  -0.02046  -0.00767  -0.00507   0.00121
 Alpha virt. eigenvalues --    0.00281   0.00324   0.00493   0.00807   0.00906

  Beta  occ. eigenvalues --  -38.44548 -38.44326 -38.44136 -38.44119 -38.43212
  Beta  occ. eigenvalues --  -38.42782 -38.42580  -2.20331  -2.20151  -2.20060
  Beta  occ. eigenvalues --   -2.20048  -2.19103  -2.18806  -2.18539  -1.14001
  Beta  occ. eigenvalues --   -1.13987  -1.13957  -1.13898  -1.13856  -1.13810
  Beta  occ. eigenvalues --   -1.13781  -1.13775  -1.13753  -1.13707  -1.13676
  Beta  occ. eigenvalues --   -1.13618  -1.12829  -1.12754  -1.12736  -1.12507
  Beta  occ. eigenvalues --   -1.12475  -1.12403  -1.12227  -1.12193  -1.12155
  Beta  occ. eigenvalues --   -0.18556  -0.13504  -0.10846
  Beta virt. eigenvalues --   -0.07996  -0.06191  -0.04188  -0.03976  -0.02917
  Beta virt. eigenvalues --   -0.02184  -0.02060  -0.01803  -0.00539  -0.00308
  Beta virt. eigenvalues --    0.00192   0.00325   0.00480   0.00504   0.00885

 Mulliken charges and spin densities:
               1          2
     1  Na   0.264372   0.225455
     2  Na   0.453200  -0.041039
     3  Na   0.217268  -0.104720
     4  Na  -0.092425   0.190033
     5  Na  -0.460554   0.328014
     6  Na  -0.265974   0.168788
     7  Na  -0.115886   0.233469
 Sum of Mulliken charges =  -0.00000   1.00000

 Dipole moment (field-independent basis, Debye):
    X=             -0.5200    Y=              0.2801    Z=              0.0563  Tot=              0.5933
 Quadrupole moment (field-independent basis, Debye-Ang):
   XX=            -52.0124   YY=            -66.2991   ZZ=            -75.3061
   XY=              1.0265   XZ=             -0.5702   YZ=             -7.4967

 Normal termination of Gaussian 16 at Thu Dec  7 20:13:53 2023.
