 Gaussian 16, Revision B.01,
 Gaussian 16:  ES64L-G16RevB.01 20-Dec-2017

 -------------------------
 #P B3LYP/6-311+g(d) force
 -------------------------

 -----
 DPGEN
 -----
 Symbolic Z-matrix:
 Charge =  0 Multiplicity = 2

                         Standard orientation:
 ---------------------------------------------------------------------
 Center     Atomic      Atomic             Coordinates (Angstroms)
 Number     Number       Type             X           Y           Z
 ---------------------------------------------------------------------
      1         11           0        1.122133    2.916749   -0.169356
      2         11           0        3.292796    0.016046   -0.142725
      3         11           0       -0.033151   -0.376303    2.169572
      4         11           0        1.007405   -3.057128   -0.177502
      5         11           0       -2.224761    1.831280    0.113628
      6         11           0       -3.088096   -1.233186   -0.340876
      7         11           0       -0.076326   -0.097458   -1.452743
 ---------------------------------------------------------------------

 SCF Done:  E(UB3LYP) =  -1136.13486213     A.U. after   19 cycles

 The electronic state is 2-A.
 Alpha  occ. eigenvalues --  -38.44564 -38.44196 -38.43825 -38.43584 -38.43563
 Alpha  occ. eigenvalues --  -38.43293 -38.43126  -2.20347  -2.20023  -2.19621
 Alpha  occ. eigenvalues --   -2.19447  -2.19434  -2.19112  -2.19097  -1.14028
 Alpha  occ. eigenvalues --   -1.14006  -1.13977  -1.13703  -1.13686  -1.13659
 Alpha  occ. eigenvalues --   -1.13305  -1.13284  -1.13255  -1.13147  -1.13111
 Alpha  occ. eigenvalues --   -1.13090  -1.13080  -1.13057  -1.13046  -1.12808
 Alpha  occ. eigenvalues --   -1.12788  -1.12770  -1.12756  -1.12732  -1.12712
 Alpha  occ. eigenvalues --   -0.18258  -0.13071  -0.12246  -0.10477
 Alpha virt. eigenvalues --   -0.06072  -0.05144  -0.04876  -0.03113  -0.02687
 Alpha virt. eigenvalues --   -0.02442  -0.01812  -0.01247  -0.00727  -0.00470
 Alpha virt. eigenvalues --   -0.00026   0.00317   0.00739   0.00783   0.00866

  Beta  occ. eigenvalues --  -38.44561 -38.44189 -38.43823 -38.43556 -38.43476
  Beta  occ. eigenvalues --  -38.43292 -38.43079  -2.20343  -2.20011  -2.19620
  Beta  occ. eigenvalues --   -2.19439  -2.19236  -2.19112  -2.19012  -1.14011
  Beta  occ. eigenvalues --   -1.14005  -1.13977  -1.13696  -1.13666  -1.13646
  Beta  occ. eigenvalues --   -1.13298  -1.13269  -1.13257  -1.13140  -1.13083
  Beta  occ. eigenvalues --   -1.13068  -1.12963  -1.12920  -1.12905  -1.12792
  Beta  occ. eigenvalues --   -1.12764  -1.12755  -1.12727  -1.12674  -1.12651
  Beta  occ. eigenvalues --   -0.17563  -0.12861  -0.12047
  Beta virt. eigenvalues --   -0.06546  -0.06044  -0.05086  -0.04843  -0.02362
  Beta virt. eigenvalues --   -0.01981  -0.01711  -0.01388  -0.01172  -0.00771
  Beta virt. eigenvalues --   -0.00499   0.00145   0.00367   0.00756   0.00834

 Mulliken charges and spin densities:
               1          2
     1  Na   0.026422   0.001082
     2  Na   0.120051  -0.016875
     3  Na  -0.508081   0.725398
     4  Na   0.079246  -0.076117
     5  Na   0.295872   0.134093
     6  Na   0.298169   0.007217
     7  Na  -0.311679   0.225203
 Sum of Mulliken charges =  -0.00000   1.00000

 Dipole moment (field-independent basis, Debye):
    X=              0.1632    Y=             -0.3721    Z=              0.0868  Tot=              0.4155
 Quadrupole moment (field-independent basis, Debye-Ang):
   XX=            -54.8454   YY=            -61.4891   ZZ=            -76.2551
   XY=              0.6299   XZ=              0.0883   YZ=              0.8287

 Normal termination of Gaussian 16 at Fri Dec  8 02:19:18 2023.
