 Gaussian 16, Revision B.01,
 Gaussian 16:  ES64L-G16RevB.01 20-Dec-2017

 -------------------------
 #P B3LYP/6-311+g(d) force
 -------------------------

 -----
 DPGEN
 -----
 Symbolic Z-matrix:
 Charge =  0 Multiplicity = 2

                         Standard orientation:
 ---------------------------------------------------------------------
 Center     Atomic      Atomic             Coordinates (Angstroms)
 Number     Number       Type             X           Y           Z
 ---------------------------------------------------------------------
      1         11           0        2.986956   -0.926315   -1.798352
      2         11           0        1.866347    3.008606    2.010994
      3         11           0        3.528337    1.934747   -0.926584
      4         11           0        1.626858   -2.923314    0.876897
      5         11           0       -1.631425   -2.487490    1.433804
      6         11           0       -3.160805   -0.830354   -1.230318
      7         11           0       -5.216269    2.224120   -0.366440
 ---------------------------------------------------------------------

 SCF Done:  E(UB3LYP) =  -1136.09959439     A.U. after   21 cycles

 The electronic state is 2-A.
 Alpha  occ. eigenvalues --  -38.45115 -38.44935 -38.44670 -38.44410 -38.44341
 Alpha  occ. eigenvalues --  -38.44310 -38.44121  -2.20899  -2.20675  -2.20405
 Alpha  occ. eigenvalues --   -2.20183  -2.20173  -2.20112  -2.19927  -1.14535
 Alpha  occ. eigenvalues --   -1.14530  -1.14506  -1.14334  -1.14333  -1.14282
 Alpha  occ. eigenvalues --   -1.14098  -1.14092  -1.14033  -1.13898  -1.13864
 Alpha  occ. eigenvalues --   -1.13854  -1.13848  -1.13823  -1.13794  -1.13775
 Alpha  occ. eigenvalues --   -1.13764  -1.13715  -1.13596  -1.13584  -1.13571
 Alpha  occ. eigenvalues --   -0.15503  -0.13785  -0.12322  -0.11285
 Alpha virt. eigenvalues --   -0.07295  -0.05597  -0.04138  -0.03559  -0.03414
 Alpha virt. eigenvalues --   -0.02515  -0.02121  -0.01667  -0.01184  -0.00985
 Alpha virt. eigenvalues --   -0.00699  -0.00434  -0.00383   0.00252   0.00415

  Beta  occ. eigenvalues --  -38.44998 -38.44879 -38.44694 -38.44438 -38.44278
  Beta  occ. eigenvalues --  -38.44275 -38.44137  -2.20680  -2.20570  -2.20452
  Beta  occ. eigenvalues --   -2.20227  -2.20058  -2.20050  -2.19963  -1.14386
  Beta  occ. eigenvalues --   -1.14381  -1.14361  -1.14263  -1.14262  -1.14215
  Beta  occ. eigenvalues --   -1.14131  -1.14124  -1.14052  -1.13896  -1.13888
  Beta  occ. eigenvalues --   -1.13864  -1.13835  -1.13738  -1.13733  -1.13724
  Beta  occ. eigenvalues --   -1.13719  -1.13690  -1.13626  -1.13606  -1.13541
  Beta  occ. eigenvalues --   -0.15112  -0.13372  -0.11661
  Beta virt. eigenvalues --   -0.07949  -0.06964  -0.05197  -0.03818  -0.03308
  Beta virt. eigenvalues --   -0.03170  -0.02269  -0.01914  -0.01536  -0.00931
  Beta virt. eigenvalues --   -0.00683  -0.00421  -0.00187  -0.00061   0.00256

 Mulliken charges and spin densities:
               1          2
     1  Na  -0.016616   0.380310
     2  Na  -0.067943   0.608061
     3  Na   0.133334  -0.134124
     4  Na  -0.017095  -0.153918
     5  Na   0.117723   0.150723
     6  Na  -0.281357  -0.143111
     7  Na   0.131953   0.292060
 Sum of Mulliken charges =  -0.00000   1.00000

 Dipole moment (field-independent basis, Debye):
    X=             -0.1562    Y=              0.2597    Z=              0.4430  Tot=              0.5368
 Quadrupole moment (field-independent basis, Debye-Ang):
   XX=            -69.9800   YY=            -67.4140   ZZ=            -66.0688
   XY=             -5.0341   XZ=             -2.8371   YZ=              2.1405

 Normal termination of Gaussian 16 at Sun Dec  3 17:52:00 2023.
