 Gaussian 16, Revision B.01,
 Gaussian 16:  ES64L-G16RevB.01 20-Dec-2017

 -------------------------
 #P B3LYP/6-311+g(d) force
 -------------------------

 -----
 DPGEN
 -----
 Symbolic Z-matrix:
 Charge =  0 Multiplicity = 2

                         Standard orientation:
 ---------------------------------------------------------------------
 Center     Atomic      Atomic             Coordinates (Angstroms)
 Number     Number       Type             X           Y           Z
 ---------------------------------------------------------------------
      1         11           0       -1.456011    2.129300   -0.152852
      2         11           0        4.891725    0.031913   -0.656800
      3         11           0        1.903831   -1.788637    0.794694
      4         11           0       -4.333527   -0.221729   -0.527339
      5         11           0       -0.899740   -1.251314   -1.742077
      6         11           0        1.598156    1.858657    0.459723
      7         11           0       -1.704434   -0.758191    1.824650
 ---------------------------------------------------------------------

 SCF Done:  E(UB3LYP) =  -1136.11304260     A.U. after   32 cycles

 The electronic state is 2-A.
 Alpha  occ. eigenvalues --  -38.46185 -38.45806 -38.44650 -38.44561 -38.43493
 Alpha  occ. eigenvalues --  -38.42774 -38.42285  -2.21948  -2.21619  -2.20430
 Alpha  occ. eigenvalues --   -2.20378  -2.19287  -2.18605  -2.18165  -1.15629
 Alpha  occ. eigenvalues --   -1.15603  -1.15572  -1.15285  -1.15271  -1.15259
 Alpha  occ. eigenvalues --   -1.14081  -1.14070  -1.14047  -1.14034  -1.14014
 Alpha  occ. eigenvalues --   -1.13994  -1.12977  -1.12971  -1.12910  -1.12314
 Alpha  occ. eigenvalues --   -1.12285  -1.12237  -1.11858  -1.11838  -1.11779
 Alpha  occ. eigenvalues --   -0.17679  -0.13995  -0.11014  -0.10813
 Alpha virt. eigenvalues --   -0.07802  -0.05216  -0.04714  -0.03198  -0.03019
 Alpha virt. eigenvalues --   -0.02263  -0.02127  -0.01813  -0.01425  -0.00675
 Alpha virt. eigenvalues --   -0.00253   0.00127   0.00184   0.00549   0.00615

  Beta  occ. eigenvalues --  -38.46171 -38.45780 -38.44560 -38.44504 -38.43486
  Beta  occ. eigenvalues --  -38.42778 -38.42286  -2.21925  -2.21575  -2.20271
  Beta  occ. eigenvalues --   -2.20262  -2.19278  -2.18615  -2.18170  -1.15618
  Beta  occ. eigenvalues --   -1.15584  -1.15545  -1.15257  -1.15227  -1.15216
  Beta  occ. eigenvalues --   -1.13973  -1.13966  -1.13955  -1.13937  -1.13926
  Beta  occ. eigenvalues --   -1.13925  -1.12973  -1.12966  -1.12874  -1.12324
  Beta  occ. eigenvalues --   -1.12281  -1.12241  -1.11864  -1.11834  -1.11777
  Beta  occ. eigenvalues --   -0.17175  -0.13287  -0.10683
  Beta virt. eigenvalues --   -0.07593  -0.07527  -0.04669  -0.04379  -0.03009
  Beta virt. eigenvalues --   -0.02851  -0.02014  -0.01825  -0.01247  -0.01038
  Beta virt. eigenvalues --   -0.00372  -0.00152   0.00204   0.00270   0.00645

 Mulliken charges and spin densities:
               1          2
     1  Na  -0.425348  -0.019710
     2  Na   0.194630   0.467878
     3  Na  -0.038128   0.038387
     4  Na   0.547288   0.310723
     5  Na  -0.018836   0.020952
     6  Na  -0.291770   0.042802
     7  Na   0.032163   0.138968
 Sum of Mulliken charges =  -0.00000   1.00000

 Dipole moment (field-independent basis, Debye):
    X=             -1.1150    Y=             -0.9902    Z=             -0.0456  Tot=              1.4920
 Quadrupole moment (field-independent basis, Debye-Ang):
   XX=            -57.3446   YY=            -82.9401   ZZ=            -60.3038
   XY=              0.4063   XZ=             -3.6220   YZ=             -2.0263

 Normal termination of Gaussian 16 at Thu Dec  7 12:05:18 2023.
