 Gaussian 16, Revision B.01,
 Gaussian 16:  ES64L-G16RevB.01 20-Dec-2017

 -------------------------
 #P B3LYP/6-311+g(d) force
 -------------------------

 -----
 DPGEN
 -----
 Symbolic Z-matrix:
 Charge =  0 Multiplicity = 2

                         Standard orientation:
 ---------------------------------------------------------------------
 Center     Atomic      Atomic             Coordinates (Angstroms)
 Number     Number       Type             X           Y           Z
 ---------------------------------------------------------------------
      1         11           0       -1.877264    2.554206   -0.987408
      2         11           0        0.065180   -0.751065    1.640401
      3         11           0        3.286396   -0.999466   -0.791773
      4         11           0        2.357509    2.169663    1.244851
      5         11           0        0.430829   -0.136515   -1.565206
      6         11           0       -3.298078   -0.143992    0.503968
      7         11           0       -0.964573   -2.692831   -0.044833
 ---------------------------------------------------------------------

 SCF Done:  E(UB3LYP) =  -1136.11970534     A.U. after   21 cycles

 The electronic state is 2-A.
 Alpha  occ. eigenvalues --  -38.44823 -38.44535 -38.44345 -38.43940 -38.43620
 Alpha  occ. eigenvalues --  -38.43388 -38.43059  -2.20636  -2.20351  -2.20124
 Alpha  occ. eigenvalues --   -2.19910  -2.19579  -2.19318  -2.18856  -1.14349
 Alpha  occ. eigenvalues --   -1.14273  -1.14254  -1.14044  -1.14009  -1.13979
 Alpha  occ. eigenvalues --   -1.13788  -1.13766  -1.13745  -1.13734  -1.13573
 Alpha  occ. eigenvalues --   -1.13501  -1.13268  -1.13223  -1.13202  -1.12978
 Alpha  occ. eigenvalues --   -1.12962  -1.12898  -1.12528  -1.12509  -1.12501
 Alpha  occ. eigenvalues --   -0.18239  -0.13389  -0.11842  -0.10976
 Alpha virt. eigenvalues --   -0.06249  -0.05301  -0.04409  -0.03421  -0.02889
 Alpha virt. eigenvalues --   -0.02346  -0.02102  -0.01199  -0.00415  -0.00240
 Alpha virt. eigenvalues --   -0.00017   0.00194   0.00536   0.00682   0.00753

  Beta  occ. eigenvalues --  -38.44801 -38.44536 -38.44286 -38.43891 -38.43563
  Beta  occ. eigenvalues --  -38.43389 -38.43047  -2.20599  -2.20355  -2.20014
  Beta  occ. eigenvalues --   -2.19821  -2.19475  -2.19324  -2.18836  -1.14310
  Beta  occ. eigenvalues --   -1.14251  -1.14220  -1.14044  -1.14013  -1.13976
  Beta  occ. eigenvalues --   -1.13704  -1.13691  -1.13676  -1.13672  -1.13513
  Beta  occ. eigenvalues --   -1.13439  -1.13196  -1.13160  -1.13113  -1.12972
  Beta  occ. eigenvalues --   -1.12953  -1.12891  -1.12507  -1.12498  -1.12487
  Beta  occ. eigenvalues --   -0.17652  -0.13057  -0.11533
  Beta virt. eigenvalues --   -0.07263  -0.06129  -0.04953  -0.04306  -0.02914
  Beta virt. eigenvalues --   -0.02289  -0.02025  -0.01542  -0.00967  -0.00287
  Beta virt. eigenvalues --   -0.00203   0.00072   0.00278   0.00651   0.00787

 Mulliken charges and spin densities:
               1          2
     1  Na   0.140014   0.069160
     2  Na  -0.062688   0.171411
     3  Na   0.187584   0.086262
     4  Na  -0.281733   0.321947
     5  Na  -0.212296   0.198619
     6  Na  -0.188748  -0.027670
     7  Na   0.417866   0.180270
 Sum of Mulliken charges =  -0.00000   1.00000

 Dipole moment (field-independent basis, Debye):
    X=              0.4743    Y=             -0.4867    Z=              0.1955  Tot=              0.7071
 Quadrupole moment (field-independent basis, Debye-Ang):
   XX=            -54.1918   YY=            -67.0956   ZZ=            -72.9869
   XY=              1.3299   XZ=             -1.6312   YZ=              2.4308

 Normal termination of Gaussian 16 at Wed Dec  6 01:21:07 2023.
