 Gaussian 16, Revision B.01,
 Gaussian 16:  ES64L-G16RevB.01 20-Dec-2017

 -------------------------
 #P B3LYP/6-311+g(d) force
 -------------------------

 -----
 DPGEN
 -----
 Symbolic Z-matrix:
 Charge =  0 Multiplicity = 2

                         Standard orientation:
 ---------------------------------------------------------------------
 Center     Atomic      Atomic             Coordinates (Angstroms)
 Number     Number       Type             X           Y           Z
 ---------------------------------------------------------------------
      1         11           0        0.642767    0.117236   -1.654367
      2         11           0        1.742540    1.812295    0.327832
      3         11           0       -1.404512   -0.041947    1.727126
      4         11           0        0.169307   -2.503644    0.226083
      5         11           0       -1.355976    2.839594   -0.148031
      6         11           0       -3.510488   -1.279326   -0.616823
      7         11           0        3.716362   -0.944208    0.138180
 ---------------------------------------------------------------------

 SCF Done:  E(UB3LYP) =  -1136.12307952     A.U. after   22 cycles

 The electronic state is 2-A.
 Alpha  occ. eigenvalues --  -38.45105 -38.44685 -38.44002 -38.43615 -38.43604
 Alpha  occ. eigenvalues --  -38.43363 -38.43100  -2.20866  -2.20474  -2.19839
 Alpha  occ. eigenvalues --   -2.19585  -2.19531  -2.19198  -2.19007  -1.14541
 Alpha  occ. eigenvalues --   -1.14523  -1.14493  -1.14154  -1.14135  -1.14101
 Alpha  occ. eigenvalues --   -1.13572  -1.13536  -1.13521  -1.13419  -1.13242
 Alpha  occ. eigenvalues --   -1.13170  -1.13165  -1.13114  -1.13089  -1.12869
 Alpha  occ. eigenvalues --   -1.12854  -1.12842  -1.12694  -1.12651  -1.12610
 Alpha  occ. eigenvalues --   -0.18258  -0.13336  -0.12259  -0.09968
 Alpha virt. eigenvalues --   -0.06847  -0.05286  -0.04355  -0.03396  -0.02681
 Alpha virt. eigenvalues --   -0.02335  -0.01902  -0.01411  -0.00454  -0.00201
 Alpha virt. eigenvalues --   -0.00164   0.00182   0.00584   0.00690   0.00757

  Beta  occ. eigenvalues --  -38.45095 -38.44684 -38.43989 -38.43595 -38.43549
  Beta  occ. eigenvalues --  -38.43361 -38.43039  -2.20847  -2.20473  -2.19819
  Beta  occ. eigenvalues --   -2.19532  -2.19449  -2.19197  -2.18894  -1.14524
  Beta  occ. eigenvalues --   -1.14505  -1.14482  -1.14153  -1.14125  -1.14101
  Beta  occ. eigenvalues --   -1.13560  -1.13487  -1.13471  -1.13408  -1.13174
  Beta  occ. eigenvalues --   -1.13144  -1.13125  -1.13048  -1.13028  -1.12865
  Beta  occ. eigenvalues --   -1.12847  -1.12830  -1.12617  -1.12568  -1.12530
  Beta  occ. eigenvalues --   -0.17597  -0.13155  -0.12023
  Beta virt. eigenvalues --   -0.06648  -0.06310  -0.05229  -0.04247  -0.02790
  Beta virt. eigenvalues --   -0.02365  -0.01818  -0.01368  -0.01040  -0.00414
  Beta virt. eigenvalues --   -0.00214   0.00047   0.00243   0.00718   0.00731

 Mulliken charges and spin densities:
               1          2
     1  Na  -0.276016   0.537411
     2  Na   0.065681   0.132684
     3  Na  -0.072084   0.271622
     4  Na  -0.128652   0.069228
     5  Na   0.183672  -0.039760
     6  Na  -0.021372   0.024941
     7  Na   0.248772   0.003875
 Sum of Mulliken charges =  -0.00000   1.00000

 Dipole moment (field-independent basis, Debye):
    X=             -0.0859    Y=             -0.3806    Z=             -0.1565  Tot=              0.4204
 Quadrupole moment (field-independent basis, Debye-Ang):
   XX=            -47.7597   YY=            -66.4336   ZZ=            -76.6839
   XY=             -2.0002   XZ=              3.5505   YZ=              0.4715

 Normal termination of Gaussian 16 at Tue Dec  5 21:54:19 2023.
