 Gaussian 16, Revision B.01,
 Gaussian 16:  ES64L-G16RevB.01 20-Dec-2017

 -------------------------
 #P B3LYP/6-311+g(d) force
 -------------------------

 -----
 DPGEN
 -----
 Symbolic Z-matrix:
 Charge =  0 Multiplicity = 2

                         Standard orientation:
 ---------------------------------------------------------------------
 Center     Atomic      Atomic             Coordinates (Angstroms)
 Number     Number       Type             X           Y           Z
 ---------------------------------------------------------------------
      1         11           0        0.493713    1.860772   -0.530157
      2         11           0       -2.409347    3.358265    0.331155
      3         11           0       -2.767064    0.074541   -0.381030
      4         11           0       -3.009535   -2.926233    0.480796
      5         11           0       -0.304683   -1.876368   -0.806558
      6         11           0        2.465773   -0.233633    1.240821
      7         11           0        5.531143   -0.257345   -0.335026
 ---------------------------------------------------------------------

 SCF Done:  E(UB3LYP) =  -1136.12288413     A.U. after   18 cycles

 The electronic state is 2-A.
 Alpha  occ. eigenvalues --  -38.44231 -38.44144 -38.44105 -38.43926 -38.43809
 Alpha  occ. eigenvalues --  -38.43717 -38.43420  -2.20122  -2.20011  -2.19903
 Alpha  occ. eigenvalues --   -2.19777  -2.19732  -2.19528  -2.19244  -1.13847
 Alpha  occ. eigenvalues --   -1.13814  -1.13747  -1.13697  -1.13650  -1.13605
 Alpha  occ. eigenvalues --   -1.13541  -1.13540  -1.13516  -1.13478  -1.13458
 Alpha  occ. eigenvalues --   -1.13438  -1.13412  -1.13384  -1.13310  -1.13214
 Alpha  occ. eigenvalues --   -1.13187  -1.13174  -1.12904  -1.12899  -1.12872
 Alpha  occ. eigenvalues --   -0.17367  -0.13755  -0.12748  -0.10503
 Alpha virt. eigenvalues --   -0.06036  -0.05201  -0.05161  -0.03575  -0.02916
 Alpha virt. eigenvalues --   -0.02352  -0.01501  -0.01276  -0.00898  -0.00750
 Alpha virt. eigenvalues --   -0.00556   0.00036   0.00380   0.00460   0.00627

  Beta  occ. eigenvalues --  -38.44202 -38.44127 -38.43996 -38.43906 -38.43791
  Beta  occ. eigenvalues --  -38.43724 -38.43403  -2.20070  -2.19979  -2.19741
  Beta  occ. eigenvalues --   -2.19703  -2.19700  -2.19548  -2.19211  -1.13817
  Beta  occ. eigenvalues --   -1.13782  -1.13704  -1.13668  -1.13627  -1.13575
  Beta  occ. eigenvalues --   -1.13457  -1.13424  -1.13407  -1.13402  -1.13401
  Beta  occ. eigenvalues --   -1.13386  -1.13385  -1.13362  -1.13288  -1.13233
  Beta  occ. eigenvalues --   -1.13205  -1.13137  -1.12879  -1.12875  -1.12855
  Beta  occ. eigenvalues --   -0.16879  -0.13209  -0.12411
  Beta virt. eigenvalues --   -0.07041  -0.05662  -0.04972  -0.04877  -0.03163
  Beta virt. eigenvalues --   -0.02635  -0.02253  -0.01343  -0.00987  -0.00647
  Beta virt. eigenvalues --   -0.00386  -0.00188   0.00265   0.00518   0.00616

 Mulliken charges and spin densities:
               1          2
     1  Na  -0.678052  -0.107618
     2  Na   0.602576   0.153647
     3  Na  -0.466583   0.332689
     4  Na   0.685792   0.077453
     5  Na  -0.441202   0.037326
     6  Na   0.371232  -0.056575
     7  Na  -0.073763   0.563077
 Sum of Mulliken charges =  -0.00000   1.00000

 Dipole moment (field-independent basis, Debye):
    X=             -1.0751    Y=             -0.6308    Z=              0.1212  Tot=              1.2524
 Quadrupole moment (field-independent basis, Debye-Ang):
   XX=            -74.1661   YY=            -62.2375   ZZ=            -66.6294
   XY=              3.2390   XZ=             -4.9112   YZ=             -0.6442

 Normal termination of Gaussian 16 at Tue Nov 28 20:51:54 2023.
