 Gaussian 16, Revision B.01,
 Gaussian 16:  ES64L-G16RevB.01 20-Dec-2017

 -------------------------
 #P B3LYP/6-311+g(d) force
 -------------------------

 -----
 DPGEN
 -----
 Symbolic Z-matrix:
 Charge =  0 Multiplicity = 2

                         Standard orientation:
 ---------------------------------------------------------------------
 Center     Atomic      Atomic             Coordinates (Angstroms)
 Number     Number       Type             X           Y           Z
 ---------------------------------------------------------------------
      1         11           0       -0.296661   -1.228648   -1.029338
      2         11           0        1.485078    0.304510    1.915220
      3         11           0        2.804356   -1.881958   -0.237302
      4         11           0       -3.649523   -0.666274   -0.878700
      5         11           0       -1.804763   -0.253817    1.732417
      6         11           0       -0.803618    2.238369   -0.273247
      7         11           0        2.265130    1.487818   -1.229050
 ---------------------------------------------------------------------

 SCF Done:  E(UB3LYP) =  -1136.12987743     A.U. after   24 cycles

 The electronic state is 2-A.
 Alpha  occ. eigenvalues --  -38.44465 -38.44075 -38.43989 -38.43973 -38.43535
 Alpha  occ. eigenvalues --  -38.43059 -38.42644  -2.20299  -2.20019  -2.19892
 Alpha  occ. eigenvalues --   -2.19866  -2.19459  -2.18922  -2.18529  -1.13980
 Alpha  occ. eigenvalues --   -1.13949  -1.13937  -1.13733  -1.13655  -1.13637
 Alpha  occ. eigenvalues --   -1.13566  -1.13563  -1.13546  -1.13504  -1.13485
 Alpha  occ. eigenvalues --   -1.13475  -1.13173  -1.13130  -1.13074  -1.12588
 Alpha  occ. eigenvalues --   -1.12581  -1.12564  -1.12226  -1.12196  -1.12146
 Alpha  occ. eigenvalues --   -0.18872  -0.14015  -0.11652  -0.11213
 Alpha virt. eigenvalues --   -0.06245  -0.04848  -0.04775  -0.03299  -0.02724
 Alpha virt. eigenvalues --   -0.02405  -0.02137  -0.00875  -0.00691   0.00033
 Alpha virt. eigenvalues --    0.00209   0.00379   0.00447   0.00714   0.00806

  Beta  occ. eigenvalues --  -38.44452 -38.44023 -38.43949 -38.43908 -38.43517
  Beta  occ. eigenvalues --  -38.43058 -38.42632  -2.20274  -2.19926  -2.19792
  Beta  occ. eigenvalues --   -2.19775  -2.19429  -2.18922  -2.18510  -1.13960
  Beta  occ. eigenvalues --   -1.13930  -1.13920  -1.13666  -1.13594  -1.13551
  Beta  occ. eigenvalues --   -1.13503  -1.13487  -1.13476  -1.13429  -1.13416
  Beta  occ. eigenvalues --   -1.13412  -1.13140  -1.13098  -1.13055  -1.12583
  Beta  occ. eigenvalues --   -1.12580  -1.12558  -1.12214  -1.12158  -1.12136
  Beta  occ. eigenvalues --   -0.18132  -0.13842  -0.10976
  Beta virt. eigenvalues --   -0.07616  -0.06073  -0.04722  -0.04208  -0.02998
  Beta virt. eigenvalues --   -0.02142  -0.01946  -0.01730  -0.00661  -0.00370
  Beta virt. eigenvalues --    0.00108   0.00247   0.00467   0.00536   0.00786

 Mulliken charges and spin densities:
               1          2
     1  Na  -1.108075   0.423956
     2  Na  -0.003571   0.323468
     3  Na   0.541708  -0.086766
     4  Na   0.792488   0.023099
     5  Na   0.210155   0.029064
     6  Na  -0.418721   0.158903
     7  Na  -0.013983   0.128275
 Sum of Mulliken charges =  -0.00000   1.00000

 Dipole moment (field-independent basis, Debye):
    X=             -0.5409    Y=              0.2457    Z=             -0.0428  Tot=              0.5956
 Quadrupole moment (field-independent basis, Debye-Ang):
   XX=            -50.7806   YY=            -76.6534   ZZ=            -66.8977
   XY=              0.4401   XZ=              0.9808   YZ=             -1.9421

 Normal termination of Gaussian 16 at Wed Nov 29 16:24:34 2023.
