 Gaussian 16, Revision B.01,
 Gaussian 16:  ES64L-G16RevB.01 20-Dec-2017

 -------------------------
 #P B3LYP/6-311+g(d) force
 -------------------------

 -----
 DPGEN
 -----
 Symbolic Z-matrix:
 Charge =  0 Multiplicity = 2

                         Standard orientation:
 ---------------------------------------------------------------------
 Center     Atomic      Atomic             Coordinates (Angstroms)
 Number     Number       Type             X           Y           Z
 ---------------------------------------------------------------------
      1         11           0        3.256382   -0.934634   -0.300262
      2         11           0        0.432435    0.197558    1.923736
      3         11           0        0.037134   -0.192405   -1.661764
      4         11           0        1.658662    2.486070    0.089735
      5         11           0       -2.225106    2.069487   -0.361893
      6         11           0       -3.222326   -1.118460    0.233174
      7         11           0        0.062819   -2.507615    0.077275
 ---------------------------------------------------------------------

 SCF Done:  E(UB3LYP) =  -1136.13183155     A.U. after   21 cycles

 The electronic state is 2-A.
 Alpha  occ. eigenvalues --  -38.44669 -38.44357 -38.43735 -38.43461 -38.43409
 Alpha  occ. eigenvalues --  -38.43393 -38.43003  -2.20474  -2.20158  -2.19554
 Alpha  occ. eigenvalues --   -2.19443  -2.19337  -2.19234  -2.18934  -1.14149
 Alpha  occ. eigenvalues --   -1.14119  -1.14118  -1.13827  -1.13821  -1.13801
 Alpha  occ. eigenvalues --   -1.13245  -1.13226  -1.13218  -1.13181  -1.13093
 Alpha  occ. eigenvalues --   -1.13040  -1.13027  -1.13009  -1.12944  -1.12895
 Alpha  occ. eigenvalues --   -1.12877  -1.12853  -1.12631  -1.12593  -1.12509
 Alpha  occ. eigenvalues --   -0.18651  -0.13237  -0.12143  -0.10609
 Alpha virt. eigenvalues --   -0.06221  -0.05360  -0.04112  -0.03206  -0.02749
 Alpha virt. eigenvalues --   -0.02370  -0.02094  -0.01193  -0.00395  -0.00146
 Alpha virt. eigenvalues --   -0.00045   0.00294   0.00720   0.00834   0.00893

  Beta  occ. eigenvalues --  -38.44661 -38.44358 -38.43728 -38.43395 -38.43387
  Beta  occ. eigenvalues --  -38.43320 -38.42991  -2.20462  -2.20160  -2.19543
  Beta  occ. eigenvalues --   -2.19323  -2.19228  -2.19174  -2.18917  -1.14125
  Beta  occ. eigenvalues --   -1.14114  -1.14107  -1.13831  -1.13810  -1.13803
  Beta  occ. eigenvalues --   -1.13225  -1.13204  -1.13176  -1.13148  -1.13014
  Beta  occ. eigenvalues --   -1.12970  -1.12939  -1.12900  -1.12873  -1.12857
  Beta  occ. eigenvalues --   -1.12830  -1.12808  -1.12614  -1.12546  -1.12496
  Beta  occ. eigenvalues --   -0.17930  -0.13028  -0.11863
  Beta virt. eigenvalues --   -0.06734  -0.06148  -0.05323  -0.04102  -0.02502
  Beta virt. eigenvalues --   -0.02009  -0.01938  -0.01350  -0.01123  -0.00423
  Beta virt. eigenvalues --   -0.00179   0.00100   0.00324   0.00777   0.00834

 Mulliken charges and spin densities:
               1          2
     1  Na   0.257117  -0.040881
     2  Na  -0.329561   0.686766
     3  Na  -0.297065   0.582962
     4  Na   0.029459  -0.133391
     5  Na   0.081719  -0.060977
     6  Na  -0.024253  -0.034593
     7  Na   0.282585   0.000114
 Sum of Mulliken charges =  -0.00000   1.00000

 Dipole moment (field-independent basis, Debye):
    X=              0.1798    Y=             -0.0340    Z=              0.0621  Tot=              0.1932
 Quadrupole moment (field-independent basis, Debye-Ang):
   XX=            -50.1429   YY=            -66.7708   ZZ=            -75.0709
   XY=              0.0187   XZ=             -1.3846   YZ=             -1.1468

 Normal termination of Gaussian 16 at Sat Dec  9 07:09:40 2023.
