 Gaussian 16, Revision B.01,
 Gaussian 16:  ES64L-G16RevB.01 20-Dec-2017

 -------------------------
 #P B3LYP/6-311+g(d) force
 -------------------------

 -----
 DPGEN
 -----
 Symbolic Z-matrix:
 Charge =  0 Multiplicity = 2

                         Standard orientation:
 ---------------------------------------------------------------------
 Center     Atomic      Atomic             Coordinates (Angstroms)
 Number     Number       Type             X           Y           Z
 ---------------------------------------------------------------------
      1         11           0       -0.154275    2.666590   -0.404846
      2         11           0        3.107083   -1.811729   -0.366993
      3         11           0       -2.616445   -2.188711   -0.048795
      4         11           0       -3.112292    1.069617    0.036718
      5         11           0       -0.137578   -0.472948    1.805451
      6         11           0        2.986245    1.187143    0.404878
      7         11           0       -0.072738   -0.449961   -1.426413
 ---------------------------------------------------------------------

 SCF Done:  E(UB3LYP) =  -1136.12614656     A.U. after   22 cycles

 The electronic state is 2-A.
 Alpha  occ. eigenvalues --  -38.44980 -38.44611 -38.44372 -38.43818 -38.43629
 Alpha  occ. eigenvalues --  -38.43546 -38.42329  -2.20820  -2.20455  -2.20193
 Alpha  occ. eigenvalues --   -2.19665  -2.19520  -2.19499  -2.18199  -1.14492
 Alpha  occ. eigenvalues --   -1.14475  -1.14468  -1.14160  -1.14116  -1.14099
 Alpha  occ. eigenvalues --   -1.13850  -1.13843  -1.13824  -1.13346  -1.13328
 Alpha  occ. eigenvalues --   -1.13319  -1.13283  -1.13165  -1.13147  -1.13134
 Alpha  occ. eigenvalues --   -1.13113  -1.13094  -1.11895  -1.11852  -1.11839
 Alpha  occ. eigenvalues --   -0.18542  -0.14066  -0.11693  -0.10155
 Alpha virt. eigenvalues --   -0.06781  -0.05932  -0.03933  -0.03478  -0.02511
 Alpha virt. eigenvalues --   -0.02221  -0.02051  -0.01542  -0.00761  -0.00173
 Alpha virt. eigenvalues --   -0.00047   0.00230   0.00595   0.00672   0.00728

  Beta  occ. eigenvalues --  -38.44976 -38.44604 -38.44365 -38.43817 -38.43544
  Beta  occ. eigenvalues --  -38.43490 -38.42322  -2.20815  -2.20445  -2.20180
  Beta  occ. eigenvalues --   -2.19666  -2.19398  -2.19364  -2.18190  -1.14480
  Beta  occ. eigenvalues --   -1.14474  -1.14455  -1.14157  -1.14096  -1.14087
  Beta  occ. eigenvalues --   -1.13843  -1.13822  -1.13814  -1.13339  -1.13332
  Beta  occ. eigenvalues --   -1.13294  -1.13196  -1.13076  -1.13060  -1.13034
  Beta  occ. eigenvalues --   -1.13021  -1.12997  -1.11887  -1.11848  -1.11814
  Beta  occ. eigenvalues --   -0.17854  -0.13867  -0.11459
  Beta virt. eigenvalues --   -0.06686  -0.06373  -0.05839  -0.03855  -0.02806
  Beta virt. eigenvalues --   -0.02363  -0.01620  -0.01505  -0.01006  -0.00800
  Beta virt. eigenvalues --   -0.00118   0.00122   0.00266   0.00664   0.00693

 Mulliken charges and spin densities:
               1          2
     1  Na  -0.162324  -0.028751
     2  Na   0.156967   0.056076
     3  Na   0.284041   0.073495
     4  Na   0.194259   0.027476
     5  Na  -0.392700   0.497035
     6  Na   0.181870   0.076890
     7  Na  -0.262114   0.297780
 Sum of Mulliken charges =  -0.00000   1.00000

 Dipole moment (field-independent basis, Debye):
    X=             -0.1184    Y=             -0.2381    Z=              0.2156  Tot=              0.3424
 Quadrupole moment (field-independent basis, Debye-Ang):
   XX=            -47.3377   YY=            -67.3194   ZZ=            -77.4301
   XY=              0.0544   XZ=              0.2301   YZ=              1.0939

 Normal termination of Gaussian 16 at Fri Dec  8 00:57:49 2023.
