 Gaussian 16, Revision B.01,
 Gaussian 16:  ES64L-G16RevB.01 20-Dec-2017

 -------------------------
 #P B3LYP/6-311+g(d) force
 -------------------------

 -----
 DPGEN
 -----
 Symbolic Z-matrix:
 Charge =  0 Multiplicity = 2

                         Standard orientation:
 ---------------------------------------------------------------------
 Center     Atomic      Atomic             Coordinates (Angstroms)
 Number     Number       Type             X           Y           Z
 ---------------------------------------------------------------------
      1         11           0        0.245479    0.254259   -1.757341
      2         11           0       -2.956108   -0.267009   -0.299880
      3         11           0       -1.334950    2.638999    0.297334
      4         11           0        2.319248    1.955539   -0.103830
      5         11           0       -0.144818   -0.282931    1.917442
      6         11           0        2.531552   -1.486275    0.133099
      7         11           0       -0.660403   -2.812582   -0.186823
 ---------------------------------------------------------------------

 SCF Done:  E(UB3LYP) =  -1136.14152228     A.U. after   19 cycles

 The electronic state is 2-A.
 Alpha  occ. eigenvalues --  -38.43635 -38.43622 -38.43594 -38.43506 -38.43393
 Alpha  occ. eigenvalues --  -38.43300 -38.43232  -2.19490  -2.19485  -2.19465
 Alpha  occ. eigenvalues --   -2.19354  -2.19328  -2.19203  -2.19177  -1.13216
 Alpha  occ. eigenvalues --   -1.13166  -1.13165  -1.13151  -1.13140  -1.13140
 Alpha  occ. eigenvalues --   -1.13137  -1.13130  -1.13079  -1.13034  -1.13021
 Alpha  occ. eigenvalues --   -1.13002  -1.12982  -1.12961  -1.12940  -1.12877
 Alpha  occ. eigenvalues --   -1.12853  -1.12836  -1.12820  -1.12812  -1.12808
 Alpha  occ. eigenvalues --   -0.18914  -0.12983  -0.12661  -0.10829
 Alpha virt. eigenvalues --   -0.05236  -0.05170  -0.04826  -0.03173  -0.03037
 Alpha virt. eigenvalues --   -0.02526  -0.01279  -0.01134  -0.00287  -0.00203
 Alpha virt. eigenvalues --    0.00003   0.00379   0.00869   0.00912   0.00921

  Beta  occ. eigenvalues --  -38.43631 -38.43615 -38.43587 -38.43500 -38.43309
  Beta  occ. eigenvalues --  -38.43294 -38.43160  -2.19486  -2.19475  -2.19458
  Beta  occ. eigenvalues --   -2.19344  -2.19172  -2.19169  -2.19072  -1.13204
  Beta  occ. eigenvalues --   -1.13160  -1.13154  -1.13138  -1.13133  -1.13121
  Beta  occ. eigenvalues --   -1.13117  -1.13105  -1.13077  -1.13018  -1.12994
  Beta  occ. eigenvalues --   -1.12979  -1.12915  -1.12867  -1.12833  -1.12828
  Beta  occ. eigenvalues --   -1.12809  -1.12788  -1.12783  -1.12728  -1.12727
  Beta  occ. eigenvalues --   -0.18173  -0.12732  -0.12413
  Beta virt. eigenvalues --   -0.06916  -0.05232  -0.05151  -0.04768  -0.02371
  Beta virt. eigenvalues --   -0.02247  -0.01482  -0.01193  -0.01058  -0.00328
  Beta virt. eigenvalues --   -0.00262   0.00129   0.00396   0.00897   0.00912

 Mulliken charges and spin densities:
               1          2
     1  Na  -0.291016   0.610602
     2  Na   0.105265  -0.041228
     3  Na   0.066817  -0.054682
     4  Na   0.174224  -0.091598
     5  Na  -0.394287   0.718503
     6  Na   0.190823  -0.077625
     7  Na   0.148174  -0.063972
 Sum of Mulliken charges =  -0.00000   1.00000

 Dipole moment (field-independent basis, Debye):
    X=              0.0562    Y=              0.0685    Z=              0.0673  Tot=              0.1113
 Quadrupole moment (field-independent basis, Debye-Ang):
   XX=            -58.8813   YY=            -61.1523   ZZ=            -73.7047
   XY=              0.0722   XZ=              0.9656   YZ=              1.2589

 Normal termination of Gaussian 16 at Thu Dec  7 16:13:45 2023.
