 Gaussian 16, Revision B.01,
 Gaussian 16:  ES64L-G16RevB.01 20-Dec-2017

 -------------------------
 #P B3LYP/6-311+g(d) force
 -------------------------

 -----
 DPGEN
 -----
 Symbolic Z-matrix:
 Charge =  0 Multiplicity = 2

                         Standard orientation:
 ---------------------------------------------------------------------
 Center     Atomic      Atomic             Coordinates (Angstroms)
 Number     Number       Type             X           Y           Z
 ---------------------------------------------------------------------
      1         11           0       -4.199259   -1.356154   -0.716378
      2         11           0       -2.954024    1.698399   -0.409213
      3         11           0        1.860882   -1.327880    1.577391
      4         11           0        4.155132   -1.021660   -0.978245
      5         11           0       -0.256808    2.193481    1.378690
      6         11           0       -1.078290   -1.988944    0.176464
      7         11           0        2.472368    1.802758   -1.028708
 ---------------------------------------------------------------------

 SCF Done:  E(UB3LYP) =  -1136.12002893     A.U. after   22 cycles

 The electronic state is 2-A.
 Alpha  occ. eigenvalues --  -38.45047 -38.44501 -38.44491 -38.44234 -38.44105
 Alpha  occ. eigenvalues --  -38.43780 -38.42804  -2.20842  -2.20316  -2.20316
 Alpha  occ. eigenvalues --   -2.20074  -2.19919  -2.19614  -2.18625  -1.14526
 Alpha  occ. eigenvalues --   -1.14497  -1.14470  -1.14001  -1.13984  -1.13974
 Alpha  occ. eigenvalues --   -1.13963  -1.13949  -1.13949  -1.13769  -1.13718
 Alpha  occ. eigenvalues --   -1.13694  -1.13601  -1.13585  -1.13552  -1.13267
 Alpha  occ. eigenvalues --   -1.13264  -1.13249  -1.12298  -1.12275  -1.12272
 Alpha  occ. eigenvalues --   -0.16982  -0.14400  -0.11740  -0.11285
 Alpha virt. eigenvalues --   -0.06593  -0.05308  -0.04397  -0.03489  -0.03352
 Alpha virt. eigenvalues --   -0.02422  -0.01984  -0.01385  -0.00855  -0.00751
 Alpha virt. eigenvalues --   -0.00028   0.00072   0.00182   0.00428   0.00671

  Beta  occ. eigenvalues --  -38.45011 -38.44489 -38.44446 -38.44181 -38.44079
  Beta  occ. eigenvalues --  -38.43753 -38.42786  -2.20778  -2.20295  -2.20235
  Beta  occ. eigenvalues --   -2.19980  -2.19876  -2.19564  -2.18592  -1.14486
  Beta  occ. eigenvalues --   -1.14462  -1.14398  -1.13987  -1.13971  -1.13922
  Beta  occ. eigenvalues --   -1.13918  -1.13908  -1.13887  -1.13693  -1.13651
  Beta  occ. eigenvalues --   -1.13625  -1.13576  -1.13552  -1.13497  -1.13230
  Beta  occ. eigenvalues --   -1.13225  -1.13221  -1.12278  -1.12253  -1.12241
  Beta  occ. eigenvalues --   -0.16296  -0.13841  -0.11433
  Beta virt. eigenvalues --   -0.07714  -0.06547  -0.04930  -0.04000  -0.03184
  Beta virt. eigenvalues --   -0.02807  -0.02242  -0.01522  -0.01277  -0.00663
  Beta virt. eigenvalues --   -0.00399   0.00053   0.00166   0.00313   0.00561

 Mulliken charges and spin densities:
               1          2
     1  Na   0.663110   0.331025
     2  Na  -0.120847  -0.030786
     3  Na  -0.159825  -0.106324
     4  Na   0.479350   0.155229
     5  Na  -0.129363   0.307636
     6  Na  -0.655855   0.103567
     7  Na  -0.076570   0.239653
 Sum of Mulliken charges =  -0.00000   1.00000

 Dipole moment (field-independent basis, Debye):
    X=              0.4663    Y=             -0.1839    Z=             -0.5096  Tot=              0.7148
 Quadrupole moment (field-independent basis, Debye-Ang):
   XX=            -57.4960   YY=            -72.6585   ZZ=            -67.5447
   XY=             -2.3309   XZ=              1.4101   YZ=             -1.0366

 Normal termination of Gaussian 16 at Mon Dec  4 04:13:26 2023.
