 Gaussian 16, Revision B.01,
 Gaussian 16:  ES64L-G16RevB.01 20-Dec-2017

 -------------------------
 #P B3LYP/6-311+g(d) force
 -------------------------

 -----
 DPGEN
 -----
 Symbolic Z-matrix:
 Charge =  0 Multiplicity = 2

                         Standard orientation:
 ---------------------------------------------------------------------
 Center     Atomic      Atomic             Coordinates (Angstroms)
 Number     Number       Type             X           Y           Z
 ---------------------------------------------------------------------
      1         11           0        3.111419   -0.996119   -0.456002
      2         11           0       -0.097633   -0.011950    2.081824
      3         11           0       -1.728360    2.479295   -0.256171
      4         11           0       -0.318691   -2.770420    0.302219
      5         11           0       -3.107074   -0.654996   -0.297844
      6         11           0        0.076915   -0.217941   -1.603516
      7         11           0        2.063424    2.172129    0.229491
 ---------------------------------------------------------------------

 SCF Done:  E(UB3LYP) =  -1136.13819816     A.U. after   20 cycles

 The electronic state is 2-A.
 Alpha  occ. eigenvalues --  -38.44118 -38.44080 -38.43665 -38.43612 -38.43349
 Alpha  occ. eigenvalues --  -38.43314 -38.43095  -2.19956  -2.19904  -2.19560
 Alpha  occ. eigenvalues --   -2.19443  -2.19288  -2.19176  -2.18975  -1.13634
 Alpha  occ. eigenvalues --   -1.13615  -1.13593  -1.13588  -1.13558  -1.13539
 Alpha  occ. eigenvalues --   -1.13232  -1.13192  -1.13181  -1.13115  -1.13110
 Alpha  occ. eigenvalues --   -1.13074  -1.12989  -1.12943  -1.12911  -1.12848
 Alpha  occ. eigenvalues --   -1.12838  -1.12810  -1.12658  -1.12642  -1.12587
 Alpha  occ. eigenvalues --   -0.18590  -0.13156  -0.12221  -0.10871
 Alpha virt. eigenvalues --   -0.05735  -0.05207  -0.04476  -0.03229  -0.02874
 Alpha virt. eigenvalues --   -0.02626  -0.01717  -0.01066  -0.00364  -0.00290
 Alpha virt. eigenvalues --   -0.00018   0.00337   0.00767   0.00881   0.00883

  Beta  occ. eigenvalues --  -38.44111 -38.44069 -38.43607 -38.43564 -38.43346
  Beta  occ. eigenvalues --  -38.43260 -38.43085  -2.19945  -2.19886  -2.19437
  Beta  occ. eigenvalues --   -2.19374  -2.19189  -2.19173  -2.18960  -1.13617
  Beta  occ. eigenvalues --   -1.13607  -1.13581  -1.13565  -1.13543  -1.13528
  Beta  occ. eigenvalues --   -1.13124  -1.13103  -1.13097  -1.13072  -1.13054
  Beta  occ. eigenvalues --   -1.13038  -1.12922  -1.12884  -1.12846  -1.12837
  Beta  occ. eigenvalues --   -1.12817  -1.12800  -1.12647  -1.12601  -1.12580
  Beta  occ. eigenvalues --   -0.17876  -0.12896  -0.11974
  Beta virt. eigenvalues --   -0.06971  -0.05665  -0.05185  -0.04431  -0.02500
  Beta virt. eigenvalues --   -0.02101  -0.01611  -0.01565  -0.01007  -0.00385
  Beta virt. eigenvalues --   -0.00319   0.00113   0.00374   0.00840   0.00878

 Mulliken charges and spin densities:
               1          2
     1  Na   0.165059  -0.007828
     2  Na  -0.351273   0.668876
     3  Na  -0.023434  -0.047274
     4  Na   0.226966   0.007156
     5  Na   0.186972  -0.026897
     6  Na  -0.251085   0.420241
     7  Na   0.046796  -0.014275
 Sum of Mulliken charges =  -0.00000   1.00000

 Dipole moment (field-independent basis, Debye):
    X=              0.0355    Y=             -0.0696    Z=              0.0783  Tot=              0.1106
 Quadrupole moment (field-independent basis, Debye-Ang):
   XX=            -55.1455   YY=            -64.4972   ZZ=            -73.8000
   XY=              0.1021   XZ=              0.2557   YZ=             -0.0082

 Normal termination of Gaussian 16 at Thu Dec  7 21:11:02 2023.
