 Gaussian 16, Revision B.01,
 Gaussian 16:  ES64L-G16RevB.01 20-Dec-2017

 -------------------------
 #P B3LYP/6-311+g(d) force
 -------------------------

 -----
 DPGEN
 -----
 Symbolic Z-matrix:
 Charge =  0 Multiplicity = 2

                         Standard orientation:
 ---------------------------------------------------------------------
 Center     Atomic      Atomic             Coordinates (Angstroms)
 Number     Number       Type             X           Y           Z
 ---------------------------------------------------------------------
      1         11           0       -4.053669   -0.708036    0.493015
      2         11           0        3.599807    0.626882    1.015733
      3         11           0       -1.040363   -1.384109   -1.152006
      4         11           0       -1.994154    2.112642   -0.431901
      5         11           0       -0.225056   -0.407032    1.908684
      6         11           0        2.386920   -2.005480   -0.807186
      7         11           0        1.326514    1.765133   -1.026338
 ---------------------------------------------------------------------

 SCF Done:  E(UB3LYP) =  -1136.12112003     A.U. after   27 cycles

 The electronic state is 2-A.
 Alpha  occ. eigenvalues --  -38.46024 -38.45331 -38.44589 -38.43704 -38.43350
 Alpha  occ. eigenvalues --  -38.43101 -38.42729  -2.21806  -2.21118  -2.20425
 Alpha  occ. eigenvalues --   -2.19527  -2.19242  -2.18936  -2.18591  -1.15518
 Alpha  occ. eigenvalues --   -1.15457  -1.15409  -1.14790  -1.14772  -1.14738
 Alpha  occ. eigenvalues --   -1.14089  -1.14072  -1.14053  -1.13199  -1.13182
 Alpha  occ. eigenvalues --   -1.13173  -1.12956  -1.12882  -1.12853  -1.12616
 Alpha  occ. eigenvalues --   -1.12614  -1.12567  -1.12268  -1.12262  -1.12225
 Alpha  occ. eigenvalues --   -0.18101  -0.14200  -0.11085  -0.10718
 Alpha virt. eigenvalues --   -0.07484  -0.05337  -0.04607  -0.03164  -0.03091
 Alpha virt. eigenvalues --   -0.02386  -0.02109  -0.01277  -0.01121  -0.00357
 Alpha virt. eigenvalues --   -0.00038   0.00164   0.00244   0.00606   0.00653

  Beta  occ. eigenvalues --  -38.45993 -38.45311 -38.44546 -38.43683 -38.43305
  Beta  occ. eigenvalues --  -38.43094 -38.42712  -2.21748  -2.21080  -2.20344
  Beta  occ. eigenvalues --   -2.19493  -2.19163  -2.18926  -2.18564  -1.15468
  Beta  occ. eigenvalues --   -1.15422  -1.15363  -1.14761  -1.14747  -1.14713
  Beta  occ. eigenvalues --   -1.14036  -1.14016  -1.13998  -1.13169  -1.13159
  Beta  occ. eigenvalues --   -1.13136  -1.12909  -1.12816  -1.12784  -1.12612
  Beta  occ. eigenvalues --   -1.12596  -1.12555  -1.12254  -1.12215  -1.12209
  Beta  occ. eigenvalues --   -0.17485  -0.13916  -0.10726
  Beta virt. eigenvalues --   -0.07304  -0.07064  -0.05359  -0.03955  -0.02966
  Beta virt. eigenvalues --   -0.02819  -0.01820  -0.01461  -0.01207  -0.00691
  Beta virt. eigenvalues --   -0.00342   0.00029   0.00198   0.00399   0.00683

 Mulliken charges and spin densities:
               1          2
     1  Na   0.881786   0.189211
     2  Na   0.755425   0.294087
     3  Na  -0.370533   0.246962
     4  Na  -0.079607  -0.044067
     5  Na  -0.499157   0.237234
     6  Na  -0.097044   0.021343
     7  Na  -0.590870   0.055230
 Sum of Mulliken charges =  -0.00000   1.00000

 Dipole moment (field-independent basis, Debye):
    X=             -0.7245    Y=             -0.4285    Z=              0.6810  Tot=              1.0827
 Quadrupole moment (field-independent basis, Debye-Ang):
   XX=            -45.8314   YY=            -79.2389   ZZ=            -69.5084
   XY=             -0.2605   XZ=             -0.2973   YZ=              1.5170

 Normal termination of Gaussian 16 at Tue Dec  5 22:47:19 2023.
