 Gaussian 16, Revision B.01,
 Gaussian 16:  ES64L-G16RevB.01 20-Dec-2017

 -------------------------
 #P B3LYP/6-311+g(d) force
 -------------------------

 -----
 DPGEN
 -----
 Symbolic Z-matrix:
 Charge =  0 Multiplicity = 2

                         Standard orientation:
 ---------------------------------------------------------------------
 Center     Atomic      Atomic             Coordinates (Angstroms)
 Number     Number       Type             X           Y           Z
 ---------------------------------------------------------------------
      1         11           0        3.056947   -2.518260   -0.339390
      2         11           0        4.833120    0.102801   -0.549303
      3         11           0        2.046646    1.855497    0.813893
      4         11           0       -0.642392    2.231915   -1.033479
      5         11           0       -0.045480   -0.796852    0.861011
      6         11           0       -3.523720   -0.094822    1.279866
      7         11           0       -5.725121   -0.780279   -1.032598
 ---------------------------------------------------------------------

 SCF Done:  E(UB3LYP) =  -1136.11388860     A.U. after   22 cycles

 The electronic state is 2-A.
 Alpha  occ. eigenvalues --  -38.44900 -38.44274 -38.44215 -38.44071 -38.44006
 Alpha  occ. eigenvalues --  -38.44002 -38.43960  -2.20693  -2.20127  -2.20077
 Alpha  occ. eigenvalues --   -2.19878  -2.19824  -2.19792  -2.19753  -1.14370
 Alpha  occ. eigenvalues --   -1.14347  -1.14326  -1.13831  -1.13797  -1.13758
 Alpha  occ. eigenvalues --   -1.13739  -1.13719  -1.13671  -1.13586  -1.13547
 Alpha  occ. eigenvalues --   -1.13526  -1.13480  -1.13477  -1.13469  -1.13446
 Alpha  occ. eigenvalues --   -1.13444  -1.13430  -1.13418  -1.13410  -1.13353
 Alpha  occ. eigenvalues --   -0.16936  -0.13841  -0.11894  -0.10909
 Alpha virt. eigenvalues --   -0.06705  -0.06116  -0.04248  -0.03419  -0.02974
 Alpha virt. eigenvalues --   -0.02626  -0.02099  -0.01698  -0.00932  -0.00444
 Alpha virt. eigenvalues --   -0.00380  -0.00276   0.00186   0.00423   0.00487

  Beta  occ. eigenvalues --  -38.44894 -38.44245 -38.44142 -38.44054 -38.43973
  Beta  occ. eigenvalues --  -38.43970 -38.43964  -2.20682  -2.20075  -2.19943
  Beta  occ. eigenvalues --   -2.19847  -2.19774  -2.19769  -2.19712  -1.14363
  Beta  occ. eigenvalues --   -1.14337  -1.14316  -1.13777  -1.13764  -1.13697
  Beta  occ. eigenvalues --   -1.13668  -1.13638  -1.13568  -1.13561  -1.13527
  Beta  occ. eigenvalues --   -1.13494  -1.13460  -1.13448  -1.13443  -1.13426
  Beta  occ. eigenvalues --   -1.13419  -1.13387  -1.13386  -1.13385  -1.13325
  Beta  occ. eigenvalues --   -0.16332  -0.13555  -0.11595
  Beta virt. eigenvalues --   -0.07519  -0.06314  -0.05597  -0.03968  -0.03132
  Beta virt. eigenvalues --   -0.02602  -0.02392  -0.01764  -0.01443  -0.00766
  Beta virt. eigenvalues --   -0.00338  -0.00151  -0.00037   0.00321   0.00502

 Mulliken charges and spin densities:
               1          2
     1  Na   1.251440  -0.147586
     2  Na  -0.586650   0.073545
     3  Na   0.782204   0.448856
     4  Na   0.234949  -0.057031
     5  Na  -1.437007   0.478462
     6  Na  -0.352375  -0.010709
     7  Na   0.107439   0.214463
 Sum of Mulliken charges =  -0.00000   1.00000

 Dipole moment (field-independent basis, Debye):
    X=              0.3208    Y=              0.7541    Z=             -0.7580  Tot=              1.1163
 Quadrupole moment (field-independent basis, Debye-Ang):
   XX=            -70.5414   YY=            -69.8160   ZZ=            -63.8325
   XY=             -0.6347   XZ=              4.2534   YZ=              0.5873

 Normal termination of Gaussian 16 at Wed Nov 29 01:07:48 2023.
