 Gaussian 16, Revision B.01,
 Gaussian 16:  ES64L-G16RevB.01 20-Dec-2017

 -------------------------
 #P B3LYP/6-311+g(d) force
 -------------------------

 -----
 DPGEN
 -----
 Symbolic Z-matrix:
 Charge =  0 Multiplicity = 2

                         Standard orientation:
 ---------------------------------------------------------------------
 Center     Atomic      Atomic             Coordinates (Angstroms)
 Number     Number       Type             X           Y           Z
 ---------------------------------------------------------------------
      1         11           0        1.782956   -1.363528   -0.532660
      2         11           0        1.074765    1.879425   -0.089466
      3         11           0       -1.584269    0.574973   -0.960180
      4         11           0       -1.319326   -3.238948   -0.723059
      5         11           0       -2.429964   -1.573986    1.634496
      6         11           0       -1.847085    3.706004    0.057961
      7         11           0        4.322922    0.016060    0.612908
 ---------------------------------------------------------------------

 SCF Done:  E(UB3LYP) =  -1136.12443445     A.U. after   21 cycles

 The electronic state is 2-A.
 Alpha  occ. eigenvalues --  -38.44630 -38.44317 -38.44168 -38.44077 -38.43432
 Alpha  occ. eigenvalues --  -38.43425 -38.43226  -2.20437  -2.20198  -2.20010
 Alpha  occ. eigenvalues --   -2.19992  -2.19293  -2.19268  -2.19123  -1.14114
 Alpha  occ. eigenvalues --   -1.14093  -1.14078  -1.13982  -1.13886  -1.13777
 Alpha  occ. eigenvalues --   -1.13704  -1.13689  -1.13678  -1.13674  -1.13645
 Alpha  occ. eigenvalues --   -1.13559  -1.12976  -1.12937  -1.12926  -1.12917
 Alpha  occ. eigenvalues --   -1.12913  -1.12895  -1.12819  -1.12794  -1.12703
 Alpha  occ. eigenvalues --   -0.17648  -0.13565  -0.13276  -0.09696
 Alpha virt. eigenvalues --   -0.06418  -0.05484  -0.04893  -0.03440  -0.02690
 Alpha virt. eigenvalues --   -0.02169  -0.01890  -0.01403  -0.01092  -0.00590
 Alpha virt. eigenvalues --    0.00053   0.00147   0.00444   0.00594   0.00635

  Beta  occ. eigenvalues --  -38.44634 -38.44312 -38.44159 -38.44056 -38.43392
  Beta  occ. eigenvalues --  -38.43349 -38.43200  -2.20445  -2.20191  -2.19999
  Beta  occ. eigenvalues --   -2.19959  -2.19192  -2.19150  -2.19080  -1.14120
  Beta  occ. eigenvalues --   -1.14096  -1.14081  -1.13961  -1.13875  -1.13777
  Beta  occ. eigenvalues --   -1.13688  -1.13674  -1.13669  -1.13613  -1.13611
  Beta  occ. eigenvalues --   -1.13540  -1.12925  -1.12860  -1.12844  -1.12837
  Beta  occ. eigenvalues --   -1.12830  -1.12822  -1.12791  -1.12766  -1.12643
  Beta  occ. eigenvalues --   -0.17111  -0.13240  -0.12977
  Beta virt. eigenvalues --   -0.06304  -0.06018  -0.05350  -0.04656  -0.02886
  Beta virt. eigenvalues --   -0.02460  -0.02014  -0.01741  -0.00981  -0.00901
  Beta virt. eigenvalues --   -0.00247   0.00239   0.00333   0.00613   0.00667

 Mulliken charges and spin densities:
               1          2
     1  Na  -0.983399   0.037939
     2  Na  -0.576604  -0.174477
     3  Na  -0.919181   0.606724
     4  Na   0.671824   0.081701
     5  Na  -0.069565   0.245818
     6  Na   0.728437  -0.129269
     7  Na   1.148488   0.331564
 Sum of Mulliken charges =  -0.00000   1.00000

 Dipole moment (field-independent basis, Debye):
    X=             -0.3603    Y=              0.9889    Z=             -0.4119  Tot=              1.1302
 Quadrupole moment (field-independent basis, Debye-Ang):
   XX=            -68.2164   YY=            -54.1477   ZZ=            -73.1612
   XY=             -4.7763   XZ=              3.8391   YZ=              3.7223

 Normal termination of Gaussian 16 at Tue Nov 28 22:02:43 2023.
