 Gaussian 16, Revision B.01,
 Gaussian 16:  ES64L-G16RevB.01 20-Dec-2017

 -------------------------
 #P B3LYP/6-311+g(d) force
 -------------------------

 -----
 DPGEN
 -----
 Symbolic Z-matrix:
 Charge =  0 Multiplicity = 2

                         Standard orientation:
 ---------------------------------------------------------------------
 Center     Atomic      Atomic             Coordinates (Angstroms)
 Number     Number       Type             X           Y           Z
 ---------------------------------------------------------------------
      1         11           0        4.072456   -1.388760   -0.726686
      2         11           0       -5.540873   -0.557072   -0.164829
      3         11           0        0.832332    2.887268    1.348656
      4         11           0        3.291663    1.598709   -0.627232
      5         11           0       -2.017600    2.077254   -0.608850
      6         11           0       -1.922253   -1.566959   -0.236834
      7         11           0        1.284276   -3.050438    1.015775
 ---------------------------------------------------------------------

 SCF Done:  E(UB3LYP) =  -1136.11237158     A.U. after   20 cycles

 The electronic state is 2-A.
 Alpha  occ. eigenvalues --  -38.45273 -38.44874 -38.44521 -38.44279 -38.44111
 Alpha  occ. eigenvalues --  -38.44064 -38.43946  -2.21027  -2.20647  -2.20282
 Alpha  occ. eigenvalues --   -2.20106  -2.19923  -2.19836  -2.19728  -1.14722
 Alpha  occ. eigenvalues --   -1.14709  -1.14623  -1.14298  -1.14296  -1.14243
 Alpha  occ. eigenvalues --   -1.13985  -1.13974  -1.13887  -1.13823  -1.13772
 Alpha  occ. eigenvalues --   -1.13747  -1.13582  -1.13568  -1.13544  -1.13503
 Alpha  occ. eigenvalues --   -1.13485  -1.13457  -1.13398  -1.13387  -1.13375
 Alpha  occ. eigenvalues --   -0.15859  -0.13913  -0.12510  -0.11059
 Alpha virt. eigenvalues --   -0.06615  -0.06085  -0.03979  -0.03397  -0.03228
 Alpha virt. eigenvalues --   -0.02928  -0.01957  -0.01567  -0.01073  -0.00811
 Alpha virt. eigenvalues --   -0.00522  -0.00282   0.00046   0.00422   0.00517

  Beta  occ. eigenvalues --  -38.45260 -38.44784 -38.44513 -38.44246 -38.44090
  Beta  occ. eigenvalues --  -38.44016 -38.43948  -2.21005  -2.20477  -2.20271
  Beta  occ. eigenvalues --   -2.20048  -2.19889  -2.19748  -2.19733  -1.14709
  Beta  occ. eigenvalues --   -1.14694  -1.14600  -1.14182  -1.14180  -1.14134
  Beta  occ. eigenvalues --   -1.13981  -1.13967  -1.13848  -1.13777  -1.13737
  Beta  occ. eigenvalues --   -1.13702  -1.13562  -1.13545  -1.13504  -1.13445
  Beta  occ. eigenvalues --   -1.13423  -1.13401  -1.13397  -1.13395  -1.13368
  Beta  occ. eigenvalues --   -0.15444  -0.13282  -0.12069
  Beta virt. eigenvalues --   -0.07660  -0.06500  -0.05607  -0.03712  -0.03236
  Beta virt. eigenvalues --   -0.02818  -0.02680  -0.01617  -0.01308  -0.00835
  Beta virt. eigenvalues --   -0.00418  -0.00362  -0.00078   0.00182   0.00485

 Mulliken charges and spin densities:
               1          2
     1  Na   0.265971   0.004971
     2  Na   0.429278   0.465517
     3  Na   0.124578   0.006844
     4  Na  -0.242179   0.170734
     5  Na  -0.005997   0.035451
     6  Na  -0.570105   0.182093
     7  Na  -0.001546   0.134389
 Sum of Mulliken charges =  -0.00000   1.00000

 Dipole moment (field-independent basis, Debye):
    X=             -0.7238    Y=              0.4827    Z=              0.0379  Tot=              0.8708
 Quadrupole moment (field-independent basis, Debye-Ang):
   XX=            -61.6831   YY=            -69.3225   ZZ=            -68.3157
   XY=             -3.1746   XZ=              0.4401   YZ=             -0.8228

 Normal termination of Gaussian 16 at Sun Dec  3 16:10:15 2023.
