 Gaussian 16, Revision B.01,
 Gaussian 16:  ES64L-G16RevB.01 20-Dec-2017

 -------------------------
 #P B3LYP/6-311+g(d) force
 -------------------------

 -----
 DPGEN
 -----
 Symbolic Z-matrix:
 Charge =  0 Multiplicity = 2

                         Standard orientation:
 ---------------------------------------------------------------------
 Center     Atomic      Atomic             Coordinates (Angstroms)
 Number     Number       Type             X           Y           Z
 ---------------------------------------------------------------------
      1         11           0        0.736849   -1.738246    1.285340
      2         11           0        4.575994   -2.865127   -0.642372
      3         11           0        2.521864    0.452174   -0.369005
      4         11           0        0.915991    4.449841   -0.431347
      5         11           0       -0.380167    1.634777    0.997216
      6         11           0       -2.161695   -0.545445   -0.374879
      7         11           0       -6.208836   -1.387974   -0.464952
 ---------------------------------------------------------------------

 SCF Done:  E(UB3LYP) =  -1136.10946730     A.U. after   22 cycles

 The electronic state is 2-A.
 Alpha  occ. eigenvalues --  -38.45239 -38.44877 -38.44843 -38.44785 -38.44064
 Alpha  occ. eigenvalues --  -38.43767 -38.43587  -2.21007  -2.20675  -2.20622
 Alpha  occ. eigenvalues --   -2.20587  -2.19867  -2.19677  -2.19365  -1.14641
 Alpha  occ. eigenvalues --   -1.14641  -1.14606  -1.14433  -1.14384  -1.14312
 Alpha  occ. eigenvalues --   -1.14296  -1.14252  -1.14249  -1.14242  -1.14197
 Alpha  occ. eigenvalues --   -1.14187  -1.13610  -1.13540  -1.13508  -1.13374
 Alpha  occ. eigenvalues --   -1.13359  -1.13265  -1.13028  -1.13027  -1.12983
 Alpha  occ. eigenvalues --   -0.17094  -0.13071  -0.12417  -0.11279
 Alpha virt. eigenvalues --   -0.06639  -0.05597  -0.05092  -0.03284  -0.02785
 Alpha virt. eigenvalues --   -0.02396  -0.02005  -0.01775  -0.01450  -0.01245
 Alpha virt. eigenvalues --   -0.00662  -0.00204  -0.00160   0.00370   0.00480

  Beta  occ. eigenvalues --  -38.45107 -38.44888 -38.44795 -38.44762 -38.44088
  Beta  occ. eigenvalues --  -38.43763 -38.43564  -2.20760  -2.20696  -2.20581
  Beta  occ. eigenvalues --   -2.20497  -2.19916  -2.19673  -2.19321  -1.14473
  Beta  occ. eigenvalues --   -1.14473  -1.14442  -1.14434  -1.14397  -1.14290
  Beta  occ. eigenvalues --   -1.14277  -1.14248  -1.14190  -1.14185  -1.14163
  Beta  occ. eigenvalues --   -1.14130  -1.13644  -1.13577  -1.13509  -1.13381
  Beta  occ. eigenvalues --   -1.13358  -1.13240  -1.12998  -1.12997  -1.12955
  Beta  occ. eigenvalues --   -0.16855  -0.12351  -0.11775
  Beta virt. eigenvalues --   -0.07997  -0.06162  -0.05432  -0.04915  -0.03039
  Beta virt. eigenvalues --   -0.02534  -0.02125  -0.01815  -0.01357  -0.00944
  Beta virt. eigenvalues --   -0.00908  -0.00317  -0.00047  -0.00002   0.00479

 Mulliken charges and spin densities:
               1          2
     1  Na   0.117143   0.000709
     2  Na   0.449053   0.287736
     3  Na  -0.645680  -0.034592
     4  Na   0.491795   0.116032
     5  Na  -0.190842   0.031935
     6  Na  -0.151088  -0.025926
     7  Na  -0.070380   0.624106
 Sum of Mulliken charges =  -0.00000   1.00000

 Dipole moment (field-independent basis, Debye):
    X=              0.4219    Y=             -0.9374    Z=              0.1327  Tot=              1.0365
 Quadrupole moment (field-independent basis, Debye-Ang):
   XX=            -64.5490   YY=            -64.2243   ZZ=            -69.0878
   XY=             -4.4527   XZ=             -1.9472   YZ=             -1.8835

 Normal termination of Gaussian 16 at Tue Nov 28 22:55:06 2023.
