 Gaussian 16, Revision B.01,
 Gaussian 16:  ES64L-G16RevB.01 20-Dec-2017

 -------------------------
 #P B3LYP/6-311+g(d) force
 -------------------------

 -----
 DPGEN
 -----
 Symbolic Z-matrix:
 Charge =  0 Multiplicity = 2

                         Standard orientation:
 ---------------------------------------------------------------------
 Center     Atomic      Atomic             Coordinates (Angstroms)
 Number     Number       Type             X           Y           Z
 ---------------------------------------------------------------------
      1         11           0        1.842123    1.379594    1.795217
      2         11           0       -3.882331   -1.064149   -0.796226
      3         11           0        3.776945   -0.352054   -0.849317
      4         11           0        0.984988    0.977709   -1.802972
      5         11           0       -1.244860   -0.856595    1.527116
      6         11           0       -2.723802    1.830155   -0.082910
      7         11           0        1.246937   -1.914660    0.209091
 ---------------------------------------------------------------------

 SCF Done:  E(UB3LYP) =  -1136.11263477     A.U. after   29 cycles

 The electronic state is 2-A.
 Alpha  occ. eigenvalues --  -38.45201 -38.44741 -38.44432 -38.44356 -38.44223
 Alpha  occ. eigenvalues --  -38.43259 -38.42448  -2.21006  -2.20568  -2.20251
 Alpha  occ. eigenvalues --   -2.20227  -2.20058  -2.19196  -2.18351  -1.14669
 Alpha  occ. eigenvalues --   -1.14660  -1.14647  -1.14232  -1.14203  -1.14173
 Alpha  occ. eigenvalues --   -1.13921  -1.13919  -1.13910  -1.13890  -1.13887
 Alpha  occ. eigenvalues --   -1.13872  -1.13741  -1.13719  -1.13656  -1.12916
 Alpha  occ. eigenvalues --   -1.12835  -1.12827  -1.12064  -1.12027  -1.11959
 Alpha  occ. eigenvalues --   -0.18079  -0.14505  -0.11118  -0.10648
 Alpha virt. eigenvalues --   -0.07070  -0.05813  -0.04574  -0.03093  -0.02729
 Alpha virt. eigenvalues --   -0.02465  -0.02278  -0.01639  -0.00827  -0.00287
 Alpha virt. eigenvalues --    0.00058   0.00138   0.00282   0.00505   0.00550

  Beta  occ. eigenvalues --  -38.45188 -38.44657 -38.44425 -38.44346 -38.44186
  Beta  occ. eigenvalues --  -38.43239 -38.42456  -2.20982  -2.20411  -2.20239
  Beta  occ. eigenvalues --   -2.20213  -2.19991  -2.19158  -2.18367  -1.14656
  Beta  occ. eigenvalues --   -1.14644  -1.14630  -1.14114  -1.14100  -1.14069
  Beta  occ. eigenvalues --   -1.13914  -1.13900  -1.13899  -1.13872  -1.13870
  Beta  occ. eigenvalues --   -1.13856  -1.13699  -1.13658  -1.13605  -1.12899
  Beta  occ. eigenvalues --   -1.12810  -1.12786  -1.12083  -1.12022  -1.11960
  Beta  occ. eigenvalues --   -0.17442  -0.14354  -0.10518
  Beta virt. eigenvalues --   -0.07461  -0.06707  -0.05155  -0.04479  -0.02784
  Beta virt. eigenvalues --   -0.02604  -0.01859  -0.01699  -0.01082  -0.00682
  Beta virt. eigenvalues --   -0.00138   0.00066   0.00220   0.00333   0.00610

 Mulliken charges and spin densities:
               1          2
     1  Na  -0.325046   0.458944
     2  Na   0.110238  -0.090462
     3  Na   0.774136  -0.171853
     4  Na  -0.488759   0.274918
     5  Na   0.248488   0.353655
     6  Na  -0.018488   0.062412
     7  Na  -0.300569   0.112386
 Sum of Mulliken charges =  -0.00000   1.00000

 Dipole moment (field-independent basis, Debye):
    X=             -0.1674    Y=              0.0005    Z=             -0.0782  Tot=              0.1848
 Quadrupole moment (field-independent basis, Debye-Ang):
   XX=            -51.2383   YY=            -70.3801   ZZ=            -74.9769
   XY=              2.4722   XZ=              4.3322   YZ=              7.9196

 Normal termination of Gaussian 16 at Thu Dec  7 22:30:35 2023.
