 Gaussian 16, Revision B.01,
 Gaussian 16:  ES64L-G16RevB.01 20-Dec-2017

 -------------------------
 #P B3LYP/6-311+g(d) force
 -------------------------

 -----
 DPGEN
 -----
 Symbolic Z-matrix:
 Charge =  0 Multiplicity = 2

                         Standard orientation:
 ---------------------------------------------------------------------
 Center     Atomic      Atomic             Coordinates (Angstroms)
 Number     Number       Type             X           Y           Z
 ---------------------------------------------------------------------
      1         11           0        1.084503   -2.767764    0.537902
      2         11           0        0.382784   -0.616203   -1.731762
      3         11           0       -2.351914    1.618048    0.097291
      4         11           0        2.992967    0.526412   -0.450507
      5         11           0        0.542265    2.737720    0.012289
      6         11           0       -2.833499   -1.411268   -0.453965
      7         11           0        0.182895   -0.086944    1.988752
 ---------------------------------------------------------------------

 SCF Done:  E(UB3LYP) =  -1136.13369793     A.U. after   19 cycles

 The electronic state is 2-A.
 Alpha  occ. eigenvalues --  -38.44029 -38.43919 -38.43755 -38.43721 -38.43531
 Alpha  occ. eigenvalues --  -38.43416 -38.43125  -2.19898  -2.19751  -2.19680
 Alpha  occ. eigenvalues --   -2.19583  -2.19484  -2.19312  -2.19019  -1.13617
 Alpha  occ. eigenvalues --   -1.13549  -1.13521  -1.13452  -1.13414  -1.13392
 Alpha  occ. eigenvalues --   -1.13377  -1.13334  -1.13302  -1.13281  -1.13221
 Alpha  occ. eigenvalues --   -1.13195  -1.13142  -1.13106  -1.13098  -1.13018
 Alpha  occ. eigenvalues --   -1.12967  -1.12954  -1.12683  -1.12676  -1.12653
 Alpha  occ. eigenvalues --   -0.18818  -0.13138  -0.12569  -0.11139
 Alpha virt. eigenvalues --   -0.05653  -0.04981  -0.04586  -0.03309  -0.03092
 Alpha virt. eigenvalues --   -0.02746  -0.01479  -0.01052  -0.00310  -0.00043
 Alpha virt. eigenvalues --   -0.00013   0.00350   0.00847   0.00905   0.00922

  Beta  occ. eigenvalues --  -38.44012 -38.43910 -38.43703 -38.43663 -38.43471
  Beta  occ. eigenvalues --  -38.43414 -38.43121  -2.19872  -2.19734  -2.19555
  Beta  occ. eigenvalues --   -2.19511  -2.19374  -2.19311  -2.19016  -1.13586
  Beta  occ. eigenvalues --   -1.13525  -1.13499  -1.13444  -1.13389  -1.13368
  Beta  occ. eigenvalues --   -1.13313  -1.13240  -1.13218  -1.13194  -1.13175
  Beta  occ. eigenvalues --   -1.13139  -1.13072  -1.13033  -1.13020  -1.13018
  Beta  occ. eigenvalues --   -1.12966  -1.12933  -1.12683  -1.12672  -1.12632
  Beta  occ. eigenvalues --   -0.18111  -0.12865  -0.12295
  Beta virt. eigenvalues --   -0.07235  -0.05600  -0.04887  -0.04540  -0.02571
  Beta virt. eigenvalues --   -0.02361  -0.01712  -0.01345  -0.00958  -0.00321
  Beta virt. eigenvalues --   -0.00069   0.00108   0.00400   0.00863   0.00929

 Mulliken charges and spin densities:
               1          2
     1  Na   0.051976  -0.057249
     2  Na  -0.294586   0.466619
     3  Na  -0.029081  -0.007397
     4  Na   0.404435   0.055589
     5  Na  -0.009038  -0.005914
     6  Na   0.099852  -0.003718
     7  Na  -0.223558   0.552071
 Sum of Mulliken charges =  -0.00000   1.00000

 Dipole moment (field-independent basis, Debye):
    X=              0.2451    Y=             -0.3804    Z=              0.0412  Tot=              0.4544
 Quadrupole moment (field-independent basis, Debye-Ang):
   XX=            -59.2295   YY=            -63.6737   ZZ=            -72.5303
   XY=              0.6443   XZ=              0.1991   YZ=             -0.5654

 Normal termination of Gaussian 16 at Wed Nov 29 15:49:30 2023.
