 Gaussian 16, Revision B.01,
 Gaussian 16:  ES64L-G16RevB.01 20-Dec-2017

 -------------------------
 #P B3LYP/6-311+g(d) force
 -------------------------

 -----
 DPGEN
 -----
 Symbolic Z-matrix:
 Charge =  0 Multiplicity = 2

                         Standard orientation:
 ---------------------------------------------------------------------
 Center     Atomic      Atomic             Coordinates (Angstroms)
 Number     Number       Type             X           Y           Z
 ---------------------------------------------------------------------
      1         11           0        0.181871    0.300890    2.008192
      2         11           0        3.126888   -1.035615   -0.191691
      3         11           0       -3.237170   -0.804426    0.122790
      4         11           0       -0.402127   -2.901472    0.108641
      5         11           0        0.402807   -0.340682   -1.675045
      6         11           0        1.614868    2.306675    0.218338
      7         11           0       -1.687138    2.474631   -0.591224
 ---------------------------------------------------------------------

 SCF Done:  E(UB3LYP) =  -1136.13517289     A.U. after   19 cycles

 The electronic state is 2-A.
 Alpha  occ. eigenvalues --  -38.44152 -38.44137 -38.43690 -38.43632 -38.43485
 Alpha  occ. eigenvalues --  -38.43443 -38.43330  -2.19961  -2.19933  -2.19595
 Alpha  occ. eigenvalues --   -2.19466  -2.19347  -2.19311  -2.19288  -1.13661
 Alpha  occ. eigenvalues --   -1.13609  -1.13608  -1.13595  -1.13586  -1.13583
 Alpha  occ. eigenvalues --   -1.13326  -1.13235  -1.13200  -1.13185  -1.13133
 Alpha  occ. eigenvalues --   -1.13080  -1.13032  -1.13012  -1.12985  -1.12980
 Alpha  occ. eigenvalues --   -1.12962  -1.12953  -1.12922  -1.12913  -1.12901
 Alpha  occ. eigenvalues --   -0.18483  -0.12828  -0.12570  -0.10747
 Alpha virt. eigenvalues --   -0.05805  -0.05099  -0.04765  -0.03118  -0.03053
 Alpha virt. eigenvalues --   -0.02511  -0.01657  -0.01089  -0.00461  -0.00342
 Alpha virt. eigenvalues --   -0.00011   0.00334   0.00806   0.00849   0.00879

  Beta  occ. eigenvalues --  -38.44154 -38.44131 -38.43628 -38.43597 -38.43470
  Beta  occ. eigenvalues --  -38.43432 -38.43269  -2.19954  -2.19938  -2.19461
  Beta  occ. eigenvalues --   -2.19425  -2.19331  -2.19286  -2.19175  -1.13645
  Beta  occ. eigenvalues --   -1.13603  -1.13599  -1.13589  -1.13588  -1.13586
  Beta  occ. eigenvalues --   -1.13227  -1.13177  -1.13125  -1.13102  -1.13083
  Beta  occ. eigenvalues --   -1.13077  -1.13010  -1.12973  -1.12955  -1.12949
  Beta  occ. eigenvalues --   -1.12939  -1.12910  -1.12882  -1.12839  -1.12818
  Beta  occ. eigenvalues --   -0.17767  -0.12611  -0.12308
  Beta virt. eigenvalues --   -0.06871  -0.05785  -0.05036  -0.04680  -0.02368
  Beta virt. eigenvalues --   -0.02307  -0.01588  -0.01499  -0.01006  -0.00487
  Beta virt. eigenvalues --   -0.00358   0.00122   0.00370   0.00843   0.00868

 Mulliken charges and spin densities:
               1          2
     1  Na  -0.283025   0.630769
     2  Na   0.187740  -0.108322
     3  Na  -0.092451  -0.048127
     4  Na  -0.031931  -0.113882
     5  Na  -0.049638   0.564246
     6  Na   0.359188   0.065514
     7  Na  -0.089883   0.009801
 Sum of Mulliken charges =  -0.00000   1.00000

 Dipole moment (field-independent basis, Debye):
    X=              0.0903    Y=             -0.2403    Z=              0.1068  Tot=              0.2780
 Quadrupole moment (field-independent basis, Debye-Ang):
   XX=            -55.7678   YY=            -63.5117   ZZ=            -74.3645
   XY=             -0.6892   XZ=              0.3475   YZ=             -1.5885

 Normal termination of Gaussian 16 at Thu Dec  7 10:09:43 2023.
