 Gaussian 16, Revision B.01,
 Gaussian 16:  ES64L-G16RevB.01 20-Dec-2017

 -------------------------
 #P B3LYP/6-311+g(d) force
 -------------------------

 -----
 DPGEN
 -----
 Symbolic Z-matrix:
 Charge =  0 Multiplicity = 2

                         Standard orientation:
 ---------------------------------------------------------------------
 Center     Atomic      Atomic             Coordinates (Angstroms)
 Number     Number       Type             X           Y           Z
 ---------------------------------------------------------------------
      1         11           0        2.080060   -2.155487   -0.181473
      2         11           0        3.094871    1.083537    0.024601
      3         11           0       -1.590593   -2.554691   -0.048920
      4         11           0       -0.473591    2.947434   -0.296441
      5         11           0        0.092941    0.034870   -1.395301
      6         11           0       -3.491040    0.456770    0.087986
      7         11           0        0.287351    0.187567    1.809548
 ---------------------------------------------------------------------

 SCF Done:  E(UB3LYP) =  -1136.13321617     A.U. after   21 cycles

 The electronic state is 2-A.
 Alpha  occ. eigenvalues --  -38.44867 -38.44467 -38.43553 -38.43464 -38.43440
 Alpha  occ. eigenvalues --  -38.43091 -38.42738  -2.20630  -2.20303  -2.19430
 Alpha  occ. eigenvalues --   -2.19293  -2.19275  -2.19027  -2.18777  -1.14308
 Alpha  occ. eigenvalues --   -1.14285  -1.14268  -1.13972  -1.13969  -1.13940
 Alpha  occ. eigenvalues --   -1.13134  -1.13088  -1.13059  -1.12994  -1.12982
 Alpha  occ. eigenvalues --   -1.12959  -1.12938  -1.12921  -1.12888  -1.12748
 Alpha  occ. eigenvalues --   -1.12639  -1.12632  -1.12470  -1.12408  -1.12382
 Alpha  occ. eigenvalues --   -0.18619  -0.13181  -0.12342  -0.10031
 Alpha virt. eigenvalues --   -0.06346  -0.05245  -0.04675  -0.02951  -0.02509
 Alpha virt. eigenvalues --   -0.02080  -0.01908  -0.01279  -0.00674  -0.00484
 Alpha virt. eigenvalues --    0.00011   0.00303   0.00727   0.00802   0.00856

  Beta  occ. eigenvalues --  -38.44869 -38.44461 -38.43543 -38.43461 -38.43429
  Beta  occ. eigenvalues --  -38.43006 -38.42678  -2.20635  -2.20294  -2.19417
  Beta  occ. eigenvalues --   -2.19291  -2.19260  -2.18870  -2.18669  -1.14301
  Beta  occ. eigenvalues --   -1.14289  -1.14272  -1.13968  -1.13940  -1.13933
  Beta  occ. eigenvalues --   -1.13123  -1.13058  -1.13046  -1.12980  -1.12976
  Beta  occ. eigenvalues --   -1.12942  -1.12920  -1.12907  -1.12882  -1.12643
  Beta  occ. eigenvalues --   -1.12530  -1.12517  -1.12384  -1.12327  -1.12306
  Beta  occ. eigenvalues --   -0.17916  -0.12977  -0.12068
  Beta virt. eigenvalues --   -0.06329  -0.06133  -0.05250  -0.04645  -0.02248
  Beta virt. eigenvalues --   -0.01979  -0.01774  -0.01225  -0.00910  -0.00695
  Beta virt. eigenvalues --   -0.00532   0.00169   0.00345   0.00759   0.00810

 Mulliken charges and spin densities:
               1          2
     1  Na   0.276608  -0.003375
     2  Na   0.418512  -0.003176
     3  Na   0.045922  -0.075006
     4  Na   0.044695  -0.109460
     5  Na  -0.403089   0.447363
     6  Na   0.013197  -0.054634
     7  Na  -0.395845   0.798287
 Sum of Mulliken charges =  -0.00000   1.00000

 Dipole moment (field-independent basis, Debye):
    X=             -0.1345    Y=              0.2096    Z=              0.1313  Tot=              0.2815
 Quadrupole moment (field-independent basis, Debye-Ang):
   XX=            -49.3786   YY=            -62.0487   ZZ=            -78.3663
   XY=              0.0370   XZ=             -0.6529   YZ=             -0.2392

 Normal termination of Gaussian 16 at Thu Dec  7 14:35:19 2023.
