 Gaussian 16, Revision B.01,
 Gaussian 16:  ES64L-G16RevB.01 20-Dec-2017

 -------------------------
 #P B3LYP/6-311+g(d) force
 -------------------------

 -----
 DPGEN
 -----
 Symbolic Z-matrix:
 Charge =  0 Multiplicity = 2

                         Standard orientation:
 ---------------------------------------------------------------------
 Center     Atomic      Atomic             Coordinates (Angstroms)
 Number     Number       Type             X           Y           Z
 ---------------------------------------------------------------------
      1         11           0        3.154241   -1.776581   -0.001208
      2         11           0        2.946340    1.734710   -0.032688
      3         11           0       -0.899637    2.882716   -0.174654
      4         11           0       -0.083705   -0.135590   -1.690753
      5         11           0       -1.183758   -2.799390   -0.096440
      6         11           0       -0.301965    0.030882    2.082828
      7         11           0       -3.631514    0.063254   -0.087085
 ---------------------------------------------------------------------

 SCF Done:  E(UB3LYP) =  -1136.12727819     A.U. after   21 cycles

 The electronic state is 2-A.
 Alpha  occ. eigenvalues --  -38.45486 -38.44568 -38.44452 -38.43639 -38.43603
 Alpha  occ. eigenvalues --  -38.43493 -38.43203  -2.21236  -2.20318  -2.20216
 Alpha  occ. eigenvalues --   -2.19487  -2.19477  -2.19306  -2.19005  -1.14915
 Alpha  occ. eigenvalues --   -1.14884  -1.14877  -1.13995  -1.13981  -1.13962
 Alpha  occ. eigenvalues --   -1.13897  -1.13871  -1.13850  -1.13193  -1.13148
 Alpha  occ. eigenvalues --   -1.13140  -1.13103  -1.13100  -1.13095  -1.12983
 Alpha  occ. eigenvalues --   -1.12969  -1.12928  -1.12688  -1.12674  -1.12635
 Alpha  occ. eigenvalues --   -0.17666  -0.13008  -0.11814  -0.10275
 Alpha virt. eigenvalues --   -0.06696  -0.05624  -0.04517  -0.03098  -0.02594
 Alpha virt. eigenvalues --   -0.02435  -0.02310  -0.01456  -0.00829  -0.00653
 Alpha virt. eigenvalues --   -0.00126   0.00253   0.00631   0.00660   0.00740

  Beta  occ. eigenvalues --  -38.45485 -38.44571 -38.44452 -38.43541 -38.43539
  Beta  occ. eigenvalues --  -38.43486 -38.43197  -2.21237  -2.20325  -2.20219
  Beta  occ. eigenvalues --   -2.19373  -2.19298  -2.19293  -2.18999  -1.14896
  Beta  occ. eigenvalues --   -1.14888  -1.14879  -1.13990  -1.13988  -1.13967
  Beta  occ. eigenvalues --   -1.13886  -1.13873  -1.13855  -1.13116  -1.13069
  Beta  occ. eigenvalues --   -1.13019  -1.13018  -1.12978  -1.12968  -1.12960
  Beta  occ. eigenvalues --   -1.12936  -1.12926  -1.12682  -1.12650  -1.12634
  Beta  occ. eigenvalues --   -0.16952  -0.12888  -0.11599
  Beta virt. eigenvalues --   -0.06614  -0.06368  -0.05666  -0.04447  -0.02454
  Beta virt. eigenvalues --   -0.02209  -0.01858  -0.01421  -0.01357  -0.00882
  Beta virt. eigenvalues --   -0.00666   0.00056   0.00291   0.00710   0.00735

 Mulliken charges and spin densities:
               1          2
     1  Na   0.001481  -0.097169
     2  Na   0.015972  -0.078027
     3  Na  -0.090902  -0.134242
     4  Na   0.158322   0.648969
     5  Na  -0.005002  -0.150211
     6  Na  -0.270638   0.861831
     7  Na   0.190766  -0.051150
 Sum of Mulliken charges =  -0.00000   1.00000

 Dipole moment (field-independent basis, Debye):
    X=             -0.3082    Y=             -0.0927    Z=              0.0065  Tot=              0.3219
 Quadrupole moment (field-independent basis, Debye-Ang):
   XX=            -48.9938   YY=            -65.0824   ZZ=            -77.5800
   XY=             -0.3004   XZ=              0.4918   YZ=             -0.3722

 Normal termination of Gaussian 16 at Thu Dec  7 22:15:38 2023.
