 Gaussian 16, Revision B.01,
 Gaussian 16:  ES64L-G16RevB.01 20-Dec-2017

 -------------------------
 #P B3LYP/6-311+g(d) force
 -------------------------

 -----
 DPGEN
 -----
 Symbolic Z-matrix:
 Charge =  0 Multiplicity = 2

                         Standard orientation:
 ---------------------------------------------------------------------
 Center     Atomic      Atomic             Coordinates (Angstroms)
 Number     Number       Type             X           Y           Z
 ---------------------------------------------------------------------
      1         11           0        2.932974   -1.507100   -0.609246
      2         11           0        6.027338   -0.447314   -0.444765
      3         11           0        3.371866    2.009773   -0.427416
      4         11           0       -0.410907    1.508104    0.934219
      5         11           0       -0.415562   -1.632213    1.389582
      6         11           0       -4.710296    0.358874    0.549561
      7         11           0       -6.795413   -0.290125   -1.391935
 ---------------------------------------------------------------------

 SCF Done:  E(UB3LYP) =  -1136.11272811     A.U. after   18 cycles

 The electronic state is 2-A.
 Alpha  occ. eigenvalues --  -38.44928 -38.44863 -38.44677 -38.44375 -38.44172
 Alpha  occ. eigenvalues --  -38.43610 -38.43610  -2.20726  -2.20684  -2.20488
 Alpha  occ. eigenvalues --   -2.20168  -2.19978  -2.19433  -2.19411  -1.14420
 Alpha  occ. eigenvalues --   -1.14392  -1.14371  -1.14367  -1.14347  -1.14261
 Alpha  occ. eigenvalues --   -1.14165  -1.14147  -1.14073  -1.13860  -1.13842
 Alpha  occ. eigenvalues --   -1.13806  -1.13637  -1.13617  -1.13606  -1.13270
 Alpha  occ. eigenvalues --   -1.13095  -1.13086  -1.13050  -1.13046  -1.12943
 Alpha  occ. eigenvalues --   -0.16448  -0.13799  -0.12174  -0.11016
 Alpha virt. eigenvalues --   -0.06922  -0.05454  -0.04664  -0.03594  -0.02999
 Alpha virt. eigenvalues --   -0.02593  -0.02170  -0.01881  -0.01178  -0.00824
 Alpha virt. eigenvalues --   -0.00369  -0.00174  -0.00125   0.00211   0.00478

  Beta  occ. eigenvalues --  -38.44921 -38.44819 -38.44599 -38.44357 -38.44142
  Beta  occ. eigenvalues --  -38.43617 -38.43608  -2.20714  -2.20605  -2.20343
  Beta  occ. eigenvalues --   -2.20136  -2.19922  -2.19439  -2.19413  -1.14395
  Beta  occ. eigenvalues --   -1.14383  -1.14354  -1.14311  -1.14294  -1.14207
  Beta  occ. eigenvalues --   -1.14067  -1.14051  -1.13962  -1.13837  -1.13822
  Beta  occ. eigenvalues --   -1.13771  -1.13598  -1.13580  -1.13564  -1.13275
  Beta  occ. eigenvalues --   -1.13095  -1.13089  -1.13054  -1.13049  -1.12948
  Beta  occ. eigenvalues --   -0.15745  -0.13801  -0.12096
  Beta virt. eigenvalues --   -0.07168  -0.06632  -0.04860  -0.04403  -0.03456
  Beta virt. eigenvalues --   -0.02561  -0.02243  -0.01974  -0.01762  -0.00875
  Beta virt. eigenvalues --   -0.00610  -0.00139  -0.00041   0.00225   0.00397

 Mulliken charges and spin densities:
               1          2
     1  Na  -0.485074   0.351572
     2  Na   0.556026  -0.016624
     3  Na  -0.056622   0.289609
     4  Na  -0.093425   0.202754
     5  Na   0.128960   0.158160
     6  Na  -0.634507   0.023626
     7  Na   0.584642  -0.009097
 Sum of Mulliken charges =  -0.00000   1.00000

 Dipole moment (field-independent basis, Debye):
    X=              2.5741    Y=             -0.3707    Z=             -0.1572  Tot=              2.6054
 Quadrupole moment (field-independent basis, Debye-Ang):
   XX=            -55.6678   YY=            -70.5422   ZZ=            -69.2595
   XY=              1.4665   XZ=              1.9356   YZ=              0.9085

 Normal termination of Gaussian 16 at Tue Nov 28 23:30:11 2023.
