 Gaussian 16, Revision B.01,
 Gaussian 16:  ES64L-G16RevB.01 20-Dec-2017

 -------------------------
 #P B3LYP/6-311+g(d) force
 -------------------------

 -----
 DPGEN
 -----
 Symbolic Z-matrix:
 Charge =  0 Multiplicity = 2

                         Standard orientation:
 ---------------------------------------------------------------------
 Center     Atomic      Atomic             Coordinates (Angstroms)
 Number     Number       Type             X           Y           Z
 ---------------------------------------------------------------------
      1         11           0        0.060542   -2.397369    0.655076
      2         11           0       -1.705734    2.990382   -0.026545
      3         11           0       -2.355137    0.277238    2.248304
      4         11           0       -1.814114   -2.603806   -1.731938
      5         11           0        2.509568    2.040154   -0.837335
      6         11           0       -0.448373    0.664954   -1.267105
      7         11           0        3.753249   -0.971554    0.959543
 ---------------------------------------------------------------------

 SCF Done:  E(UB3LYP) =  -1136.11790998     A.U. after   20 cycles

 The electronic state is 2-A.
 Alpha  occ. eigenvalues --  -38.44745 -38.44297 -38.44152 -38.44104 -38.44059
 Alpha  occ. eigenvalues --  -38.43835 -38.43610  -2.20537  -2.20071  -2.19935
 Alpha  occ. eigenvalues --   -2.19906  -2.19905  -2.19675  -2.19555  -1.14195
 Alpha  occ. eigenvalues --   -1.14166  -1.14151  -1.13778  -1.13742  -1.13725
 Alpha  occ. eigenvalues --   -1.13682  -1.13620  -1.13584  -1.13576  -1.13559
 Alpha  occ. eigenvalues --   -1.13552  -1.13550  -1.13534  -1.13529  -1.13354
 Alpha  occ. eigenvalues --   -1.13334  -1.13284  -1.13223  -1.13199  -1.13161
 Alpha  occ. eigenvalues --   -0.17247  -0.12876  -0.12573  -0.11186
 Alpha virt. eigenvalues --   -0.06034  -0.05532  -0.04834  -0.03290  -0.03221
 Alpha virt. eigenvalues --   -0.02640  -0.01444  -0.01268  -0.00725  -0.00508
 Alpha virt. eigenvalues --   -0.00312   0.00232   0.00361   0.00420   0.00713

  Beta  occ. eigenvalues --  -38.44655 -38.44297 -38.44122 -38.44115 -38.44020
  Beta  occ. eigenvalues --  -38.43830 -38.43573  -2.20368  -2.20073  -2.19958
  Beta  occ. eigenvalues --   -2.19849  -2.19833  -2.19668  -2.19489  -1.14078
  Beta  occ. eigenvalues --   -1.14052  -1.14038  -1.13774  -1.13745  -1.13734
  Beta  occ. eigenvalues --   -1.13678  -1.13600  -1.13580  -1.13549  -1.13536
  Beta  occ. eigenvalues --   -1.13517  -1.13495  -1.13494  -1.13485  -1.13352
  Beta  occ. eigenvalues --   -1.13314  -1.13266  -1.13181  -1.13158  -1.13107
  Beta  occ. eigenvalues --   -0.16670  -0.12620  -0.12183
  Beta virt. eigenvalues --   -0.07728  -0.05523  -0.05110  -0.04680  -0.02878
  Beta virt. eigenvalues --   -0.02804  -0.02169  -0.01235  -0.01148  -0.00511
  Beta virt. eigenvalues --   -0.00239  -0.00175   0.00348   0.00455   0.00600

 Mulliken charges and spin densities:
               1          2
     1  Na  -0.342149   0.208358
     2  Na   0.101572  -0.009277
     3  Na  -0.220138   0.429647
     4  Na   0.598834   0.104601
     5  Na   0.083572  -0.042143
     6  Na  -0.078076   0.177957
     7  Na  -0.143614   0.130856
 Sum of Mulliken charges =  -0.00000   1.00000

 Dipole moment (field-independent basis, Debye):
    X=             -0.5642    Y=              0.2041    Z=              0.0961  Tot=              0.6076
 Quadrupole moment (field-independent basis, Debye-Ang):
   XX=            -64.1147   YY=            -62.7718   ZZ=            -68.5748
   XY=              1.1223   XZ=              1.6410   YZ=             -0.5426

 Normal termination of Gaussian 16 at Mon Dec  4 00:05:52 2023.
