 Gaussian 16, Revision B.01,
 Gaussian 16:  ES64L-G16RevB.01 20-Dec-2017

 -------------------------
 #P B3LYP/6-311+g(d) force
 -------------------------

 -----
 DPGEN
 -----
 Symbolic Z-matrix:
 Charge =  0 Multiplicity = 2

                         Standard orientation:
 ---------------------------------------------------------------------
 Center     Atomic      Atomic             Coordinates (Angstroms)
 Number     Number       Type             X           Y           Z
 ---------------------------------------------------------------------
      1         11           0       -1.434098   -2.881098   -0.105637
      2         11           0        0.073408    0.195516    2.016183
      3         11           0       -3.074579   -0.048508    0.116693
      4         11           0        2.911784   -1.843971   -0.006459
      5         11           0        2.462919    1.146419   -0.272090
      6         11           0       -0.513663    3.282126   -0.041950
      7         11           0       -0.425771    0.149516   -1.706740
 ---------------------------------------------------------------------

 SCF Done:  E(UB3LYP) =  -1136.13294751     A.U. after   19 cycles

 The electronic state is 2-A.
 Alpha  occ. eigenvalues --  -38.44235 -38.44072 -38.43870 -38.43638 -38.43591
 Alpha  occ. eigenvalues --  -38.43490 -38.43414  -2.20089  -2.19879  -2.19680
 Alpha  occ. eigenvalues --   -2.19509  -2.19401  -2.19393  -2.19346  -1.13790
 Alpha  occ. eigenvalues --   -1.13755  -1.13721  -1.13549  -1.13533  -1.13515
 Alpha  occ. eigenvalues --   -1.13417  -1.13331  -1.13315  -1.13189  -1.13149
 Alpha  occ. eigenvalues --   -1.13121  -1.13100  -1.13064  -1.13058  -1.13053
 Alpha  occ. eigenvalues --   -1.13044  -1.13018  -1.13000  -1.12986  -1.12943
 Alpha  occ. eigenvalues --   -0.18316  -0.13239  -0.12178  -0.10572
 Alpha virt. eigenvalues --   -0.05685  -0.05308  -0.04964  -0.03309  -0.02697
 Alpha virt. eigenvalues --   -0.02518  -0.01484  -0.01463  -0.00665  -0.00298
 Alpha virt. eigenvalues --   -0.00030   0.00344   0.00734   0.00837   0.00842

  Beta  occ. eigenvalues --  -38.44228 -38.44071 -38.43872 -38.43590 -38.43544
  Beta  occ. eigenvalues --  -38.43480 -38.43347  -2.20081  -2.19879  -2.19687
  Beta  occ. eigenvalues --   -2.19394  -2.19386  -2.19336  -2.19225  -1.13782
  Beta  occ. eigenvalues --   -1.13733  -1.13712  -1.13540  -1.13525  -1.13517
  Beta  occ. eigenvalues --   -1.13423  -1.13323  -1.13320  -1.13104  -1.13058
  Beta  occ. eigenvalues --   -1.13057  -1.13051  -1.13040  -1.13038  -1.12999
  Beta  occ. eigenvalues --   -1.12994  -1.12991  -1.12938  -1.12906  -1.12858
  Beta  occ. eigenvalues --   -0.17580  -0.13027  -0.12004
  Beta virt. eigenvalues --   -0.06658  -0.05664  -0.05211  -0.04957  -0.02497
  Beta virt. eigenvalues --   -0.02025  -0.01482  -0.01406  -0.01363  -0.00720
  Beta virt. eigenvalues --   -0.00326   0.00127   0.00372   0.00752   0.00861

 Mulliken charges and spin densities:
               1          2
     1  Na  -0.071124  -0.095209
     2  Na  -0.375294   0.763319
     3  Na   0.225614  -0.061785
     4  Na  -0.136187  -0.108167
     5  Na   0.199128   0.031733
     6  Na   0.178648  -0.076717
     7  Na  -0.020785   0.546826
 Sum of Mulliken charges =  -0.00000   1.00000

 Dipole moment (field-independent basis, Debye):
    X=             -0.4798    Y=             -0.2358    Z=              0.0986  Tot=              0.5437
 Quadrupole moment (field-independent basis, Debye-Ang):
   XX=            -60.0054   YY=            -58.2577   ZZ=            -75.5707
   XY=             -1.4683   XZ=             -0.8582   YZ=             -0.0716

 Normal termination of Gaussian 16 at Thu Dec  7 01:41:32 2023.
