 Gaussian 16, Revision B.01,
 Gaussian 16:  ES64L-G16RevB.01 20-Dec-2017

 -------------------------
 #P B3LYP/6-311+g(d) force
 -------------------------

 -----
 DPGEN
 -----
 Symbolic Z-matrix:
 Charge =  0 Multiplicity = 2

                         Standard orientation:
 ---------------------------------------------------------------------
 Center     Atomic      Atomic             Coordinates (Angstroms)
 Number     Number       Type             X           Y           Z
 ---------------------------------------------------------------------
      1         11           0        1.957953   -2.864926   -0.371897
      2         11           0       -3.586792   -0.167698    0.436148
      3         11           0        1.758482    3.041390   -0.434527
      4         11           0       -1.722040    2.863747   -0.165915
      5         11           0       -1.854699   -2.622631   -0.342072
      6         11           0        3.423316   -0.078570    0.622319
      7         11           0        0.023780   -0.171311    0.255944
 ---------------------------------------------------------------------

 SCF Done:  E(UB3LYP) =  -1136.12603828     A.U. after   34 cycles

 The electronic state is 2-A.
 Alpha  occ. eigenvalues --  -38.44602 -38.44391 -38.43922 -38.43873 -38.43794
 Alpha  occ. eigenvalues --  -38.43360 -38.43089  -2.20392  -2.20266  -2.19749
 Alpha  occ. eigenvalues --   -2.19742  -2.19719  -2.19241  -2.18960  -1.14080
 Alpha  occ. eigenvalues --   -1.14056  -1.14028  -1.13986  -1.13932  -1.13901
 Alpha  occ. eigenvalues --   -1.13472  -1.13436  -1.13416  -1.13401  -1.13393
 Alpha  occ. eigenvalues --   -1.13385  -1.13377  -1.13360  -1.13325  -1.12905
 Alpha  occ. eigenvalues --   -1.12886  -1.12861  -1.12618  -1.12599  -1.12590
 Alpha  occ. eigenvalues --   -0.17573  -0.13954  -0.13436  -0.09395
 Alpha virt. eigenvalues --   -0.06792  -0.05711  -0.04320  -0.03228  -0.02629
 Alpha virt. eigenvalues --   -0.02228  -0.02042  -0.01607  -0.01292  -0.00236
 Alpha virt. eigenvalues --    0.00094   0.00361   0.00424   0.00669   0.00730

  Beta  occ. eigenvalues --  -38.44595 -38.44375 -38.43890 -38.43847 -38.43801
  Beta  occ. eigenvalues --  -38.43308 -38.43029  -2.20386  -2.20245  -2.19754
  Beta  occ. eigenvalues --   -2.19693  -2.19673  -2.19145  -2.18848  -1.14082
  Beta  occ. eigenvalues --   -1.14058  -1.13982  -1.13978  -1.13925  -1.13825
  Beta  occ. eigenvalues --   -1.13471  -1.13428  -1.13411  -1.13379  -1.13367
  Beta  occ. eigenvalues --   -1.13357  -1.13324  -1.13324  -1.13294  -1.12840
  Beta  occ. eigenvalues --   -1.12820  -1.12796  -1.12542  -1.12527  -1.12513
  Beta  occ. eigenvalues --   -0.17275  -0.13381  -0.12746
  Beta virt. eigenvalues --   -0.06850  -0.06118  -0.05453  -0.04189  -0.02657
  Beta virt. eigenvalues --   -0.02096  -0.02054  -0.01790  -0.01361  -0.01091
  Beta virt. eigenvalues --   -0.00072   0.00364   0.00453   0.00576   0.00769

 Mulliken charges and spin densities:
               1          2
     1  Na   0.909124   0.148176
     2  Na   1.154610   0.391823
     3  Na   0.697860   0.032864
     4  Na   0.551836   0.195765
     5  Na   0.852348   0.173682
     6  Na   1.319014   0.390675
     7  Na  -5.484792  -0.332986
 Sum of Mulliken charges =  -0.00000   1.00000

 Dipole moment (field-independent basis, Debye):
    X=             -0.1365    Y=              0.0183    Z=             -0.4619  Tot=              0.4820
 Quadrupole moment (field-independent basis, Debye-Ang):
   XX=            -65.1263   YY=            -60.3426   ZZ=            -71.9845
   XY=             -1.7804   XZ=             -1.2385   YZ=              0.3004

 Normal termination of Gaussian 16 at Wed Nov 29 17:10:44 2023.
