 Gaussian 16, Revision B.01,
 Gaussian 16:  ES64L-G16RevB.01 20-Dec-2017

 -------------------------
 #P B3LYP/6-311+g(d) force
 -------------------------

 -----
 DPGEN
 -----
 Symbolic Z-matrix:
 Charge =  0 Multiplicity = 2

                         Standard orientation:
 ---------------------------------------------------------------------
 Center     Atomic      Atomic             Coordinates (Angstroms)
 Number     Number       Type             X           Y           Z
 ---------------------------------------------------------------------
      1         11           0        2.862439   -2.050520    0.377106
      2         11           0        0.228296   -1.302825   -0.796699
      3         11           0        0.476622    0.887833    1.548767
      4         11           0       -3.353495   -1.009907   -1.316350
      5         11           0        3.224623    1.228396   -0.568499
      6         11           0       -2.747051    0.024521    1.797230
      7         11           0       -0.691434    2.222503   -1.041556
 ---------------------------------------------------------------------

 SCF Done:  E(UB3LYP) =  -1136.12073794     A.U. after   24 cycles

 The electronic state is 2-A.
 Alpha  occ. eigenvalues --  -38.45359 -38.44420 -38.44140 -38.43879 -38.43371
 Alpha  occ. eigenvalues --  -38.43298 -38.43261  -2.21160  -2.20263  -2.19951
 Alpha  occ. eigenvalues --   -2.19802  -2.19225  -2.19213  -2.19167  -1.14853
 Alpha  occ. eigenvalues --   -1.14808  -1.14777  -1.13938  -1.13902  -1.13899
 Alpha  occ. eigenvalues --   -1.13615  -1.13599  -1.13584  -1.13537  -1.13487
 Alpha  occ. eigenvalues --   -1.13425  -1.12992  -1.12907  -1.12889  -1.12846
 Alpha  occ. eigenvalues --   -1.12844  -1.12820  -1.12808  -1.12795  -1.12789
 Alpha  occ. eigenvalues --   -0.18355  -0.14054  -0.11260  -0.10947
 Alpha virt. eigenvalues --   -0.06922  -0.05087  -0.04683  -0.03147  -0.02774
 Alpha virt. eigenvalues --   -0.02496  -0.02126  -0.00978  -0.00962  -0.00265
 Alpha virt. eigenvalues --    0.00119   0.00217   0.00363   0.00563   0.00780

  Beta  occ. eigenvalues --  -38.45351 -38.44366 -38.44111 -38.43860 -38.43344
  Beta  occ. eigenvalues --  -38.43297 -38.43217  -2.21146  -2.20165  -2.19897
  Beta  occ. eigenvalues --   -2.19771  -2.19168  -2.19166  -2.19145  -1.14839
  Beta  occ. eigenvalues --   -1.14798  -1.14768  -1.13856  -1.13840  -1.13828
  Beta  occ. eigenvalues --   -1.13572  -1.13560  -1.13547  -1.13500  -1.13458
  Beta  occ. eigenvalues --   -1.13406  -1.12955  -1.12861  -1.12845  -1.12841
  Beta  occ. eigenvalues --   -1.12803  -1.12796  -1.12786  -1.12769  -1.12731
  Beta  occ. eigenvalues --   -0.17738  -0.13794  -0.11021
  Beta virt. eigenvalues --   -0.07140  -0.06791  -0.04917  -0.04105  -0.02980
  Beta virt. eigenvalues --   -0.02505  -0.01982  -0.01464  -0.00880  -0.00502
  Beta virt. eigenvalues --   -0.00206   0.00144   0.00257   0.00453   0.00717

 Mulliken charges and spin densities:
               1          2
     1  Na   1.022663  -0.139535
     2  Na  -1.726080   0.261841
     3  Na   0.020726   0.344244
     4  Na   0.513723   0.161019
     5  Na   0.572542   0.062184
     6  Na  -0.057880   0.037986
     7  Na  -0.345694   0.272261
 Sum of Mulliken charges =  -0.00000   1.00000

 Dipole moment (field-independent basis, Debye):
    X=              0.4698    Y=              0.6458    Z=             -0.1731  Tot=              0.8172
 Quadrupole moment (field-independent basis, Debye-Ang):
   XX=            -47.9963   YY=            -75.7473   ZZ=            -69.6415
   XY=              2.0035   XZ=             -0.3403   YZ=             -2.3937

 Normal termination of Gaussian 16 at Tue Dec  5 20:04:09 2023.
