 Gaussian 16, Revision B.01,
 Gaussian 16:  ES64L-G16RevB.01 20-Dec-2017

 -------------------------
 #P B3LYP/6-311+g(d) force
 -------------------------

 -----
 DPGEN
 -----
 Symbolic Z-matrix:
 Charge =  0 Multiplicity = 2

                         Standard orientation:
 ---------------------------------------------------------------------
 Center     Atomic      Atomic             Coordinates (Angstroms)
 Number     Number       Type             X           Y           Z
 ---------------------------------------------------------------------
      1         11           0        2.704996   -1.527135    0.025091
      2         11           0        2.300462    2.163082   -0.179915
      3         11           0       -3.157418   -0.311611    0.477942
      4         11           0       -0.902130   -2.822969   -0.316066
      5         11           0       -1.690592    2.540010   -0.015979
      6         11           0        0.802902   -0.097609    1.792378
      7         11           0       -0.058221    0.056232   -1.783451
 ---------------------------------------------------------------------

 SCF Done:  E(UB3LYP) =  -1136.13459333     A.U. after   19 cycles

 The electronic state is 2-A.
 Alpha  occ. eigenvalues --  -38.44239 -38.44024 -38.43944 -38.43611 -38.43607
 Alpha  occ. eigenvalues --  -38.43361 -38.43191  -2.20104  -2.19848  -2.19775
 Alpha  occ. eigenvalues --   -2.19543  -2.19437  -2.19196  -2.19126  -1.13866
 Alpha  occ. eigenvalues --   -1.13753  -1.13711  -1.13533  -1.13516  -1.13476
 Alpha  occ. eigenvalues --   -1.13453  -1.13437  -1.13422  -1.13208  -1.13176
 Alpha  occ. eigenvalues --   -1.13147  -1.13117  -1.13101  -1.13070  -1.12901
 Alpha  occ. eigenvalues --   -1.12858  -1.12828  -1.12798  -1.12751  -1.12738
 Alpha  occ. eigenvalues --   -0.18490  -0.13297  -0.12319  -0.10535
 Alpha virt. eigenvalues --   -0.05737  -0.05518  -0.04602  -0.03359  -0.02807
 Alpha virt. eigenvalues --   -0.02337  -0.01527  -0.01270  -0.00521  -0.00401
 Alpha virt. eigenvalues --    0.00001   0.00351   0.00809   0.00816   0.00886

  Beta  occ. eigenvalues --  -38.44231 -38.44018 -38.43934 -38.43609 -38.43539
  Beta  occ. eigenvalues --  -38.43354 -38.43110  -2.20094  -2.19840  -2.19757
  Beta  occ. eigenvalues --   -2.19437  -2.19418  -2.19186  -2.18978  -1.13845
  Beta  occ. eigenvalues --   -1.13728  -1.13705  -1.13522  -1.13498  -1.13468
  Beta  occ. eigenvalues --   -1.13443  -1.13417  -1.13406  -1.13127  -1.13115
  Beta  occ. eigenvalues --   -1.13091  -1.13080  -1.13067  -1.13060  -1.12879
  Beta  occ. eigenvalues --   -1.12835  -1.12824  -1.12702  -1.12649  -1.12631
  Beta  occ. eigenvalues --   -0.17798  -0.13035  -0.12072
  Beta virt. eigenvalues --   -0.06740  -0.05716  -0.05380  -0.04577  -0.02593
  Beta virt. eigenvalues --   -0.02070  -0.01441  -0.01356  -0.01205  -0.00544
  Beta virt. eigenvalues --   -0.00428   0.00137   0.00395   0.00813   0.00876

 Mulliken charges and spin densities:
               1          2
     1  Na   0.329894  -0.114647
     2  Na   0.009378  -0.164242
     3  Na  -0.108508   0.042563
     4  Na   0.034715  -0.033087
     5  Na  -0.023633  -0.071892
     6  Na  -0.210720   0.690191
     7  Na  -0.031125   0.651114
 Sum of Mulliken charges =  -0.00000   1.00000

 Dipole moment (field-independent basis, Debye):
    X=              0.3727    Y=              0.0656    Z=              0.0076  Tot=              0.3785
 Quadrupole moment (field-independent basis, Debye-Ang):
   XX=            -56.5839   YY=            -62.0930   ZZ=            -75.0730
   XY=              0.6021   XZ=             -2.1841   YZ=              0.2489

 Normal termination of Gaussian 16 at Thu Dec  7 01:45:34 2023.
