 Gaussian 16, Revision B.01,
 Gaussian 16:  ES64L-G16RevB.01 20-Dec-2017

 -------------------------
 #P B3LYP/6-311+g(d) force
 -------------------------

 -----
 DPGEN
 -----
 Symbolic Z-matrix:
 Charge =  0 Multiplicity = 2

                         Standard orientation:
 ---------------------------------------------------------------------
 Center     Atomic      Atomic             Coordinates (Angstroms)
 Number     Number       Type             X           Y           Z
 ---------------------------------------------------------------------
      1         11           0        2.041529   -2.015589    0.022768
      2         11           0        0.541292    0.202413   -1.467946
      3         11           0       -1.241902   -2.773647   -0.556482
      4         11           0       -2.907352    0.101605    0.303667
      5         11           0        2.936479    1.548301    0.195115
      6         11           0       -0.125252   -0.030884    1.998761
      7         11           0       -1.244793    2.967801   -0.495883
 ---------------------------------------------------------------------

 SCF Done:  E(UB3LYP) =  -1136.13512776     A.U. after   19 cycles

 The electronic state is 2-A.
 Alpha  occ. eigenvalues --  -38.44204 -38.43831 -38.43782 -38.43614 -38.43547
 Alpha  occ. eigenvalues --  -38.43385 -38.43056  -2.20014  -2.19672  -2.19640
 Alpha  occ. eigenvalues --   -2.19481  -2.19451  -2.19231  -2.19057  -1.13704
 Alpha  occ. eigenvalues --   -1.13669  -1.13648  -1.13407  -1.13340  -1.13320
 Alpha  occ. eigenvalues --   -1.13294  -1.13285  -1.13276  -1.13209  -1.13144
 Alpha  occ. eigenvalues --   -1.13113  -1.13107  -1.13066  -1.13052  -1.12902
 Alpha  occ. eigenvalues --   -1.12881  -1.12874  -1.12743  -1.12693  -1.12676
 Alpha  occ. eigenvalues --   -0.18612  -0.13036  -0.12497  -0.10614
 Alpha virt. eigenvalues --   -0.05757  -0.05119  -0.04823  -0.03184  -0.02843
 Alpha virt. eigenvalues --   -0.02337  -0.01541  -0.01317  -0.00447  -0.00290
 Alpha virt. eigenvalues --    0.00014   0.00347   0.00792   0.00839   0.00897

  Beta  occ. eigenvalues --  -38.44202 -38.43820 -38.43774 -38.43606 -38.43452
  Beta  occ. eigenvalues --  -38.43374 -38.43005  -2.20013  -2.19662  -2.19621
  Beta  occ. eigenvalues --   -2.19471  -2.19277  -2.19213  -2.18965  -1.13698
  Beta  occ. eigenvalues --   -1.13662  -1.13645  -1.13397  -1.13313  -1.13301
  Beta  occ. eigenvalues --   -1.13276  -1.13273  -1.13264  -1.13174  -1.13125
  Beta  occ. eigenvalues --   -1.13100  -1.13003  -1.12950  -1.12933  -1.12885
  Beta  occ. eigenvalues --   -1.12871  -1.12849  -1.12675  -1.12629  -1.12606
  Beta  occ. eigenvalues --   -0.17908  -0.12811  -0.12225
  Beta virt. eigenvalues --   -0.06764  -0.05725  -0.05027  -0.04749  -0.02407
  Beta virt. eigenvalues --   -0.02169  -0.01475  -0.01335  -0.01203  -0.00456
  Beta virt. eigenvalues --   -0.00313   0.00146   0.00383   0.00801   0.00881

 Mulliken charges and spin densities:
               1          2
     1  Na   0.358451   0.093760
     2  Na  -0.293935   0.270077
     3  Na  -0.059640   0.036124
     4  Na   0.259829   0.095948
     5  Na   0.065573  -0.027350
     6  Na  -0.276718   0.577893
     7  Na  -0.053560  -0.046451
 Sum of Mulliken charges =  -0.00000   1.00000

 Dipole moment (field-independent basis, Debye):
    X=              0.3550    Y=              0.2553    Z=              0.1792  Tot=              0.4726
 Quadrupole moment (field-independent basis, Debye-Ang):
   XX=            -57.8004   YY=            -59.9902   ZZ=            -75.0086
   XY=              1.1245   XZ=              1.6418   YZ=              0.4873

 Normal termination of Gaussian 16 at Tue Dec  5 17:18:22 2023.
