 Gaussian 16, Revision B.01,
 Gaussian 16:  ES64L-G16RevB.01 20-Dec-2017

 -------------------------
 #P B3LYP/6-311+g(d) force
 -------------------------

 -----
 DPGEN
 -----
 Symbolic Z-matrix:
 Charge =  0 Multiplicity = 2

                         Standard orientation:
 ---------------------------------------------------------------------
 Center     Atomic      Atomic             Coordinates (Angstroms)
 Number     Number       Type             X           Y           Z
 ---------------------------------------------------------------------
      1         11           0        3.156107    1.413936   -1.057836
      2         11           0        0.878879   -2.301461    0.526195
      3         11           0       -2.177897    0.708246    1.952390
      4         11           0       -2.297358   -1.143267   -1.306191
      5         11           0        4.199936   -1.753700    0.334060
      6         11           0        0.980430    3.220560    0.104531
      7         11           0       -4.740097   -0.144314   -0.553149
 ---------------------------------------------------------------------

 SCF Done:  E(UB3LYP) =  -1136.10380359     A.U. after   23 cycles

 The electronic state is 2-A.
 Alpha  occ. eigenvalues --  -38.45583 -38.45298 -38.44934 -38.44527 -38.43917
 Alpha  occ. eigenvalues --  -38.43524 -38.43242  -2.21462  -2.21079  -2.20829
 Alpha  occ. eigenvalues --   -2.20300  -2.19703  -2.19348  -2.19025  -1.15310
 Alpha  occ. eigenvalues --   -1.15098  -1.15068  -1.14737  -1.14726  -1.14695
 Alpha  occ. eigenvalues --   -1.14474  -1.14437  -1.14410  -1.13975  -1.13961
 Alpha  occ. eigenvalues --   -1.13953  -1.13385  -1.13363  -1.13317  -1.13055
 Alpha  occ. eigenvalues --   -1.13017  -1.12975  -1.12693  -1.12690  -1.12661
 Alpha  occ. eigenvalues --   -0.16781  -0.14307  -0.11584  -0.10913
 Alpha virt. eigenvalues --   -0.07682  -0.05148  -0.04528  -0.03696  -0.03181
 Alpha virt. eigenvalues --   -0.02850  -0.01956  -0.01468  -0.01195  -0.00782
 Alpha virt. eigenvalues --   -0.00374  -0.00137   0.00219   0.00291   0.00510

  Beta  occ. eigenvalues --  -38.45553 -38.45225 -38.44871 -38.44539 -38.43879
  Beta  occ. eigenvalues --  -38.43504 -38.43264  -2.21414  -2.20942  -2.20717
  Beta  occ. eigenvalues --   -2.20322  -2.19633  -2.19308  -2.19064  -1.15246
  Beta  occ. eigenvalues --   -1.15072  -1.15009  -1.14636  -1.14632  -1.14606
  Beta  occ. eigenvalues --   -1.14392  -1.14362  -1.14330  -1.13990  -1.13971
  Beta  occ. eigenvalues --   -1.13966  -1.13338  -1.13314  -1.13266  -1.13042
  Beta  occ. eigenvalues --   -1.12988  -1.12951  -1.12720  -1.12715  -1.12676
  Beta  occ. eigenvalues --   -0.16035  -0.14014  -0.11618
  Beta virt. eigenvalues --   -0.07404  -0.07143  -0.04724  -0.04157  -0.03505
  Beta virt. eigenvalues --   -0.02952  -0.02354  -0.01610  -0.01232  -0.00732
  Beta virt. eigenvalues --   -0.00609  -0.00380   0.00047   0.00368   0.00494

 Mulliken charges and spin densities:
               1          2
     1  Na  -0.216686   0.142704
     2  Na  -0.307120   0.167840
     3  Na  -0.264621   0.420035
     4  Na  -0.269316   0.252964
     5  Na   0.489782  -0.021149
     6  Na  -0.016984  -0.082847
     7  Na   0.584944   0.120453
 Sum of Mulliken charges =  -0.00000   1.00000

 Dipole moment (field-independent basis, Debye):
    X=             -1.3657    Y=             -0.6598    Z=              0.4257  Tot=              1.5753
 Quadrupole moment (field-independent basis, Debye-Ang):
   XX=            -55.0696   YY=            -76.6411   ZZ=            -69.0852
   XY=             -6.8517   XZ=             -3.7121   YZ=              1.8710

 Normal termination of Gaussian 16 at Sun Dec  3 20:26:45 2023.
