 Gaussian 16, Revision B.01,
 Gaussian 16:  ES64L-G16RevB.01 20-Dec-2017

 -------------------------
 #P B3LYP/6-311+g(d) force
 -------------------------

 -----
 DPGEN
 -----
 Symbolic Z-matrix:
 Charge =  0 Multiplicity = 2

                         Standard orientation:
 ---------------------------------------------------------------------
 Center     Atomic      Atomic             Coordinates (Angstroms)
 Number     Number       Type             X           Y           Z
 ---------------------------------------------------------------------
      1         11           0       -3.902197   -1.846250    0.172081
      2         11           0       -0.159800   -1.438089   -0.803889
      3         11           0       -1.718686    0.341698    2.154976
      4         11           0        0.374646    2.510496   -0.127245
      5         11           0        2.764991   -1.097354   -0.604731
      6         11           0       -2.930685    1.561356   -1.220220
      7         11           0        5.571730   -0.031857    0.429028
 ---------------------------------------------------------------------

 SCF Done:  E(UB3LYP) =  -1136.10739959     A.U. after   25 cycles

 The electronic state is 2-A.
 Alpha  occ. eigenvalues --  -38.47272 -38.45835 -38.43938 -38.43648 -38.43264
 Alpha  occ. eigenvalues --  -38.43232 -38.42837  -2.23029  -2.21615  -2.19764
 Alpha  occ. eigenvalues --   -2.19543  -2.19060  -2.19020  -2.18713  -1.16728
 Alpha  occ. eigenvalues --   -1.16679  -1.16638  -1.15316  -1.15257  -1.15221
 Alpha  occ. eigenvalues --   -1.13407  -1.13388  -1.13386  -1.13246  -1.13189
 Alpha  occ. eigenvalues --   -1.13160  -1.12738  -1.12717  -1.12709  -1.12699
 Alpha  occ. eigenvalues --   -1.12683  -1.12644  -1.12419  -1.12365  -1.12347
 Alpha  occ. eigenvalues --   -0.17347  -0.13836  -0.11308  -0.10869
 Alpha virt. eigenvalues --   -0.07953  -0.05093  -0.04477  -0.03170  -0.02984
 Alpha virt. eigenvalues --   -0.02409  -0.02313  -0.01621  -0.01398  -0.00953
 Alpha virt. eigenvalues --   -0.00502   0.00058   0.00140   0.00448   0.00598

  Beta  occ. eigenvalues --  -38.47271 -38.45813 -38.43829 -38.43570 -38.43259
  Beta  occ. eigenvalues --  -38.43232 -38.42827  -2.23029  -2.21576  -2.19563
  Beta  occ. eigenvalues --   -2.19402  -2.19051  -2.19021  -2.18708  -1.16716
  Beta  occ. eigenvalues --   -1.16679  -1.16641  -1.15285  -1.15232  -1.15191
  Beta  occ. eigenvalues --   -1.13275  -1.13250  -1.13249  -1.13145  -1.13092
  Beta  occ. eigenvalues --   -1.13063  -1.12734  -1.12711  -1.12703  -1.12695
  Beta  occ. eigenvalues --   -1.12680  -1.12646  -1.12373  -1.12355  -1.12327
  Beta  occ. eigenvalues --   -0.16901  -0.12939  -0.11151
  Beta virt. eigenvalues --   -0.07834  -0.07309  -0.04981  -0.03930  -0.02873
  Beta virt. eigenvalues --   -0.02749  -0.02316  -0.02144  -0.01204  -0.00929
  Beta virt. eigenvalues --   -0.00597  -0.00272   0.00186   0.00258   0.00503

 Mulliken charges and spin densities:
               1          2
     1  Na   0.363263   0.146009
     2  Na  -0.791417   0.161411
     3  Na   0.203656   0.045235
     4  Na  -0.274700  -0.069294
     5  Na  -0.274053   0.037443
     6  Na   0.459535   0.187526
     7  Na   0.313716   0.491669
 Sum of Mulliken charges =  -0.00000   1.00000

 Dipole moment (field-independent basis, Debye):
    X=             -2.2576    Y=              1.1487    Z=              0.9573  Tot=              2.7079
 Quadrupole moment (field-independent basis, Debye-Ang):
   XX=            -68.5416   YY=            -77.8503   ZZ=            -58.6197
   XY=              2.0245   XZ=              4.3590   YZ=             -0.5838

 Normal termination of Gaussian 16 at Thu Dec  7 02:37:52 2023.
