 Gaussian 16, Revision B.01,
 Gaussian 16:  ES64L-G16RevB.01 20-Dec-2017

 -------------------------
 #P B3LYP/6-311+g(d) force
 -------------------------

 -----
 DPGEN
 -----
 Symbolic Z-matrix:
 Charge =  0 Multiplicity = 2

                         Standard orientation:
 ---------------------------------------------------------------------
 Center     Atomic      Atomic             Coordinates (Angstroms)
 Number     Number       Type             X           Y           Z
 ---------------------------------------------------------------------
      1         11           0        0.007372   -0.041053   -1.450410
      2         11           0        0.572550    0.841844    1.580825
      3         11           0       -0.765130    2.807484   -0.447366
      4         11           0       -2.235447    0.352516    0.611134
      5         11           0       -1.640207   -2.360019   -0.468224
      6         11           0        1.198973   -1.903126    0.683504
      7         11           0        2.861889    0.302353   -0.509464
 ---------------------------------------------------------------------

 SCF Done:  E(UB3LYP) =  -1136.11432330     A.U. after   18 cycles

 The electronic state is 2-A.
 Alpha  occ. eigenvalues --  -38.43683 -38.43591 -38.43424 -38.43423 -38.43318
 Alpha  occ. eigenvalues --  -38.43278 -38.43036  -2.19645  -2.19538  -2.19487
 Alpha  occ. eigenvalues --   -2.19485  -2.19407  -2.19291  -2.19256  -1.13465
 Alpha  occ. eigenvalues --   -1.13381  -1.13337  -1.13300  -1.13291  -1.13245
 Alpha  occ. eigenvalues --   -1.13231  -1.13203  -1.13189  -1.13172  -1.13076
 Alpha  occ. eigenvalues --   -1.13068  -1.13029  -1.13008  -1.12981  -1.12946
 Alpha  occ. eigenvalues --   -1.12897  -1.12882  -1.12875  -1.12843  -1.12795
 Alpha  occ. eigenvalues --   -0.20387  -0.13375  -0.13060  -0.11319
 Alpha virt. eigenvalues --   -0.04999  -0.04858  -0.04311  -0.03359  -0.03028
 Alpha virt. eigenvalues --   -0.02374  -0.01090  -0.01058  -0.00117   0.00369
 Alpha virt. eigenvalues --    0.00467   0.00593   0.00929   0.00964   0.01050

  Beta  occ. eigenvalues --  -38.43670 -38.43581 -38.43404 -38.43401 -38.43311
  Beta  occ. eigenvalues --  -38.43207 -38.42964  -2.19625  -2.19524  -2.19455
  Beta  occ. eigenvalues --   -2.19449  -2.19281  -2.19279  -2.19130  -1.13445
  Beta  occ. eigenvalues --   -1.13357  -1.13292  -1.13277  -1.13265  -1.13214
  Beta  occ. eigenvalues --   -1.13186  -1.13177  -1.13152  -1.13123  -1.13048
  Beta  occ. eigenvalues --   -1.13043  -1.12972  -1.12961  -1.12891  -1.12881
  Beta  occ. eigenvalues --   -1.12860  -1.12852  -1.12809  -1.12758  -1.12719
  Beta  occ. eigenvalues --   -0.19612  -0.13088  -0.12813
  Beta virt. eigenvalues --   -0.07179  -0.04971  -0.04821  -0.04288  -0.02515
  Beta virt. eigenvalues --   -0.02310  -0.01281  -0.01010  -0.01006   0.00079
  Beta virt. eigenvalues --    0.00411   0.00432   0.00612   0.00938   0.00969

 Mulliken charges and spin densities:
               1          2
     1  Na  -0.890828   0.287892
     2  Na  -0.038348   0.113646
     3  Na   0.181060   0.050436
     4  Na  -0.109095   0.264811
     5  Na   0.722789  -0.060135
     6  Na  -0.043629   0.289328
     7  Na   0.178051   0.054021
 Sum of Mulliken charges =  -0.00000   1.00000

 Dipole moment (field-independent basis, Debye):
    X=              0.1964    Y=              0.2789    Z=             -0.0388  Tot=              0.3433
 Quadrupole moment (field-independent basis, Debye-Ang):
   XX=            -61.4573   YY=            -60.9076   ZZ=            -71.6337
   XY=              0.7423   XZ=             -0.9056   YZ=             -1.3932

 Normal termination of Gaussian 16 at Thu Dec  7 14:31:01 2023.
