 Gaussian 16, Revision B.01,
 Gaussian 16:  ES64L-G16RevB.01 20-Dec-2017

 -------------------------
 #P B3LYP/6-311+g(d) force
 -------------------------

 -----
 DPGEN
 -----
 Symbolic Z-matrix:
 Charge =  0 Multiplicity = 2

                         Standard orientation:
 ---------------------------------------------------------------------
 Center     Atomic      Atomic             Coordinates (Angstroms)
 Number     Number       Type             X           Y           Z
 ---------------------------------------------------------------------
      1         11           0        1.281003    1.752681    1.543124
      2         11           0       -0.013880    2.182250   -1.381135
      3         11           0        3.942214   -1.927194    0.325822
      4         11           0        2.082848   -0.048670   -0.868575
      5         11           0       -0.839453   -0.249863    0.295953
      6         11           0       -2.895393   -1.217747   -1.391532
      7         11           0       -3.557340   -0.491457    1.476344
 ---------------------------------------------------------------------

 SCF Done:  E(UB3LYP) =  -1136.10190775     A.U. after   24 cycles

 The electronic state is 2-A.
 Alpha  occ. eigenvalues --  -38.44975 -38.44887 -38.44491 -38.43981 -38.43504
 Alpha  occ. eigenvalues --  -38.42911 -38.42575  -2.20894  -2.20786  -2.20419
 Alpha  occ. eigenvalues --   -2.20143  -2.19458  -2.18969  -2.18404  -1.14714
 Alpha  occ. eigenvalues --   -1.14582  -1.14504  -1.14485  -1.14404  -1.14347
 Alpha  occ. eigenvalues --   -1.14130  -1.14073  -1.14014  -1.13846  -1.13790
 Alpha  occ. eigenvalues --   -1.13758  -1.13160  -1.13115  -1.13060  -1.12663
 Alpha  occ. eigenvalues --   -1.12653  -1.12615  -1.12066  -1.12040  -1.12031
 Alpha  occ. eigenvalues --   -0.18938  -0.14675  -0.11236  -0.11054
 Alpha virt. eigenvalues --   -0.06175  -0.05676  -0.04755  -0.03060  -0.02621
 Alpha virt. eigenvalues --   -0.02082  -0.01937  -0.01106  -0.00977  -0.00170
 Alpha virt. eigenvalues --    0.00150   0.00189   0.00404   0.00689   0.00743

  Beta  occ. eigenvalues --  -38.44949 -38.44856 -38.44438 -38.43945 -38.43478
  Beta  occ. eigenvalues --  -38.42896 -38.42580  -2.20847  -2.20728  -2.20321
  Beta  occ. eigenvalues --   -2.20091  -2.19412  -2.18944  -2.18413  -1.14685
  Beta  occ. eigenvalues --   -1.14539  -1.14468  -1.14437  -1.14365  -1.14305
  Beta  occ. eigenvalues --   -1.14066  -1.13998  -1.13948  -1.13769  -1.13738
  Beta  occ. eigenvalues --   -1.13700  -1.13128  -1.13088  -1.13003  -1.12646
  Beta  occ. eigenvalues --   -1.12632  -1.12586  -1.12069  -1.12046  -1.12036
  Beta  occ. eigenvalues --   -0.18166  -0.14488  -0.11164
  Beta virt. eigenvalues --   -0.07247  -0.05873  -0.04956  -0.04468  -0.02970
  Beta virt. eigenvalues --   -0.02120  -0.01808  -0.01631  -0.00928  -0.00510
  Beta virt. eigenvalues --    0.00009   0.00202   0.00353   0.00604   0.00742

 Mulliken charges and spin densities:
               1          2
     1  Na  -0.058175   0.305768
     2  Na   1.361199  -0.075085
     3  Na   0.056539  -0.034747
     4  Na   0.245182  -0.045312
     5  Na  -2.209102   1.054256
     6  Na   0.624071  -0.103427
     7  Na  -0.019713  -0.101453
 Sum of Mulliken charges =  -0.00000   1.00000

 Dipole moment (field-independent basis, Debye):
    X=             -2.5239    Y=              1.0903    Z=              0.2318  Tot=              2.7590
 Quadrupole moment (field-independent basis, Debye-Ang):
   XX=            -61.5948   YY=            -68.8127   ZZ=            -65.0124
   XY=              5.0643   XZ=              2.4672   YZ=              0.5166

 Normal termination of Gaussian 16 at Fri Dec  8 06:31:29 2023.
