 Gaussian 16, Revision B.01,
 Gaussian 16:  ES64L-G16RevB.01 20-Dec-2017

 -------------------------
 #P B3LYP/6-311+g(d) force
 -------------------------

 -----
 DPGEN
 -----
 Symbolic Z-matrix:
 Charge =  0 Multiplicity = 2

                         Standard orientation:
 ---------------------------------------------------------------------
 Center     Atomic      Atomic             Coordinates (Angstroms)
 Number     Number       Type             X           Y           Z
 ---------------------------------------------------------------------
      1         11           0        0.093266    0.099372   -1.595221
      2         11           0       -3.172842    0.729272   -0.060124
      3         11           0       -1.817322   -2.147095   -0.594320
      4         11           0       -0.238733   -0.228692    2.103424
      5         11           0        0.123797    3.217563    0.200154
      6         11           0        3.157490    0.803631   -0.417993
      7         11           0        1.854344   -2.474051    0.364081
 ---------------------------------------------------------------------

 SCF Done:  E(UB3LYP) =  -1136.13503539     A.U. after   20 cycles

 The electronic state is 2-A.
 Alpha  occ. eigenvalues --  -38.44225 -38.44217 -38.43794 -38.43659 -38.43493
 Alpha  occ. eigenvalues --  -38.43441 -38.43342  -2.20037  -2.20025  -2.19657
 Alpha  occ. eigenvalues --   -2.19432  -2.19340  -2.19314  -2.19298  -1.13716
 Alpha  occ. eigenvalues --   -1.13713  -1.13705  -1.13680  -1.13676  -1.13649
 Alpha  occ. eigenvalues --   -1.13324  -1.13288  -1.13273  -1.13117  -1.13110
 Alpha  occ. eigenvalues --   -1.13096  -1.13068  -1.12993  -1.12987  -1.12981
 Alpha  occ. eigenvalues --   -1.12963  -1.12961  -1.12945  -1.12909  -1.12903
 Alpha  occ. eigenvalues --   -0.18303  -0.13019  -0.12145  -0.10802
 Alpha virt. eigenvalues --   -0.05863  -0.05053  -0.04836  -0.03195  -0.02864
 Alpha virt. eigenvalues --   -0.02643  -0.01660  -0.01176  -0.00564  -0.00391
 Alpha virt. eigenvalues --   -0.00020   0.00341   0.00765   0.00819   0.00880

  Beta  occ. eigenvalues --  -38.44216 -38.44215 -38.43697 -38.43659 -38.43486
  Beta  occ. eigenvalues --  -38.43422 -38.43286  -2.20036  -2.20011  -2.19478
  Beta  occ. eigenvalues --   -2.19434  -2.19310  -2.19304  -2.19197  -1.13716
  Beta  occ. eigenvalues --   -1.13695  -1.13690  -1.13669  -1.13668  -1.13644
  Beta  occ. eigenvalues --   -1.13206  -1.13166  -1.13140  -1.13107  -1.13095
  Beta  occ. eigenvalues --   -1.13071  -1.13067  -1.12974  -1.12965  -1.12956
  Beta  occ. eigenvalues --   -1.12947  -1.12920  -1.12899  -1.12842  -1.12834
  Beta  occ. eigenvalues --   -0.17586  -0.12771  -0.11932
  Beta virt. eigenvalues --   -0.06909  -0.05816  -0.04985  -0.04768  -0.02476
  Beta virt. eigenvalues --   -0.02161  -0.01598  -0.01567  -0.01075  -0.00591
  Beta virt. eigenvalues --   -0.00406   0.00118   0.00377   0.00810   0.00849

 Mulliken charges and spin densities:
               1          2
     1  Na   0.053934   0.277648
     2  Na   0.024268  -0.047081
     3  Na   0.379932   0.082427
     4  Na  -0.395387   0.772073
     5  Na  -0.165027  -0.056435
     6  Na   0.027993  -0.049545
     7  Na   0.074288   0.020913
 Sum of Mulliken charges =  -0.00000   1.00000

 Dipole moment (field-independent basis, Debye):
    X=             -0.0092    Y=              0.1394    Z=              0.1558  Tot=              0.2093
 Quadrupole moment (field-independent basis, Debye-Ang):
   XX=            -55.9403   YY=            -63.0064   ZZ=            -74.3768
   XY=             -0.9354   XZ=              0.2070   YZ=              0.7534

 Normal termination of Gaussian 16 at Thu Dec  7 22:18:20 2023.
