 Gaussian 16, Revision B.01,
 Gaussian 16:  ES64L-G16RevB.01 20-Dec-2017

 -------------------------
 #P B3LYP/6-311+g(d) force
 -------------------------

 -----
 DPGEN
 -----
 Symbolic Z-matrix:
 Charge =  0 Multiplicity = 2

                         Standard orientation:
 ---------------------------------------------------------------------
 Center     Atomic      Atomic             Coordinates (Angstroms)
 Number     Number       Type             X           Y           Z
 ---------------------------------------------------------------------
      1         11           0        0.564481   -0.214804    2.047321
      2         11           0       -2.935192    0.890905    0.321563
      3         11           0       -2.124564   -2.412404   -0.319802
      4         11           0       -0.423712    3.124477   -0.155560
      5         11           0        1.937898   -2.418838    0.027654
      6         11           0        2.936127    1.236844   -0.319728
      7         11           0        0.044961   -0.206181   -1.601447
 ---------------------------------------------------------------------

 SCF Done:  E(UB3LYP) =  -1136.13665008     A.U. after   19 cycles

 The electronic state is 2-A.
 Alpha  occ. eigenvalues --  -38.44178 -38.44029 -38.43771 -38.43729 -38.43619
 Alpha  occ. eigenvalues --  -38.43596 -38.43160  -2.19986  -2.19868  -2.19584
 Alpha  occ. eigenvalues --   -2.19554  -2.19494  -2.19399  -2.19110  -1.13666
 Alpha  occ. eigenvalues --   -1.13649  -1.13616  -1.13559  -1.13546  -1.13486
 Alpha  occ. eigenvalues --   -1.13275  -1.13256  -1.13228  -1.13226  -1.13220
 Alpha  occ. eigenvalues --   -1.13181  -1.13155  -1.13120  -1.13111  -1.13075
 Alpha  occ. eigenvalues --   -1.13058  -1.13037  -1.12797  -1.12746  -1.12733
 Alpha  occ. eigenvalues --   -0.18255  -0.12952  -0.12420  -0.10533
 Alpha virt. eigenvalues --   -0.05799  -0.05270  -0.04939  -0.03158  -0.02805
 Alpha virt. eigenvalues --   -0.02454  -0.01550  -0.01320  -0.00609  -0.00528
 Alpha virt. eigenvalues --   -0.00016   0.00345   0.00778   0.00818   0.00868

  Beta  occ. eigenvalues --  -38.44168 -38.44021 -38.43766 -38.43725 -38.43596
  Beta  occ. eigenvalues --  -38.43526 -38.43099  -2.19971  -2.19859  -2.19578
  Beta  occ. eigenvalues --   -2.19548  -2.19402  -2.19322  -2.19000  -1.13645
  Beta  occ. eigenvalues --   -1.13632  -1.13607  -1.13551  -1.13509  -1.13484
  Beta  occ. eigenvalues --   -1.13268  -1.13241  -1.13225  -1.13220  -1.13203
  Beta  occ. eigenvalues --   -1.13178  -1.13070  -1.13057  -1.13041  -1.13037
  Beta  occ. eigenvalues --   -1.12998  -1.12988  -1.12720  -1.12668  -1.12648
  Beta  occ. eigenvalues --   -0.17559  -0.12735  -0.12186
  Beta virt. eigenvalues --   -0.06677  -0.05784  -0.05165  -0.04887  -0.02411
  Beta virt. eigenvalues --   -0.02108  -0.01477  -0.01399  -0.01242  -0.00652
  Beta virt. eigenvalues --   -0.00559   0.00137   0.00388   0.00786   0.00858

 Mulliken charges and spin densities:
               1          2
     1  Na  -0.374511   0.755472
     2  Na  -0.024177   0.010960
     3  Na   0.131410  -0.044786
     4  Na  -0.062359  -0.055734
     5  Na   0.266841  -0.088635
     6  Na   0.116301  -0.069613
     7  Na  -0.053505   0.492336
 Sum of Mulliken charges =  -0.00000   1.00000

 Dipole moment (field-independent basis, Debye):
    X=              0.3342    Y=             -0.1657    Z=              0.0716  Tot=              0.3798
 Quadrupole moment (field-independent basis, Debye-Ang):
   XX=            -57.5915   YY=            -60.0448   ZZ=            -75.5969
   XY=              0.4798   XZ=             -1.3853   YZ=              0.2250

 Normal termination of Gaussian 16 at Thu Dec  7 06:51:26 2023.
