 Gaussian 16, Revision B.01,
 Gaussian 16:  ES64L-G16RevB.01 20-Dec-2017

 -------------------------
 #P B3LYP/6-311+g(d) force
 -------------------------

 -----
 DPGEN
 -----
 Symbolic Z-matrix:
 Charge =  0 Multiplicity = 2

                         Standard orientation:
 ---------------------------------------------------------------------
 Center     Atomic      Atomic             Coordinates (Angstroms)
 Number     Number       Type             X           Y           Z
 ---------------------------------------------------------------------
      1         11           0        1.928580   -1.296780    1.028869
      2         11           0        0.491558    0.844818    2.276816
      3         11           0       -3.353682   -2.085830   -0.072173
      4         11           0       -0.691210   -1.044030   -0.277298
      5         11           0        2.245079   -0.946522   -1.783999
      6         11           0        1.001424    1.462986   -0.546278
      7         11           0       -1.621750    3.065358   -0.625937
 ---------------------------------------------------------------------

 SCF Done:  E(UB3LYP) =  -1136.09667667     A.U. after   24 cycles

 The electronic state is 2-A.
 Alpha  occ. eigenvalues --  -38.45200 -38.44553 -38.44538 -38.44487 -38.43344
 Alpha  occ. eigenvalues --  -38.43235 -38.42477  -2.21184  -2.20638  -2.20539
 Alpha  occ. eigenvalues --   -2.20290  -2.19477  -2.19050  -2.18579  -1.14980
 Alpha  occ. eigenvalues --   -1.14809  -1.14772  -1.14468  -1.14326  -1.14243
 Alpha  occ. eigenvalues --   -1.14208  -1.14131  -1.14047  -1.13989  -1.13925
 Alpha  occ. eigenvalues --   -1.13916  -1.13198  -1.13164  -1.13053  -1.12834
 Alpha  occ. eigenvalues --   -1.12685  -1.12679  -1.12264  -1.12221  -1.12169
 Alpha  occ. eigenvalues --   -0.19963  -0.12957  -0.12625  -0.11792
 Alpha virt. eigenvalues --   -0.05729  -0.05523  -0.04108  -0.03378  -0.02881
 Alpha virt. eigenvalues --   -0.02547  -0.01617  -0.00875  -0.00704   0.00155
 Alpha virt. eigenvalues --    0.00212   0.00501   0.00620   0.00716   0.00853

  Beta  occ. eigenvalues --  -38.45100 -38.44496 -38.44495 -38.44469 -38.43313
  Beta  occ. eigenvalues --  -38.43247 -38.42460  -2.21006  -2.20568  -2.20434
  Beta  occ. eigenvalues --   -2.20257  -2.19428  -2.19072  -2.18554  -1.14851
  Beta  occ. eigenvalues --   -1.14678  -1.14647  -1.14405  -1.14259  -1.14179
  Beta  occ. eigenvalues --   -1.14132  -1.14056  -1.13974  -1.13960  -1.13904
  Beta  occ. eigenvalues --   -1.13896  -1.13170  -1.13079  -1.13023  -1.12846
  Beta  occ. eigenvalues --   -1.12699  -1.12694  -1.12246  -1.12182  -1.12148
  Beta  occ. eigenvalues --   -0.19038  -0.12717  -0.11731
  Beta virt. eigenvalues --   -0.08302  -0.05469  -0.05271  -0.03533  -0.02846
  Beta virt. eigenvalues --   -0.02315  -0.01997  -0.01503  -0.00804  -0.00379
  Beta virt. eigenvalues --    0.00202   0.00228   0.00661   0.00759   0.00838

 Mulliken charges and spin densities:
               1          2
     1  Na   0.681517   0.172154
     2  Na   0.309526   0.174659
     3  Na   0.262293  -0.185662
     4  Na  -3.206883   0.574172
     5  Na   1.846620  -0.139500
     6  Na   0.180559   0.503312
     7  Na  -0.073633  -0.099135
 Sum of Mulliken charges =  -0.00000   1.00000

 Dipole moment (field-independent basis, Debye):
    X=              0.6210    Y=              0.8368    Z=              0.1774  Tot=              1.0570
 Quadrupole moment (field-independent basis, Debye-Ang):
   XX=            -62.1134   YY=            -68.3441   ZZ=            -63.5853
   XY=             -7.4821   XZ=             -0.9646   YZ=             -0.7538

 Normal termination of Gaussian 16 at Thu Dec  7 04:20:40 2023.
