 Gaussian 16, Revision B.01,
 Gaussian 16:  ES64L-G16RevB.01 20-Dec-2017

 -------------------------
 #P B3LYP/6-311+g(d) force
 -------------------------

 -----
 DPGEN
 -----
 Symbolic Z-matrix:
 Charge =  0 Multiplicity = 2

                         Standard orientation:
 ---------------------------------------------------------------------
 Center     Atomic      Atomic             Coordinates (Angstroms)
 Number     Number       Type             X           Y           Z
 ---------------------------------------------------------------------
      1         11           0        3.861236   -1.768636   -0.388750
      2         11           0       -2.950996   -2.420358    0.093316
      3         11           0       -2.114733    3.236073    0.308804
      4         11           0       -4.399496    0.103780   -0.151486
      5         11           0        0.358942   -3.575718    0.090061
      6         11           0        1.147527    3.342654   -0.519924
      7         11           0        4.097520    1.082205    0.567980
 ---------------------------------------------------------------------

 SCF Done:  E(UB3LYP) =  -1136.10544845     A.U. after   20 cycles

 The electronic state is 2-A.
 Alpha  occ. eigenvalues --  -38.45005 -38.44834 -38.44689 -38.44587 -38.44427
 Alpha  occ. eigenvalues --  -38.44282 -38.44246  -2.20801  -2.20592  -2.20509
 Alpha  occ. eigenvalues --   -2.20355  -2.20255  -2.20092  -2.20071  -1.14536
 Alpha  occ. eigenvalues --   -1.14461  -1.14441  -1.14268  -1.14262  -1.14234
 Alpha  occ. eigenvalues --   -1.14153  -1.14146  -1.14134  -1.14065  -1.14025
 Alpha  occ. eigenvalues --   -1.14016  -1.13979  -1.13915  -1.13907  -1.13720
 Alpha  occ. eigenvalues --   -1.13718  -1.13713  -1.13701  -1.13696  -1.13676
 Alpha  occ. eigenvalues --   -0.15574  -0.14273  -0.13381  -0.11052
 Alpha virt. eigenvalues --   -0.07650  -0.04828  -0.04288  -0.03595  -0.03494
 Alpha virt. eigenvalues --   -0.02756  -0.02266  -0.01916  -0.01367  -0.00467
 Alpha virt. eigenvalues --   -0.00295  -0.00141  -0.00046   0.00242   0.00460

  Beta  occ. eigenvalues --  -38.44998 -38.44823 -38.44651 -38.44562 -38.44421
  Beta  occ. eigenvalues --  -38.44193 -38.44184  -2.20793  -2.20576  -2.20441
  Beta  occ. eigenvalues --   -2.20312  -2.20252  -2.19977  -2.19906  -1.14511
  Beta  occ. eigenvalues --   -1.14461  -1.14424  -1.14260  -1.14251  -1.14203
  Beta  occ. eigenvalues --   -1.14108  -1.14103  -1.14082  -1.14010  -1.13997
  Beta  occ. eigenvalues --   -1.13989  -1.13938  -1.13921  -1.13897  -1.13641
  Beta  occ. eigenvalues --   -1.13630  -1.13616  -1.13608  -1.13599  -1.13575
  Beta  occ. eigenvalues --   -0.15018  -0.13617  -0.12531
  Beta virt. eigenvalues --   -0.07903  -0.07813  -0.04411  -0.03768  -0.03302
  Beta virt. eigenvalues --   -0.03173  -0.02573  -0.02030  -0.01862  -0.01171
  Beta virt. eigenvalues --   -0.00097  -0.00028   0.00119   0.00189   0.00247

 Mulliken charges and spin densities:
               1          2
     1  Na   0.035843   0.041613
     2  Na   0.209762   0.033216
     3  Na  -0.006790   0.052166
     4  Na   0.059652   0.207045
     5  Na   0.125698   0.436457
     6  Na  -0.271698   0.082488
     7  Na  -0.152466   0.147015
 Sum of Mulliken charges =  -0.00000   1.00000

 Dipole moment (field-independent basis, Debye):
    X=              0.6205    Y=              0.5019    Z=              0.0097  Tot=              0.7982
 Quadrupole moment (field-independent basis, Debye-Ang):
   XX=            -61.0272   YY=            -67.2046   ZZ=            -72.6748
   XY=             -2.9102   XZ=             -0.9750   YZ=              1.5062

 Normal termination of Gaussian 16 at Sun Dec  3 22:16:42 2023.
