 Gaussian 16, Revision B.01,
 Gaussian 16:  ES64L-G16RevB.01 20-Dec-2017

 -------------------------
 #P B3LYP/6-311+g(d) force
 -------------------------

 -----
 DPGEN
 -----
 Symbolic Z-matrix:
 Charge =  0 Multiplicity = 2

                         Standard orientation:
 ---------------------------------------------------------------------
 Center     Atomic      Atomic             Coordinates (Angstroms)
 Number     Number       Type             X           Y           Z
 ---------------------------------------------------------------------
      1         11           0       -0.048135   -0.239778    2.061994
      2         11           0       -0.482274    2.849009   -0.049616
      3         11           0        2.617223    1.569635    0.100619
      4         11           0       -2.876114    0.616824   -0.277626
      5         11           0        2.316359   -1.954399   -0.375597
      6         11           0       -1.392194   -2.523072    0.249225
      7         11           0       -0.134866   -0.318219   -1.708999
 ---------------------------------------------------------------------

 SCF Done:  E(UB3LYP) =  -1136.13904248     A.U. after   18 cycles

 The electronic state is 2-A.
 Alpha  occ. eigenvalues --  -38.43756 -38.43705 -38.43639 -38.43553 -38.43531
 Alpha  occ. eigenvalues --  -38.43302 -38.43268  -2.19661  -2.19547  -2.19466
 Alpha  occ. eigenvalues --   -2.19447  -2.19416  -2.19295  -2.19131  -1.13350
 Alpha  occ. eigenvalues --   -1.13298  -1.13280  -1.13256  -1.13200  -1.13181
 Alpha  occ. eigenvalues --   -1.13162  -1.13140  -1.13134  -1.13122  -1.13111
 Alpha  occ. eigenvalues --   -1.13102  -1.13079  -1.13071  -1.13031  -1.12953
 Alpha  occ. eigenvalues --   -1.12912  -1.12906  -1.12796  -1.12792  -1.12769
 Alpha  occ. eigenvalues --   -0.18869  -0.12867  -0.12715  -0.11033
 Alpha virt. eigenvalues --   -0.05327  -0.05063  -0.04786  -0.03154  -0.03086
 Alpha virt. eigenvalues --   -0.02760  -0.01269  -0.01120  -0.00269  -0.00177
 Alpha virt. eigenvalues --   -0.00011   0.00366   0.00862   0.00908   0.00924

  Beta  occ. eigenvalues --  -38.43696 -38.43661 -38.43638 -38.43542 -38.43523
  Beta  occ. eigenvalues --  -38.43266 -38.43234  -2.19532  -2.19485  -2.19467
  Beta  occ. eigenvalues --   -2.19431  -2.19405  -2.19171  -2.19130  -1.13251
  Beta  occ. eigenvalues --   -1.13231  -1.13187  -1.13176  -1.13171  -1.13154
  Beta  occ. eigenvalues --   -1.13141  -1.13137  -1.13118  -1.13104  -1.13102
  Beta  occ. eigenvalues --   -1.13073  -1.13056  -1.13049  -1.13021  -1.12875
  Beta  occ. eigenvalues --   -1.12833  -1.12818  -1.12790  -1.12783  -1.12760
  Beta  occ. eigenvalues --   -0.18132  -0.12620  -0.12459
  Beta virt. eigenvalues --   -0.07084  -0.05320  -0.05036  -0.04728  -0.02367
  Beta virt. eigenvalues --   -0.02294  -0.01683  -0.01180  -0.01045  -0.00314
  Beta virt. eigenvalues --   -0.00224   0.00118   0.00396   0.00887   0.00920

 Mulliken charges and spin densities:
               1          2
     1  Na  -0.490449   0.714799
     2  Na  -0.046763  -0.059402
     3  Na  -0.035667  -0.058837
     4  Na   0.299841  -0.012086
     5  Na   0.143209  -0.074687
     6  Na   0.379808  -0.020568
     7  Na  -0.249979   0.510780
 Sum of Mulliken charges =  -0.00000   1.00000

 Dipole moment (field-independent basis, Debye):
    X=              0.0867    Y=             -0.1959    Z=              0.1451  Tot=              0.2588
 Quadrupole moment (field-independent basis, Debye-Ang):
   XX=            -59.4560   YY=            -62.0657   ZZ=            -73.0249
   XY=             -0.0255   XZ=             -0.0068   YZ=              0.0053

 Normal termination of Gaussian 16 at Thu Dec  7 13:02:32 2023.
