 Gaussian 16, Revision B.01,
 Gaussian 16:  ES64L-G16RevB.01 20-Dec-2017

 -------------------------
 #P B3LYP/6-311+g(d) force
 -------------------------

 -----
 DPGEN
 -----
 Symbolic Z-matrix:
 Charge =  0 Multiplicity = 2

                         Standard orientation:
 ---------------------------------------------------------------------
 Center     Atomic      Atomic             Coordinates (Angstroms)
 Number     Number       Type             X           Y           Z
 ---------------------------------------------------------------------
      1         11           0       -0.680190    2.896736    0.170007
      2         11           0       -3.219983    0.019411   -0.290029
      3         11           0       -1.459683   -2.481393    0.252887
      4         11           0        0.282807    0.437842    1.526029
      5         11           0        2.409641   -2.325031    0.125882
      6         11           0        0.284730   -0.204375   -1.462631
      7         11           0        2.382678    1.656809   -0.322144
 ---------------------------------------------------------------------

 SCF Done:  E(UB3LYP) =  -1136.12837213     A.U. after   21 cycles

 The electronic state is 2-A.
 Alpha  occ. eigenvalues --  -38.43985 -38.43967 -38.43832 -38.43768 -38.43734
 Alpha  occ. eigenvalues --  -38.42948 -38.42835  -2.19906  -2.19786  -2.19670
 Alpha  occ. eigenvalues --   -2.19641  -2.19631  -2.19008  -2.18887  -1.13653
 Alpha  occ. eigenvalues --   -1.13583  -1.13506  -1.13463  -1.13436  -1.13433
 Alpha  occ. eigenvalues --   -1.13429  -1.13377  -1.13333  -1.13316  -1.13304
 Alpha  occ. eigenvalues --   -1.13291  -1.13270  -1.13243  -1.13222  -1.12782
 Alpha  occ. eigenvalues --   -1.12623  -1.12606  -1.12545  -1.12522  -1.12469
 Alpha  occ. eigenvalues --   -0.19053  -0.13308  -0.12710  -0.10054
 Alpha virt. eigenvalues --   -0.05596  -0.05392  -0.04999  -0.02956  -0.02643
 Alpha virt. eigenvalues --   -0.01717  -0.01632  -0.01416  -0.00497  -0.00324
 Alpha virt. eigenvalues --    0.00066   0.00332   0.00816   0.00830   0.00875

  Beta  occ. eigenvalues --  -38.43983 -38.43949 -38.43828 -38.43762 -38.43723
  Beta  occ. eigenvalues --  -38.42878 -38.42770  -2.19878  -2.19785  -2.19664
  Beta  occ. eigenvalues --   -2.19633  -2.19616  -2.18881  -2.18771  -1.13638
  Beta  occ. eigenvalues --   -1.13520  -1.13493  -1.13453  -1.13435  -1.13429
  Beta  occ. eigenvalues --   -1.13425  -1.13357  -1.13321  -1.13303  -1.13294
  Beta  occ. eigenvalues --   -1.13272  -1.13239  -1.13235  -1.13217  -1.12694
  Beta  occ. eigenvalues --   -1.12535  -1.12514  -1.12460  -1.12425  -1.12387
  Beta  occ. eigenvalues --   -0.18363  -0.13038  -0.12460
  Beta virt. eigenvalues --   -0.06191  -0.05573  -0.05335  -0.04960  -0.02180
  Beta virt. eigenvalues --   -0.01954  -0.01564  -0.01348  -0.00789  -0.00527
  Beta virt. eigenvalues --   -0.00328   0.00198   0.00382   0.00825   0.00860

 Mulliken charges and spin densities:
               1          2
     1  Na   0.383736   0.028711
     2  Na  -0.009323  -0.003724
     3  Na   0.025204  -0.007750
     4  Na  -0.407498   0.603216
     5  Na   0.027585  -0.076726
     6  Na  -0.345706   0.503728
     7  Na   0.326003  -0.047455
 Sum of Mulliken charges =  -0.00000   1.00000

 Dipole moment (field-independent basis, Debye):
    X=              0.1009    Y=             -0.0756    Z=              0.0006  Tot=              0.1261
 Quadrupole moment (field-independent basis, Debye-Ang):
   XX=            -55.4830   YY=            -57.3653   ZZ=            -77.9713
   XY=             -1.6009   XZ=              0.3281   YZ=             -1.5955

 Normal termination of Gaussian 16 at Tue Nov 28 20:29:50 2023.
