 Gaussian 16, Revision B.01,
 Gaussian 16:  ES64L-G16RevB.01 20-Dec-2017

 -------------------------
 #P B3LYP/6-311+g(d) force
 -------------------------

 -----
 DPGEN
 -----
 Symbolic Z-matrix:
 Charge =  0 Multiplicity = 2

                         Standard orientation:
 ---------------------------------------------------------------------
 Center     Atomic      Atomic             Coordinates (Angstroms)
 Number     Number       Type             X           Y           Z
 ---------------------------------------------------------------------
      1         11           0       -1.131003   -1.399142    1.143515
      2         11           0        2.030870   -2.547389    0.262538
      3         11           0       -3.649616    1.288527    0.214123
      4         11           0        0.055664    3.086233   -0.475013
      5         11           0       -3.566892   -1.717093   -1.063640
      6         11           0        2.038915    1.577781    0.861897
      7         11           0        4.222062   -0.288917   -0.943421
 ---------------------------------------------------------------------

 SCF Done:  E(UB3LYP) =  -1136.11555856     A.U. after   20 cycles

 The electronic state is 2-A.
 Alpha  occ. eigenvalues --  -38.45255 -38.44977 -38.43972 -38.43829 -38.43798
 Alpha  occ. eigenvalues --  -38.43705 -38.43318  -2.21047  -2.20797  -2.19846
 Alpha  occ. eigenvalues --   -2.19649  -2.19630  -2.19546  -2.19152  -1.14730
 Alpha  occ. eigenvalues --   -1.14701  -1.14679  -1.14458  -1.14455  -1.14425
 Alpha  occ. eigenvalues --   -1.13632  -1.13507  -1.13470  -1.13338  -1.13316
 Alpha  occ. eigenvalues --   -1.13312  -1.13298  -1.13288  -1.13245  -1.13191
 Alpha  occ. eigenvalues --   -1.13181  -1.13150  -1.12827  -1.12785  -1.12763
 Alpha  occ. eigenvalues --   -0.16721  -0.14419  -0.12161  -0.10498
 Alpha virt. eigenvalues --   -0.06606  -0.05436  -0.04492  -0.03749  -0.02734
 Alpha virt. eigenvalues --   -0.02348  -0.01701  -0.01646  -0.01247  -0.00549
 Alpha virt. eigenvalues --   -0.00158   0.00169   0.00307   0.00503   0.00580

  Beta  occ. eigenvalues --  -38.45228 -38.44961 -38.43962 -38.43817 -38.43739
  Beta  occ. eigenvalues --  -38.43627 -38.43314  -2.20998  -2.20770  -2.19833
  Beta  occ. eigenvalues --   -2.19616  -2.19542  -2.19399  -2.19145  -1.14693
  Beta  occ. eigenvalues --   -1.14673  -1.14634  -1.14438  -1.14436  -1.14395
  Beta  occ. eigenvalues --   -1.13620  -1.13472  -1.13467  -1.13310  -1.13294
  Beta  occ. eigenvalues --   -1.13264  -1.13239  -1.13227  -1.13161  -1.13089
  Beta  occ. eigenvalues --   -1.13081  -1.13063  -1.12820  -1.12781  -1.12758
  Beta  occ. eigenvalues --   -0.16165  -0.13852  -0.11800
  Beta virt. eigenvalues --   -0.07000  -0.06562  -0.05293  -0.03929  -0.03550
  Beta virt. eigenvalues --   -0.02268  -0.01945  -0.01560  -0.01414  -0.00889
  Beta virt. eigenvalues --   -0.00464   0.00079   0.00391   0.00417   0.00546

 Mulliken charges and spin densities:
               1          2
     1  Na  -0.354937   0.238235
     2  Na   0.017103  -0.029374
     3  Na   0.045284   0.249864
     4  Na  -0.063633  -0.070275
     5  Na   0.301176   0.118500
     6  Na  -0.026218   0.061638
     7  Na   0.081226   0.431412
 Sum of Mulliken charges =  -0.00000   1.00000

 Dipole moment (field-independent basis, Debye):
    X=             -1.7651    Y=             -0.4692    Z=             -0.6073  Tot=              1.9248
 Quadrupole moment (field-independent basis, Debye-Ang):
   XX=            -63.5018   YY=            -68.4708   ZZ=            -67.3521
   XY=             -0.5504   XZ=              0.8460   YZ=              2.7504

 Normal termination of Gaussian 16 at Sun Dec  3 16:43:40 2023.
