 Gaussian 16, Revision B.01,
 Gaussian 16:  ES64L-G16RevB.01 20-Dec-2017

 -------------------------
 #P B3LYP/6-311+g(d) force
 -------------------------

 -----
 DPGEN
 -----
 Symbolic Z-matrix:
 Charge =  0 Multiplicity = 2

                         Standard orientation:
 ---------------------------------------------------------------------
 Center     Atomic      Atomic             Coordinates (Angstroms)
 Number     Number       Type             X           Y           Z
 ---------------------------------------------------------------------
      1         11           0       -0.010998   -0.951358   -1.279022
      2         11           0        0.607200   -0.998296    1.542464
      3         11           0        2.971991   -1.027610   -0.476946
      4         11           0        1.539006    1.560021    0.441924
      5         11           0       -0.698492    1.938274   -1.210799
      6         11           0       -1.525602    0.810717    1.306272
      7         11           0       -2.883105   -1.331748   -0.323894
 ---------------------------------------------------------------------

 SCF Done:  E(UB3LYP) =  -1136.10204728     A.U. after   22 cycles

 The electronic state is 2-A.
 Alpha  occ. eigenvalues --  -38.44052 -38.43979 -38.43924 -38.43688 -38.43424
 Alpha  occ. eigenvalues --  -38.43292 -38.43052  -2.20189  -2.19923  -2.19835
 Alpha  occ. eigenvalues --   -2.19819  -2.19589  -2.19352  -2.19165  -1.14058
 Alpha  occ. eigenvalues --   -1.13926  -1.13805  -1.13629  -1.13601  -1.13583
 Alpha  occ. eigenvalues --   -1.13557  -1.13548  -1.13529  -1.13451  -1.13428
 Alpha  occ. eigenvalues --   -1.13325  -1.13324  -1.13248  -1.13166  -1.13137
 Alpha  occ. eigenvalues --   -1.12943  -1.12938  -1.12849  -1.12762  -1.12688
 Alpha  occ. eigenvalues --   -0.20696  -0.13977  -0.12164  -0.11915
 Alpha virt. eigenvalues --   -0.05786  -0.04496  -0.03845  -0.03471  -0.02834
 Alpha virt. eigenvalues --   -0.02728  -0.01675  -0.00642  -0.00257   0.00300
 Alpha virt. eigenvalues --    0.00547   0.00612   0.00933   0.01007   0.01029

  Beta  occ. eigenvalues --  -38.43981 -38.43971 -38.43921 -38.43637 -38.43367
  Beta  occ. eigenvalues --  -38.43257 -38.43035  -2.20064  -2.19910  -2.19821
  Beta  occ. eigenvalues --   -2.19742  -2.19489  -2.19290  -2.19140  -1.13971
  Beta  occ. eigenvalues --   -1.13832  -1.13715  -1.13599  -1.13583  -1.13567
  Beta  occ. eigenvalues --   -1.13527  -1.13523  -1.13496  -1.13423  -1.13359
  Beta  occ. eigenvalues --   -1.13279  -1.13259  -1.13161  -1.13120  -1.13076
  Beta  occ. eigenvalues --   -1.12896  -1.12874  -1.12819  -1.12714  -1.12665
  Beta  occ. eigenvalues --   -0.19848  -0.13745  -0.11724
  Beta virt. eigenvalues --   -0.07805  -0.05725  -0.04388  -0.03356  -0.03061
  Beta virt. eigenvalues --   -0.02177  -0.01665  -0.01602  -0.00572  -0.00033
  Beta virt. eigenvalues --    0.00317   0.00565   0.00670   0.00926   0.01030

 Mulliken charges and spin densities:
               1          2
     1  Na  -0.114393   0.611067
     2  Na  -0.446823   0.252373
     3  Na   0.741282  -0.155763
     4  Na  -0.152674   0.434176
     5  Na   0.077531  -0.122146
     6  Na   0.340609   0.020823
     7  Na  -0.445533  -0.040530
 Sum of Mulliken charges =  -0.00000   1.00000

 Dipole moment (field-independent basis, Debye):
    X=              0.0436    Y=             -0.2164    Z=             -0.2283  Tot=              0.3176
 Quadrupole moment (field-independent basis, Debye-Ang):
   XX=            -53.8109   YY=            -73.4285   ZZ=            -67.4023
   XY=              0.0094   XZ=             -0.4167   YZ=              0.2359

 Normal termination of Gaussian 16 at Fri Dec  8 17:03:27 2023.
