 Gaussian 16, Revision B.01,
 Gaussian 16:  ES64L-G16RevB.01 20-Dec-2017

 -------------------------
 #P B3LYP/6-311+g(d) force
 -------------------------

 -----
 DPGEN
 -----
 Symbolic Z-matrix:
 Charge =  0 Multiplicity = 2

                         Standard orientation:
 ---------------------------------------------------------------------
 Center     Atomic      Atomic             Coordinates (Angstroms)
 Number     Number       Type             X           Y           Z
 ---------------------------------------------------------------------
      1         11           0        0.262925    0.033472   -1.763163
      2         11           0       -0.513191   -0.098234    1.914328
      3         11           0        1.997149    2.247673    0.150608
      4         11           0       -2.928772   -0.928606   -0.218288
      5         11           0        2.932971   -0.978193    0.093368
      6         11           0       -1.763416    2.475240   -0.131904
      7         11           0        0.012335   -2.751353   -0.044950
 ---------------------------------------------------------------------

 SCF Done:  E(UB3LYP) =  -1136.14038028     A.U. after   18 cycles

 The electronic state is 2-A.
 Alpha  occ. eigenvalues --  -38.43955 -38.43796 -38.43648 -38.43615 -38.43383
 Alpha  occ. eigenvalues --  -38.43205 -38.43096  -2.19809  -2.19650  -2.19484
 Alpha  occ. eigenvalues --   -2.19441  -2.19308  -2.19166  -2.18997  -1.13491
 Alpha  occ. eigenvalues --   -1.13473  -1.13446  -1.13329  -1.13315  -1.13303
 Alpha  occ. eigenvalues --   -1.13164  -1.13148  -1.13121  -1.13117  -1.13108
 Alpha  occ. eigenvalues --   -1.13072  -1.12986  -1.12934  -1.12929  -1.12857
 Alpha  occ. eigenvalues --   -1.12808  -1.12783  -1.12669  -1.12658  -1.12618
 Alpha  occ. eigenvalues --   -0.18800  -0.13120  -0.12489  -0.10684
 Alpha virt. eigenvalues --   -0.05521  -0.05327  -0.04626  -0.03239  -0.02881
 Alpha virt. eigenvalues --   -0.02458  -0.01461  -0.01110  -0.00379  -0.00258
 Alpha virt. eigenvalues --   -0.00007   0.00374   0.00812   0.00885   0.00914

  Beta  occ. eigenvalues --  -38.43949 -38.43793 -38.43644 -38.43611 -38.43300
  Beta  occ. eigenvalues --  -38.43131 -38.43088  -2.19802  -2.19648  -2.19480
  Beta  occ. eigenvalues --   -2.19437  -2.19156  -2.19031  -2.18986  -1.13483
  Beta  occ. eigenvalues --   -1.13447  -1.13442  -1.13328  -1.13309  -1.13288
  Beta  occ. eigenvalues --   -1.13157  -1.13129  -1.13121  -1.13107  -1.13089
  Beta  occ. eigenvalues --   -1.13073  -1.12888  -1.12827  -1.12820  -1.12774
  Beta  occ. eigenvalues --   -1.12717  -1.12685  -1.12650  -1.12618  -1.12607
  Beta  occ. eigenvalues --   -0.18060  -0.12898  -0.12241
  Beta virt. eigenvalues --   -0.06781  -0.05483  -0.05316  -0.04592  -0.02450
  Beta virt. eigenvalues --   -0.02091  -0.01417  -0.01371  -0.01045  -0.00434
  Beta virt. eigenvalues --   -0.00315   0.00133   0.00394   0.00871   0.00878

 Mulliken charges and spin densities:
               1          2
     1  Na  -0.273571   0.642815
     2  Na  -0.443177   0.761056
     3  Na   0.039172  -0.098568
     4  Na   0.267882  -0.066424
     5  Na   0.100093  -0.048292
     6  Na   0.035492  -0.127193
     7  Na   0.274109  -0.063393
 Sum of Mulliken charges =  -0.00000   1.00000

 Dipole moment (field-independent basis, Debye):
    X=             -0.0950    Y=              0.1185    Z=              0.0439  Tot=              0.1581
 Quadrupole moment (field-independent basis, Debye-Ang):
   XX=            -56.2875   YY=            -62.7286   ZZ=            -74.3527
   XY=             -0.0793   XZ=              1.7367   YZ=              0.3194

 Normal termination of Gaussian 16 at Thu Dec  7 09:00:00 2023.
