 Gaussian 16, Revision B.01,
 Gaussian 16:  ES64L-G16RevB.01 20-Dec-2017

 -------------------------
 #P B3LYP/6-311+g(d) force
 -------------------------

 -----
 DPGEN
 -----
 Symbolic Z-matrix:
 Charge =  0 Multiplicity = 2

                         Standard orientation:
 ---------------------------------------------------------------------
 Center     Atomic      Atomic             Coordinates (Angstroms)
 Number     Number       Type             X           Y           Z
 ---------------------------------------------------------------------
      1         11           0       -0.062548    0.112795   -2.072799
      2         11           0       -1.694365    2.884946    0.095628
      3         11           0        1.659581   -0.027963    1.071773
      4         11           0        0.152815   -2.836848    0.394517
      5         11           0       -2.708877   -0.889203   -1.472824
      6         11           0       -1.620043    0.045050    2.421920
      7         11           0        4.273437    0.711223   -0.438216
 ---------------------------------------------------------------------

 SCF Done:  E(UB3LYP) =  -1136.11476572     A.U. after   29 cycles

 The electronic state is 2-A.
 Alpha  occ. eigenvalues --  -38.44906 -38.44847 -38.44638 -38.44377 -38.43816
 Alpha  occ. eigenvalues --  -38.43326 -38.43193  -2.20793  -2.20661  -2.20479
 Alpha  occ. eigenvalues --   -2.20166  -2.19637  -2.19100  -2.19087  -1.14580
 Alpha  occ. eigenvalues --   -1.14443  -1.14389  -1.14340  -1.14300  -1.14257
 Alpha  occ. eigenvalues --   -1.14148  -1.14102  -1.14062  -1.13844  -1.13810
 Alpha  occ. eigenvalues --   -1.13805  -1.13337  -1.13290  -1.13249  -1.12782
 Alpha  occ. eigenvalues --   -1.12773  -1.12765  -1.12748  -1.12736  -1.12733
 Alpha  occ. eigenvalues --   -0.17927  -0.12939  -0.12262  -0.11250
 Alpha virt. eigenvalues --   -0.06396  -0.05030  -0.04246  -0.03693  -0.03141
 Alpha virt. eigenvalues --   -0.02821  -0.02044  -0.01124  -0.00859  -0.00151
 Alpha virt. eigenvalues --    0.00059   0.00164   0.00352   0.00699   0.00779

  Beta  occ. eigenvalues --  -38.44843 -38.44768 -38.44615 -38.44361 -38.43785
  Beta  occ. eigenvalues --  -38.43332 -38.43178  -2.20680  -2.20517  -2.20440
  Beta  occ. eigenvalues --   -2.20136  -2.19583  -2.19100  -2.19078  -1.14501
  Beta  occ. eigenvalues --   -1.14365  -1.14310  -1.14238  -1.14206  -1.14149
  Beta  occ. eigenvalues --   -1.14091  -1.14078  -1.14040  -1.13827  -1.13789
  Beta  occ. eigenvalues --   -1.13783  -1.13297  -1.13241  -1.13214  -1.12775
  Beta  occ. eigenvalues --   -1.12772  -1.12751  -1.12742  -1.12728  -1.12706
  Beta  occ. eigenvalues --   -0.17080  -0.12551  -0.11112
  Beta virt. eigenvalues --   -0.08433  -0.06153  -0.04686  -0.03774  -0.03009
  Beta virt. eigenvalues --   -0.02816  -0.02465  -0.01809  -0.00823  -0.00703
  Beta virt. eigenvalues --   -0.00075   0.00160   0.00264   0.00384   0.00782

 Mulliken charges and spin densities:
               1          2
     1  Na  -0.108182   0.487949
     2  Na  -0.264021  -0.128556
     3  Na  -0.385790   0.130337
     4  Na  -0.172967   0.186601
     5  Na   0.383539   0.010778
     6  Na   0.270122   0.233140
     7  Na   0.277299   0.079751
 Sum of Mulliken charges =  -0.00000   1.00000

 Dipole moment (field-independent basis, Debye):
    X=             -0.3060    Y=             -0.4660    Z=             -0.4012  Tot=              0.6869
 Quadrupole moment (field-independent basis, Debye-Ang):
   XX=            -58.2620   YY=            -70.8125   ZZ=            -66.7948
   XY=              3.0533   XZ=             -3.1815   YZ=             -5.7245

 Normal termination of Gaussian 16 at Sun Dec  3 17:56:10 2023.
