 Gaussian 16, Revision B.01,
 Gaussian 16:  ES64L-G16RevB.01 20-Dec-2017

 -------------------------
 #P B3LYP/6-311+g(d) force
 -------------------------

 -----
 DPGEN
 -----
 Symbolic Z-matrix:
 Charge =  0 Multiplicity = 2

                         Standard orientation:
 ---------------------------------------------------------------------
 Center     Atomic      Atomic             Coordinates (Angstroms)
 Number     Number       Type             X           Y           Z
 ---------------------------------------------------------------------
      1         11           0        2.792164    1.166458   -0.132238
      2         11           0       -0.335518    2.836527   -0.442410
      3         11           0       -3.042367   -1.073163   -0.509463
      4         11           0        5.415101   -0.888597   -0.279591
      5         11           0       -6.440685   -0.600179   -0.110281
      6         11           0       -0.551698    0.555099    1.367988
      7         11           0        2.163003   -1.996143    0.105994
 ---------------------------------------------------------------------

 SCF Done:  E(UB3LYP) =  -1136.11598922     A.U. after   20 cycles

 The electronic state is 2-A.
 Alpha  occ. eigenvalues --  -38.44616 -38.44548 -38.44328 -38.44292 -38.44140
 Alpha  occ. eigenvalues --  -38.43822 -38.43641  -2.20458  -2.20362  -2.20210
 Alpha  occ. eigenvalues --   -2.20186  -2.20002  -2.19587  -2.19413  -1.14167
 Alpha  occ. eigenvalues --   -1.14129  -1.14062  -1.14036  -1.14022  -1.13981
 Alpha  occ. eigenvalues --   -1.13972  -1.13911  -1.13907  -1.13837  -1.13826
 Alpha  occ. eigenvalues --   -1.13775  -1.13640  -1.13619  -1.13592  -1.13244
 Alpha  occ. eigenvalues --   -1.13243  -1.13214  -1.13105  -1.13094  -1.13032
 Alpha  occ. eigenvalues --   -0.17294  -0.13939  -0.12119  -0.10651
 Alpha virt. eigenvalues --   -0.06481  -0.05488  -0.05258  -0.03279  -0.02845
 Alpha virt. eigenvalues --   -0.02471  -0.02103  -0.01491  -0.01023  -0.00859
 Alpha virt. eigenvalues --   -0.00319  -0.00060   0.00064   0.00340   0.00560

  Beta  occ. eigenvalues --  -38.44562 -38.44532 -38.44304 -38.44272 -38.44111
  Beta  occ. eigenvalues --  -38.43782 -38.43651  -2.20360  -2.20334  -2.20168
  Beta  occ. eigenvalues --   -2.20152  -2.19947  -2.19511  -2.19434  -1.14106
  Beta  occ. eigenvalues --   -1.14064  -1.14008  -1.14003  -1.14002  -1.13948
  Beta  occ. eigenvalues --   -1.13930  -1.13884  -1.13859  -1.13817  -1.13789
  Beta  occ. eigenvalues --   -1.13745  -1.13602  -1.13575  -1.13558  -1.13192
  Beta  occ. eigenvalues --   -1.13192  -1.13168  -1.13121  -1.13112  -1.13020
  Beta  occ. eigenvalues --   -0.16700  -0.13814  -0.11646
  Beta virt. eigenvalues --   -0.07268  -0.06114  -0.05146  -0.04826  -0.03045
  Beta virt. eigenvalues --   -0.02565  -0.02308  -0.01740  -0.01282  -0.00807
  Beta virt. eigenvalues --   -0.00446  -0.00077   0.00077   0.00246   0.00457

 Mulliken charges and spin densities:
               1          2
     1  Na  -0.767297   0.226203
     2  Na   0.322571   0.012201
     3  Na  -0.400657  -0.111106
     4  Na   0.935373   0.174510
     5  Na   0.329303   0.227491
     6  Na  -0.099270   0.391124
     7  Na  -0.320023   0.079577
 Sum of Mulliken charges =  -0.00000   1.00000

 Dipole moment (field-independent basis, Debye):
    X=              2.1938    Y=              0.2388    Z=             -0.0067  Tot=              2.2068
 Quadrupole moment (field-independent basis, Debye-Ang):
   XX=            -58.0094   YY=            -69.4854   ZZ=            -69.9521
   XY=             -8.3252   XZ=             -1.7604   YZ=             -0.0520

 Normal termination of Gaussian 16 at Wed Nov 29 04:02:13 2023.
