 Gaussian 16, Revision B.01,
 Gaussian 16:  ES64L-G16RevB.01 20-Dec-2017

 -------------------------
 #P B3LYP/6-311+g(d) force
 -------------------------

 -----
 DPGEN
 -----
 Symbolic Z-matrix:
 Charge =  0 Multiplicity = 2

                         Standard orientation:
 ---------------------------------------------------------------------
 Center     Atomic      Atomic             Coordinates (Angstroms)
 Number     Number       Type             X           Y           Z
 ---------------------------------------------------------------------
      1         11           0        1.638351    0.862996    1.770253
      2         11           0       -0.930652    2.486196   -0.457007
      3         11           0       -0.439046   -1.346829   -0.844824
      4         11           0       -3.603149   -0.576901   -0.935532
      5         11           0       -1.980086   -0.608328    1.860399
      6         11           0        2.365793    0.969263   -1.243365
      7         11           0        2.948788   -1.786397   -0.149924
 ---------------------------------------------------------------------

 SCF Done:  E(UB3LYP) =  -1136.12440444     A.U. after   24 cycles

 The electronic state is 2-A.
 Alpha  occ. eigenvalues --  -38.44724 -38.44404 -38.44124 -38.43914 -38.43741
 Alpha  occ. eigenvalues --  -38.43394 -38.42770  -2.20568  -2.20280  -2.20059
 Alpha  occ. eigenvalues --   -2.19794  -2.19648  -2.19274  -2.18575  -1.14247
 Alpha  occ. eigenvalues --   -1.14231  -1.14197  -1.13983  -1.13909  -1.13883
 Alpha  occ. eigenvalues --   -1.13791  -1.13726  -1.13677  -1.13458  -1.13449
 Alpha  occ. eigenvalues --   -1.13399  -1.13366  -1.13313  -1.13261  -1.12949
 Alpha  occ. eigenvalues --   -1.12919  -1.12912  -1.12261  -1.12235  -1.12202
 Alpha  occ. eigenvalues --   -0.18476  -0.14382  -0.11090  -0.11022
 Alpha virt. eigenvalues --   -0.06411  -0.05259  -0.04970  -0.03171  -0.02737
 Alpha virt. eigenvalues --   -0.02275  -0.02221  -0.00876  -0.00742  -0.00212
 Alpha virt. eigenvalues --    0.00230   0.00315   0.00355   0.00515   0.00790

  Beta  occ. eigenvalues --  -38.44709 -38.44348 -38.44098 -38.43872 -38.43725
  Beta  occ. eigenvalues --  -38.43394 -38.42752  -2.20541  -2.20178  -2.20012
  Beta  occ. eigenvalues --   -2.19718  -2.19621  -2.19276  -2.18545  -1.14221
  Beta  occ. eigenvalues --   -1.14214  -1.14175  -1.13914  -1.13840  -1.13800
  Beta  occ. eigenvalues --   -1.13759  -1.13688  -1.13643  -1.13408  -1.13381
  Beta  occ. eigenvalues --   -1.13347  -1.13321  -1.13287  -1.13247  -1.12946
  Beta  occ. eigenvalues --   -1.12915  -1.12908  -1.12235  -1.12206  -1.12182
  Beta  occ. eigenvalues --   -0.17808  -0.14201  -0.10882
  Beta virt. eigenvalues --   -0.07242  -0.06211  -0.04923  -0.04489  -0.03049
  Beta virt. eigenvalues --   -0.02212  -0.01942  -0.01611  -0.00750  -0.00291
  Beta virt. eigenvalues --   -0.00118   0.00283   0.00358   0.00495   0.00678

 Mulliken charges and spin densities:
               1          2
     1  Na  -0.085050   0.404954
     2  Na  -0.511629   0.107508
     3  Na  -1.139724   0.519199
     4  Na   1.022700   0.056804
     5  Na  -0.077164  -0.032628
     6  Na   0.274173   0.003663
     7  Na   0.516695  -0.059499
 Sum of Mulliken charges =  -0.00000   1.00000

 Dipole moment (field-independent basis, Debye):
    X=             -0.7324    Y=             -0.0460    Z=              0.0564  Tot=              0.7360
 Quadrupole moment (field-independent basis, Debye-Ang):
   XX=            -50.3278   YY=            -76.7055   ZZ=            -67.7586
   XY=             -0.4340   XZ=              1.6811   YZ=             -2.1064

 Normal termination of Gaussian 16 at Tue Dec  5 21:55:28 2023.
