 Gaussian 16, Revision B.01,
 Gaussian 16:  ES64L-G16RevB.01 20-Dec-2017

 -------------------------
 #P B3LYP/6-311+g(d) force
 -------------------------

 -----
 DPGEN
 -----
 Symbolic Z-matrix:
 Charge =  0 Multiplicity = 2

                         Standard orientation:
 ---------------------------------------------------------------------
 Center     Atomic      Atomic             Coordinates (Angstroms)
 Number     Number       Type             X           Y           Z
 ---------------------------------------------------------------------
      1         11           0        2.925787    0.872760   -0.262904
      2         11           0        1.831358   -2.348315    0.239946
      3         11           0       -2.879226    1.108691    0.247410
      4         11           0       -2.320213   -1.741253   -0.200122
      5         11           0       -0.100594   -0.358417   -1.943980
      6         11           0        0.203299   -0.187265    1.978472
      7         11           0        0.339589    2.653799   -0.058822
 ---------------------------------------------------------------------

 SCF Done:  E(UB3LYP) =  -1136.13381429     A.U. after   19 cycles

 The electronic state is 2-A.
 Alpha  occ. eigenvalues --  -38.44105 -38.44064 -38.43823 -38.43806 -38.43799
 Alpha  occ. eigenvalues --  -38.43319 -38.42718  -2.19974  -2.19938  -2.19735
 Alpha  occ. eigenvalues --   -2.19726  -2.19718  -2.19178  -2.18600  -1.13725
 Alpha  occ. eigenvalues --   -1.13656  -1.13637  -1.13615  -1.13586  -1.13574
 Alpha  occ. eigenvalues --   -1.13485  -1.13399  -1.13380  -1.13361  -1.13357
 Alpha  occ. eigenvalues --   -1.13350  -1.13334  -1.13324  -1.13311  -1.12859
 Alpha  occ. eigenvalues --   -1.12834  -1.12809  -1.12282  -1.12261  -1.12244
 Alpha  occ. eigenvalues --   -0.18929  -0.13554  -0.12087  -0.11204
 Alpha virt. eigenvalues --   -0.05791  -0.05198  -0.04101  -0.03632  -0.02923
 Alpha virt. eigenvalues --   -0.02849  -0.01583  -0.00965  -0.00181  -0.00045
 Alpha virt. eigenvalues --   -0.00022   0.00376   0.00762   0.00907   0.00913

  Beta  occ. eigenvalues --  -38.44100 -38.44061 -38.43815 -38.43723 -38.43713
  Beta  occ. eigenvalues --  -38.43312 -38.42713  -2.19968  -2.19934  -2.19719
  Beta  occ. eigenvalues --   -2.19581  -2.19561  -2.19170  -2.18596  -1.13726
  Beta  occ. eigenvalues --   -1.13654  -1.13619  -1.13605  -1.13574  -1.13559
  Beta  occ. eigenvalues --   -1.13435  -1.13340  -1.13327  -1.13293  -1.13279
  Beta  occ. eigenvalues --   -1.13244  -1.13241  -1.13228  -1.13226  -1.12845
  Beta  occ. eigenvalues --   -1.12815  -1.12802  -1.12282  -1.12249  -1.12226
  Beta  occ. eigenvalues --   -0.18169  -0.13319  -0.11825
  Beta virt. eigenvalues --   -0.07280  -0.05711  -0.05194  -0.04066  -0.02809
  Beta virt. eigenvalues --   -0.02100  -0.01838  -0.01477  -0.00897  -0.00225
  Beta virt. eigenvalues --   -0.00060   0.00087   0.00396   0.00849   0.00894

 Mulliken charges and spin densities:
               1          2
     1  Na   0.131388  -0.029721
     2  Na   0.260731  -0.099575
     3  Na  -0.075109  -0.015268
     4  Na   0.497969  -0.034293
     5  Na  -0.384260   0.566231
     6  Na  -0.456501   0.638617
     7  Na   0.025782  -0.025992
 Sum of Mulliken charges =  -0.00000   1.00000

 Dipole moment (field-independent basis, Debye):
    X=              0.0181    Y=             -0.1615    Z=              0.0056  Tot=              0.1626
 Quadrupole moment (field-independent basis, Debye-Ang):
   XX=            -56.0690   YY=            -67.7788   ZZ=            -71.8192
   XY=             -0.6516   XZ=             -1.0853   YZ=             -0.0825

 Normal termination of Gaussian 16 at Tue Dec  5 15:05:39 2023.
