 Gaussian 16, Revision B.01,
 Gaussian 16:  ES64L-G16RevB.01 20-Dec-2017

 -------------------------
 #P B3LYP/6-311+g(d) force
 -------------------------

 -----
 DPGEN
 -----
 Symbolic Z-matrix:
 Charge =  0 Multiplicity = 2

                         Standard orientation:
 ---------------------------------------------------------------------
 Center     Atomic      Atomic             Coordinates (Angstroms)
 Number     Number       Type             X           Y           Z
 ---------------------------------------------------------------------
      1         11           0       -0.370381   -1.925192    0.737919
      2         11           0        1.401660    2.344916   -0.437720
      3         11           0       -0.552725    0.742960   -2.075963
      4         11           0        1.951365   -0.434513    2.069037
      5         11           0       -1.470149    1.503151    1.658961
      6         11           0       -3.694650   -0.866466   -0.541255
      7         11           0        2.734880   -1.364855   -1.410980
 ---------------------------------------------------------------------

 SCF Done:  E(UB3LYP) =  -1136.12711625     A.U. after   21 cycles

 The electronic state is 2-A.
 Alpha  occ. eigenvalues --  -38.44984 -38.44899 -38.44201 -38.43720 -38.43453
 Alpha  occ. eigenvalues --  -38.43064 -38.42836  -2.20791  -2.20683  -2.19974
 Alpha  occ. eigenvalues --   -2.19579  -2.19317  -2.18932  -2.18700  -1.14466
 Alpha  occ. eigenvalues --   -1.14427  -1.14412  -1.14361  -1.14315  -1.14300
 Alpha  occ. eigenvalues --   -1.13646  -1.13633  -1.13600  -1.13299  -1.13222
 Alpha  occ. eigenvalues --   -1.13197  -1.13038  -1.12982  -1.12929  -1.12641
 Alpha  occ. eigenvalues --   -1.12614  -1.12524  -1.12384  -1.12354  -1.12323
 Alpha  occ. eigenvalues --   -0.18056  -0.12854  -0.11971  -0.11398
 Alpha virt. eigenvalues --   -0.05746  -0.05537  -0.04086  -0.03328  -0.03213
 Alpha virt. eigenvalues --   -0.03117  -0.01729  -0.01193  -0.00457  -0.00120
 Alpha virt. eigenvalues --    0.00229   0.00320   0.00474   0.00626   0.00766

  Beta  occ. eigenvalues --  -38.44925 -38.44850 -38.44187 -38.43694 -38.43429
  Beta  occ. eigenvalues --  -38.43056 -38.42829  -2.20683  -2.20593  -2.19948
  Beta  occ. eigenvalues --   -2.19534  -2.19273  -2.18920  -2.18690  -1.14391
  Beta  occ. eigenvalues --   -1.14352  -1.14328  -1.14293  -1.14257  -1.14238
  Beta  occ. eigenvalues --   -1.13622  -1.13615  -1.13585  -1.13271  -1.13192
  Beta  occ. eigenvalues --   -1.13147  -1.13011  -1.12945  -1.12895  -1.12626
  Beta  occ. eigenvalues --   -1.12586  -1.12522  -1.12380  -1.12337  -1.12303
  Beta  occ. eigenvalues --   -0.17260  -0.12612  -0.11256
  Beta virt. eigenvalues --   -0.08159  -0.05548  -0.04861  -0.03938  -0.03159
  Beta virt. eigenvalues --   -0.02651  -0.02320  -0.01607  -0.00751  -0.00422
  Beta virt. eigenvalues --    0.00081   0.00342   0.00375   0.00493   0.00707

 Mulliken charges and spin densities:
               1          2
     1  Na  -0.361208   0.205188
     2  Na   0.154743   0.074018
     3  Na  -0.328253   0.311577
     4  Na   0.264328   0.206324
     5  Na  -0.026409   0.210266
     6  Na   0.197805  -0.035180
     7  Na   0.098993   0.027807
 Sum of Mulliken charges =  -0.00000   1.00000

 Dipole moment (field-independent basis, Debye):
    X=             -0.1150    Y=             -0.0734    Z=             -0.0147  Tot=              0.1372
 Quadrupole moment (field-independent basis, Debye-Ang):
   XX=            -55.4616   YY=            -73.0143   ZZ=            -66.3402
   XY=             -0.6503   XZ=             -0.7596   YZ=              9.0989

 Normal termination of Gaussian 16 at Sun Dec  3 13:20:02 2023.
