 Gaussian 16, Revision B.01,
 Gaussian 16:  ES64L-G16RevB.01 20-Dec-2017

 -------------------------
 #P B3LYP/6-311+g(d) force
 -------------------------

 -----
 DPGEN
 -----
 Symbolic Z-matrix:
 Charge =  0 Multiplicity = 2

                         Standard orientation:
 ---------------------------------------------------------------------
 Center     Atomic      Atomic             Coordinates (Angstroms)
 Number     Number       Type             X           Y           Z
 ---------------------------------------------------------------------
      1         11           0        1.468799    2.721155   -0.077710
      2         11           0        0.783728   -2.761270    0.105208
      3         11           0       -2.703166   -1.397675   -0.274238
      4         11           0        2.733074   -0.602952   -0.328825
      5         11           0       -0.353212    0.212260   -1.787602
      6         11           0        0.059465   -0.122905    2.078594
      7         11           0       -1.988688    1.951387    0.284573
 ---------------------------------------------------------------------

 SCF Done:  E(UB3LYP) =  -1136.13771175     A.U. after   17 cycles

 The electronic state is 2-A.
 Alpha  occ. eigenvalues --  -38.43808 -38.43626 -38.43552 -38.43481 -38.43458
 Alpha  occ. eigenvalues --  -38.43437 -38.43433  -2.19714  -2.19519  -2.19408
 Alpha  occ. eigenvalues --   -2.19402  -2.19387  -2.19333  -2.19286  -1.13384
 Alpha  occ. eigenvalues --   -1.13359  -1.13332  -1.13259  -1.13220  -1.13188
 Alpha  occ. eigenvalues --   -1.13149  -1.13122  -1.13081  -1.13051  -1.13043
 Alpha  occ. eigenvalues --   -1.13035  -1.13029  -1.13016  -1.12992  -1.12983
 Alpha  occ. eigenvalues --   -1.12958  -1.12951  -1.12939  -1.12930  -1.12896
 Alpha  occ. eigenvalues --   -0.18948  -0.13040  -0.12543  -0.11156
 Alpha virt. eigenvalues --   -0.05223  -0.04935  -0.04809  -0.03393  -0.03014
 Alpha virt. eigenvalues --   -0.02857  -0.01240  -0.01061  -0.00154  -0.00076
 Alpha virt. eigenvalues --   -0.00009   0.00381   0.00892   0.00909   0.00951

  Beta  occ. eigenvalues --  -38.43713 -38.43617 -38.43546 -38.43474 -38.43457
  Beta  occ. eigenvalues --  -38.43432 -38.43363  -2.19539  -2.19505  -2.19395
  Beta  occ. eigenvalues --   -2.19378  -2.19328  -2.19287  -2.19279  -1.13279
  Beta  occ. eigenvalues --   -1.13251  -1.13223  -1.13212  -1.13207  -1.13148
  Beta  occ. eigenvalues --   -1.13135  -1.13098  -1.13043  -1.13033  -1.13029
  Beta  occ. eigenvalues --   -1.13010  -1.12980  -1.12968  -1.12953  -1.12942
  Beta  occ. eigenvalues --   -1.12940  -1.12933  -1.12927  -1.12899  -1.12895
  Beta  occ. eigenvalues --   -0.18185  -0.12791  -0.12307
  Beta virt. eigenvalues --   -0.07201  -0.05227  -0.04845  -0.04803  -0.02545
  Beta virt. eigenvalues --   -0.02257  -0.01781  -0.01172  -0.00982  -0.00175
  Beta virt. eigenvalues --   -0.00117   0.00102   0.00395   0.00904   0.00933

 Mulliken charges and spin densities:
               1          2
     1  Na   0.049430  -0.085758
     2  Na   0.210299  -0.012681
     3  Na   0.211613  -0.067921
     4  Na   0.076990  -0.039210
     5  Na  -0.326384   0.558019
     6  Na  -0.470102   0.667243
     7  Na   0.248155  -0.019692
 Sum of Mulliken charges =  -0.00000   1.00000

 Dipole moment (field-independent basis, Debye):
    X=             -0.1793    Y=              0.0945    Z=              0.1374  Tot=              0.2448
 Quadrupole moment (field-independent basis, Debye-Ang):
   XX=            -61.4950   YY=            -61.5388   ZZ=            -72.0408
   XY=              1.1120   XZ=             -0.8597   YZ=              0.6404

 Normal termination of Gaussian 16 at Tue Dec  5 12:28:13 2023.
