 Gaussian 16, Revision B.01,
 Gaussian 16:  ES64L-G16RevB.01 20-Dec-2017

 -------------------------
 #P B3LYP/6-311+g(d) force
 -------------------------

 -----
 DPGEN
 -----
 Symbolic Z-matrix:
 Charge =  0 Multiplicity = 2

                         Standard orientation:
 ---------------------------------------------------------------------
 Center     Atomic      Atomic             Coordinates (Angstroms)
 Number     Number       Type             X           Y           Z
 ---------------------------------------------------------------------
      1         11           0        3.328290   -1.854074   -0.669632
      2         11           0        2.319180    1.681052   -0.545234
      3         11           0       -0.469596    2.914193   -0.917628
      4         11           0       -2.050574    1.164230    1.273911
      5         11           0       -3.419394   -1.683236   -0.991493
      6         11           0       -0.546693   -1.541954   -0.528652
      7         11           0        0.838787   -0.680210    2.378728
 ---------------------------------------------------------------------

 SCF Done:  E(UB3LYP) =  -1136.12221825     A.U. after   21 cycles

 The electronic state is 2-A.
 Alpha  occ. eigenvalues --  -38.44687 -38.44393 -38.44331 -38.44051 -38.44042
 Alpha  occ. eigenvalues --  -38.43497 -38.43087  -2.20527  -2.20176  -2.20158
 Alpha  occ. eigenvalues --   -2.19896  -2.19870  -2.19408  -2.18944  -1.14203
 Alpha  occ. eigenvalues --   -1.14167  -1.14115  -1.13861  -1.13849  -1.13831
 Alpha  occ. eigenvalues --   -1.13820  -1.13794  -1.13782  -1.13652  -1.13572
 Alpha  occ. eigenvalues --   -1.13537  -1.13523  -1.13504  -1.13490  -1.13107
 Alpha  occ. eigenvalues --   -1.13067  -1.13009  -1.12619  -1.12594  -1.12579
 Alpha  occ. eigenvalues --   -0.17750  -0.13180  -0.12240  -0.11318
 Alpha virt. eigenvalues --   -0.06102  -0.05521  -0.04422  -0.03468  -0.02927
 Alpha virt. eigenvalues --   -0.02509  -0.01807  -0.01492  -0.00580  -0.00374
 Alpha virt. eigenvalues --   -0.00018   0.00260   0.00329   0.00622   0.00732

  Beta  occ. eigenvalues --  -38.44587 -38.44383 -38.44307 -38.44025 -38.44012
  Beta  occ. eigenvalues --  -38.43486 -38.43080  -2.20345  -2.20140  -2.20136
  Beta  occ. eigenvalues --   -2.19839  -2.19825  -2.19391  -2.18930  -1.14081
  Beta  occ. eigenvalues --   -1.14045  -1.13978  -1.13839  -1.13817  -1.13804
  Beta  occ. eigenvalues --   -1.13798  -1.13773  -1.13767  -1.13602  -1.13549
  Beta  occ. eigenvalues --   -1.13510  -1.13474  -1.13469  -1.13458  -1.13061
  Beta  occ. eigenvalues --   -1.13057  -1.12999  -1.12605  -1.12587  -1.12569
  Beta  occ. eigenvalues --   -0.17092  -0.12863  -0.11999
  Beta virt. eigenvalues --   -0.07559  -0.05874  -0.05278  -0.04058  -0.03079
  Beta virt. eigenvalues --   -0.02481  -0.01755  -0.01728  -0.01264  -0.00415
  Beta virt. eigenvalues --   -0.00203   0.00110   0.00313   0.00533   0.00693

 Mulliken charges and spin densities:
               1          2
     1  Na   0.717665   0.035282
     2  Na  -0.390656   0.228856
     3  Na   0.231489  -0.113129
     4  Na   0.093247   0.280036
     5  Na   0.423881  -0.028366
     6  Na  -1.475995   0.368010
     7  Na   0.400369   0.229311
 Sum of Mulliken charges =  -0.00000   1.00000

 Dipole moment (field-independent basis, Debye):
    X=              0.1324    Y=             -0.3896    Z=              0.3565  Tot=              0.5444
 Quadrupole moment (field-independent basis, Debye-Ang):
   XX=            -55.4341   YY=            -71.4397   ZZ=            -68.6106
   XY=             -3.7919   XZ=             -0.1591   YZ=              1.3582

 Normal termination of Gaussian 16 at Mon Dec  4 00:13:49 2023.
