 Gaussian 16, Revision B.01,
 Gaussian 16:  ES64L-G16RevB.01 20-Dec-2017

 -------------------------
 #P B3LYP/6-311+g(d) force
 -------------------------

 -----
 DPGEN
 -----
 Symbolic Z-matrix:
 Charge =  0 Multiplicity = 2

                         Standard orientation:
 ---------------------------------------------------------------------
 Center     Atomic      Atomic             Coordinates (Angstroms)
 Number     Number       Type             X           Y           Z
 ---------------------------------------------------------------------
      1         11           0        2.382602    2.083832   -0.412097
      2         11           0        0.222556    0.354666    1.815272
      3         11           0       -1.279217   -2.465450    0.446817
      4         11           0        3.195167   -1.651917    0.104023
      5         11           0        0.211779   -0.672826   -1.708727
      6         11           0       -1.213013    2.384448    0.136794
      7         11           0       -3.519874   -0.032753   -0.382081
 ---------------------------------------------------------------------

 SCF Done:  E(UB3LYP) =  -1136.12896094     A.U. after   21 cycles

 The electronic state is 2-A.
 Alpha  occ. eigenvalues --  -38.44826 -38.44639 -38.44087 -38.43709 -38.43529
 Alpha  occ. eigenvalues --  -38.43153 -38.43026  -2.20580  -2.20447  -2.19894
 Alpha  occ. eigenvalues --   -2.19598  -2.19391  -2.19101  -2.18913  -1.14259
 Alpha  occ. eigenvalues --   -1.14234  -1.14223  -1.14118  -1.14105  -1.14086
 Alpha  occ. eigenvalues --   -1.13574  -1.13556  -1.13521  -1.13321  -1.13258
 Alpha  occ. eigenvalues --   -1.13202  -1.13068  -1.13052  -1.13005  -1.12864
 Alpha  occ. eigenvalues --   -1.12742  -1.12706  -1.12567  -1.12563  -1.12522
 Alpha  occ. eigenvalues --   -0.18349  -0.13262  -0.12022  -0.10396
 Alpha virt. eigenvalues --   -0.06509  -0.05606  -0.04034  -0.03260  -0.02747
 Alpha virt. eigenvalues --   -0.02348  -0.02106  -0.01394  -0.00601  -0.00142
 Alpha virt. eigenvalues --   -0.00060   0.00253   0.00658   0.00730   0.00777

  Beta  occ. eigenvalues --  -38.44830 -38.44630 -38.44078 -38.43658 -38.43514
  Beta  occ. eigenvalues --  -38.43065 -38.43017  -2.20590  -2.20431  -2.19879
  Beta  occ. eigenvalues --   -2.19504  -2.19367  -2.18943  -2.18900  -1.14255
  Beta  occ. eigenvalues --   -1.14237  -1.14230  -1.14105  -1.14084  -1.14075
  Beta  occ. eigenvalues --   -1.13552  -1.13547  -1.13510  -1.13255  -1.13196
  Beta  occ. eigenvalues --   -1.13132  -1.13046  -1.13012  -1.12985  -1.12780
  Beta  occ. eigenvalues --   -1.12635  -1.12594  -1.12548  -1.12524  -1.12495
  Beta  occ. eigenvalues --   -0.17641  -0.13047  -0.11803
  Beta virt. eigenvalues --   -0.06617  -0.06377  -0.05555  -0.03981  -0.02591
  Beta virt. eigenvalues --   -0.02144  -0.02003  -0.01370  -0.01183  -0.00606
  Beta virt. eigenvalues --   -0.00145   0.00086   0.00292   0.00714   0.00786

 Mulliken charges and spin densities:
               1          2
     1  Na  -0.042881  -0.029705
     2  Na  -0.082081   0.501892
     3  Na   0.205100   0.034209
     4  Na   0.068874  -0.093191
     5  Na  -0.335332   0.484714
     6  Na   0.192916   0.057606
     7  Na  -0.006596   0.044474
 Sum of Mulliken charges =  -0.00000   1.00000

 Dipole moment (field-independent basis, Debye):
    X=              0.4039    Y=             -0.2662    Z=             -0.1132  Tot=              0.4969
 Quadrupole moment (field-independent basis, Debye-Ang):
   XX=            -49.4435   YY=            -66.8838   ZZ=            -75.4758
   XY=             -0.2287   XZ=              0.7668   YZ=             -2.4798

 Normal termination of Gaussian 16 at Tue Dec  5 13:59:17 2023.
