 Gaussian 16, Revision B.01,
 Gaussian 16:  ES64L-G16RevB.01 20-Dec-2017

 -------------------------
 #P B3LYP/6-311+g(d) force
 -------------------------

 -----
 DPGEN
 -----
 Symbolic Z-matrix:
 Charge =  0 Multiplicity = 2

                         Standard orientation:
 ---------------------------------------------------------------------
 Center     Atomic      Atomic             Coordinates (Angstroms)
 Number     Number       Type             X           Y           Z
 ---------------------------------------------------------------------
      1         11           0        3.537964   -1.202868    0.465138
      2         11           0       -4.096420    0.459553    0.254214
      3         11           0        2.320062    2.192859   -0.223115
      4         11           0       -0.886850    1.648406   -0.960176
      5         11           0        1.144292   -0.935727   -0.985699
      6         11           0       -1.614827   -2.237953   -0.640783
      7         11           0       -0.404221    0.075730    2.090420
 ---------------------------------------------------------------------

 SCF Done:  E(UB3LYP) =  -1136.11244316     A.U. after   30 cycles

 The electronic state is 2-A.
 Alpha  occ. eigenvalues --  -38.45942 -38.45572 -38.44882 -38.43424 -38.43388
 Alpha  occ. eigenvalues --  -38.42771 -38.42719  -2.21696  -2.21372  -2.20724
 Alpha  occ. eigenvalues --   -2.19279  -2.19231  -2.18830  -2.18630  -1.15369
 Alpha  occ. eigenvalues --   -1.15354  -1.15315  -1.15067  -1.15013  -1.14976
 Alpha  occ. eigenvalues --   -1.14493  -1.14348  -1.14334  -1.13013  -1.12929
 Alpha  occ. eigenvalues --   -1.12913  -1.12889  -1.12887  -1.12875  -1.12559
 Alpha  occ. eigenvalues --   -1.12480  -1.12424  -1.12327  -1.12288  -1.12228
 Alpha  occ. eigenvalues --   -0.18461  -0.13905  -0.11259  -0.10598
 Alpha virt. eigenvalues --   -0.07737  -0.05261  -0.03911  -0.03297  -0.03080
 Alpha virt. eigenvalues --   -0.02267  -0.02189  -0.01359  -0.00853  -0.00416
 Alpha virt. eigenvalues --   -0.00068   0.00148   0.00357   0.00621   0.00664

  Beta  occ. eigenvalues --  -38.45926 -38.45515 -38.44874 -38.43390 -38.43384
  Beta  occ. eigenvalues --  -38.42730 -38.42687  -2.21667  -2.21264  -2.20710
  Beta  occ. eigenvalues --   -2.19227  -2.19221  -2.18764  -2.18575  -1.15345
  Beta  occ. eigenvalues --   -1.15331  -1.15297  -1.14989  -1.14941  -1.14895
  Beta  occ. eigenvalues --   -1.14487  -1.14333  -1.14321  -1.12962  -1.12903
  Beta  occ. eigenvalues --   -1.12891  -1.12875  -1.12860  -1.12852  -1.12500
  Beta  occ. eigenvalues --   -1.12416  -1.12373  -1.12294  -1.12222  -1.12193
  Beta  occ. eigenvalues --   -0.17761  -0.13695  -0.10969
  Beta virt. eigenvalues --   -0.07494  -0.06820  -0.05265  -0.03484  -0.03018
  Beta virt. eigenvalues --   -0.02810  -0.01631  -0.01425  -0.01313  -0.00516
  Beta virt. eigenvalues --   -0.00369  -0.00020   0.00176   0.00525   0.00677

 Mulliken charges and spin densities:
               1          2
     1  Na   0.429002   0.248402
     2  Na   0.376018   0.202644
     3  Na   0.290765   0.003669
     4  Na  -0.424762  -0.002247
     5  Na  -0.072663   0.073827
     6  Na  -0.230510  -0.043423
     7  Na  -0.367849   0.517128
 Sum of Mulliken charges =  -0.00000   1.00000

 Dipole moment (field-independent basis, Debye):
    X=             -0.9539    Y=              0.2504    Z=              0.6531  Tot=              1.1829
 Quadrupole moment (field-independent basis, Debye-Ang):
   XX=            -43.2492   YY=            -75.8350   ZZ=            -72.3804
   XY=              0.9565   XZ=              2.0955   YZ=             -0.5020

 Normal termination of Gaussian 16 at Thu Dec  7 06:53:51 2023.
