 Gaussian 16, Revision B.01,
 Gaussian 16:  ES64L-G16RevB.01 20-Dec-2017

 -------------------------
 #P B3LYP/6-311+g(d) force
 -------------------------

 -----
 DPGEN
 -----
 Symbolic Z-matrix:
 Charge =  0 Multiplicity = 2

                         Standard orientation:
 ---------------------------------------------------------------------
 Center     Atomic      Atomic             Coordinates (Angstroms)
 Number     Number       Type             X           Y           Z
 ---------------------------------------------------------------------
      1         11           0       -2.876808   -0.392001   -0.235695
      2         11           0        0.406636   -0.035841    2.165123
      3         11           0        2.459973    2.301711   -0.288434
      4         11           0       -2.186880    2.795149   -0.020858
      5         11           0        3.016523   -1.140021   -0.208316
      6         11           0       -0.936937   -3.026186    0.095097
      7         11           0        0.117493   -0.502812   -1.506918
 ---------------------------------------------------------------------

 SCF Done:  E(UB3LYP) =  -1136.12849038     A.U. after   20 cycles

 The electronic state is 2-A.
 Alpha  occ. eigenvalues --  -38.44699 -38.44470 -38.43737 -38.43677 -38.43597
 Alpha  occ. eigenvalues --  -38.43561 -38.43470  -2.20467  -2.20301  -2.19577
 Alpha  occ. eigenvalues --   -2.19485  -2.19451  -2.19429  -2.19417  -1.14142
 Alpha  occ. eigenvalues --   -1.14123  -1.14113  -1.13996  -1.13957  -1.13919
 Alpha  occ. eigenvalues --   -1.13244  -1.13226  -1.13202  -1.13195  -1.13192
 Alpha  occ. eigenvalues --   -1.13157  -1.13142  -1.13115  -1.13098  -1.13093
 Alpha  occ. eigenvalues --   -1.13082  -1.13061  -1.13054  -1.13030  -1.12999
 Alpha  occ. eigenvalues --   -0.18120  -0.13354  -0.11982  -0.10510
 Alpha virt. eigenvalues --   -0.06099  -0.05445  -0.04852  -0.03291  -0.02645
 Alpha virt. eigenvalues --   -0.02445  -0.01694  -0.01410  -0.00824  -0.00565
 Alpha virt. eigenvalues --   -0.00033   0.00311   0.00661   0.00752   0.00826

  Beta  occ. eigenvalues --  -38.44696 -38.44461 -38.43682 -38.43628 -38.43591
  Beta  occ. eigenvalues --  -38.43558 -38.43422  -2.20462  -2.20287  -2.19477
  Beta  occ. eigenvalues --   -2.19460  -2.19416  -2.19376  -2.19341  -1.14129
  Beta  occ. eigenvalues --   -1.14118  -1.14110  -1.13982  -1.13928  -1.13911
  Beta  occ. eigenvalues --   -1.13216  -1.13195  -1.13138  -1.13125  -1.13113
  Beta  occ. eigenvalues --   -1.13104  -1.13099  -1.13085  -1.13061  -1.13053
  Beta  occ. eigenvalues --   -1.13039  -1.13030  -1.13024  -1.13002  -1.12953
  Beta  occ. eigenvalues --   -0.17421  -0.13131  -0.11851
  Beta virt. eigenvalues --   -0.06554  -0.06078  -0.05322  -0.04836  -0.02527
  Beta virt. eigenvalues --   -0.01937  -0.01614  -0.01464  -0.01319  -0.00851
  Beta virt. eigenvalues --   -0.00594   0.00150   0.00367   0.00688   0.00828

 Mulliken charges and spin densities:
               1          2
     1  Na   0.060963   0.033709
     2  Na  -0.486809   0.759741
     3  Na  -0.150308  -0.037778
     4  Na  -0.172768  -0.058556
     5  Na   0.323721   0.034008
     6  Na   0.347662   0.038967
     7  Na   0.077540   0.229909
 Sum of Mulliken charges =  -0.00000   1.00000

 Dipole moment (field-independent basis, Debye):
    X=              0.8693    Y=             -0.0477    Z=              0.0474  Tot=              0.8719
 Quadrupole moment (field-independent basis, Debye-Ang):
   XX=            -58.6337   YY=            -59.1502   ZZ=            -76.3996
   XY=              1.6273   XZ=             -0.7218   YZ=             -0.9950

 Normal termination of Gaussian 16 at Thu Dec  7 03:01:30 2023.
