 Gaussian 16, Revision B.01,
 Gaussian 16:  ES64L-G16RevB.01 20-Dec-2017

 -------------------------
 #P B3LYP/6-311+g(d) force
 -------------------------

 -----
 DPGEN
 -----
 Symbolic Z-matrix:
 Charge =  0 Multiplicity = 2

                         Standard orientation:
 ---------------------------------------------------------------------
 Center     Atomic      Atomic             Coordinates (Angstroms)
 Number     Number       Type             X           Y           Z
 ---------------------------------------------------------------------
      1         11           0        0.026531   -0.008823    1.850918
      2         11           0       -3.067719    1.494195   -0.505690
      3         11           0        1.195188   -2.673699   -0.034480
      4         11           0        3.406262    0.210530   -0.259900
      5         11           0        0.805068    2.954516    0.350047
      6         11           0       -2.531535   -1.858005    0.267965
      7         11           0        0.166204   -0.118715   -1.668859
 ---------------------------------------------------------------------

 SCF Done:  E(UB3LYP) =  -1136.13501707     A.U. after   20 cycles

 The electronic state is 2-A.
 Alpha  occ. eigenvalues --  -38.44646 -38.44185 -38.43908 -38.43564 -38.43412
 Alpha  occ. eigenvalues --  -38.43272 -38.43262  -2.20438  -2.19965  -2.19728
 Alpha  occ. eigenvalues --   -2.19486  -2.19215  -2.19187  -2.19124  -1.14119
 Alpha  occ. eigenvalues --   -1.14088  -1.14073  -1.13637  -1.13622  -1.13604
 Alpha  occ. eigenvalues --   -1.13409  -1.13390  -1.13359  -1.13197  -1.13139
 Alpha  occ. eigenvalues --   -1.13095  -1.12916  -1.12881  -1.12867  -1.12844
 Alpha  occ. eigenvalues --   -1.12825  -1.12809  -1.12796  -1.12772  -1.12736
 Alpha  occ. eigenvalues --   -0.18257  -0.13073  -0.12133  -0.10450
 Alpha virt. eigenvalues --   -0.06118  -0.05307  -0.04648  -0.03124  -0.02741
 Alpha virt. eigenvalues --   -0.02285  -0.01965  -0.01247  -0.00622  -0.00468
 Alpha virt. eigenvalues --   -0.00034   0.00305   0.00723   0.00809   0.00828

  Beta  occ. eigenvalues --  -38.44640 -38.44170 -38.43903 -38.43507 -38.43404
  Beta  occ. eigenvalues --  -38.43257 -38.43185  -2.20429  -2.19940  -2.19722
  Beta  occ. eigenvalues --   -2.19382  -2.19202  -2.19119  -2.19027  -1.14100
  Beta  occ. eigenvalues --   -1.14084  -1.14064  -1.13612  -1.13604  -1.13588
  Beta  occ. eigenvalues --   -1.13395  -1.13384  -1.13348  -1.13124  -1.13068
  Beta  occ. eigenvalues --   -1.13016  -1.12889  -1.12859  -1.12839  -1.12811
  Beta  occ. eigenvalues --   -1.12782  -1.12752  -1.12725  -1.12700  -1.12670
  Beta  occ. eigenvalues --   -0.17571  -0.12808  -0.11864
  Beta virt. eigenvalues --   -0.06706  -0.05997  -0.05256  -0.04596  -0.02450
  Beta virt. eigenvalues --   -0.02010  -0.01838  -0.01316  -0.01171  -0.00615
  Beta virt. eigenvalues --   -0.00516   0.00104   0.00347   0.00790   0.00818

 Mulliken charges and spin densities:
               1          2
     1  Na  -0.034584   0.620795
     2  Na  -0.079933   0.044887
     3  Na   0.096081  -0.101202
     4  Na   0.098722  -0.061383
     5  Na  -0.078620  -0.063909
     6  Na   0.147675  -0.024089
     7  Na  -0.149341   0.584901
 Sum of Mulliken charges =  -0.00000   1.00000

 Dipole moment (field-independent basis, Debye):
    X=              0.2164    Y=             -0.0127    Z=             -0.0171  Tot=              0.2174
 Quadrupole moment (field-independent basis, Debye-Ang):
   XX=            -53.0084   YY=            -63.4364   ZZ=            -75.6923
   XY=              0.1693   XZ=              0.1075   YZ=             -0.8659

 Normal termination of Gaussian 16 at Tue Dec  5 16:30:56 2023.
