 Gaussian 16, Revision B.01,
 Gaussian 16:  ES64L-G16RevB.01 20-Dec-2017

 -------------------------
 #P B3LYP/6-311+g(d) force
 -------------------------

 -----
 DPGEN
 -----
 Symbolic Z-matrix:
 Charge =  0 Multiplicity = 2

                         Standard orientation:
 ---------------------------------------------------------------------
 Center     Atomic      Atomic             Coordinates (Angstroms)
 Number     Number       Type             X           Y           Z
 ---------------------------------------------------------------------
      1         11           0       -3.909628    0.874334   -0.492374
      2         11           0        1.608386    1.481357    0.709067
      3         11           0       -0.496482   -1.369523    0.572600
      4         11           0       -1.641857    3.152028   -0.193958
      5         11           0        4.532855    0.590055   -0.104562
      6         11           0       -3.334572   -2.764957    0.157381
      7         11           0        3.241298   -1.963293   -0.648154
 ---------------------------------------------------------------------

 SCF Done:  E(UB3LYP) =  -1136.11338014     A.U. after   23 cycles

 The electronic state is 2-A.
 Alpha  occ. eigenvalues --  -38.45873 -38.45049 -38.44149 -38.44076 -38.43946
 Alpha  occ. eigenvalues --  -38.43534 -38.43224  -2.21702  -2.20943  -2.20002
 Alpha  occ. eigenvalues --   -2.19888  -2.19741  -2.19379  -2.19011  -1.15434
 Alpha  occ. eigenvalues --   -1.15359  -1.15322  -1.14605  -1.14583  -1.14565
 Alpha  occ. eigenvalues --   -1.13690  -1.13667  -1.13602  -1.13556  -1.13550
 Alpha  occ. eigenvalues --   -1.13503  -1.13429  -1.13405  -1.13383  -1.13058
 Alpha  occ. eigenvalues --   -1.13021  -1.13003  -1.12691  -1.12685  -1.12652
 Alpha  occ. eigenvalues --   -0.17104  -0.14613  -0.11826  -0.10741
 Alpha virt. eigenvalues --   -0.07469  -0.05087  -0.04265  -0.03851  -0.03379
 Alpha virt. eigenvalues --   -0.02482  -0.02106  -0.01056  -0.00989  -0.00735
 Alpha virt. eigenvalues --   -0.00417   0.00140   0.00339   0.00472   0.00605

  Beta  occ. eigenvalues --  -38.45847 -38.45009 -38.44104 -38.44015 -38.43951
  Beta  occ. eigenvalues --  -38.43481 -38.43230  -2.21660  -2.20871  -2.19921
  Beta  occ. eigenvalues --   -2.19775  -2.19750  -2.19284  -2.19026  -1.15392
  Beta  occ. eigenvalues --   -1.15335  -1.15267  -1.14544  -1.14532  -1.14518
  Beta  occ. eigenvalues --   -1.13618  -1.13611  -1.13558  -1.13479  -1.13477
  Beta  occ. eigenvalues --   -1.13435  -1.13422  -1.13412  -1.13377  -1.12996
  Beta  occ. eigenvalues --   -1.12958  -1.12927  -1.12699  -1.12697  -1.12643
  Beta  occ. eigenvalues --   -0.16409  -0.14045  -0.11672
  Beta virt. eigenvalues --   -0.07320  -0.07232  -0.04657  -0.04002  -0.03440
  Beta virt. eigenvalues --   -0.02856  -0.02282  -0.01904  -0.00975  -0.00766
  Beta virt. eigenvalues --   -0.00506  -0.00119   0.00245   0.00509   0.00622

 Mulliken charges and spin densities:
               1          2
     1  Na  -0.145065   0.336622
     2  Na  -0.030244  -0.142212
     3  Na  -1.210674   0.269752
     4  Na   0.149996  -0.048289
     5  Na   0.099883   0.421059
     6  Na   0.700557   0.125101
     7  Na   0.435546   0.037967
 Sum of Mulliken charges =  -0.00000   1.00000

 Dipole moment (field-independent basis, Debye):
    X=              1.6169    Y=             -0.8466    Z=             -0.2276  Tot=              1.8393
 Quadrupole moment (field-independent basis, Debye-Ang):
   XX=            -60.0009   YY=            -65.0108   ZZ=            -72.7993
   XY=              5.5568   XZ=              1.0406   YZ=              2.2024

 Normal termination of Gaussian 16 at Mon Dec  4 01:08:22 2023.
