 Gaussian 16, Revision B.01,
 Gaussian 16:  ES64L-G16RevB.01 20-Dec-2017

 -------------------------
 #P B3LYP/6-311+g(d) force
 -------------------------

 -----
 DPGEN
 -----
 Symbolic Z-matrix:
 Charge =  0 Multiplicity = 2

                         Standard orientation:
 ---------------------------------------------------------------------
 Center     Atomic      Atomic             Coordinates (Angstroms)
 Number     Number       Type             X           Y           Z
 ---------------------------------------------------------------------
      1         11           0       -0.153079   -2.200942   -1.174598
      2         11           0        4.095114    1.275371   -0.126484
      3         11           0       -1.065869   -0.798965    2.039467
      4         11           0       -2.167078    2.706765    0.392848
      5         11           0        2.040052   -1.301984    0.815573
      6         11           0       -2.977384   -0.635634   -0.668771
      7         11           0        0.228244    0.955389   -1.278035
 ---------------------------------------------------------------------

 SCF Done:  E(UB3LYP) =  -1136.12335208     A.U. after   23 cycles

 The electronic state is 2-A.
 Alpha  occ. eigenvalues --  -38.44817 -38.44645 -38.43942 -38.43897 -38.43492
 Alpha  occ. eigenvalues --  -38.43470 -38.43061  -2.20690  -2.20395  -2.19832
 Alpha  occ. eigenvalues --   -2.19796  -2.19404  -2.19272  -2.19020  -1.14379
 Alpha  occ. eigenvalues --   -1.14366  -1.14301  -1.14071  -1.14064  -1.14029
 Alpha  occ. eigenvalues --   -1.13516  -1.13505  -1.13485  -1.13472  -1.13424
 Alpha  occ. eigenvalues --   -1.13390  -1.13121  -1.13088  -1.13003  -1.12945
 Alpha  occ. eigenvalues --   -1.12932  -1.12909  -1.12703  -1.12671  -1.12620
 Alpha  occ. eigenvalues --   -0.18615  -0.13382  -0.11652  -0.11244
 Alpha virt. eigenvalues --   -0.06904  -0.05116  -0.03960  -0.03401  -0.02865
 Alpha virt. eigenvalues --   -0.02552  -0.02258  -0.01090  -0.00620  -0.00295
 Alpha virt. eigenvalues --    0.00058   0.00185   0.00300   0.00675   0.00812

  Beta  occ. eigenvalues --  -38.44799 -38.44655 -38.43855 -38.43855 -38.43473
  Beta  occ. eigenvalues --  -38.43467 -38.43024  -2.20662  -2.20413  -2.19722
  Beta  occ. eigenvalues --   -2.19669  -2.19371  -2.19267  -2.18955  -1.14360
  Beta  occ. eigenvalues --   -1.14319  -1.14281  -1.14082  -1.14077  -1.14041
  Beta  occ. eigenvalues --   -1.13462  -1.13409  -1.13397  -1.13367  -1.13339
  Beta  occ. eigenvalues --   -1.13308  -1.13100  -1.13056  -1.12970  -1.12942
  Beta  occ. eigenvalues --   -1.12921  -1.12906  -1.12657  -1.12621  -1.12558
  Beta  occ. eigenvalues --   -0.17823  -0.13241  -0.11501
  Beta virt. eigenvalues --   -0.07153  -0.06794  -0.04982  -0.03725  -0.02842
  Beta virt. eigenvalues --   -0.02403  -0.02074  -0.01615  -0.00962  -0.00519
  Beta virt. eigenvalues --   -0.00080   0.00081   0.00215   0.00456   0.00700

 Mulliken charges and spin densities:
               1          2
     1  Na   0.270046   0.170396
     2  Na   0.057188  -0.103330
     3  Na  -0.447119   0.445282
     4  Na   0.079521  -0.081477
     5  Na   0.294861   0.153653
     6  Na   0.565422   0.095213
     7  Na  -0.819919   0.320263
 Sum of Mulliken charges =  -0.00000   1.00000

 Dipole moment (field-independent basis, Debye):
    X=             -0.1869    Y=              0.0239    Z=              0.0262  Tot=              0.1903
 Quadrupole moment (field-independent basis, Debye-Ang):
   XX=            -53.4757   YY=            -68.8535   ZZ=            -71.4390
   XY=              2.7206   XZ=              0.5369   YZ=              1.7011

 Normal termination of Gaussian 16 at Wed Dec  6 01:23:42 2023.
