 Gaussian 16, Revision B.01,
 Gaussian 16:  ES64L-G16RevB.01 20-Dec-2017

 -------------------------
 #P B3LYP/6-311+g(d) force
 -------------------------

 -----
 DPGEN
 -----
 Symbolic Z-matrix:
 Charge =  0 Multiplicity = 2

                         Standard orientation:
 ---------------------------------------------------------------------
 Center     Atomic      Atomic             Coordinates (Angstroms)
 Number     Number       Type             X           Y           Z
 ---------------------------------------------------------------------
      1         11           0        2.776918   -1.565446   -0.929432
      2         11           0        0.073398   -0.440355   -1.609718
      3         11           0       -3.892889    0.089305   -0.972525
      4         11           0        1.980078    2.393145   -0.650374
      5         11           0       -1.692389    1.368676    1.093914
      6         11           0       -0.907241   -2.090776    1.186025
      7         11           0        1.662125    0.245451    1.882110
 ---------------------------------------------------------------------

 SCF Done:  E(UB3LYP) =  -1136.12567786     A.U. after   24 cycles

 The electronic state is 2-A.
 Alpha  occ. eigenvalues --  -38.44861 -38.43992 -38.43940 -38.43855 -38.43827
 Alpha  occ. eigenvalues --  -38.43546 -38.43031  -2.20648  -2.19843  -2.19836
 Alpha  occ. eigenvalues --   -2.19790  -2.19669  -2.19402  -2.18853  -1.14316
 Alpha  occ. eigenvalues --   -1.14305  -1.14269  -1.13642  -1.13524  -1.13523
 Alpha  occ. eigenvalues --   -1.13478  -1.13467  -1.13452  -1.13446  -1.13417
 Alpha  occ. eigenvalues --   -1.13363  -1.13355  -1.13318  -1.13269  -1.13096
 Alpha  occ. eigenvalues --   -1.13080  -1.13013  -1.12533  -1.12511  -1.12482
 Alpha  occ. eigenvalues --   -0.18406  -0.13547  -0.11665  -0.11012
 Alpha virt. eigenvalues --   -0.06383  -0.04972  -0.04516  -0.03114  -0.02855
 Alpha virt. eigenvalues --   -0.02703  -0.02075  -0.01075  -0.00777  -0.00022
 Alpha virt. eigenvalues --    0.00150   0.00279   0.00304   0.00659   0.00823

  Beta  occ. eigenvalues --  -38.44837 -38.43976 -38.43885 -38.43812 -38.43784
  Beta  occ. eigenvalues --  -38.43533 -38.43022  -2.20603  -2.19815  -2.19739
  Beta  occ. eigenvalues --   -2.19712  -2.19593  -2.19382  -2.18837  -1.14287
  Beta  occ. eigenvalues --   -1.14270  -1.14241  -1.13604  -1.13490  -1.13450
  Beta  occ. eigenvalues --   -1.13429  -1.13412  -1.13405  -1.13378  -1.13366
  Beta  occ. eigenvalues --   -1.13317  -1.13297  -1.13247  -1.13222  -1.13083
  Beta  occ. eigenvalues --   -1.13038  -1.13001  -1.12515  -1.12504  -1.12466
  Beta  occ. eigenvalues --   -0.17634  -0.13260  -0.10847
  Beta virt. eigenvalues --   -0.07763  -0.06137  -0.04816  -0.04059  -0.02873
  Beta virt. eigenvalues --   -0.02299  -0.01989  -0.01796  -0.00865  -0.00523
  Beta virt. eigenvalues --    0.00084   0.00204   0.00313   0.00393   0.00712

 Mulliken charges and spin densities:
               1          2
     1  Na   0.328309  -0.056805
     2  Na  -0.350115   0.524566
     3  Na   0.195622   0.009853
     4  Na  -0.173026  -0.019420
     5  Na  -0.174044   0.085447
     6  Na  -0.144649   0.129902
     7  Na   0.317903   0.326458
 Sum of Mulliken charges =  -0.00000   1.00000

 Dipole moment (field-independent basis, Debye):
    X=             -0.5910    Y=             -0.4210    Z=             -0.1343  Tot=              0.7379
 Quadrupole moment (field-independent basis, Debye-Ang):
   XX=            -51.8295   YY=            -75.0574   ZZ=            -66.6500
   XY=             -0.3453   XZ=              2.0596   YZ=             -2.9858

 Normal termination of Gaussian 16 at Wed Nov 29 16:36:14 2023.
