 Gaussian 16, Revision B.01,
 Gaussian 16:  ES64L-G16RevB.01 20-Dec-2017

 -------------------------
 #P B3LYP/6-311+g(d) force
 -------------------------

 -----
 DPGEN
 -----
 Symbolic Z-matrix:
 Charge =  0 Multiplicity = 2

                         Standard orientation:
 ---------------------------------------------------------------------
 Center     Atomic      Atomic             Coordinates (Angstroms)
 Number     Number       Type             X           Y           Z
 ---------------------------------------------------------------------
      1         11           0        3.397796    0.077968    0.441717
      2         11           0       -0.209770   -0.325520   -1.524225
      3         11           0        1.075125   -2.833889   -0.438776
      4         11           0       -2.244431    2.326944    0.007683
      5         11           0       -3.132547   -1.556425    0.115842
      6         11           0        1.249881    2.435238   -0.561763
      7         11           0       -0.136054   -0.124315    1.959522
 ---------------------------------------------------------------------

 SCF Done:  E(UB3LYP) =  -1136.13114026     A.U. after   20 cycles

 The electronic state is 2-A.
 Alpha  occ. eigenvalues --  -38.44758 -38.44337 -38.43948 -38.43799 -38.43748
 Alpha  occ. eigenvalues --  -38.43117 -38.43012  -2.20520  -2.20135  -2.19745
 Alpha  occ. eigenvalues --   -2.19660  -2.19582  -2.18997  -2.18986  -1.14202
 Alpha  occ. eigenvalues --   -1.14168  -1.14162  -1.13808  -1.13799  -1.13768
 Alpha  occ. eigenvalues --   -1.13424  -1.13408  -1.13383  -1.13350  -1.13327
 Alpha  occ. eigenvalues --   -1.13292  -1.13265  -1.13225  -1.13189  -1.12731
 Alpha  occ. eigenvalues --   -1.12673  -1.12639  -1.12625  -1.12607  -1.12593
 Alpha  occ. eigenvalues --   -0.18232  -0.12900  -0.12261  -0.10458
 Alpha virt. eigenvalues --   -0.06279  -0.05450  -0.04362  -0.03129  -0.02754
 Alpha virt. eigenvalues --   -0.02339  -0.02009  -0.01384  -0.00666  -0.00265
 Alpha virt. eigenvalues --   -0.00028   0.00303   0.00681   0.00738   0.00777

  Beta  occ. eigenvalues --  -38.44757 -38.44328 -38.43947 -38.43733 -38.43719
  Beta  occ. eigenvalues --  -38.43104 -38.42947  -2.20520  -2.20120  -2.19747
  Beta  occ. eigenvalues --   -2.19558  -2.19510  -2.18966  -2.18880  -1.14190
  Beta  occ. eigenvalues --   -1.14169  -1.14161  -1.13800  -1.13772  -1.13761
  Beta  occ. eigenvalues --   -1.13417  -1.13407  -1.13379  -1.13302  -1.13247
  Beta  occ. eigenvalues --   -1.13203  -1.13185  -1.13175  -1.13152  -1.12694
  Beta  occ. eigenvalues --   -1.12615  -1.12599  -1.12592  -1.12533  -1.12520
  Beta  occ. eigenvalues --   -0.17542  -0.12697  -0.11974
  Beta virt. eigenvalues --   -0.06683  -0.06168  -0.05404  -0.04307  -0.02470
  Beta virt. eigenvalues --   -0.02059  -0.01846  -0.01321  -0.01312  -0.00693
  Beta virt. eigenvalues --   -0.00273   0.00107   0.00330   0.00709   0.00807

 Mulliken charges and spin densities:
               1          2
     1  Na   0.027465   0.104149
     2  Na   0.121866   0.255217
     3  Na   0.094944  -0.036873
     4  Na   0.022953  -0.043403
     5  Na  -0.021778  -0.072718
     6  Na   0.099406   0.044944
     7  Na  -0.344856   0.748684
 Sum of Mulliken charges =  -0.00000   1.00000

 Dipole moment (field-independent basis, Debye):
    X=             -0.4180    Y=             -0.2986    Z=              0.2845  Tot=              0.5872
 Quadrupole moment (field-independent basis, Debye-Ang):
   XX=            -51.8418   YY=            -63.6751   ZZ=            -76.0197
   XY=             -0.1577   XZ=              0.3013   YZ=             -0.4608

 Normal termination of Gaussian 16 at Fri Dec  8 05:23:57 2023.
