 Gaussian 16, Revision B.01,
 Gaussian 16:  ES64L-G16RevB.01 20-Dec-2017

 -------------------------
 #P B3LYP/6-311+g(d) force
 -------------------------

 -----
 DPGEN
 -----
 Symbolic Z-matrix:
 Charge =  0 Multiplicity = 2

                         Standard orientation:
 ---------------------------------------------------------------------
 Center     Atomic      Atomic             Coordinates (Angstroms)
 Number     Number       Type             X           Y           Z
 ---------------------------------------------------------------------
      1         11           0       -0.868339   -1.252639   -0.316344
      2         11           0       -1.735179    1.849680   -0.233320
      3         11           0       -5.007412    0.413405    0.835631
      4         11           0       -7.791674   -0.512017   -0.076445
      5         11           0        7.722526   -0.149015    1.028415
      6         11           0        2.885044   -1.585692   -0.472858
      7         11           0        4.795034    1.236278   -0.765079
 ---------------------------------------------------------------------

 SCF Done:  E(UB3LYP) =  -1136.10529409     A.U. after   20 cycles

 The electronic state is 2-A.
 Alpha  occ. eigenvalues --  -38.45337 -38.45217 -38.44775 -38.44641 -38.44624
 Alpha  occ. eigenvalues --  -38.43241 -38.43187  -2.21097  -2.20965  -2.20590
 Alpha  occ. eigenvalues --   -2.20421  -2.20411  -2.19056  -2.18995  -1.14748
 Alpha  occ. eigenvalues --   -1.14747  -1.14699  -1.14652  -1.14645  -1.14602
 Alpha  occ. eigenvalues --   -1.14259  -1.14238  -1.14218  -1.14100  -1.14082
 Alpha  occ. eigenvalues --   -1.14081  -1.14072  -1.14049  -1.14013  -1.12796
 Alpha  occ. eigenvalues --   -1.12701  -1.12697  -1.12670  -1.12658  -1.12573
 Alpha  occ. eigenvalues --   -0.15434  -0.14235  -0.12295  -0.10944
 Alpha virt. eigenvalues --   -0.07157  -0.05162  -0.04871  -0.03589  -0.02862
 Alpha virt. eigenvalues --   -0.02537  -0.02438  -0.01658  -0.01340  -0.01093
 Alpha virt. eigenvalues --   -0.00977  -0.00438  -0.00111   0.00262   0.00293

  Beta  occ. eigenvalues --  -38.45252 -38.45241 -38.44718 -38.44660 -38.44553
  Beta  occ. eigenvalues --  -38.43196 -38.43193  -2.21015  -2.20937  -2.20483
  Beta  occ. eigenvalues --   -2.20454  -2.20286  -2.19012  -2.18970  -1.14689
  Beta  occ. eigenvalues --   -1.14673  -1.14639  -1.14638  -1.14628  -1.14585
  Beta  occ. eigenvalues --   -1.14211  -1.14167  -1.14145  -1.14130  -1.14100
  Beta  occ. eigenvalues --   -1.14035  -1.13990  -1.13984  -1.13935  -1.12758
  Beta  occ. eigenvalues --   -1.12695  -1.12675  -1.12633  -1.12632  -1.12538
  Beta  occ. eigenvalues --   -0.14973  -0.13727  -0.11575
  Beta virt. eigenvalues --   -0.07940  -0.06592  -0.04919  -0.04589  -0.03451
  Beta virt. eigenvalues --   -0.02608  -0.02338  -0.02049  -0.01492  -0.01149
  Beta virt. eigenvalues --   -0.00762  -0.00587  -0.00247   0.00112   0.00274

 Mulliken charges and spin densities:
               1          2
     1  Na   0.014256  -0.005818
     2  Na   0.193429   0.238903
     3  Na  -0.670970  -0.080463
     4  Na   0.366939   0.233844
     5  Na   0.158952   0.473471
     6  Na  -0.059474   0.240034
     7  Na  -0.003132  -0.099972
 Sum of Mulliken charges =  -0.00000   1.00000

 Dipole moment (field-independent basis, Debye):
    X=              2.9475    Y=              0.3280    Z=             -0.3033  Tot=              2.9812
 Quadrupole moment (field-independent basis, Debye-Ang):
   XX=            -73.0593   YY=            -61.5688   ZZ=            -72.9601
   XY=              0.5793   XZ=              5.9039   YZ=             -2.7267

 Normal termination of Gaussian 16 at Mon Dec  4 00:07:33 2023.
