 Gaussian 16, Revision B.01,
 Gaussian 16:  ES64L-G16RevB.01 20-Dec-2017

 -------------------------
 #P B3LYP/6-311+g(d) force
 -------------------------

 -----
 DPGEN
 -----
 Symbolic Z-matrix:
 Charge =  0 Multiplicity = 2

                         Standard orientation:
 ---------------------------------------------------------------------
 Center     Atomic      Atomic             Coordinates (Angstroms)
 Number     Number       Type             X           Y           Z
 ---------------------------------------------------------------------
      1         11           0        0.479254   -0.106648    1.885696
      2         11           0        2.476377    1.572562   -0.224108
      3         11           0       -0.325821    0.093278   -1.760475
      4         11           0       -0.641394    2.744805    0.366193
      5         11           0       -3.187092    0.182383   -0.248079
      6         11           0       -1.170024   -2.587347    0.404831
      7         11           0        2.368701   -1.899033   -0.424058
 ---------------------------------------------------------------------

 SCF Done:  E(UB3LYP) =  -1136.14074309     A.U. after   19 cycles

 The electronic state is 2-A.
 Alpha  occ. eigenvalues --  -38.43858 -38.43617 -38.43586 -38.43415 -38.43367
 Alpha  occ. eigenvalues --  -38.43335 -38.43251  -2.19695  -2.19466  -2.19461
 Alpha  occ. eigenvalues --   -2.19315  -2.19293  -2.19272  -2.19123  -1.13392
 Alpha  occ. eigenvalues --   -1.13347  -1.13333  -1.13171  -1.13143  -1.13133
 Alpha  occ. eigenvalues --   -1.13130  -1.13112  -1.13075  -1.13017  -1.12980
 Alpha  occ. eigenvalues --   -1.12962  -1.12949  -1.12937  -1.12916  -1.12913
 Alpha  occ. eigenvalues --   -1.12904  -1.12887  -1.12793  -1.12785  -1.12744
 Alpha  occ. eigenvalues --   -0.18841  -0.13021  -0.12540  -0.10893
 Alpha virt. eigenvalues --   -0.05407  -0.05109  -0.04664  -0.03224  -0.03047
 Alpha virt. eigenvalues --   -0.02538  -0.01420  -0.01067  -0.00308  -0.00130
 Alpha virt. eigenvalues --    0.00008   0.00369   0.00833   0.00905   0.00913

  Beta  occ. eigenvalues --  -38.43854 -38.43607 -38.43578 -38.43404 -38.43284
  Beta  occ. eigenvalues --  -38.43266 -38.43242  -2.19691  -2.19456  -2.19446
  Beta  occ. eigenvalues --   -2.19255  -2.19169  -2.19162  -2.19109  -1.13379
  Beta  occ. eigenvalues --   -1.13336  -1.13335  -1.13163  -1.13129  -1.13113
  Beta  occ. eigenvalues --   -1.13103  -1.13093  -1.13062  -1.12968  -1.12915
  Beta  occ. eigenvalues --   -1.12900  -1.12886  -1.12870  -1.12841  -1.12835
  Beta  occ. eigenvalues --   -1.12820  -1.12818  -1.12770  -1.12757  -1.12729
  Beta  occ. eigenvalues --   -0.18112  -0.12771  -0.12280
  Beta virt. eigenvalues --   -0.06990  -0.05338  -0.05114  -0.04605  -0.02477
  Beta virt. eigenvalues --   -0.02257  -0.01516  -0.01311  -0.01000  -0.00307
  Beta virt. eigenvalues --   -0.00180   0.00126   0.00395   0.00891   0.00904

 Mulliken charges and spin densities:
               1          2
     1  Na  -0.201819   0.602430
     2  Na   0.156811  -0.031113
     3  Na  -0.255871   0.605008
     4  Na   0.082629  -0.041981
     5  Na   0.112050  -0.060261
     6  Na   0.065074  -0.052374
     7  Na   0.041127  -0.021708
 Sum of Mulliken charges =  -0.00000   1.00000

 Dipole moment (field-independent basis, Debye):
    X=             -0.0348    Y=             -0.0407    Z=             -0.0162  Tot=              0.0559
 Quadrupole moment (field-independent basis, Debye-Ang):
   XX=            -57.2686   YY=            -63.0673   ZZ=            -73.3021
   XY=             -0.3484   XZ=             -1.6446   YZ=              0.5002

 Normal termination of Gaussian 16 at Thu Dec  7 22:02:20 2023.
