 Gaussian 16, Revision B.01,
 Gaussian 16:  ES64L-G16RevB.01 20-Dec-2017

 -------------------------
 #P B3LYP/6-311+g(d) force
 -------------------------

 -----
 DPGEN
 -----
 Symbolic Z-matrix:
 Charge =  0 Multiplicity = 2

                         Standard orientation:
 ---------------------------------------------------------------------
 Center     Atomic      Atomic             Coordinates (Angstroms)
 Number     Number       Type             X           Y           Z
 ---------------------------------------------------------------------
      1         11           0        3.272780   -1.538165    0.523210
      2         11           0        2.270246    2.459315    0.132300
      3         11           0       -1.403698    2.144079   -0.478892
      4         11           0       -0.049713   -0.497427    1.942941
      5         11           0       -4.071327   -0.034740    0.503294
      6         11           0        0.867763    0.028441   -1.632580
      7         11           0       -0.886051   -2.561503   -0.990273
 ---------------------------------------------------------------------

 SCF Done:  E(UB3LYP) =  -1136.12387991     A.U. after   22 cycles

 The electronic state is 2-A.
 Alpha  occ. eigenvalues --  -38.44848 -38.44791 -38.44751 -38.43696 -38.43677
 Alpha  occ. eigenvalues --  -38.43334 -38.43083  -2.20595  -2.20592  -2.20518
 Alpha  occ. eigenvalues --   -2.19517  -2.19479  -2.19163  -2.19053  -1.14283
 Alpha  occ. eigenvalues --   -1.14265  -1.14255  -1.14248  -1.14220  -1.14205
 Alpha  occ. eigenvalues --   -1.14191  -1.14164  -1.14149  -1.13227  -1.13169
 Alpha  occ. eigenvalues --   -1.13161  -1.13141  -1.13123  -1.13109  -1.12890
 Alpha  occ. eigenvalues --   -1.12847  -1.12761  -1.12733  -1.12691  -1.12652
 Alpha  occ. eigenvalues --   -0.17827  -0.12903  -0.11786  -0.10786
 Alpha virt. eigenvalues --   -0.06797  -0.05398  -0.04162  -0.03145  -0.02774
 Alpha virt. eigenvalues --   -0.02518  -0.02398  -0.01415  -0.00843  -0.00219
 Alpha virt. eigenvalues --   -0.00076   0.00164   0.00404   0.00641   0.00682

  Beta  occ. eigenvalues --  -38.44836 -38.44740 -38.44734 -38.43679 -38.43652
  Beta  occ. eigenvalues --  -38.43327 -38.43016  -2.20572  -2.20500  -2.20487
  Beta  occ. eigenvalues --   -2.19483  -2.19439  -2.19154  -2.18933  -1.14249
  Beta  occ. eigenvalues --   -1.14239  -1.14216  -1.14207  -1.14184  -1.14166
  Beta  occ. eigenvalues --   -1.14146  -1.14135  -1.14117  -1.13169  -1.13158
  Beta  occ. eigenvalues --   -1.13143  -1.13106  -1.13100  -1.13074  -1.12872
  Beta  occ. eigenvalues --   -1.12832  -1.12752  -1.12660  -1.12600  -1.12560
  Beta  occ. eigenvalues --   -0.17161  -0.12658  -0.11501
  Beta virt. eigenvalues --   -0.07133  -0.06470  -0.05350  -0.03994  -0.02726
  Beta virt. eigenvalues --   -0.02245  -0.02119  -0.01576  -0.01382  -0.00656
  Beta virt. eigenvalues --   -0.00078  -0.00068   0.00214   0.00532   0.00709

 Mulliken charges and spin densities:
               1          2
     1  Na   0.018343   0.080782
     2  Na   0.034123  -0.005801
     3  Na  -0.207486  -0.117922
     4  Na  -0.331506   0.650605
     5  Na   0.105007   0.104507
     6  Na   0.456038   0.360893
     7  Na  -0.074520  -0.073065
 Sum of Mulliken charges =  -0.00000   1.00000

 Dipole moment (field-independent basis, Debye):
    X=              0.1011    Y=             -0.3532    Z=              0.4858  Tot=              0.6091
 Quadrupole moment (field-independent basis, Debye-Ang):
   XX=            -50.5365   YY=            -69.1441   ZZ=            -73.0470
   XY=              1.2765   XZ=              0.6324   YZ=              1.1617

 Normal termination of Gaussian 16 at Thu Dec  7 04:30:00 2023.
