 Gaussian 16, Revision B.01,
 Gaussian 16:  ES64L-G16RevB.01 20-Dec-2017

 -------------------------
 #P B3LYP/6-311+g(d) force
 -------------------------

 -----
 DPGEN
 -----
 Symbolic Z-matrix:
 Charge =  0 Multiplicity = 2

                         Standard orientation:
 ---------------------------------------------------------------------
 Center     Atomic      Atomic             Coordinates (Angstroms)
 Number     Number       Type             X           Y           Z
 ---------------------------------------------------------------------
      1         11           0       -1.463151    3.101313    0.672357
      2         11           0        4.714707    0.383286   -0.505122
      3         11           0       -3.260665   -2.206753   -0.729809
      4         11           0        1.601236    3.115137   -0.131481
      5         11           0        3.214029   -2.343580    0.014934
      6         11           0       -0.395770   -2.729842    1.032059
      7         11           0       -4.410386    0.680439   -0.352937
 ---------------------------------------------------------------------

 SCF Done:  E(UB3LYP) =  -1136.10834634     A.U. after   20 cycles

 The electronic state is 2-A.
 Alpha  occ. eigenvalues --  -38.44748 -38.44721 -38.44685 -38.44521 -38.44398
 Alpha  occ. eigenvalues --  -38.44315 -38.44091  -2.20535  -2.20526  -2.20493
 Alpha  occ. eigenvalues --   -2.20299  -2.20206  -2.20113  -2.19875  -1.14273
 Alpha  occ. eigenvalues --   -1.14216  -1.14203  -1.14185  -1.14184  -1.14168
 Alpha  occ. eigenvalues --   -1.14155  -1.14146  -1.14092  -1.13978  -1.13964
 Alpha  occ. eigenvalues --   -1.13937  -1.13851  -1.13842  -1.13834  -1.13761
 Alpha  occ. eigenvalues --   -1.13755  -1.13730  -1.13541  -1.13537  -1.13511
 Alpha  occ. eigenvalues --   -0.15656  -0.14107  -0.13141  -0.11059
 Alpha virt. eigenvalues --   -0.07441  -0.04839  -0.04571  -0.03653  -0.03435
 Alpha virt. eigenvalues --   -0.02508  -0.02098  -0.01593  -0.01234  -0.00995
 Alpha virt. eigenvalues --   -0.00632  -0.00275  -0.00073   0.00495   0.00686

  Beta  occ. eigenvalues --  -38.44749 -38.44687 -38.44654 -38.44500 -38.44342
  Beta  occ. eigenvalues --  -38.44236 -38.44080  -2.20535  -2.20504  -2.20413
  Beta  occ. eigenvalues --   -2.20263  -2.20103  -2.19966  -2.19860  -1.14225
  Beta  occ. eigenvalues --   -1.14215  -1.14214  -1.14175  -1.14159  -1.14152
  Beta  occ. eigenvalues --   -1.14095  -1.14076  -1.14036  -1.13948  -1.13942
  Beta  occ. eigenvalues --   -1.13905  -1.13781  -1.13776  -1.13765  -1.13662
  Beta  occ. eigenvalues --   -1.13656  -1.13636  -1.13532  -1.13527  -1.13486
  Beta  occ. eigenvalues --   -0.15066  -0.13421  -0.12493
  Beta virt. eigenvalues --   -0.07914  -0.07492  -0.04358  -0.04048  -0.03448
  Beta virt. eigenvalues --   -0.03085  -0.02304  -0.01980  -0.01492  -0.00886
  Beta virt. eigenvalues --   -0.00821  -0.00335   0.00025   0.00121   0.00487

 Mulliken charges and spin densities:
               1          2
     1  Na   0.108523  -0.026196
     2  Na   0.300917   0.248391
     3  Na   0.274573  -0.004001
     4  Na  -0.140479   0.088671
     5  Na  -0.081696   0.016705
     6  Na  -0.605188   0.383741
     7  Na   0.143350   0.292689
 Sum of Mulliken charges =  -0.00000   1.00000

 Dipole moment (field-independent basis, Debye):
    X=             -0.1252    Y=             -0.0697    Z=             -0.1755  Tot=              0.2266
 Quadrupole moment (field-independent basis, Debye-Ang):
   XX=            -60.3032   YY=            -68.1802   ZZ=            -72.0453
   XY=              1.2217   XZ=             -1.1510   YZ=              0.5551

 Normal termination of Gaussian 16 at Sun Dec  3 20:11:57 2023.
