 Gaussian 16, Revision B.01,
 Gaussian 16:  ES64L-G16RevB.01 20-Dec-2017

 -------------------------
 #P B3LYP/6-311+g(d) force
 -------------------------

 -----
 DPGEN
 -----
 Symbolic Z-matrix:
 Charge =  0 Multiplicity = 2

                         Standard orientation:
 ---------------------------------------------------------------------
 Center     Atomic      Atomic             Coordinates (Angstroms)
 Number     Number       Type             X           Y           Z
 ---------------------------------------------------------------------
      1         11           0        1.287229   -1.672129    0.644480
      2         11           0        4.472676   -1.865938   -0.956236
      3         11           0        4.003739    1.023761   -0.167166
      4         11           0        1.884369    3.930019    0.456870
      5         11           0       -1.970885   -1.913151    1.461508
      6         11           0       -3.746278   -0.836182   -1.099076
      7         11           0       -5.930850    1.333619   -0.340380
 ---------------------------------------------------------------------

 SCF Done:  E(UB3LYP) =  -1136.10724249     A.U. after   22 cycles

 The electronic state is 2-A.
 Alpha  occ. eigenvalues --  -38.45189 -38.45169 -38.44278 -38.44001 -38.43963
 Alpha  occ. eigenvalues --  -38.43921 -38.43555  -2.21042  -2.20947  -2.20103
 Alpha  occ. eigenvalues --   -2.19792  -2.19781  -2.19708  -2.19377  -1.14724
 Alpha  occ. eigenvalues --   -1.14674  -1.14655  -1.14584  -1.14582  -1.14558
 Alpha  occ. eigenvalues --   -1.13788  -1.13777  -1.13751  -1.13515  -1.13469
 Alpha  occ. eigenvalues --   -1.13454  -1.13436  -1.13433  -1.13412  -1.13402
 Alpha  occ. eigenvalues --   -1.13355  -1.13329  -1.13041  -1.13032  -1.12996
 Alpha  occ. eigenvalues --   -0.16018  -0.14229  -0.12475  -0.11336
 Alpha virt. eigenvalues --   -0.06202  -0.05405  -0.04677  -0.03581  -0.03116
 Alpha virt. eigenvalues --   -0.02566  -0.01750  -0.01684  -0.01550  -0.01187
 Alpha virt. eigenvalues --   -0.00859  -0.00214  -0.00083   0.00451   0.00703

  Beta  occ. eigenvalues --  -38.45126 -38.45061 -38.44282 -38.43967 -38.43966
  Beta  occ. eigenvalues --  -38.43929 -38.43530  -2.20924  -2.20748  -2.20118
  Beta  occ. eigenvalues --   -2.19791  -2.19727  -2.19725  -2.19330  -1.14648
  Beta  occ. eigenvalues --   -1.14593  -1.14579  -1.14450  -1.14447  -1.14422
  Beta  occ. eigenvalues --   -1.13801  -1.13792  -1.13715  -1.13493  -1.13473
  Beta  occ. eigenvalues --   -1.13453  -1.13423  -1.13417  -1.13395  -1.13392
  Beta  occ. eigenvalues --   -1.13329  -1.13321  -1.13011  -1.13000  -1.12965
  Beta  occ. eigenvalues --   -0.15524  -0.13866  -0.10928
  Beta virt. eigenvalues --   -0.08656  -0.06067  -0.04829  -0.04473  -0.03394
  Beta virt. eigenvalues --   -0.02900  -0.02449  -0.01453  -0.01224  -0.01169
  Beta virt. eigenvalues --   -0.00781  -0.00611  -0.00117   0.00089   0.00492

 Mulliken charges and spin densities:
               1          2
     1  Na  -1.058360   0.040116
     2  Na   1.765453   0.332799
     3  Na  -0.277157   0.060208
     4  Na   0.052422   0.470704
     5  Na  -0.495055  -0.030984
     6  Na  -0.069951  -0.033348
     7  Na   0.082648   0.160504
 Sum of Mulliken charges =  -0.00000   1.00000

 Dipole moment (field-independent basis, Debye):
    X=              1.2427    Y=              0.1695    Z=             -0.2316  Tot=              1.2754
 Quadrupole moment (field-independent basis, Debye-Ang):
   XX=            -62.8754   YY=            -64.6652   ZZ=            -70.0649
   XY=             -9.7869   XZ=             -6.2204   YZ=              4.7875

 Normal termination of Gaussian 16 at Sun Dec  3 20:38:00 2023.
