 Gaussian 16, Revision B.01,
 Gaussian 16:  ES64L-G16RevB.01 20-Dec-2017

 -------------------------
 #P B3LYP/6-311+g(d) force
 -------------------------

 -----
 DPGEN
 -----
 Symbolic Z-matrix:
 Charge =  0 Multiplicity = 2

                         Standard orientation:
 ---------------------------------------------------------------------
 Center     Atomic      Atomic             Coordinates (Angstroms)
 Number     Number       Type             X           Y           Z
 ---------------------------------------------------------------------
      1         11           0        3.698307    0.407986    0.016863
      2         11           0        0.322430   -0.310785    2.068269
      3         11           0        1.944418   -2.098681   -0.338602
      4         11           0       -0.368644   -0.417494   -1.639696
      5         11           0       -3.879185   -1.232075    0.171041
      6         11           0        0.769399    2.093859   -0.215843
      7         11           0       -2.486725    1.557189   -0.062031
 ---------------------------------------------------------------------

 SCF Done:  E(UB3LYP) =  -1136.11209087     A.U. after   28 cycles

 The electronic state is 2-A.
 Alpha  occ. eigenvalues --  -38.46371 -38.44834 -38.44674 -38.43954 -38.43815
 Alpha  occ. eigenvalues --  -38.43163 -38.41862  -2.22187  -2.20624  -2.20534
 Alpha  occ. eigenvalues --   -2.19912  -2.19722  -2.19072  -2.17817  -1.15864
 Alpha  occ. eigenvalues --   -1.15844  -1.15828  -1.14322  -1.14275  -1.14250
 Alpha  occ. eigenvalues --   -1.14218  -1.14165  -1.14138  -1.13615  -1.13581
 Alpha  occ. eigenvalues --   -1.13523  -1.13390  -1.13379  -1.13361  -1.12759
 Alpha  occ. eigenvalues --   -1.12728  -1.12713  -1.11526  -1.11472  -1.11449
 Alpha  occ. eigenvalues --   -0.18805  -0.14256  -0.11098  -0.10852
 Alpha virt. eigenvalues --   -0.07812  -0.05189  -0.03906  -0.03288  -0.03064
 Alpha virt. eigenvalues --   -0.02446  -0.02220  -0.01470  -0.00502  -0.00312
 Alpha virt. eigenvalues --   -0.00054   0.00144   0.00349   0.00675   0.00723

  Beta  occ. eigenvalues --  -38.46377 -38.44822 -38.44587 -38.43879 -38.43811
  Beta  occ. eigenvalues --  -38.43153 -38.41850  -2.22200  -2.20602  -2.20373
  Beta  occ. eigenvalues --   -2.19777  -2.19717  -2.19058  -2.17800  -1.15877
  Beta  occ. eigenvalues --   -1.15849  -1.15826  -1.14309  -1.14252  -1.14236
  Beta  occ. eigenvalues --   -1.14109  -1.14051  -1.14023  -1.13528  -1.13491
  Beta  occ. eigenvalues --   -1.13428  -1.13370  -1.13360  -1.13348  -1.12750
  Beta  occ. eigenvalues --   -1.12724  -1.12667  -1.11515  -1.11447  -1.11417
  Beta  occ. eigenvalues --   -0.18066  -0.14039  -0.10864
  Beta virt. eigenvalues --   -0.07678  -0.06911  -0.05207  -0.03413  -0.02982
  Beta virt. eigenvalues --   -0.02875  -0.01600  -0.01517  -0.01322  -0.00385
  Beta virt. eigenvalues --   -0.00185  -0.00030   0.00118   0.00549   0.00731

 Mulliken charges and spin densities:
               1          2
     1  Na   0.265844  -0.015165
     2  Na  -0.557643   0.444421
     3  Na   0.381698   0.308854
     4  Na  -0.254196  -0.056871
     5  Na   0.182244   0.068603
     6  Na  -0.173719   0.238329
     7  Na   0.155772   0.011829
 Sum of Mulliken charges =  -0.00000   1.00000

 Dipole moment (field-independent basis, Debye):
    X=              0.5544    Y=              0.1271    Z=              0.3042  Tot=              0.6450
 Quadrupole moment (field-independent basis, Debye-Ang):
   XX=            -44.6353   YY=            -74.8657   ZZ=            -73.9106
   XY=              3.0072   XZ=             -0.8267   YZ=             -0.6340

 Normal termination of Gaussian 16 at Thu Dec  7 05:58:26 2023.
