 Gaussian 16, Revision B.01,
 Gaussian 16:  ES64L-G16RevB.01 20-Dec-2017

 -------------------------
 #P B3LYP/6-311+g(d) force
 -------------------------

 -----
 DPGEN
 -----
 Symbolic Z-matrix:
 Charge =  0 Multiplicity = 2

                         Standard orientation:
 ---------------------------------------------------------------------
 Center     Atomic      Atomic             Coordinates (Angstroms)
 Number     Number       Type             X           Y           Z
 ---------------------------------------------------------------------
      1         11           0        2.275824   -1.813348    1.487085
      2         11           0       -0.257009   -1.719869   -1.080755
      3         11           0        3.210699    0.223603   -1.152754
      4         11           0       -0.312475    0.909684    1.994695
      5         11           0       -3.409508   -1.418534   -0.599902
      6         11           0        1.155201    2.247868   -0.814437
      7         11           0       -2.662731    1.570595    0.166069
 ---------------------------------------------------------------------

 SCF Done:  E(UB3LYP) =  -1136.12179187     A.U. after   20 cycles

 The electronic state is 2-A.
 Alpha  occ. eigenvalues --  -38.44580 -38.44271 -38.44125 -38.43908 -38.43871
 Alpha  occ. eigenvalues --  -38.43804 -38.43670  -2.20460  -2.20096  -2.19995
 Alpha  occ. eigenvalues --   -2.19756  -2.19726  -2.19651  -2.19549  -1.14210
 Alpha  occ. eigenvalues --   -1.14101  -1.14059  -1.13756  -1.13743  -1.13738
 Alpha  occ. eigenvalues --   -1.13720  -1.13655  -1.13640  -1.13429  -1.13412
 Alpha  occ. eigenvalues --   -1.13407  -1.13398  -1.13393  -1.13360  -1.13300
 Alpha  occ. eigenvalues --   -1.13290  -1.13257  -1.13224  -1.13201  -1.13161
 Alpha  occ. eigenvalues --   -0.18031  -0.14069  -0.11864  -0.11370
 Alpha virt. eigenvalues --   -0.06367  -0.05313  -0.04498  -0.03470  -0.03132
 Alpha virt. eigenvalues --   -0.02498  -0.02133  -0.01137  -0.00548  -0.00043
 Alpha virt. eigenvalues --    0.00006   0.00201   0.00429   0.00593   0.00738

  Beta  occ. eigenvalues --  -38.44537 -38.44215 -38.44122 -38.43901 -38.43809
  Beta  occ. eigenvalues --  -38.43794 -38.43638  -2.20384  -2.19993  -2.19992
  Beta  occ. eigenvalues --   -2.19714  -2.19641  -2.19633  -2.19493  -1.14145
  Beta  occ. eigenvalues --   -1.14047  -1.14004  -1.13723  -1.13680  -1.13666
  Beta  occ. eigenvalues --   -1.13650  -1.13646  -1.13645  -1.13419  -1.13400
  Beta  occ. eigenvalues --   -1.13373  -1.13338  -1.13326  -1.13290  -1.13277
  Beta  occ. eigenvalues --   -1.13271  -1.13246  -1.13188  -1.13165  -1.13098
  Beta  occ. eigenvalues --   -0.17446  -0.13683  -0.11516
  Beta virt. eigenvalues --   -0.07664  -0.06267  -0.05020  -0.03945  -0.03267
  Beta virt. eigenvalues --   -0.02513  -0.02064  -0.01734  -0.00995  -0.00218
  Beta virt. eigenvalues --   -0.00006   0.00064   0.00276   0.00576   0.00773

 Mulliken charges and spin densities:
               1          2
     1  Na   0.288747   0.160283
     2  Na  -0.499679   0.244546
     3  Na   0.385204   0.160822
     4  Na  -0.087702   0.353982
     5  Na  -0.040225  -0.076430
     6  Na  -0.344509   0.073409
     7  Na   0.298164   0.083387
 Sum of Mulliken charges =  -0.00000   1.00000

 Dipole moment (field-independent basis, Debye):
    X=              0.1193    Y=             -0.0949    Z=              0.1771  Tot=              0.2336
 Quadrupole moment (field-independent basis, Debye-Ang):
   XX=            -54.5450   YY=            -73.5651   ZZ=            -69.7422
   XY=             -3.2631   XZ=              0.1578   YZ=             -2.9972

 Normal termination of Gaussian 16 at Sun Dec  3 14:48:14 2023.
