 Gaussian 16, Revision B.01,
 Gaussian 16:  ES64L-G16RevB.01 20-Dec-2017

 -------------------------
 #P B3LYP/6-311+g(d) force
 -------------------------

 -----
 DPGEN
 -----
 Symbolic Z-matrix:
 Charge =  0 Multiplicity = 2

                         Standard orientation:
 ---------------------------------------------------------------------
 Center     Atomic      Atomic             Coordinates (Angstroms)
 Number     Number       Type             X           Y           Z
 ---------------------------------------------------------------------
      1         11           0        0.185939   -1.334974    1.765390
      2         11           0        2.796149   -1.942963    0.284640
      3         11           0       -3.333484   -1.470777   -0.586039
      4         11           0        0.194823    2.640043   -0.416261
      5         11           0       -2.915012    1.812906    0.863598
      6         11           0       -0.296328   -1.242389   -1.625979
      7         11           0        3.367914    1.538155   -0.285349
 ---------------------------------------------------------------------

 SCF Done:  E(UB3LYP) =  -1136.12021325     A.U. after   21 cycles

 The electronic state is 2-A.
 Alpha  occ. eigenvalues --  -38.44659 -38.44325 -38.44324 -38.44253 -38.44212
 Alpha  occ. eigenvalues --  -38.44122 -38.43356  -2.20471  -2.20182  -2.20115
 Alpha  occ. eigenvalues --   -2.20111  -2.20061  -2.19918  -2.19151  -1.14158
 Alpha  occ. eigenvalues --   -1.14123  -1.14105  -1.13920  -1.13845  -1.13820
 Alpha  occ. eigenvalues --   -1.13781  -1.13773  -1.13773  -1.13763  -1.13748
 Alpha  occ. eigenvalues --   -1.13735  -1.13708  -1.13685  -1.13674  -1.13578
 Alpha  occ. eigenvalues --   -1.13573  -1.13549  -1.12836  -1.12832  -1.12788
 Alpha  occ. eigenvalues --   -0.17523  -0.13691  -0.12277  -0.10492
 Alpha virt. eigenvalues --   -0.06786  -0.06050  -0.04167  -0.03469  -0.02842
 Alpha virt. eigenvalues --   -0.02400  -0.02258  -0.01754  -0.00839  -0.00248
 Alpha virt. eigenvalues --   -0.00047   0.00113   0.00404   0.00499   0.00591

  Beta  occ. eigenvalues --  -38.44635 -38.44308 -38.44269 -38.44202 -38.44199
  Beta  occ. eigenvalues --  -38.44082 -38.43358  -2.20429  -2.20085  -2.20079
  Beta  occ. eigenvalues --   -2.20047  -2.20014  -2.19844  -2.19159  -1.14114
  Beta  occ. eigenvalues --   -1.14099  -1.14067  -1.13864  -1.13772  -1.13762
  Beta  occ. eigenvalues --   -1.13755  -1.13747  -1.13742  -1.13713  -1.13697
  Beta  occ. eigenvalues --   -1.13682  -1.13675  -1.13646  -1.13633  -1.13525
  Beta  occ. eigenvalues --   -1.13521  -1.13502  -1.12842  -1.12838  -1.12772
  Beta  occ. eigenvalues --   -0.17020  -0.13317  -0.11856
  Beta virt. eigenvalues --   -0.07073  -0.06702  -0.05730  -0.03808  -0.03098
  Beta virt. eigenvalues --   -0.02340  -0.02178  -0.01789  -0.01384  -0.00754
  Beta virt. eigenvalues --   -0.00034  -0.00003   0.00206   0.00520   0.00606

 Mulliken charges and spin densities:
               1          2
     1  Na  -0.351921   0.295255
     2  Na   0.610859   0.084296
     3  Na   0.287882  -0.025986
     4  Na  -0.102598  -0.076658
     5  Na   0.125183   0.230001
     6  Na  -0.331029   0.404390
     7  Na  -0.238377   0.088703
 Sum of Mulliken charges =  -0.00000   1.00000

 Dipole moment (field-independent basis, Debye):
    X=             -0.0157    Y=             -0.8249    Z=              0.1592  Tot=              0.8403
 Quadrupole moment (field-independent basis, Debye-Ang):
   XX=            -50.6609   YY=            -73.8592   ZZ=            -73.1200
   XY=             -0.9051   XZ=             -1.9758   YZ=              0.6466

 Normal termination of Gaussian 16 at Wed Nov 29 01:23:28 2023.
