 Gaussian 16, Revision B.01,
 Gaussian 16:  ES64L-G16RevB.01 20-Dec-2017

 -------------------------
 #P B3LYP/6-311+g(d) force
 -------------------------

 -----
 DPGEN
 -----
 Symbolic Z-matrix:
 Charge =  0 Multiplicity = 2

                         Standard orientation:
 ---------------------------------------------------------------------
 Center     Atomic      Atomic             Coordinates (Angstroms)
 Number     Number       Type             X           Y           Z
 ---------------------------------------------------------------------
      1         11           0        2.266211    2.865334    0.114500
      2         11           0       -0.467196   -2.332901    0.971216
      3         11           0       -0.683285    3.309988    0.036117
      4         11           0        2.394062   -3.084694   -0.458039
      5         11           0        4.554383   -0.251865   -0.164900
      6         11           0       -3.664070    1.337545   -0.174785
      7         11           0       -4.400105   -1.843407   -0.324109
 ---------------------------------------------------------------------

 SCF Done:  E(UB3LYP) =  -1136.10893303     A.U. after   23 cycles

 The electronic state is 2-A.
 Alpha  occ. eigenvalues --  -38.45117 -38.45053 -38.44726 -38.44618 -38.44327
 Alpha  occ. eigenvalues --  -38.44264 -38.43496  -2.20900  -2.20831  -2.20519
 Alpha  occ. eigenvalues --   -2.20410  -2.20116  -2.20052  -2.19334  -1.14578
 Alpha  occ. eigenvalues --   -1.14562  -1.14550  -1.14496  -1.14488  -1.14443
 Alpha  occ. eigenvalues --   -1.14227  -1.14189  -1.14164  -1.14066  -1.14056
 Alpha  occ. eigenvalues --   -1.14042  -1.13771  -1.13752  -1.13749  -1.13726
 Alpha  occ. eigenvalues --   -1.13720  -1.13687  -1.13006  -1.12974  -1.12967
 Alpha  occ. eigenvalues --   -0.15706  -0.13947  -0.13304  -0.10834
 Alpha virt. eigenvalues --   -0.07549  -0.05291  -0.04039  -0.03702  -0.03290
 Alpha virt. eigenvalues --   -0.02642  -0.02159  -0.01943  -0.01287  -0.00752
 Alpha virt. eigenvalues --   -0.00371  -0.00053   0.00036   0.00491   0.00559

  Beta  occ. eigenvalues --  -38.45106 -38.44991 -38.44733 -38.44581 -38.44262
  Beta  occ. eigenvalues --  -38.44245 -38.43468  -2.20883  -2.20719  -2.20536
  Beta  occ. eigenvalues --   -2.20342  -2.20054  -2.19962  -2.19281  -1.14571
  Beta  occ. eigenvalues --   -1.14555  -1.14509  -1.14420  -1.14415  -1.14358
  Beta  occ. eigenvalues --   -1.14225  -1.14205  -1.14161  -1.14020  -1.14001
  Beta  occ. eigenvalues --   -1.14001  -1.13731  -1.13722  -1.13682  -1.13665
  Beta  occ. eigenvalues --   -1.13646  -1.13626  -1.12978  -1.12937  -1.12931
  Beta  occ. eigenvalues --   -0.15214  -0.13239  -0.12801
  Beta virt. eigenvalues --   -0.07564  -0.07535  -0.04873  -0.03592  -0.03439
  Beta virt. eigenvalues --   -0.02836  -0.02500  -0.02004  -0.01757  -0.01157
  Beta virt. eigenvalues --   -0.00453  -0.00045   0.00137   0.00254   0.00486

 Mulliken charges and spin densities:
               1          2
     1  Na  -0.178680   0.034558
     2  Na  -0.728285   0.285768
     3  Na   0.651979   0.066868
     4  Na   0.317893  -0.016670
     5  Na  -0.313596   0.374874
     6  Na  -0.044293   0.138562
     7  Na   0.294981   0.116040
 Sum of Mulliken charges =  -0.00000   1.00000

 Dipole moment (field-independent basis, Debye):
    X=             -0.8373    Y=             -0.7749    Z=             -0.0318  Tot=              1.1413
 Quadrupole moment (field-independent basis, Debye-Ang):
   XX=            -62.5347   YY=            -65.6115   ZZ=            -72.5609
   XY=              0.1656   XZ=             -0.3769   YZ=              1.6436

 Normal termination of Gaussian 16 at Mon Dec  4 04:30:55 2023.
