 Gaussian 16, Revision B.01,
 Gaussian 16:  ES64L-G16RevB.01 20-Dec-2017

 -------------------------
 #P B3LYP/6-311+g(d) force
 -------------------------

 -----
 DPGEN
 -----
 Symbolic Z-matrix:
 Charge =  0 Multiplicity = 2

                         Standard orientation:
 ---------------------------------------------------------------------
 Center     Atomic      Atomic             Coordinates (Angstroms)
 Number     Number       Type             X           Y           Z
 ---------------------------------------------------------------------
      1         11           0       -2.240944    1.495759    0.651586
      2         11           0        0.404185    4.330884   -0.265058
      3         11           0       -4.231630   -1.333848   -0.378804
      4         11           0       -1.056329   -2.212861    0.130517
      5         11           0        2.072718   -2.815876   -0.061895
      6         11           0        1.097897    0.932384   -0.186395
      7         11           0        3.954105   -0.396441    0.110049
 ---------------------------------------------------------------------

 SCF Done:  E(UB3LYP) =  -1136.12397254     A.U. after   22 cycles

 The electronic state is 2-A.
 Alpha  occ. eigenvalues --  -38.44962 -38.44532 -38.44016 -38.43865 -38.43730
 Alpha  occ. eigenvalues --  -38.43326 -38.43308  -2.20752  -2.20297  -2.19892
 Alpha  occ. eigenvalues --   -2.19758  -2.19551  -2.19226  -2.19197  -1.14472
 Alpha  occ. eigenvalues --   -1.14452  -1.14320  -1.13971  -1.13967  -1.13915
 Alpha  occ. eigenvalues --   -1.13619  -1.13600  -1.13480  -1.13466  -1.13416
 Alpha  occ. eigenvalues --   -1.13404  -1.13218  -1.13204  -1.13171  -1.12878
 Alpha  occ. eigenvalues --   -1.12876  -1.12870  -1.12845  -1.12844  -1.12805
 Alpha  occ. eigenvalues --   -0.17182  -0.13977  -0.13094  -0.10065
 Alpha virt. eigenvalues --   -0.06497  -0.05846  -0.04307  -0.03235  -0.02521
 Alpha virt. eigenvalues --   -0.02389  -0.02002  -0.01800  -0.01409  -0.00391
 Alpha virt. eigenvalues --   -0.00009   0.00251   0.00470   0.00528   0.00662

  Beta  occ. eigenvalues --  -38.44955 -38.44530 -38.44010 -38.43834 -38.43686
  Beta  occ. eigenvalues --  -38.43258 -38.43252  -2.20741  -2.20293  -2.19885
  Beta  occ. eigenvalues --   -2.19709  -2.19470  -2.19111  -2.19088  -1.14463
  Beta  occ. eigenvalues --   -1.14447  -1.14300  -1.13968  -1.13964  -1.13911
  Beta  occ. eigenvalues --   -1.13598  -1.13586  -1.13481  -1.13391  -1.13382
  Beta  occ. eigenvalues --   -1.13363  -1.13162  -1.13148  -1.13116  -1.12821
  Beta  occ. eigenvalues --   -1.12817  -1.12780  -1.12762  -1.12749  -1.12708
  Beta  occ. eigenvalues --   -0.16732  -0.13414  -0.12657
  Beta virt. eigenvalues --   -0.06474  -0.06319  -0.05732  -0.04123  -0.02676
  Beta virt. eigenvalues --   -0.02334  -0.02117  -0.01900  -0.01344  -0.01154
  Beta virt. eigenvalues --   -0.00213   0.00289   0.00445   0.00563   0.00698

 Mulliken charges and spin densities:
               1          2
     1  Na   0.169371   0.160181
     2  Na   0.784524  -0.000261
     3  Na   1.262314   0.403921
     4  Na  -0.750650   0.211507
     5  Na   0.438323  -0.075205
     6  Na  -2.599236  -0.069883
     7  Na   0.695354   0.369740
 Sum of Mulliken charges =  -0.00000   1.00000

 Dipole moment (field-independent basis, Debye):
    X=             -0.3659    Y=              0.9961    Z=             -0.0372  Tot=              1.0618
 Quadrupole moment (field-independent basis, Debye-Ang):
   XX=            -67.2210   YY=            -56.7026   ZZ=            -71.5493
   XY=             -1.0827   XZ=              0.1537   YZ=              0.5750

 Normal termination of Gaussian 16 at Wed Nov 29 16:59:56 2023.
