 Gaussian 16, Revision B.01,
 Gaussian 16:  ES64L-G16RevB.01 20-Dec-2017

 -------------------------
 #P B3LYP/6-311+g(d) force
 -------------------------

 -----
 DPGEN
 -----
 Symbolic Z-matrix:
 Charge =  0 Multiplicity = 2

                         Standard orientation:
 ---------------------------------------------------------------------
 Center     Atomic      Atomic             Coordinates (Angstroms)
 Number     Number       Type             X           Y           Z
 ---------------------------------------------------------------------
      1         11           0        2.890814   -1.541598   -0.459214
      2         11           0       -3.541226   -0.826766   -0.290526
      3         11           0       -0.161175   -2.647072    0.468665
      4         11           0        0.661520    0.428876    1.953679
      5         11           0       -0.446894   -0.045408   -1.365261
      6         11           0        2.303895    2.170257   -0.511844
      7         11           0       -1.706935    2.461711    0.204501
 ---------------------------------------------------------------------

 SCF Done:  E(UB3LYP) =  -1136.13386425     A.U. after   20 cycles

 The electronic state is 2-A.
 Alpha  occ. eigenvalues --  -38.44418 -38.44089 -38.43971 -38.43847 -38.43254
 Alpha  occ. eigenvalues --  -38.43161 -38.43138  -2.20205  -2.19906  -2.19794
 Alpha  occ. eigenvalues --   -2.19661  -2.19235  -2.19071  -2.19011  -1.13882
 Alpha  occ. eigenvalues --   -1.13852  -1.13847  -1.13578  -1.13559  -1.13550
 Alpha  occ. eigenvalues --   -1.13502  -1.13468  -1.13400  -1.13340  -1.13324
 Alpha  occ. eigenvalues --   -1.13287  -1.12963  -1.12906  -1.12840  -1.12751
 Alpha  occ. eigenvalues --   -1.12705  -1.12700  -1.12682  -1.12655  -1.12620
 Alpha  occ. eigenvalues --   -0.18357  -0.13105  -0.12269  -0.10351
 Alpha virt. eigenvalues --   -0.05991  -0.05610  -0.04407  -0.03034  -0.02827
 Alpha virt. eigenvalues --   -0.02147  -0.01932  -0.01369  -0.00576  -0.00312
 Alpha virt. eigenvalues --   -0.00037   0.00276   0.00695   0.00741   0.00856

  Beta  occ. eigenvalues --  -38.44415 -38.44077 -38.43965 -38.43832 -38.43219
  Beta  occ. eigenvalues --  -38.43124 -38.43071  -2.20199  -2.19886  -2.19786
  Beta  occ. eigenvalues --   -2.19635  -2.19172  -2.18989  -2.18906  -1.13869
  Beta  occ. eigenvalues --   -1.13849  -1.13846  -1.13560  -1.13544  -1.13527
  Beta  occ. eigenvalues --   -1.13497  -1.13444  -1.13395  -1.13314  -1.13305
  Beta  occ. eigenvalues --   -1.13261  -1.12910  -1.12864  -1.12791  -1.12685
  Beta  occ. eigenvalues --   -1.12644  -1.12624  -1.12608  -1.12588  -1.12547
  Beta  occ. eigenvalues --   -0.17688  -0.12839  -0.12059
  Beta virt. eigenvalues --   -0.06562  -0.05836  -0.05563  -0.04338  -0.02420
  Beta virt. eigenvalues --   -0.02104  -0.01857  -0.01334  -0.01143  -0.00557
  Beta virt. eigenvalues --   -0.00277   0.00118   0.00340   0.00749   0.00778

 Mulliken charges and spin densities:
               1          2
     1  Na   0.012789   0.080654
     2  Na   0.179838  -0.016498
     3  Na   0.014117   0.049521
     4  Na  -0.088595   0.541752
     5  Na  -0.038796   0.371559
     6  Na  -0.051430   0.061441
     7  Na  -0.027922  -0.088430
 Sum of Mulliken charges =  -0.00000   1.00000

 Dipole moment (field-independent basis, Debye):
    X=             -0.2757    Y=              0.1494    Z=              0.1134  Tot=              0.3335
 Quadrupole moment (field-independent basis, Debye-Ang):
   XX=            -52.4073   YY=            -63.6469   ZZ=            -75.4508
   XY=             -0.0977   XZ=             -1.8704   YZ=             -0.5999

 Normal termination of Gaussian 16 at Tue Dec  5 12:20:21 2023.
