 Gaussian 16, Revision B.01,
 Gaussian 16:  ES64L-G16RevB.01 20-Dec-2017

 -------------------------
 #P B3LYP/6-311+g(d) force
 -------------------------

 -----
 DPGEN
 -----
 Symbolic Z-matrix:
 Charge =  0 Multiplicity = 2

                         Standard orientation:
 ---------------------------------------------------------------------
 Center     Atomic      Atomic             Coordinates (Angstroms)
 Number     Number       Type             X           Y           Z
 ---------------------------------------------------------------------
      1         11           0       -0.052212    2.788943   -0.888639
      2         11           0       -1.920006   -2.692931   -0.409776
      3         11           0       -5.061975   -0.873559    0.301522
      4         11           0        3.593043    1.551057   -0.036532
      5         11           0        4.884678   -1.147331    0.888838
      6         11           0        1.687955   -1.710742   -0.635869
      7         11           0       -3.131484    2.084563    0.780455
 ---------------------------------------------------------------------

 SCF Done:  E(UB3LYP) =  -1136.11302185     A.U. after   22 cycles

 The electronic state is 2-A.
 Alpha  occ. eigenvalues --  -38.45354 -38.44942 -38.44685 -38.44625 -38.44309
 Alpha  occ. eigenvalues --  -38.44205 -38.43103  -2.21164  -2.20729  -2.20528
 Alpha  occ. eigenvalues --   -2.20375  -2.20088  -2.19956  -2.18870  -1.14848
 Alpha  occ. eigenvalues --   -1.14821  -1.14813  -1.14419  -1.14407  -1.14324
 Alpha  occ. eigenvalues --   -1.14186  -1.14169  -1.14140  -1.14069  -1.14052
 Alpha  occ. eigenvalues --   -1.14002  -1.13756  -1.13735  -1.13720  -1.13646
 Alpha  occ. eigenvalues --   -1.13633  -1.13573  -1.12543  -1.12537  -1.12500
 Alpha  occ. eigenvalues --   -0.16242  -0.14199  -0.12020  -0.11238
 Alpha virt. eigenvalues --   -0.07044  -0.05485  -0.04432  -0.03757  -0.03179
 Alpha virt. eigenvalues --   -0.02606  -0.02170  -0.01421  -0.01168  -0.00853
 Alpha virt. eigenvalues --   -0.00451  -0.00197  -0.00015   0.00448   0.00611

  Beta  occ. eigenvalues --  -38.45328 -38.44886 -38.44635 -38.44630 -38.44276
  Beta  occ. eigenvalues --  -38.44189 -38.43082  -2.21121  -2.20630  -2.20434
  Beta  occ. eigenvalues --   -2.20386  -2.20026  -2.19929  -2.18830  -1.14820
  Beta  occ. eigenvalues --   -1.14801  -1.14744  -1.14356  -1.14335  -1.14233
  Beta  occ. eigenvalues --   -1.14114  -1.14104  -1.14085  -1.14078  -1.14062
  Beta  occ. eigenvalues --   -1.13997  -1.13714  -1.13692  -1.13682  -1.13631
  Beta  occ. eigenvalues --   -1.13615  -1.13533  -1.12515  -1.12510  -1.12476
  Beta  occ. eigenvalues --   -0.15549  -0.13830  -0.11557
  Beta virt. eigenvalues --   -0.07773  -0.07005  -0.04967  -0.04041  -0.03469
  Beta virt. eigenvalues --   -0.02862  -0.02347  -0.01962  -0.01128  -0.00968
  Beta virt. eigenvalues --   -0.00551  -0.00290   0.00020   0.00207   0.00465

 Mulliken charges and spin densities:
               1          2
     1  Na  -0.232151   0.054739
     2  Na  -0.135632  -0.092466
     3  Na   0.108853   0.241063
     4  Na   0.147948   0.239112
     5  Na   0.854316   0.244631
     6  Na  -0.607252   0.281852
     7  Na  -0.136080   0.031070
 Sum of Mulliken charges =  -0.00000   1.00000

 Dipole moment (field-independent basis, Debye):
    X=              1.4257    Y=             -0.5327    Z=              0.5082  Tot=              1.6046
 Quadrupole moment (field-independent basis, Debye-Ang):
   XX=            -51.4874   YY=            -71.4363   ZZ=            -71.6218
   XY=             -0.0384   XZ=              0.6740   YZ=              0.0896

 Normal termination of Gaussian 16 at Sun Dec  3 15:22:18 2023.
