 Gaussian 16, Revision B.01,
 Gaussian 16:  ES64L-G16RevB.01 20-Dec-2017

 -------------------------
 #P B3LYP/6-311+g(d) force
 -------------------------

 -----
 DPGEN
 -----
 Symbolic Z-matrix:
 Charge =  0 Multiplicity = 2

                         Standard orientation:
 ---------------------------------------------------------------------
 Center     Atomic      Atomic             Coordinates (Angstroms)
 Number     Number       Type             X           Y           Z
 ---------------------------------------------------------------------
      1         11           0        1.789397   -2.271216   -0.392109
      2         11           0       -0.021124    2.956480   -0.511782
      3         11           0       -2.821884    0.858578   -0.021859
      4         11           0       -1.764485   -2.432004    0.206714
      5         11           0        3.103267    0.747918    0.457014
      6         11           0       -0.245445    0.278457    2.012174
      7         11           0       -0.039726   -0.138214   -1.750152
 ---------------------------------------------------------------------

 SCF Done:  E(UB3LYP) =  -1136.13903734     A.U. after   19 cycles

 The electronic state is 2-A.
 Alpha  occ. eigenvalues --  -38.43909 -38.43776 -38.43721 -38.43464 -38.43424
 Alpha  occ. eigenvalues --  -38.43401 -38.43341  -2.19712  -2.19670  -2.19598
 Alpha  occ. eigenvalues --   -2.19317  -2.19302  -2.19289  -2.19251  -1.13388
 Alpha  occ. eigenvalues --   -1.13372  -1.13362  -1.13356  -1.13316  -1.13290
 Alpha  occ. eigenvalues --   -1.13279  -1.13243  -1.13223  -1.13087  -1.13022
 Alpha  occ. eigenvalues --   -1.12979  -1.12956  -1.12942  -1.12934  -1.12928
 Alpha  occ. eigenvalues --   -1.12922  -1.12908  -1.12900  -1.12884  -1.12875
 Alpha  occ. eigenvalues --   -0.18671  -0.12928  -0.12463  -0.11006
 Alpha virt. eigenvalues --   -0.05428  -0.05023  -0.04768  -0.03260  -0.03052
 Alpha virt. eigenvalues --   -0.02705  -0.01366  -0.01115  -0.00346  -0.00162
 Alpha virt. eigenvalues --   -0.00002   0.00372   0.00842   0.00885   0.00913

  Beta  occ. eigenvalues --  -38.43901 -38.43714 -38.43691 -38.43452 -38.43416
  Beta  occ. eigenvalues --  -38.43397 -38.43268  -2.19700  -2.19591  -2.19513
  Beta  occ. eigenvalues --   -2.19283  -2.19280  -2.19247  -2.19183  -1.13372
  Beta  occ. eigenvalues --   -1.13356  -1.13350  -1.13305  -1.13257  -1.13224
  Beta  occ. eigenvalues --   -1.13215  -1.13187  -1.13159  -1.13040  -1.12984
  Beta  occ. eigenvalues --   -1.12941  -1.12935  -1.12921  -1.12914  -1.12911
  Beta  occ. eigenvalues --   -1.12898  -1.12878  -1.12868  -1.12833  -1.12810
  Beta  occ. eigenvalues --   -0.17938  -0.12680  -0.12200
  Beta virt. eigenvalues --   -0.07118  -0.05359  -0.05013  -0.04693  -0.02499
  Beta virt. eigenvalues --   -0.02299  -0.01670  -0.01259  -0.01036  -0.00363
  Beta virt. eigenvalues --   -0.00210   0.00115   0.00394   0.00878   0.00889

 Mulliken charges and spin densities:
               1          2
     1  Na   0.151771  -0.041932
     2  Na   0.066752  -0.026532
     3  Na   0.265018  -0.052216
     4  Na   0.030411  -0.056580
     5  Na  -0.070357   0.003427
     6  Na  -0.398224   0.707382
     7  Na  -0.045369   0.466452
 Sum of Mulliken charges =  -0.00000   1.00000

 Dipole moment (field-independent basis, Debye):
    X=             -0.0328    Y=              0.1318    Z=              0.1880  Tot=              0.2319
 Quadrupole moment (field-independent basis, Debye-Ang):
   XX=            -58.7883   YY=            -62.3808   ZZ=            -72.9170
   XY=              0.6905   XZ=              0.5756   YZ=             -0.7752

 Normal termination of Gaussian 16 at Wed Dec  6 01:16:29 2023.
