 Gaussian 16, Revision B.01,
 Gaussian 16:  ES64L-G16RevB.01 20-Dec-2017

 -------------------------
 #P B3LYP/6-311+g(d) force
 -------------------------

 -----
 DPGEN
 -----
 Symbolic Z-matrix:
 Charge =  0 Multiplicity = 2

                         Standard orientation:
 ---------------------------------------------------------------------
 Center     Atomic      Atomic             Coordinates (Angstroms)
 Number     Number       Type             X           Y           Z
 ---------------------------------------------------------------------
      1         11           0        4.433445    0.803436   -0.111351
      2         11           0        1.734570    2.619960   -1.081288
      3         11           0        0.298738   -3.645830   -0.498775
      4         11           0        2.408174   -2.158349    1.181612
      5         11           0       -1.610322    3.759663    0.795512
      6         11           0       -3.896354    0.776014    0.016290
      7         11           0       -3.368250   -2.154895   -0.302001
 ---------------------------------------------------------------------

 SCF Done:  E(UB3LYP) =  -1136.10620255     A.U. after   20 cycles

 The electronic state is 2-A.
 Alpha  occ. eigenvalues --  -38.45266 -38.44772 -38.44433 -38.44357 -38.44340
 Alpha  occ. eigenvalues --  -38.44259 -38.44245  -2.21001  -2.20568  -2.20237
 Alpha  occ. eigenvalues --   -2.20151  -2.20115  -2.20070  -2.20062  -1.14691
 Alpha  occ. eigenvalues --   -1.14679  -1.14635  -1.14270  -1.14231  -1.14200
 Alpha  occ. eigenvalues --   -1.14006  -1.13903  -1.13878  -1.13807  -1.13790
 Alpha  occ. eigenvalues --   -1.13787  -1.13767  -1.13744  -1.13742  -1.13724
 Alpha  occ. eigenvalues --   -1.13715  -1.13711  -1.13699  -1.13693  -1.13669
 Alpha  occ. eigenvalues --   -0.15467  -0.13892  -0.13324  -0.10996
 Alpha virt. eigenvalues --   -0.07297  -0.04943  -0.04528  -0.03485  -0.03361
 Alpha virt. eigenvalues --   -0.02466  -0.02168  -0.01773  -0.01539  -0.00958
 Alpha virt. eigenvalues --   -0.00604  -0.00178   0.00179   0.00394   0.00667

  Beta  occ. eigenvalues --  -38.45269 -38.44752 -38.44421 -38.44307 -38.44256
  Beta  occ. eigenvalues --  -38.44235 -38.44194  -2.21011  -2.20537  -2.20222
  Beta  occ. eigenvalues --   -2.20058  -2.20021  -2.19979  -2.19957  -1.14703
  Beta  occ. eigenvalues --   -1.14691  -1.14610  -1.14238  -1.14212  -1.14169
  Beta  occ. eigenvalues --   -1.13961  -1.13899  -1.13855  -1.13743  -1.13728
  Beta  occ. eigenvalues --   -1.13725  -1.13693  -1.13686  -1.13661  -1.13659
  Beta  occ. eigenvalues --   -1.13652  -1.13643  -1.13639  -1.13636  -1.13602
  Beta  occ. eigenvalues --   -0.14977  -0.13118  -0.12498
  Beta virt. eigenvalues --   -0.07891  -0.07479  -0.04433  -0.04216  -0.03251
  Beta virt. eigenvalues --   -0.03054  -0.02150  -0.01980  -0.01501  -0.01311
  Beta virt. eigenvalues --   -0.00659  -0.00416   0.00026   0.00280   0.00383

 Mulliken charges and spin densities:
               1          2
     1  Na   0.285117   0.218114
     2  Na  -0.241298  -0.006387
     3  Na  -0.079073   0.078087
     4  Na  -0.127295   0.080071
     5  Na   0.064267   0.411728
     6  Na  -0.069091   0.040819
     7  Na   0.167373   0.177566
 Sum of Mulliken charges =  -0.00000   1.00000

 Dipole moment (field-independent basis, Debye):
    X=              0.7554    Y=             -0.2152    Z=             -0.0405  Tot=              0.7865
 Quadrupole moment (field-independent basis, Debye-Ang):
   XX=            -64.8216   YY=            -68.0938   ZZ=            -69.0760
   XY=             -0.4375   XZ=              1.6236   YZ=              1.2775

 Normal termination of Gaussian 16 at Sun Dec  3 17:07:20 2023.
