 Gaussian 16, Revision B.01,
 Gaussian 16:  ES64L-G16RevB.01 20-Dec-2017

 -------------------------
 #P B3LYP/6-311+g(d) force
 -------------------------

 -----
 DPGEN
 -----
 Symbolic Z-matrix:
 Charge =  0 Multiplicity = 2

                         Standard orientation:
 ---------------------------------------------------------------------
 Center     Atomic      Atomic             Coordinates (Angstroms)
 Number     Number       Type             X           Y           Z
 ---------------------------------------------------------------------
      1         11           0       -4.137793    1.084496   -0.337452
      2         11           0        1.513198    3.464969   -0.332099
      3         11           0       -3.342959   -2.358980    0.118496
      4         11           0       -0.198661   -3.452105   -0.007237
      5         11           0        4.091724    0.699053    0.103136
      6         11           0        3.416873   -2.402202   -0.065157
      7         11           0       -1.342383    2.964769    0.520313
 ---------------------------------------------------------------------

 SCF Done:  E(UB3LYP) =  -1136.10963439     A.U. after   23 cycles

 The electronic state is 2-A.
 Alpha  occ. eigenvalues --  -38.45180 -38.44874 -38.44712 -38.44521 -38.44395
 Alpha  occ. eigenvalues --  -38.44074 -38.43931  -2.20966  -2.20650  -2.20525
 Alpha  occ. eigenvalues --   -2.20317  -2.20183  -2.19885  -2.19762  -1.14640
 Alpha  occ. eigenvalues --   -1.14633  -1.14604  -1.14329  -1.14327  -1.14295
 Alpha  occ. eigenvalues --   -1.14233  -1.14190  -1.14178  -1.13980  -1.13978
 Alpha  occ. eigenvalues --   -1.13959  -1.13845  -1.13839  -1.13804  -1.13531
 Alpha  occ. eigenvalues --   -1.13527  -1.13512  -1.13428  -1.13399  -1.13385
 Alpha  occ. eigenvalues --   -0.15697  -0.14061  -0.13726  -0.10954
 Alpha virt. eigenvalues --   -0.07738  -0.04566  -0.04333  -0.03633  -0.03585
 Alpha virt. eigenvalues --   -0.02557  -0.02307  -0.01918  -0.01458  -0.00416
 Alpha virt. eigenvalues --   -0.00178  -0.00073   0.00005   0.00338   0.00414

  Beta  occ. eigenvalues --  -38.45152 -38.44867 -38.44699 -38.44504 -38.44342
  Beta  occ. eigenvalues --  -38.44000 -38.43884  -2.20919  -2.20644  -2.20510
  Beta  occ. eigenvalues --   -2.20288  -2.20087  -2.19747  -2.19676  -1.14604
  Beta  occ. eigenvalues --   -1.14604  -1.14555  -1.14331  -1.14323  -1.14253
  Beta  occ. eigenvalues --   -1.14203  -1.14183  -1.14145  -1.13962  -1.13959
  Beta  occ. eigenvalues --   -1.13923  -1.13780  -1.13775  -1.13734  -1.13437
  Beta  occ. eigenvalues --   -1.13434  -1.13423  -1.13367  -1.13341  -1.13328
  Beta  occ. eigenvalues --   -0.15139  -0.13280  -0.12954
  Beta virt. eigenvalues --   -0.07956  -0.07794  -0.04105  -0.03884  -0.03336
  Beta virt. eigenvalues --   -0.03227  -0.02342  -0.02102  -0.01784  -0.01308
  Beta virt. eigenvalues --   -0.00065   0.00048   0.00131   0.00264   0.00355

 Mulliken charges and spin densities:
               1          2
     1  Na   0.150443   0.326956
     2  Na   0.128203   0.196714
     3  Na  -0.054001  -0.087256
     4  Na   0.181260   0.221391
     5  Na  -0.235483   0.128280
     6  Na   0.531942   0.139570
     7  Na  -0.702363   0.074345
 Sum of Mulliken charges =  -0.00000   1.00000

 Dipole moment (field-independent basis, Debye):
    X=              0.4554    Y=             -0.1625    Z=             -0.0165  Tot=              0.4838
 Quadrupole moment (field-independent basis, Debye-Ang):
   XX=            -60.0098   YY=            -66.9181   ZZ=            -73.2204
   XY=              2.3194   XZ=             -0.4034   YZ=             -0.0858

 Normal termination of Gaussian 16 at Mon Dec  4 01:19:31 2023.
