 Gaussian 16, Revision B.01,
 Gaussian 16:  ES64L-G16RevB.01 20-Dec-2017

 -------------------------
 #P B3LYP/6-311+g(d) force
 -------------------------

 -----
 DPGEN
 -----
 Symbolic Z-matrix:
 Charge =  0 Multiplicity = 2

                         Standard orientation:
 ---------------------------------------------------------------------
 Center     Atomic      Atomic             Coordinates (Angstroms)
 Number     Number       Type             X           Y           Z
 ---------------------------------------------------------------------
      1         11           0       -1.831874   -2.127020   -0.127289
      2         11           0        3.044652    0.716173    0.074957
      3         11           0        0.438472    2.820728   -0.207093
      4         11           0       -0.093822   -0.072420   -1.816462
      5         11           0        1.351559   -2.464874   -0.066323
      6         11           0        0.132385   -0.176519    1.910631
      7         11           0       -3.041373    1.303932    0.231578
 ---------------------------------------------------------------------

 SCF Done:  E(UB3LYP) =  -1136.13867943     A.U. after   19 cycles

 The electronic state is 2-A.
 Alpha  occ. eigenvalues --  -38.43918 -38.43760 -38.43502 -38.43497 -38.43462
 Alpha  occ. eigenvalues --  -38.43357 -38.43239  -2.19703  -2.19601  -2.19435
 Alpha  occ. eigenvalues --   -2.19373  -2.19345  -2.19325  -2.19159  -1.13376
 Alpha  occ. eigenvalues --   -1.13359  -1.13350  -1.13275  -1.13265  -1.13254
 Alpha  occ. eigenvalues --   -1.13154  -1.13109  -1.13079  -1.13062  -1.13053
 Alpha  occ. eigenvalues --   -1.13024  -1.13007  -1.13001  -1.12984  -1.12963
 Alpha  occ. eigenvalues --   -1.12940  -1.12923  -1.12820  -1.12812  -1.12775
 Alpha  occ. eigenvalues --   -0.18891  -0.12917  -0.12596  -0.10871
 Alpha virt. eigenvalues --   -0.05506  -0.05058  -0.04742  -0.03144  -0.02988
 Alpha virt. eigenvalues --   -0.02599  -0.01467  -0.01095  -0.00286  -0.00173
 Alpha virt. eigenvalues --   -0.00013   0.00360   0.00839   0.00906   0.00910

  Beta  occ. eigenvalues --  -38.43917 -38.43758 -38.43491 -38.43453 -38.43418
  Beta  occ. eigenvalues --  -38.43276 -38.43230  -2.19703  -2.19599  -2.19361
  Beta  occ. eigenvalues --   -2.19337  -2.19281  -2.19178  -2.19148  -1.13364
  Beta  occ. eigenvalues --   -1.13359  -1.13351  -1.13273  -1.13257  -1.13241
  Beta  occ. eigenvalues --   -1.13114  -1.13042  -1.13030  -1.13006  -1.12996
  Beta  occ. eigenvalues --   -1.12988  -1.12962  -1.12952  -1.12930  -1.12903
  Beta  occ. eigenvalues --   -1.12851  -1.12829  -1.12800  -1.12776  -1.12755
  Beta  occ. eigenvalues --   -0.18132  -0.12665  -0.12355
  Beta virt. eigenvalues --   -0.06940  -0.05476  -0.05052  -0.04703  -0.02334
  Beta virt. eigenvalues --   -0.02213  -0.01547  -0.01381  -0.01022  -0.00326
  Beta virt. eigenvalues --   -0.00237   0.00117   0.00376   0.00884   0.00900

 Mulliken charges and spin densities:
               1          2
     1  Na   0.297072  -0.048447
     2  Na   0.098917  -0.090063
     3  Na   0.021659  -0.114269
     4  Na  -0.246165   0.602497
     5  Na   0.362250  -0.056093
     6  Na  -0.447985   0.801834
     7  Na  -0.085748  -0.095459
 Sum of Mulliken charges =  -0.00000   1.00000

 Dipole moment (field-independent basis, Debye):
    X=             -0.0204    Y=              0.1469    Z=              0.0868  Tot=              0.1718
 Quadrupole moment (field-independent basis, Debye-Ang):
   XX=            -57.1944   YY=            -62.7829   ZZ=            -73.7068
   XY=             -0.4199   XZ=             -0.5515   YZ=              0.3302

 Normal termination of Gaussian 16 at Fri Dec  8 04:15:52 2023.
