 Gaussian 16, Revision B.01,
 Gaussian 16:  ES64L-G16RevB.01 20-Dec-2017

 -------------------------
 #P B3LYP/6-311+g(d) force
 -------------------------

 -----
 DPGEN
 -----
 Symbolic Z-matrix:
 Charge =  0 Multiplicity = 2

                         Standard orientation:
 ---------------------------------------------------------------------
 Center     Atomic      Atomic             Coordinates (Angstroms)
 Number     Number       Type             X           Y           Z
 ---------------------------------------------------------------------
      1         11           0        0.151867   -2.063724   -1.576624
      2         11           0        3.402973    1.763030   -0.420138
      3         11           0       -2.519696    2.317867    0.500680
      4         11           0        2.759377   -1.449465    0.742170
      5         11           0       -0.887643   -1.264017    2.045403
      6         11           0       -3.402107   -0.689440   -0.856473
      7         11           0        0.495230    1.385748   -0.435018
 ---------------------------------------------------------------------

 SCF Done:  E(UB3LYP) =  -1136.12121275     A.U. after   22 cycles

 The electronic state is 2-A.
 Alpha  occ. eigenvalues --  -38.45071 -38.44593 -38.44078 -38.43982 -38.43964
 Alpha  occ. eigenvalues --  -38.43578 -38.43566  -2.20857  -2.20403  -2.19922
 Alpha  occ. eigenvalues --   -2.19797  -2.19772  -2.19493  -2.19383  -1.14532
 Alpha  occ. eigenvalues --   -1.14499  -1.14497  -1.14084  -1.14065  -1.14036
 Alpha  occ. eigenvalues --   -1.13685  -1.13562  -1.13545  -1.13486  -1.13451
 Alpha  occ. eigenvalues --   -1.13448  -1.13430  -1.13411  -1.13380  -1.13176
 Alpha  occ. eigenvalues --   -1.13146  -1.13114  -1.13070  -1.13019  -1.13009
 Alpha  occ. eigenvalues --   -0.17744  -0.13784  -0.11743  -0.10522
 Alpha virt. eigenvalues --   -0.06712  -0.06075  -0.04102  -0.03502  -0.02780
 Alpha virt. eigenvalues --   -0.02318  -0.02179  -0.01510  -0.00767  -0.00333
 Alpha virt. eigenvalues --   -0.00144   0.00177   0.00374   0.00431   0.00652

  Beta  occ. eigenvalues --  -38.45045 -38.44585 -38.44078 -38.43973 -38.43888
  Beta  occ. eigenvalues --  -38.43567 -38.43526  -2.20810  -2.20390  -2.19923
  Beta  occ. eigenvalues --   -2.19781  -2.19633  -2.19476  -2.19309  -1.14495
  Beta  occ. eigenvalues --   -1.14469  -1.14454  -1.14067  -1.14058  -1.14021
  Beta  occ. eigenvalues --   -1.13685  -1.13560  -1.13547  -1.13476  -1.13433
  Beta  occ. eigenvalues --   -1.13418  -1.13351  -1.13313  -1.13282  -1.13143
  Beta  occ. eigenvalues --   -1.13133  -1.13104  -1.13021  -1.12969  -1.12948
  Beta  occ. eigenvalues --   -0.17173  -0.13619  -0.11485
  Beta virt. eigenvalues --   -0.06827  -0.06512  -0.05915  -0.03740  -0.03059
  Beta virt. eigenvalues --   -0.02332  -0.02160  -0.01479  -0.01319  -0.00639
  Beta virt. eigenvalues --   -0.00134  -0.00020   0.00246   0.00499   0.00518

 Mulliken charges and spin densities:
               1          2
     1  Na   0.026054   0.252015
     2  Na   0.565631  -0.185260
     3  Na   0.812482   0.080307
     4  Na   0.155634   0.170744
     5  Na  -0.123483   0.358127
     6  Na   0.359475   0.110729
     7  Na  -1.795793   0.213338
 Sum of Mulliken charges =  -0.00000   1.00000

 Dipole moment (field-independent basis, Debye):
    X=             -0.0453    Y=             -0.3081    Z=              0.2114  Tot=              0.3764
 Quadrupole moment (field-independent basis, Debye-Ang):
   XX=            -48.5458   YY=            -71.8484   ZZ=            -73.4348
   XY=             -1.5019   XZ=              0.5259   YZ=              0.4352

 Normal termination of Gaussian 16 at Mon Dec  4 04:02:24 2023.
