 Gaussian 16, Revision B.01,
 Gaussian 16:  ES64L-G16RevB.01 20-Dec-2017

 -------------------------
 #P B3LYP/6-311+g(d) force
 -------------------------

 -----
 DPGEN
 -----
 Symbolic Z-matrix:
 Charge =  0 Multiplicity = 2

                         Standard orientation:
 ---------------------------------------------------------------------
 Center     Atomic      Atomic             Coordinates (Angstroms)
 Number     Number       Type             X           Y           Z
 ---------------------------------------------------------------------
      1         11           0        3.832797   -1.649632   -0.385664
      2         11           0       -2.308973    0.752826   -1.464445
      3         11           0        0.420979   -1.617097   -0.798545
      4         11           0        1.031868    2.686613   -0.773455
      5         11           0       -3.292654   -1.809954    0.578025
      6         11           0       -1.552613    0.891325    1.221827
      7         11           0        1.868596    0.745919    1.622257
 ---------------------------------------------------------------------

 SCF Done:  E(UB3LYP) =  -1136.12254723     A.U. after   22 cycles

 The electronic state is 2-A.
 Alpha  occ. eigenvalues --  -38.44336 -38.44254 -38.43969 -38.43947 -38.43766
 Alpha  occ. eigenvalues --  -38.43716 -38.43619  -2.20189  -2.20172  -2.19790
 Alpha  occ. eigenvalues --   -2.19750  -2.19725  -2.19531  -2.19501  -1.14052
 Alpha  occ. eigenvalues --   -1.13846  -1.13833  -1.13833  -1.13810  -1.13728
 Alpha  occ. eigenvalues --   -1.13496  -1.13472  -1.13430  -1.13419  -1.13404
 Alpha  occ. eigenvalues --   -1.13392  -1.13385  -1.13338  -1.13306  -1.13265
 Alpha  occ. eigenvalues --   -1.13193  -1.13185  -1.13164  -1.13127  -1.13079
 Alpha  occ. eigenvalues --   -0.18310  -0.13829  -0.11754  -0.10574
 Alpha virt. eigenvalues --   -0.06322  -0.05731  -0.04650  -0.03152  -0.02600
 Alpha virt. eigenvalues --   -0.02297  -0.01999  -0.01651  -0.00533  -0.00171
 Alpha virt. eigenvalues --    0.00123   0.00221   0.00414   0.00473   0.00643

  Beta  occ. eigenvalues --  -38.44315 -38.44201 -38.43949 -38.43948 -38.43729
  Beta  occ. eigenvalues --  -38.43712 -38.43578  -2.20135  -2.20092  -2.19753
  Beta  occ. eigenvalues --   -2.19730  -2.19687  -2.19527  -2.19426  -1.13990
  Beta  occ. eigenvalues --   -1.13813  -1.13802  -1.13784  -1.13755  -1.13658
  Beta  occ. eigenvalues --   -1.13466  -1.13434  -1.13408  -1.13394  -1.13386
  Beta  occ. eigenvalues --   -1.13380  -1.13338  -1.13330  -1.13263  -1.13243
  Beta  occ. eigenvalues --   -1.13178  -1.13160  -1.13130  -1.13085  -1.13028
  Beta  occ. eigenvalues --   -0.17629  -0.13657  -0.11520
  Beta virt. eigenvalues --   -0.06839  -0.06136  -0.05605  -0.04075  -0.02905
  Beta virt. eigenvalues --   -0.02240  -0.02048  -0.01532  -0.01237  -0.00224
  Beta virt. eigenvalues --   -0.00061   0.00205   0.00276   0.00539   0.00596

 Mulliken charges and spin densities:
               1          2
     1  Na   0.076836  -0.011183
     2  Na   0.222001   0.387689
     3  Na  -0.891909   0.157615
     4  Na  -0.128845   0.076835
     5  Na   0.711588  -0.062142
     6  Na  -0.356192   0.410626
     7  Na   0.366521   0.040559
 Sum of Mulliken charges =  -0.00000   1.00000

 Dipole moment (field-independent basis, Debye):
    X=             -0.1765    Y=             -0.1076    Z=             -0.2758  Tot=              0.3447
 Quadrupole moment (field-independent basis, Debye-Ang):
   XX=            -52.2997   YY=            -69.4118   ZZ=            -71.9290
   XY=              4.5473   XZ=              0.0441   YZ=             -2.4089

 Normal termination of Gaussian 16 at Tue Dec  5 11:57:51 2023.
