 Gaussian 16, Revision B.01,
 Gaussian 16:  ES64L-G16RevB.01 20-Dec-2017

 -------------------------
 #P B3LYP/6-311+g(d) force
 -------------------------

 -----
 DPGEN
 -----
 Symbolic Z-matrix:
 Charge =  0 Multiplicity = 2

                         Standard orientation:
 ---------------------------------------------------------------------
 Center     Atomic      Atomic             Coordinates (Angstroms)
 Number     Number       Type             X           Y           Z
 ---------------------------------------------------------------------
      1         11           0       -1.636542    1.888967   -0.961856
      2         11           0        1.667162   -1.770812   -0.905206
      3         11           0        4.411517   -0.396789    0.573584
      4         11           0       -0.247645    0.148510    1.771167
      5         11           0       -2.135125   -1.414991   -0.874447
      6         11           0       -3.940717   -0.326815    0.819338
      7         11           0        1.881350    1.871929   -0.422581
 ---------------------------------------------------------------------

 SCF Done:  E(UB3LYP) =  -1136.11091205     A.U. after   28 cycles

 The electronic state is 2-A.
 Alpha  occ. eigenvalues --  -38.46835 -38.44036 -38.43892 -38.43886 -38.43720
 Alpha  occ. eigenvalues --  -38.43429 -38.43411  -2.22635  -2.19971  -2.19840
 Alpha  occ. eigenvalues --   -2.19711  -2.19583  -2.19280  -2.19251  -1.16326
 Alpha  occ. eigenvalues --   -1.16279  -1.16266  -1.13962  -1.13593  -1.13572
 Alpha  occ. eigenvalues --   -1.13482  -1.13462  -1.13373  -1.13361  -1.13340
 Alpha  occ. eigenvalues --   -1.13327  -1.13270  -1.13239  -1.13200  -1.12979
 Alpha  occ. eigenvalues --   -1.12965  -1.12941  -1.12915  -1.12879  -1.12861
 Alpha  occ. eigenvalues --   -0.18385  -0.14621  -0.11082  -0.10492
 Alpha virt. eigenvalues --   -0.07740  -0.05245  -0.04649  -0.03358  -0.03115
 Alpha virt. eigenvalues --   -0.02226  -0.01759  -0.01390  -0.01375  -0.00312
 Alpha virt. eigenvalues --   -0.00224   0.00165   0.00221   0.00591   0.00730

  Beta  occ. eigenvalues --  -38.46833 -38.43990 -38.43863 -38.43847 -38.43710
  Beta  occ. eigenvalues --  -38.43421 -38.43371  -2.22634  -2.19891  -2.19799
  Beta  occ. eigenvalues --   -2.19626  -2.19567  -2.19267  -2.19181  -1.16307
  Beta  occ. eigenvalues --   -1.16279  -1.16269  -1.13908  -1.13542  -1.13521
  Beta  occ. eigenvalues --   -1.13450  -1.13426  -1.13314  -1.13301  -1.13288
  Beta  occ. eigenvalues --   -1.13262  -1.13248  -1.13228  -1.13186  -1.12968
  Beta  occ. eigenvalues --   -1.12954  -1.12897  -1.12870  -1.12858  -1.12782
  Beta  occ. eigenvalues --   -0.17791  -0.14237  -0.10762
  Beta virt. eigenvalues --   -0.07567  -0.06876  -0.05136  -0.04037  -0.03135
  Beta virt. eigenvalues --   -0.02920  -0.01877  -0.01584  -0.01027  -0.00767
  Beta virt. eigenvalues --   -0.00235  -0.00069   0.00233   0.00378   0.00675

 Mulliken charges and spin densities:
               1          2
     1  Na  -0.095739   0.181706
     2  Na  -0.280663   0.117942
     3  Na   0.335009   0.309147
     4  Na  -0.353688  -0.111698
     5  Na  -0.526878  -0.031354
     6  Na   0.930362   0.412995
     7  Na  -0.008402   0.121262
 Sum of Mulliken charges =  -0.00000   1.00000

 Dipole moment (field-independent basis, Debye):
    X=             -0.1961    Y=              0.5818    Z=              0.6550  Tot=              0.8977
 Quadrupole moment (field-independent basis, Debye-Ang):
   XX=            -64.0733   YY=            -78.5281   ZZ=            -62.1883
   XY=             -1.5106   XZ=              1.7357   YZ=             -2.6028

 Normal termination of Gaussian 16 at Tue Dec  5 20:02:17 2023.
