 Gaussian 16, Revision B.01,
 Gaussian 16:  ES64L-G16RevB.01 20-Dec-2017

 -------------------------
 #P B3LYP/6-311+g(d) force
 -------------------------

 -----
 DPGEN
 -----
 Symbolic Z-matrix:
 Charge =  0 Multiplicity = 2

                         Standard orientation:
 ---------------------------------------------------------------------
 Center     Atomic      Atomic             Coordinates (Angstroms)
 Number     Number       Type             X           Y           Z
 ---------------------------------------------------------------------
      1         11           0       -6.181927   -1.433007    0.147738
      2         11           0        3.161470    0.378303   -0.390021
      3         11           0       -8.896704   -0.130383   -0.291847
      4         11           0       -0.551161    0.562916    0.939784
      5         11           0       -3.154621    1.578752   -0.259838
      6         11           0        6.308377   -0.993300   -0.201705
      7         11           0        9.314566    0.036719    0.055889
 ---------------------------------------------------------------------

 SCF Done:  E(UB3LYP) =  -1136.10580250     A.U. after   17 cycles

 The electronic state is 2-A.
 Alpha  occ. eigenvalues --  -38.44852 -38.44794 -38.44723 -38.44478 -38.44459
 Alpha  occ. eigenvalues --  -38.44082 -38.43846  -2.20658  -2.20589  -2.20533
 Alpha  occ. eigenvalues --   -2.20275  -2.20249  -2.19877  -2.19647  -1.14297
 Alpha  occ. eigenvalues --   -1.14291  -1.14289  -1.14236  -1.14235  -1.14213
 Alpha  occ. eigenvalues --   -1.14197  -1.14179  -1.14163  -1.14042  -1.13932
 Alpha  occ. eigenvalues --   -1.13928  -1.13902  -1.13892  -1.13814  -1.13547
 Alpha  occ. eigenvalues --   -1.13542  -1.13527  -1.13321  -1.13320  -1.13314
 Alpha  occ. eigenvalues --   -0.14995  -0.14262  -0.13015  -0.11507
 Alpha virt. eigenvalues --   -0.06566  -0.05432  -0.04334  -0.03278  -0.03036
 Alpha virt. eigenvalues --   -0.02833  -0.02477  -0.02104  -0.01740  -0.01080
 Alpha virt. eigenvalues --   -0.00857  -0.00573  -0.00145   0.00259   0.00492

  Beta  occ. eigenvalues --  -38.44765 -38.44696 -38.44679 -38.44463 -38.44463
  Beta  occ. eigenvalues --  -38.44091 -38.43855  -2.20497  -2.20452  -2.20406
  Beta  occ. eigenvalues --   -2.20259  -2.20245  -2.19899  -2.19671  -1.14191
  Beta  occ. eigenvalues --   -1.14181  -1.14179  -1.14160  -1.14124  -1.14111
  Beta  occ. eigenvalues --   -1.14109  -1.14109  -1.14081  -1.14033  -1.13927
  Beta  occ. eigenvalues --   -1.13916  -1.13895  -1.13888  -1.13805  -1.13562
  Beta  occ. eigenvalues --   -1.13560  -1.13513  -1.13345  -1.13343  -1.13273
  Beta  occ. eigenvalues --   -0.14380  -0.13600  -0.12579
  Beta virt. eigenvalues --   -0.08254  -0.06115  -0.05213  -0.03969  -0.03110
  Beta virt. eigenvalues --   -0.02810  -0.02633  -0.02272  -0.01962  -0.01342
  Beta virt. eigenvalues --   -0.00710  -0.00576  -0.00238   0.00030   0.00306

 Mulliken charges and spin densities:
               1          2
     1  Na  -0.273711   0.008692
     2  Na   0.056590   0.435580
     3  Na   0.292361   0.049839
     4  Na  -0.325036  -0.027926
     5  Na   0.262534   0.174358
     6  Na  -0.387556  -0.043601
     7  Na   0.374819   0.403057
 Sum of Mulliken charges =  -0.00000   1.00000

 Dipole moment (field-independent basis, Debye):
    X=             -0.7321    Y=              0.4761    Z=             -0.1351  Tot=              0.8837
 Quadrupole moment (field-independent basis, Debye-Ang):
   XX=            -43.5037   YY=            -69.1506   ZZ=            -73.8690
   XY=             -2.6728   XZ=              3.3750   YZ=             -2.4134

 Normal termination of Gaussian 16 at Sun Dec  3 23:20:49 2023.
