 Gaussian 16, Revision B.01,
 Gaussian 16:  ES64L-G16RevB.01 20-Dec-2017

 -------------------------
 #P B3LYP/6-311+g(d) force
 -------------------------

 -----
 DPGEN
 -----
 Symbolic Z-matrix:
 Charge =  0 Multiplicity = 2

                         Standard orientation:
 ---------------------------------------------------------------------
 Center     Atomic      Atomic             Coordinates (Angstroms)
 Number     Number       Type             X           Y           Z
 ---------------------------------------------------------------------
      1         11           0        0.174304   -0.957381    1.966204
      2         11           0        0.183346    1.770414   -0.992320
      3         11           0        3.584323    2.263464    0.522699
      4         11           0        4.175390   -1.539535   -0.376386
      5         11           0        0.478294   -1.720774   -1.090134
      6         11           0       -2.786170    0.015988   -0.038364
      7         11           0       -5.809487    0.167824    0.008301
 ---------------------------------------------------------------------

 SCF Done:  E(UB3LYP) =  -1136.10489562     A.U. after   36 cycles

 The electronic state is 2-A.
 Alpha  occ. eigenvalues --  -38.46110 -38.45048 -38.44865 -38.44728 -38.43688
 Alpha  occ. eigenvalues --  -38.43515 -38.43041  -2.21903  -2.20820  -2.20687
 Alpha  occ. eigenvalues --   -2.20585  -2.19520  -2.19259  -2.18919  -1.15570
 Alpha  occ. eigenvalues --   -1.15562  -1.15545  -1.14489  -1.14450  -1.14429
 Alpha  occ. eigenvalues --   -1.14382  -1.14337  -1.14281  -1.14258  -1.14248
 Alpha  occ. eigenvalues --   -1.14204  -1.13209  -1.13145  -1.13142  -1.12951
 Alpha  occ. eigenvalues --   -1.12914  -1.12908  -1.12616  -1.12606  -1.12540
 Alpha  occ. eigenvalues --   -0.17597  -0.13661  -0.11487  -0.11286
 Alpha virt. eigenvalues --   -0.07719  -0.05380  -0.04723  -0.03318  -0.03012
 Alpha virt. eigenvalues --   -0.02571  -0.01914  -0.01778  -0.01558  -0.01237
 Alpha virt. eigenvalues --   -0.00224  -0.00080   0.00219   0.00352   0.00559

  Beta  occ. eigenvalues --  -38.46120 -38.44964 -38.44799 -38.44718 -38.43617
  Beta  occ. eigenvalues --  -38.43525 -38.43040  -2.21922  -2.20662  -2.20570
  Beta  occ. eigenvalues --   -2.20565  -2.19389  -2.19280  -2.18924  -1.15586
  Beta  occ. eigenvalues --   -1.15574  -1.15551  -1.14381  -1.14344  -1.14321
  Beta  occ. eigenvalues --   -1.14303  -1.14262  -1.14251  -1.14230  -1.14197
  Beta  occ. eigenvalues --   -1.14166  -1.13122  -1.13057  -1.13054  -1.12967
  Beta  occ. eigenvalues --   -1.12925  -1.12914  -1.12626  -1.12600  -1.12506
  Beta  occ. eigenvalues --   -0.17083  -0.12848  -0.10941
  Beta virt. eigenvalues --   -0.08180  -0.07584  -0.04777  -0.04452  -0.02990
  Beta virt. eigenvalues --   -0.02847  -0.02287  -0.01722  -0.01381  -0.01309
  Beta virt. eigenvalues --   -0.00869  -0.00133   0.00108   0.00287   0.00476

 Mulliken charges and spin densities:
               1          2
     1  Na   0.997171  -0.037024
     2  Na   0.633168   0.192055
     3  Na  -0.129511  -0.077555
     4  Na  -0.048636   0.346018
     5  Na   0.759452   0.115305
     6  Na  -0.628094   0.521140
     7  Na  -1.583550  -0.059938
 Sum of Mulliken charges =  -0.00000   1.00000

 Dipole moment (field-independent basis, Debye):
    X=              0.8401    Y=             -1.2024    Z=              0.7380  Tot=              1.6421
 Quadrupole moment (field-independent basis, Debye-Ang):
   XX=            -72.6572   YY=            -76.7110   ZZ=            -60.0482
   XY=             -3.2521   XZ=              1.3382   YZ=              2.6105

 Normal termination of Gaussian 16 at Mon Dec  4 01:03:56 2023.
