 Gaussian 16, Revision B.01,
 Gaussian 16:  ES64L-G16RevB.01 20-Dec-2017

 -------------------------
 #P B3LYP/6-311+g(d) force
 -------------------------

 -----
 DPGEN
 -----
 Symbolic Z-matrix:
 Charge =  0 Multiplicity = 2

                         Standard orientation:
 ---------------------------------------------------------------------
 Center     Atomic      Atomic             Coordinates (Angstroms)
 Number     Number       Type             X           Y           Z
 ---------------------------------------------------------------------
      1         11           0        2.152629   -1.968091   -0.635694
      2         11           0       -3.061688    0.165543    0.505232
      3         11           0       -1.333550   -2.503559   -0.301007
      4         11           0        0.333736   -0.203438    2.082047
      5         11           0       -0.521055    3.054349   -0.631708
      6         11           0       -0.110635    0.238704   -1.538308
      7         11           0        2.540564    1.216493    0.519439
 ---------------------------------------------------------------------

 SCF Done:  E(UB3LYP) =  -1136.13487534     A.U. after   19 cycles

 The electronic state is 2-A.
 Alpha  occ. eigenvalues --  -38.44040 -38.43872 -38.43621 -38.43466 -38.43453
 Alpha  occ. eigenvalues --  -38.43338 -38.43091  -2.19953  -2.19701  -2.19518
 Alpha  occ. eigenvalues --   -2.19327  -2.19308  -2.19222  -2.19130  -1.13659
 Alpha  occ. eigenvalues --   -1.13587  -1.13563  -1.13376  -1.13369  -1.13336
 Alpha  occ. eigenvalues --   -1.13209  -1.13177  -1.13129  -1.13100  -1.13024
 Alpha  occ. eigenvalues --   -1.12979  -1.12955  -1.12943  -1.12933  -1.12922
 Alpha  occ. eigenvalues --   -1.12880  -1.12842  -1.12787  -1.12736  -1.12729
 Alpha  occ. eigenvalues --   -0.18857  -0.12966  -0.12499  -0.11261
 Alpha virt. eigenvalues --   -0.05253  -0.04855  -0.04752  -0.03405  -0.03025
 Alpha virt. eigenvalues --   -0.02773  -0.01290  -0.01110  -0.00284  -0.00007
 Alpha virt. eigenvalues --    0.00065   0.00351   0.00868   0.00906   0.00938

  Beta  occ. eigenvalues --  -38.43948 -38.43864 -38.43606 -38.43452 -38.43437
  Beta  occ. eigenvalues --  -38.43333 -38.43032  -2.19783  -2.19687  -2.19493
  Beta  occ. eigenvalues --   -2.19301  -2.19286  -2.19216  -2.19024  -1.13546
  Beta  occ. eigenvalues --   -1.13466  -1.13448  -1.13369  -1.13347  -1.13323
  Beta  occ. eigenvalues --   -1.13179  -1.13145  -1.13109  -1.13063  -1.12996
  Beta  occ. eigenvalues --   -1.12963  -1.12929  -1.12922  -1.12918  -1.12910
  Beta  occ. eigenvalues --   -1.12867  -1.12828  -1.12718  -1.12669  -1.12655
  Beta  occ. eigenvalues --   -0.18146  -0.12713  -0.12181
  Beta virt. eigenvalues --   -0.07347  -0.05159  -0.04802  -0.04688  -0.02635
  Beta virt. eigenvalues --   -0.02342  -0.01745  -0.01187  -0.01006  -0.00210
  Beta virt. eigenvalues --   -0.00032   0.00143   0.00388   0.00903   0.00916

 Mulliken charges and spin densities:
               1          2
     1  Na   0.095823  -0.003306
     2  Na   0.002396   0.084136
     3  Na   0.055948  -0.030241
     4  Na  -0.361463   0.521567
     5  Na   0.034787  -0.018411
     6  Na  -0.189536   0.314390
     7  Na   0.362044   0.131866
 Sum of Mulliken charges =  -0.00000   1.00000

 Dipole moment (field-independent basis, Debye):
    X=             -0.0733    Y=             -0.0414    Z=              0.3364  Tot=              0.3467
 Quadrupole moment (field-independent basis, Debye-Ang):
   XX=            -59.6722   YY=            -62.5492   ZZ=            -72.0464
   XY=             -0.6095   XZ=             -1.4872   YZ=              1.2276

 Normal termination of Gaussian 16 at Thu Dec  7 19:38:17 2023.
