 Gaussian 16, Revision B.01,
 Gaussian 16:  ES64L-G16RevB.01 20-Dec-2017

 -------------------------
 #P B3LYP/6-311+g(d) force
 -------------------------

 -----
 DPGEN
 -----
 Symbolic Z-matrix:
 Charge =  0 Multiplicity = 2

                         Standard orientation:
 ---------------------------------------------------------------------
 Center     Atomic      Atomic             Coordinates (Angstroms)
 Number     Number       Type             X           Y           Z
 ---------------------------------------------------------------------
      1         11           0       -2.408605    1.690949    0.101790
      2         11           0       -0.034905    0.153478    2.160682
      3         11           0        0.830650   -2.633200   -0.648372
      4         11           0       -2.498698   -1.886178    0.074486
      5         11           0        3.180862   -0.267028    0.559963
      6         11           0        0.805389    2.989627   -0.667753
      7         11           0        0.125307   -0.047648   -1.580795
 ---------------------------------------------------------------------

 SCF Done:  E(UB3LYP) =  -1136.13437682     A.U. after   18 cycles

 The electronic state is 2-A.
 Alpha  occ. eigenvalues --  -38.44118 -38.43877 -38.43677 -38.43631 -38.43509
 Alpha  occ. eigenvalues --  -38.43498 -38.43362  -2.19978  -2.19681  -2.19501
 Alpha  occ. eigenvalues --   -2.19478  -2.19424  -2.19371  -2.19325  -1.13641
 Alpha  occ. eigenvalues --   -1.13612  -1.13595  -1.13366  -1.13352  -1.13329
 Alpha  occ. eigenvalues --   -1.13326  -1.13207  -1.13167  -1.13160  -1.13142
 Alpha  occ. eigenvalues --   -1.13135  -1.13089  -1.13067  -1.13027  -1.13009
 Alpha  occ. eigenvalues --   -1.12999  -1.12977  -1.12959  -1.12947  -1.12919
 Alpha  occ. eigenvalues --   -0.18518  -0.12773  -0.12475  -0.11156
 Alpha virt. eigenvalues --   -0.05315  -0.05113  -0.04714  -0.03273  -0.03087
 Alpha virt. eigenvalues --   -0.02802  -0.01388  -0.01208  -0.00328  -0.00137
 Alpha virt. eigenvalues --    0.00013   0.00349   0.00819   0.00875   0.00886

  Beta  occ. eigenvalues --  -38.44024 -38.43865 -38.43660 -38.43628 -38.43499
  Beta  occ. eigenvalues --  -38.43492 -38.43302  -2.19804  -2.19660  -2.19475
  Beta  occ. eigenvalues --   -2.19471  -2.19391  -2.19330  -2.19268  -1.13527
  Beta  occ. eigenvalues --   -1.13495  -1.13465  -1.13330  -1.13318  -1.13315
  Beta  occ. eigenvalues --   -1.13301  -1.13178  -1.13158  -1.13145  -1.13124
  Beta  occ. eigenvalues --   -1.13113  -1.13080  -1.13038  -1.13002  -1.12997
  Beta  occ. eigenvalues --   -1.12976  -1.12947  -1.12941  -1.12888  -1.12855
  Beta  occ. eigenvalues --   -0.17815  -0.12509  -0.12204
  Beta virt. eigenvalues --   -0.07270  -0.05215  -0.05050  -0.04657  -0.02535
  Beta virt. eigenvalues --   -0.02369  -0.01793  -0.01262  -0.01110  -0.00317
  Beta virt. eigenvalues --   -0.00157   0.00115   0.00380   0.00857   0.00891

 Mulliken charges and spin densities:
               1          2
     1  Na   0.104124   0.003964
     2  Na  -0.412469   0.661868
     3  Na   0.426671   0.043617
     4  Na  -0.054701  -0.017697
     5  Na  -0.035480   0.079274
     6  Na   0.131576  -0.004329
     7  Na  -0.159721   0.233304
 Sum of Mulliken charges =  -0.00000   1.00000

 Dipole moment (field-independent basis, Debye):
    X=              0.0594    Y=              0.1737    Z=              0.3700  Tot=              0.4130
 Quadrupole moment (field-independent basis, Debye-Ang):
   XX=            -59.1463   YY=            -62.2341   ZZ=            -72.6352
   XY=              0.7549   XZ=              0.2494   YZ=             -0.4555

 Normal termination of Gaussian 16 at Thu Dec  7 18:03:49 2023.
