 Gaussian 16, Revision B.01,
 Gaussian 16:  ES64L-G16RevB.01 20-Dec-2017

 -------------------------
 #P B3LYP/6-311+g(d) force
 -------------------------

 -----
 DPGEN
 -----
 Symbolic Z-matrix:
 Charge =  0 Multiplicity = 2

                         Standard orientation:
 ---------------------------------------------------------------------
 Center     Atomic      Atomic             Coordinates (Angstroms)
 Number     Number       Type             X           Y           Z
 ---------------------------------------------------------------------
      1         11           0        3.350300   -1.442632   -1.026607
      2         11           0       -1.384552    1.777744    1.112819
      3         11           0        1.268642   -0.726665    1.814587
      4         11           0        2.433981    2.036288   -0.355199
      5         11           0        0.072247   -0.059593   -1.107844
      6         11           0       -1.958834   -1.497649    1.079141
      7         11           0       -3.781784   -0.087493   -1.516898
 ---------------------------------------------------------------------

 SCF Done:  E(UB3LYP) =  -1136.12277857     A.U. after   50 cycles

 The electronic state is 2-A.
 Alpha  occ. eigenvalues --  -38.44904 -38.44113 -38.43891 -38.43860 -38.43718
 Alpha  occ. eigenvalues --  -38.43191 -38.43151  -2.20746  -2.20028  -2.19871
 Alpha  occ. eigenvalues --   -2.19731  -2.19535  -2.19114  -2.18945  -1.14447
 Alpha  occ. eigenvalues --   -1.14388  -1.14336  -1.13754  -1.13700  -1.13616
 Alpha  occ. eigenvalues --   -1.13610  -1.13568  -1.13473  -1.13408  -1.13377
 Alpha  occ. eigenvalues --   -1.13327  -1.13202  -1.13199  -1.13158  -1.12827
 Alpha  occ. eigenvalues --   -1.12761  -1.12704  -1.12619  -1.12612  -1.12576
 Alpha  occ. eigenvalues --   -0.18685  -0.13991  -0.11706  -0.10573
 Alpha virt. eigenvalues --   -0.06118  -0.05577  -0.04838  -0.03179  -0.02494
 Alpha virt. eigenvalues --   -0.02257  -0.01999  -0.01243  -0.01013  -0.00161
 Alpha virt. eigenvalues --    0.00155   0.00288   0.00390   0.00545   0.00559

  Beta  occ. eigenvalues --  -38.44848 -38.44077 -38.43869 -38.43841 -38.43698
  Beta  occ. eigenvalues --  -38.43150 -38.43148  -2.20643  -2.19963  -2.19839
  Beta  occ. eigenvalues --   -2.19698  -2.19500  -2.19038  -2.18944  -1.14370
  Beta  occ. eigenvalues --   -1.14324  -1.14256  -1.13709  -1.13658  -1.13557
  Beta  occ. eigenvalues --   -1.13554  -1.13529  -1.13457  -1.13382  -1.13342
  Beta  occ. eigenvalues --   -1.13305  -1.13178  -1.13166  -1.13138  -1.12773
  Beta  occ. eigenvalues --   -1.12692  -1.12650  -1.12616  -1.12611  -1.12576
  Beta  occ. eigenvalues --   -0.17919  -0.13798  -0.10398
  Beta virt. eigenvalues --   -0.07753  -0.05908  -0.05048  -0.04588  -0.02620
  Beta virt. eigenvalues --   -0.02278  -0.01895  -0.01650  -0.00927  -0.00638
  Beta virt. eigenvalues --   -0.00025   0.00189   0.00442   0.00463   0.00596

 Mulliken charges and spin densities:
               1          2
     1  Na   0.200959  -0.090696
     2  Na  -0.016100   0.127579
     3  Na   0.030037   0.341521
     4  Na   0.083381   0.093946
     5  Na  -0.766046   0.610556
     6  Na   0.235048  -0.075586
     7  Na   0.232720  -0.007320
 Sum of Mulliken charges =  -0.00000   1.00000

 Dipole moment (field-independent basis, Debye):
    X=              0.6770    Y=              0.6522    Z=              0.8709  Tot=              1.2815
 Quadrupole moment (field-independent basis, Debye-Ang):
   XX=            -57.4015   YY=            -63.5223   ZZ=            -75.0813
   XY=              0.0910   XZ=             -1.3954   YZ=             -2.7635

 Normal termination of Gaussian 16 at Thu Dec  7 06:40:05 2023.
