 Gaussian 16, Revision B.01,
 Gaussian 16:  ES64L-G16RevB.01 20-Dec-2017

 -------------------------
 #P B3LYP/6-311+g(d) force
 -------------------------

 -----
 DPGEN
 -----
 Symbolic Z-matrix:
 Charge =  0 Multiplicity = 2

                         Standard orientation:
 ---------------------------------------------------------------------
 Center     Atomic      Atomic             Coordinates (Angstroms)
 Number     Number       Type             X           Y           Z
 ---------------------------------------------------------------------
      1         11           0        1.368752    2.138498    0.542812
      2         11           0       -1.994965    2.066960   -0.269885
      3         11           0       -3.293902   -0.616466   -1.346241
      4         11           0       -1.469785   -0.249695    1.722483
      5         11           0        1.879204   -1.140651    1.383893
      6         11           0       -0.035318   -2.440100   -0.397774
      7         11           0        3.546015    0.241454   -1.635289
 ---------------------------------------------------------------------

 SCF Done:  E(UB3LYP) =  -1136.12492295     A.U. after   21 cycles

 The electronic state is 2-A.
 Alpha  occ. eigenvalues --  -38.44682 -38.44337 -38.44199 -38.43720 -38.43423
 Alpha  occ. eigenvalues --  -38.43367 -38.43259  -2.20472  -2.20183  -2.20130
 Alpha  occ. eigenvalues --   -2.19642  -2.19312  -2.19235  -2.19089  -1.14128
 Alpha  occ. eigenvalues --   -1.14108  -1.14086  -1.13858  -1.13838  -1.13822
 Alpha  occ. eigenvalues --   -1.13804  -1.13781  -1.13754  -1.13416  -1.13309
 Alpha  occ. eigenvalues --   -1.13249  -1.13001  -1.12974  -1.12944  -1.12904
 Alpha  occ. eigenvalues --   -1.12878  -1.12856  -1.12778  -1.12772  -1.12709
 Alpha  occ. eigenvalues --   -0.18131  -0.13966  -0.11822  -0.11188
 Alpha virt. eigenvalues --   -0.05713  -0.05301  -0.05069  -0.03561  -0.02791
 Alpha virt. eigenvalues --   -0.02613  -0.01640  -0.00755  -0.00487  -0.00189
 Alpha virt. eigenvalues --   -0.00068   0.00329   0.00348   0.00431   0.00502

  Beta  occ. eigenvalues --  -38.44607 -38.44285 -38.44157 -38.43703 -38.43418
  Beta  occ. eigenvalues --  -38.43367 -38.43256  -2.20331  -2.20084  -2.20056
  Beta  occ. eigenvalues --   -2.19616  -2.19306  -2.19237  -2.19088  -1.14031
  Beta  occ. eigenvalues --   -1.14011  -1.13996  -1.13799  -1.13779  -1.13762
  Beta  occ. eigenvalues --   -1.13737  -1.13725  -1.13683  -1.13406  -1.13281
  Beta  occ. eigenvalues --   -1.13207  -1.12996  -1.12971  -1.12920  -1.12903
  Beta  occ. eigenvalues --   -1.12863  -1.12861  -1.12776  -1.12770  -1.12686
  Beta  occ. eigenvalues --   -0.17510  -0.13440  -0.11617
  Beta virt. eigenvalues --   -0.07660  -0.05379  -0.04959  -0.04658  -0.03501
  Beta virt. eigenvalues --   -0.02271  -0.01870  -0.01422  -0.00474  -0.00374
  Beta virt. eigenvalues --   -0.00059   0.00031   0.00435   0.00484   0.00571

 Mulliken charges and spin densities:
               1          2
     1  Na  -0.608914  -0.006667
     2  Na   0.156519  -0.001444
     3  Na   0.077350   0.262103
     4  Na   0.152451   0.254319
     5  Na   0.666568   0.124233
     6  Na  -0.560216   0.008753
     7  Na   0.116242   0.358702
 Sum of Mulliken charges =  -0.00000   1.00000

 Dipole moment (field-independent basis, Debye):
    X=             -0.1596    Y=             -0.2792    Z=             -0.4246  Tot=              0.5326
 Quadrupole moment (field-independent basis, Debye-Ang):
   XX=            -60.0552   YY=            -73.8064   ZZ=            -64.1156
   XY=             -0.3295   XZ=             -0.1126   YZ=              1.0518

 Normal termination of Gaussian 16 at Wed Nov 29 01:45:10 2023.
