 Gaussian 16, Revision B.01,
 Gaussian 16:  ES64L-G16RevB.01 20-Dec-2017

 -------------------------
 #P B3LYP/6-311+g(d) force
 -------------------------

 -----
 DPGEN
 -----
 Symbolic Z-matrix:
 Charge =  0 Multiplicity = 2

                         Standard orientation:
 ---------------------------------------------------------------------
 Center     Atomic      Atomic             Coordinates (Angstroms)
 Number     Number       Type             X           Y           Z
 ---------------------------------------------------------------------
      1         11           0       -3.089053   -1.720731   -0.668039
      2         11           0        3.022683   -1.044415   -0.793019
      3         11           0        0.013642    2.980367   -0.932105
      4         11           0        1.732066    1.034191    1.663976
      5         11           0        0.315437   -2.467321    0.951230
      6         11           0        0.400968   -0.105250   -1.204263
      7         11           0       -2.395743    1.323159    0.982220
 ---------------------------------------------------------------------

 SCF Done:  E(UB3LYP) =  -1136.12639093     A.U. after   20 cycles

 The electronic state is 2-A.
 Alpha  occ. eigenvalues --  -38.44293 -38.44282 -38.44040 -38.43835 -38.43683
 Alpha  occ. eigenvalues --  -38.43442 -38.42928  -2.20185  -2.20090  -2.19876
 Alpha  occ. eigenvalues --   -2.19612  -2.19552  -2.19293  -2.19011  -1.13975
 Alpha  occ. eigenvalues --   -1.13809  -1.13787  -1.13768  -1.13759  -1.13718
 Alpha  occ. eigenvalues --   -1.13592  -1.13539  -1.13474  -1.13285  -1.13270
 Alpha  occ. eigenvalues --   -1.13250  -1.13232  -1.13205  -1.13157  -1.13019
 Alpha  occ. eigenvalues --   -1.12928  -1.12920  -1.12680  -1.12661  -1.12615
 Alpha  occ. eigenvalues --   -0.18352  -0.13098  -0.12304  -0.10466
 Alpha virt. eigenvalues --   -0.05814  -0.05454  -0.04652  -0.03246  -0.02942
 Alpha virt. eigenvalues --   -0.02204  -0.01584  -0.01117  -0.00740  -0.00151
 Alpha virt. eigenvalues --    0.00122   0.00344   0.00567   0.00610   0.00767

  Beta  occ. eigenvalues --  -38.44286 -38.44262 -38.44023 -38.43834 -38.43620
  Beta  occ. eigenvalues --  -38.43427 -38.42873  -2.20152  -2.20077  -2.19848
  Beta  occ. eigenvalues --   -2.19612  -2.19436  -2.19268  -2.18916  -1.13943
  Beta  occ. eigenvalues --   -1.13783  -1.13752  -1.13751  -1.13746  -1.13712
  Beta  occ. eigenvalues --   -1.13575  -1.13500  -1.13455  -1.13279  -1.13272
  Beta  occ. eigenvalues --   -1.13250  -1.13157  -1.13114  -1.13074  -1.12991
  Beta  occ. eigenvalues --   -1.12913  -1.12893  -1.12611  -1.12572  -1.12551
  Beta  occ. eigenvalues --   -0.17662  -0.12914  -0.12128
  Beta virt. eigenvalues --   -0.06627  -0.05678  -0.05296  -0.04536  -0.02667
  Beta virt. eigenvalues --   -0.02396  -0.01574  -0.01272  -0.01017  -0.00389
  Beta virt. eigenvalues --   -0.00164   0.00222   0.00413   0.00688   0.00733

 Mulliken charges and spin densities:
               1          2
     1  Na   0.250581  -0.065284
     2  Na   0.620664   0.114087
     3  Na   0.333714   0.006811
     4  Na  -0.281105   0.492505
     5  Na  -0.177557   0.194327
     6  Na  -0.594386   0.131593
     7  Na  -0.151910   0.125962
 Sum of Mulliken charges =  -0.00000   1.00000

 Dipole moment (field-independent basis, Debye):
    X=              0.0439    Y=             -0.0994    Z=              0.3566  Tot=              0.3728
 Quadrupole moment (field-independent basis, Debye-Ang):
   XX=            -56.7671   YY=            -63.3207   ZZ=            -72.2253
   XY=             -1.1634   XZ=             -0.4090   YZ=             -0.1582

 Normal termination of Gaussian 16 at Tue Dec  5 23:18:50 2023.
