 Gaussian 16, Revision B.01,
 Gaussian 16:  ES64L-G16RevB.01 20-Dec-2017

 -------------------------
 #P B3LYP/6-311+g(d) force
 -------------------------

 -----
 DPGEN
 -----
 Symbolic Z-matrix:
 Charge =  0 Multiplicity = 2

                         Standard orientation:
 ---------------------------------------------------------------------
 Center     Atomic      Atomic             Coordinates (Angstroms)
 Number     Number       Type             X           Y           Z
 ---------------------------------------------------------------------
      1         11           0       -0.583627   -1.884310   -0.169562
      2         11           0       -2.967906    1.288531    0.500736
      3         11           0        1.539637    1.149760   -0.896239
      4         11           0        2.830216   -0.704530    2.142309
      5         11           0        3.011182   -1.627196   -1.255519
      6         11           0        0.102265    3.678139   -0.193477
      7         11           0       -3.931767   -1.900394   -0.128248
 ---------------------------------------------------------------------

 SCF Done:  E(UB3LYP) =  -1136.12014218     A.U. after   24 cycles

 The electronic state is 2-A.
 Alpha  occ. eigenvalues --  -38.45339 -38.44891 -38.44502 -38.44405 -38.43545
 Alpha  occ. eigenvalues --  -38.43543 -38.43196  -2.21099  -2.20686  -2.20313
 Alpha  occ. eigenvalues --   -2.20254  -2.19457  -2.19381  -2.19017  -1.14797
 Alpha  occ. eigenvalues --   -1.14774  -1.14705  -1.14391  -1.14383  -1.14283
 Alpha  occ. eigenvalues --   -1.13977  -1.13972  -1.13955  -1.13947  -1.13898
 Alpha  occ. eigenvalues --   -1.13880  -1.13165  -1.13130  -1.13110  -1.13025
 Alpha  occ. eigenvalues --   -1.13017  -1.12980  -1.12690  -1.12661  -1.12636
 Alpha  occ. eigenvalues --   -0.17185  -0.14201  -0.12327  -0.10147
 Alpha virt. eigenvalues --   -0.06595  -0.06132  -0.04879  -0.03384  -0.02586
 Alpha virt. eigenvalues --   -0.02232  -0.02112  -0.01543  -0.01304  -0.00717
 Alpha virt. eigenvalues --   -0.00354   0.00141   0.00282   0.00531   0.00610

  Beta  occ. eigenvalues --  -38.45332 -38.44878 -38.44503 -38.44384 -38.43521
  Beta  occ. eigenvalues --  -38.43426 -38.43197  -2.21086  -2.20663  -2.20316
  Beta  occ. eigenvalues --   -2.20220  -2.19421  -2.19159  -2.19020  -1.14788
  Beta  occ. eigenvalues --   -1.14764  -1.14697  -1.14376  -1.14353  -1.14268
  Beta  occ. eigenvalues --   -1.13977  -1.13972  -1.13949  -1.13932  -1.13866
  Beta  occ. eigenvalues --   -1.13835  -1.13138  -1.13106  -1.13069  -1.12874
  Beta  occ. eigenvalues --   -1.12865  -1.12833  -1.12688  -1.12661  -1.12638
  Beta  occ. eigenvalues --   -0.16701  -0.13907  -0.12225
  Beta virt. eigenvalues --   -0.06580  -0.06132  -0.05831  -0.04750  -0.03061
  Beta virt. eigenvalues --   -0.02429  -0.01933  -0.01468  -0.01298  -0.01196
  Beta virt. eigenvalues --   -0.00550   0.00080   0.00288   0.00602   0.00650

 Mulliken charges and spin densities:
               1          2
     1  Na  -1.083018  -0.009144
     2  Na  -0.344712   0.044909
     3  Na  -1.612529   0.163717
     4  Na  -0.099251   0.573564
     5  Na   2.001483   0.340567
     6  Na   0.576972  -0.062443
     7  Na   0.561055  -0.051171
 Sum of Mulliken charges =  -0.00000   1.00000

 Dipole moment (field-independent basis, Debye):
    X=             -1.6926    Y=             -0.8836    Z=             -0.5789  Tot=              1.9952
 Quadrupole moment (field-independent basis, Debye-Ang):
   XX=            -54.9984   YY=            -64.8928   ZZ=            -76.7952
   XY=              0.0781   XZ=             -6.1830   YZ=              3.2440

 Normal termination of Gaussian 16 at Wed Nov 29 00:32:36 2023.
