 Gaussian 16, Revision B.01,
 Gaussian 16:  ES64L-G16RevB.01 20-Dec-2017

 -------------------------
 #P B3LYP/6-311+g(d) force
 -------------------------

 -----
 DPGEN
 -----
 Symbolic Z-matrix:
 Charge =  0 Multiplicity = 2

                         Standard orientation:
 ---------------------------------------------------------------------
 Center     Atomic      Atomic             Coordinates (Angstroms)
 Number     Number       Type             X           Y           Z
 ---------------------------------------------------------------------
      1         11           0        2.142974    0.770999    1.334005
      2         11           0        0.551628    3.251310   -0.042450
      3         11           0        3.397348   -1.041786   -1.018614
      4         11           0       -2.861290   -1.545464   -0.131645
      5         11           0       -0.169844   -2.809869    0.790976
      6         11           0       -0.119434   -0.269972   -0.836031
      7         11           0       -2.941384    1.644783   -0.096241
 ---------------------------------------------------------------------

 SCF Done:  E(UB3LYP) =  -1136.12218343     A.U. after   21 cycles

 The electronic state is 2-A.
 Alpha  occ. eigenvalues --  -38.44208 -38.43893 -38.43892 -38.43702 -38.43649
 Alpha  occ. eigenvalues --  -38.43595 -38.43531  -2.20098  -2.19911  -2.19824
 Alpha  occ. eigenvalues --   -2.19526  -2.19497  -2.19495  -2.19385  -1.13801
 Alpha  occ. eigenvalues --   -1.13767  -1.13735  -1.13696  -1.13609  -1.13566
 Alpha  occ. eigenvalues --   -1.13495  -1.13482  -1.13443  -1.13191  -1.13186
 Alpha  occ. eigenvalues --   -1.13162  -1.13159  -1.13154  -1.13143  -1.13129
 Alpha  occ. eigenvalues --   -1.13113  -1.13093  -1.13041  -1.13021  -1.12992
 Alpha  occ. eigenvalues --   -0.18161  -0.14047  -0.12839  -0.09798
 Alpha virt. eigenvalues --   -0.06239  -0.05410  -0.05185  -0.03131  -0.02547
 Alpha virt. eigenvalues --   -0.02247  -0.01478  -0.01111  -0.01068  -0.00691
 Alpha virt. eigenvalues --   -0.00078   0.00245   0.00527   0.00630   0.00779

  Beta  occ. eigenvalues --  -38.44191 -38.43896 -38.43883 -38.43682 -38.43615
  Beta  occ. eigenvalues --  -38.43551 -38.43453  -2.20071  -2.19916  -2.19813
  Beta  occ. eigenvalues --   -2.19490  -2.19433  -2.19418  -2.19237  -1.13788
  Beta  occ. eigenvalues --   -1.13740  -1.13693  -1.13688  -1.13605  -1.13571
  Beta  occ. eigenvalues --   -1.13483  -1.13448  -1.13434  -1.13168  -1.13151
  Beta  occ. eigenvalues --   -1.13134  -1.13121  -1.13111  -1.13100  -1.13071
  Beta  occ. eigenvalues --   -1.13066  -1.13037  -1.12941  -1.12920  -1.12896
  Beta  occ. eigenvalues --   -0.17824  -0.13425  -0.12373
  Beta virt. eigenvalues --   -0.06509  -0.06033  -0.05159  -0.04909  -0.02747
  Beta virt. eigenvalues --   -0.02134  -0.01912  -0.01257  -0.00862  -0.00786
  Beta virt. eigenvalues --   -0.00491   0.00153   0.00411   0.00685   0.00724

 Mulliken charges and spin densities:
               1          2
     1  Na   0.137824   0.070485
     2  Na   0.102710   0.075371
     3  Na   0.094564   0.316266
     4  Na   0.798710   0.113493
     5  Na  -0.301274   0.065267
     6  Na  -0.851326   0.186622
     7  Na   0.018791   0.172495
 Sum of Mulliken charges =  -0.00000   1.00000

 Dipole moment (field-independent basis, Debye):
    X=             -0.2254    Y=              0.0648    Z=              0.6418  Tot=              0.6833
 Quadrupole moment (field-independent basis, Debye-Ang):
   XX=            -64.4252   YY=            -64.8095   ZZ=            -69.9038
   XY=              1.4942   XZ=              1.2443   YZ=             -1.3861

 Normal termination of Gaussian 16 at Tue Nov 28 19:19:01 2023.
