 Gaussian 16, Revision B.01,
 Gaussian 16:  ES64L-G16RevB.01 20-Dec-2017

 -------------------------
 #P B3LYP/6-311+g(d) force
 -------------------------

 -----
 DPGEN
 -----
 Symbolic Z-matrix:
 Charge =  0 Multiplicity = 2

                         Standard orientation:
 ---------------------------------------------------------------------
 Center     Atomic      Atomic             Coordinates (Angstroms)
 Number     Number       Type             X           Y           Z
 ---------------------------------------------------------------------
      1         11           0       -0.389490    0.622378    2.121359
      2         11           0        1.522847    2.981274    0.479463
      3         11           0       -2.917645   -1.142849    0.373658
      4         11           0        0.329078   -2.950607    0.461272
      5         11           0       -1.976152    1.892699   -1.215690
      6         11           0        0.019310   -0.549983   -1.829518
      7         11           0        3.412052   -0.852912   -0.390543
 ---------------------------------------------------------------------

 SCF Done:  E(UB3LYP) =  -1136.13092176     A.U. after   19 cycles

 The electronic state is 2-A.
 Alpha  occ. eigenvalues --  -38.44283 -38.44183 -38.43891 -38.43877 -38.43770
 Alpha  occ. eigenvalues --  -38.43738 -38.43704  -2.20031  -2.20022  -2.19788
 Alpha  occ. eigenvalues --   -2.19723  -2.19581  -2.19565  -2.19470  -1.13716
 Alpha  occ. eigenvalues --   -1.13684  -1.13682  -1.13667  -1.13667  -1.13643
 Alpha  occ. eigenvalues --   -1.13511  -1.13467  -1.13419  -1.13369  -1.13353
 Alpha  occ. eigenvalues --   -1.13331  -1.13265  -1.13255  -1.13240  -1.13218
 Alpha  occ. eigenvalues --   -1.13210  -1.13184  -1.13150  -1.13119  -1.13114
 Alpha  occ. eigenvalues --   -0.17862  -0.12489  -0.12197  -0.11377
 Alpha virt. eigenvalues --   -0.05745  -0.05150  -0.04742  -0.03321  -0.03177
 Alpha virt. eigenvalues --   -0.02993  -0.01491  -0.01175  -0.00602  -0.00312
 Alpha virt. eigenvalues --   -0.00059   0.00348   0.00716   0.00760   0.00824

  Beta  occ. eigenvalues --  -38.44281 -38.44105 -38.43834 -38.43828 -38.43764
  Beta  occ. eigenvalues --  -38.43730 -38.43700  -2.20030  -2.19878  -2.19675
  Beta  occ. eigenvalues --   -2.19646  -2.19572  -2.19555  -2.19464  -1.13710
  Beta  occ. eigenvalues --   -1.13682  -1.13666  -1.13589  -1.13572  -1.13532
  Beta  occ. eigenvalues --   -1.13433  -1.13391  -1.13346  -1.13312  -1.13292
  Beta  occ. eigenvalues --   -1.13271  -1.13246  -1.13242  -1.13225  -1.13213
  Beta  occ. eigenvalues --   -1.13187  -1.13171  -1.13133  -1.13116  -1.13113
  Beta  occ. eigenvalues --   -0.17114  -0.12270  -0.11962
  Beta virt. eigenvalues --   -0.07482  -0.05695  -0.04988  -0.04556  -0.02737
  Beta virt. eigenvalues --   -0.02538  -0.02055  -0.01416  -0.01050  -0.00492
  Beta virt. eigenvalues --   -0.00327   0.00056   0.00396   0.00798   0.00848

 Mulliken charges and spin densities:
               1          2
     1  Na  -0.212583   0.538151
     2  Na  -0.127711  -0.031714
     3  Na   0.180719   0.067966
     4  Na  -0.095890   0.021594
     5  Na   0.251269   0.143433
     6  Na   0.043592   0.339581
     7  Na  -0.039396  -0.079010
 Sum of Mulliken charges =  -0.00000   1.00000

 Dipole moment (field-independent basis, Debye):
    X=             -0.0010    Y=             -0.1498    Z=              0.1218  Tot=              0.1931
 Quadrupole moment (field-independent basis, Debye-Ang):
   XX=            -59.3776   YY=            -64.7735   ZZ=            -71.1265
   XY=              0.5440   XZ=              0.0989   YZ=             -2.9953

 Normal termination of Gaussian 16 at Sun Dec  3 22:30:44 2023.
