 Gaussian 16, Revision B.01,
 Gaussian 16:  ES64L-G16RevB.01 20-Dec-2017

 -------------------------
 #P B3LYP/6-311+g(d) force
 -------------------------

 -----
 DPGEN
 -----
 Symbolic Z-matrix:
 Charge =  0 Multiplicity = 2

                         Standard orientation:
 ---------------------------------------------------------------------
 Center     Atomic      Atomic             Coordinates (Angstroms)
 Number     Number       Type             X           Y           Z
 ---------------------------------------------------------------------
      1         11           0        0.454899    0.102395   -1.820356
      2         11           0        2.630262   -1.377852    0.107095
      3         11           0       -0.303929   -0.195114    2.213222
      4         11           0       -1.196416    2.600719   -0.172828
      5         11           0       -0.520093   -2.556658   -0.344133
      6         11           0        2.277222    1.791617    0.158406
      7         11           0       -3.341945   -0.365106   -0.141406
 ---------------------------------------------------------------------

 SCF Done:  E(UB3LYP) =  -1136.13634528     A.U. after   19 cycles

 The electronic state is 2-A.
 Alpha  occ. eigenvalues --  -38.44385 -38.44111 -38.43625 -38.43556 -38.43485
 Alpha  occ. eigenvalues --  -38.43255 -38.42980  -2.20167  -2.19968  -2.19539
 Alpha  occ. eigenvalues --   -2.19523  -2.19375  -2.19086  -2.18872  -1.13841
 Alpha  occ. eigenvalues --   -1.13821  -1.13815  -1.13629  -1.13599  -1.13582
 Alpha  occ. eigenvalues --   -1.13289  -1.13221  -1.13200  -1.13193  -1.13164
 Alpha  occ. eigenvalues --   -1.13125  -1.13028  -1.13023  -1.12995  -1.12771
 Alpha  occ. eigenvalues --   -1.12753  -1.12710  -1.12571  -1.12536  -1.12484
 Alpha  occ. eigenvalues --   -0.18760  -0.13058  -0.12259  -0.11186
 Alpha virt. eigenvalues --   -0.05859  -0.04934  -0.04293  -0.03462  -0.02991
 Alpha virt. eigenvalues --   -0.02928  -0.01598  -0.00883  -0.00203  -0.00092
 Alpha virt. eigenvalues --   -0.00061   0.00365   0.00771   0.00853   0.00921

  Beta  occ. eigenvalues --  -38.44387 -38.44015 -38.43619 -38.43486 -38.43479
  Beta  occ. eigenvalues --  -38.43251 -38.42968  -2.20173  -2.19790  -2.19516
  Beta  occ. eigenvalues --   -2.19410  -2.19367  -2.19082  -2.18856  -1.13831
  Beta  occ. eigenvalues --   -1.13827  -1.13820  -1.13512  -1.13474  -1.13454
  Beta  occ. eigenvalues --   -1.13261  -1.13188  -1.13147  -1.13140  -1.13117
  Beta  occ. eigenvalues --   -1.13050  -1.13010  -1.12996  -1.12983  -1.12762
  Beta  occ. eigenvalues --   -1.12736  -1.12711  -1.12557  -1.12498  -1.12477
  Beta  occ. eigenvalues --   -0.17990  -0.12872  -0.12013
  Beta virt. eigenvalues --   -0.07221  -0.05780  -0.04950  -0.04229  -0.02674
  Beta virt. eigenvalues --   -0.02187  -0.01878  -0.01508  -0.00830  -0.00242
  Beta virt. eigenvalues --   -0.00121   0.00078   0.00387   0.00846   0.00914

 Mulliken charges and spin densities:
               1          2
     1  Na  -0.218696   0.450266
     2  Na   0.356127   0.055411
     3  Na  -0.676734   0.703266
     4  Na   0.057403  -0.094156
     5  Na   0.240262  -0.038928
     6  Na   0.212841   0.025799
     7  Na   0.028797  -0.101657
 Sum of Mulliken charges =  -0.00000   1.00000

 Dipole moment (field-independent basis, Debye):
    X=             -0.2996    Y=             -0.0000    Z=              0.2313  Tot=              0.3784
 Quadrupole moment (field-independent basis, Debye-Ang):
   XX=            -56.0208   YY=            -67.4132   ZZ=            -71.3703
   XY=             -0.1207   XZ=              1.4298   YZ=              0.4820

 Normal termination of Gaussian 16 at Fri Dec  8 01:20:30 2023.
