 Gaussian 16, Revision B.01,
 Gaussian 16:  ES64L-G16RevB.01 20-Dec-2017

 -------------------------
 #P B3LYP/6-311+g(d) force
 -------------------------

 -----
 DPGEN
 -----
 Symbolic Z-matrix:
 Charge =  0 Multiplicity = 2

                         Standard orientation:
 ---------------------------------------------------------------------
 Center     Atomic      Atomic             Coordinates (Angstroms)
 Number     Number       Type             X           Y           Z
 ---------------------------------------------------------------------
      1         11           0        0.036715   -0.150994    2.142992
      2         11           0        0.264718    0.226070   -1.563348
      3         11           0       -1.625958   -2.512569   -0.026194
      4         11           0        3.216840    1.040782    0.012845
      5         11           0        1.889763   -2.278913   -0.304111
      6         11           0       -3.159720    0.352136   -0.261209
      7         11           0       -0.622359    3.323489   -0.000975
 ---------------------------------------------------------------------

 SCF Done:  E(UB3LYP) =  -1136.13457595     A.U. after   20 cycles

 The electronic state is 2-A.
 Alpha  occ. eigenvalues --  -38.44549 -38.44129 -38.44002 -38.43655 -38.43639
 Alpha  occ. eigenvalues --  -38.43315 -38.43231  -2.20333  -2.19940  -2.19761
 Alpha  occ. eigenvalues --   -2.19513  -2.19491  -2.19175  -2.19168  -1.14010
 Alpha  occ. eigenvalues --   -1.13989  -1.13974  -1.13620  -1.13608  -1.13575
 Alpha  occ. eigenvalues --   -1.13440  -1.13418  -1.13404  -1.13223  -1.13177
 Alpha  occ. eigenvalues --   -1.13149  -1.13138  -1.13111  -1.13109  -1.12865
 Alpha  occ. eigenvalues --   -1.12843  -1.12835  -1.12824  -1.12799  -1.12792
 Alpha  occ. eigenvalues --   -0.18201  -0.12927  -0.12259  -0.10511
 Alpha virt. eigenvalues --   -0.06108  -0.05158  -0.04910  -0.03078  -0.02759
 Alpha virt. eigenvalues --   -0.02526  -0.01712  -0.01323  -0.00736  -0.00503
 Alpha virt. eigenvalues --   -0.00023   0.00333   0.00744   0.00795   0.00839

  Beta  occ. eigenvalues --  -38.44548 -38.44124 -38.44004 -38.43645 -38.43534
  Beta  occ. eigenvalues --  -38.43311 -38.43179  -2.20334  -2.19933  -2.19767
  Beta  occ. eigenvalues --   -2.19499  -2.19297  -2.19170  -2.19074  -1.14000
  Beta  occ. eigenvalues --   -1.13987  -1.13975  -1.13615  -1.13588  -1.13573
  Beta  occ. eigenvalues --   -1.13433  -1.13421  -1.13410  -1.13207  -1.13140
  Beta  occ. eigenvalues --   -1.13132  -1.13024  -1.12976  -1.12972  -1.12845
  Beta  occ. eigenvalues --   -1.12824  -1.12803  -1.12792  -1.12728  -1.12724
  Beta  occ. eigenvalues --   -0.17480  -0.12722  -0.12075
  Beta virt. eigenvalues --   -0.06573  -0.06108  -0.05055  -0.04908  -0.02337
  Beta virt. eigenvalues --   -0.02053  -0.01627  -0.01467  -0.01215  -0.00771
  Beta virt. eigenvalues --   -0.00555   0.00138   0.00372   0.00749   0.00841

 Mulliken charges and spin densities:
               1          2
     1  Na  -0.514634   0.809560
     2  Na  -0.103315   0.327783
     3  Na   0.210247   0.041598
     4  Na   0.069641  -0.077868
     5  Na   0.322800   0.035893
     6  Na   0.073879  -0.036693
     7  Na  -0.058618  -0.100273
 Sum of Mulliken charges =  -0.00000   1.00000

 Dipole moment (field-independent basis, Debye):
    X=              0.3372    Y=              0.3154    Z=              0.0939  Tot=              0.4712
 Quadrupole moment (field-independent basis, Debye-Ang):
   XX=            -55.8779   YY=            -60.8244   ZZ=            -76.0889
   XY=              0.6273   XZ=              0.5990   YZ=              1.0019

 Normal termination of Gaussian 16 at Thu Dec  7 05:26:24 2023.
