 Gaussian 16, Revision B.01,
 Gaussian 16:  ES64L-G16RevB.01 20-Dec-2017

 -------------------------
 #P B3LYP/6-311+g(d) force
 -------------------------

 -----
 DPGEN
 -----
 Symbolic Z-matrix:
 Charge =  0 Multiplicity = 2

                         Standard orientation:
 ---------------------------------------------------------------------
 Center     Atomic      Atomic             Coordinates (Angstroms)
 Number     Number       Type             X           Y           Z
 ---------------------------------------------------------------------
      1         11           0        0.634815    0.271621    2.018776
      2         11           0        3.960641   -0.245966   -0.059294
      3         11           0       -3.184776   -1.141537    0.882245
      4         11           0       -1.140761    2.713761    0.175375
      5         11           0       -2.226978   -0.460509   -1.565958
      6         11           0        0.871102   -2.194775   -0.240322
      7         11           0        1.085957    1.057404   -1.210822
 ---------------------------------------------------------------------

 SCF Done:  E(UB3LYP) =  -1136.11932887     A.U. after   21 cycles

 The electronic state is 2-A.
 Alpha  occ. eigenvalues --  -38.45463 -38.44784 -38.44216 -38.43874 -38.43836
 Alpha  occ. eigenvalues --  -38.42919 -38.42468  -2.21248  -2.20628  -2.20052
 Alpha  occ. eigenvalues --   -2.19794  -2.19726  -2.18896  -2.18325  -1.14930
 Alpha  occ. eigenvalues --   -1.14908  -1.14867  -1.14496  -1.14236  -1.14235
 Alpha  occ. eigenvalues --   -1.13778  -1.13747  -1.13629  -1.13470  -1.13422
 Alpha  occ. eigenvalues --   -1.13415  -1.13369  -1.13352  -1.13328  -1.12599
 Alpha  occ. eigenvalues --   -1.12554  -1.12526  -1.11999  -1.11978  -1.11964
 Alpha  occ. eigenvalues --   -0.18499  -0.13731  -0.11434  -0.10952
 Alpha virt. eigenvalues --   -0.07074  -0.04554  -0.04362  -0.03291  -0.02837
 Alpha virt. eigenvalues --   -0.02634  -0.02519  -0.00869  -0.00608  -0.00048
 Alpha virt. eigenvalues --    0.00122   0.00147   0.00378   0.00775   0.00873

  Beta  occ. eigenvalues --  -38.45462 -38.44784 -38.44200 -38.43843 -38.43747
  Beta  occ. eigenvalues --  -38.42883 -38.42467  -2.21248  -2.20629  -2.20027
  Beta  occ. eigenvalues --   -2.19737  -2.19563  -2.18831  -2.18326  -1.14926
  Beta  occ. eigenvalues --   -1.14902  -1.14869  -1.14491  -1.14237  -1.14226
  Beta  occ. eigenvalues --   -1.13764  -1.13694  -1.13616  -1.13428  -1.13383
  Beta  occ. eigenvalues --   -1.13329  -1.13308  -1.13232  -1.13212  -1.12558
  Beta  occ. eigenvalues --   -1.12492  -1.12478  -1.11999  -1.11971  -1.11953
  Beta  occ. eigenvalues --   -0.17738  -0.13609  -0.11247
  Beta virt. eigenvalues --   -0.07063  -0.06901  -0.04509  -0.03768  -0.03180
  Beta virt. eigenvalues --   -0.02630  -0.01896  -0.01672  -0.00736  -0.00335
  Beta virt. eigenvalues --   -0.00007   0.00123   0.00182   0.00495   0.00809

 Mulliken charges and spin densities:
               1          2
     1  Na  -0.367149   0.698213
     2  Na   0.510403  -0.029532
     3  Na  -0.040570  -0.066972
     4  Na  -0.040122  -0.077737
     5  Na   0.229514   0.137972
     6  Na  -0.088489   0.037571
     7  Na  -0.203588   0.300486
 Sum of Mulliken charges =  -0.00000   1.00000

 Dipole moment (field-independent basis, Debye):
    X=              1.2084    Y=             -0.2774    Z=              0.4514  Tot=              1.3194
 Quadrupole moment (field-independent basis, Debye-Ang):
   XX=            -48.6426   YY=            -74.2875   ZZ=            -70.3788
   XY=             -1.3650   XZ=             -1.6220   YZ=             -0.2266

 Normal termination of Gaussian 16 at Tue Dec  5 18:16:56 2023.
