 Gaussian 16, Revision B.01,
 Gaussian 16:  ES64L-G16RevB.01 20-Dec-2017

 -------------------------
 #P B3LYP/6-311+g(d) force
 -------------------------

 -----
 DPGEN
 -----
 Symbolic Z-matrix:
 Charge =  0 Multiplicity = 2

                         Standard orientation:
 ---------------------------------------------------------------------
 Center     Atomic      Atomic             Coordinates (Angstroms)
 Number     Number       Type             X           Y           Z
 ---------------------------------------------------------------------
      1         11           0       -2.564998   -2.272141    0.277543
      2         11           0       -3.912179    0.973266   -0.578685
      3         11           0        1.026274   -0.813245    2.132878
      4         11           0        3.397365   -1.179486   -0.831715
      5         11           0        2.551012    1.782907   -0.049451
      6         11           0        0.253061   -0.592444   -1.497199
      7         11           0       -0.750535    2.101142    0.546629
 ---------------------------------------------------------------------

 SCF Done:  E(UB3LYP) =  -1136.11987316     A.U. after   25 cycles

 The electronic state is 2-A.
 Alpha  occ. eigenvalues --  -38.45084 -38.44826 -38.44316 -38.44196 -38.44082
 Alpha  occ. eigenvalues --  -38.43996 -38.42429  -2.20857  -2.20685  -2.20154
 Alpha  occ. eigenvalues --   -2.20062  -2.19878  -2.19844  -2.18280  -1.14530
 Alpha  occ. eigenvalues --   -1.14502  -1.14484  -1.14386  -1.14343  -1.14318
 Alpha  occ. eigenvalues --   -1.13811  -1.13788  -1.13765  -1.13755  -1.13721
 Alpha  occ. eigenvalues --   -1.13687  -1.13550  -1.13528  -1.13522  -1.13505
 Alpha  occ. eigenvalues --   -1.13504  -1.13489  -1.11987  -1.11949  -1.11905
 Alpha  occ. eigenvalues --   -0.18133  -0.13958  -0.11112  -0.10980
 Alpha virt. eigenvalues --   -0.07043  -0.05959  -0.04074  -0.03101  -0.02877
 Alpha virt. eigenvalues --   -0.02572  -0.02402  -0.01436  -0.00763  -0.00603
 Alpha virt. eigenvalues --    0.00016   0.00137   0.00346   0.00561   0.00667

  Beta  occ. eigenvalues --  -38.45059 -38.44807 -38.44211 -38.44169 -38.44083
  Beta  occ. eigenvalues --  -38.43985 -38.42427  -2.20811  -2.20650  -2.20015
  Beta  occ. eigenvalues --   -2.19961  -2.19860  -2.19846  -2.18279  -1.14498
  Beta  occ. eigenvalues --   -1.14472  -1.14454  -1.14355  -1.14323  -1.14282
  Beta  occ. eigenvalues --   -1.13729  -1.13684  -1.13678  -1.13664  -1.13640
  Beta  occ. eigenvalues --   -1.13622  -1.13541  -1.13524  -1.13512  -1.13504
  Beta  occ. eigenvalues --   -1.13482  -1.13471  -1.11991  -1.11937  -1.11893
  Beta  occ. eigenvalues --   -0.17483  -0.13652  -0.10914
  Beta virt. eigenvalues --   -0.07264  -0.06714  -0.05823  -0.03714  -0.02899
  Beta virt. eigenvalues --   -0.02554  -0.01900  -0.01694  -0.01356  -0.00601
  Beta virt. eigenvalues --   -0.00301   0.00069   0.00158   0.00491   0.00631

 Mulliken charges and spin densities:
               1          2
     1  Na   0.062967   0.027022
     2  Na   0.308558   0.106822
     3  Na  -0.337982   0.522168
     4  Na   0.699592   0.139204
     5  Na   0.157024   0.094808
     6  Na  -0.569007   0.142885
     7  Na  -0.321151  -0.032910
 Sum of Mulliken charges =  -0.00000   1.00000

 Dipole moment (field-independent basis, Debye):
    X=             -0.0296    Y=             -0.2362    Z=              0.0372  Tot=              0.2409
 Quadrupole moment (field-independent basis, Debye-Ang):
   XX=            -48.8407   YY=            -74.9902   ZZ=            -71.1997
   XY=             -0.2221   XZ=              1.8522   YZ=             -2.1370

 Normal termination of Gaussian 16 at Fri Dec  8 00:03:25 2023.
