 Gaussian 16, Revision B.01,
 Gaussian 16:  ES64L-G16RevB.01 20-Dec-2017

 -------------------------
 #P B3LYP/6-311+g(d) force
 -------------------------

 -----
 DPGEN
 -----
 Symbolic Z-matrix:
 Charge =  0 Multiplicity = 2

                         Standard orientation:
 ---------------------------------------------------------------------
 Center     Atomic      Atomic             Coordinates (Angstroms)
 Number     Number       Type             X           Y           Z
 ---------------------------------------------------------------------
      1         11           0        1.595061    1.099165   -1.131337
      2         11           0       -1.000728    2.778649   -0.271361
      3         11           0       -3.651099   -0.752523    1.184839
      4         11           0       -1.640297   -0.893238   -1.610937
      5         11           0        0.044489   -0.047105    1.545127
      6         11           0        3.461737   -0.255962    1.237393
      7         11           0        1.190837   -1.928987   -0.953723
 ---------------------------------------------------------------------

 SCF Done:  E(UB3LYP) =  -1136.12374422     A.U. after   23 cycles

 The electronic state is 2-A.
 Alpha  occ. eigenvalues --  -38.44719 -38.44623 -38.44285 -38.43707 -38.43351
 Alpha  occ. eigenvalues --  -38.43283 -38.42256  -2.20502  -2.20475  -2.20217
 Alpha  occ. eigenvalues --   -2.19600  -2.19314  -2.19277  -2.18095  -1.14169
 Alpha  occ. eigenvalues --   -1.14143  -1.14142  -1.14130  -1.14128  -1.14090
 Alpha  occ. eigenvalues --   -1.13945  -1.13853  -1.13827  -1.13349  -1.13232
 Alpha  occ. eigenvalues --   -1.13222  -1.13100  -1.12968  -1.12947  -1.12923
 Alpha  occ. eigenvalues --   -1.12912  -1.12845  -1.11767  -1.11758  -1.11733
 Alpha  occ. eigenvalues --   -0.18857  -0.13647  -0.11757  -0.11176
 Alpha virt. eigenvalues --   -0.06427  -0.05074  -0.04197  -0.03210  -0.02752
 Alpha virt. eigenvalues --   -0.02435  -0.02273  -0.01146  -0.00569   0.00004
 Alpha virt. eigenvalues --    0.00170   0.00279   0.00491   0.00713   0.00850

  Beta  occ. eigenvalues --  -38.44679 -38.44586 -38.44248 -38.43672 -38.43311
  Beta  occ. eigenvalues --  -38.43258 -38.42257  -2.20427  -2.20406  -2.20150
  Beta  occ. eigenvalues --   -2.19541  -2.19249  -2.19233  -2.18097  -1.14115
  Beta  occ. eigenvalues --   -1.14093  -1.14092  -1.14080  -1.14077  -1.14048
  Beta  occ. eigenvalues --   -1.13893  -1.13811  -1.13771  -1.13293  -1.13190
  Beta  occ. eigenvalues --   -1.13167  -1.13057  -1.12929  -1.12919  -1.12866
  Beta  occ. eigenvalues --   -1.12832  -1.12816  -1.11766  -1.11753  -1.11737
  Beta  occ. eigenvalues --   -0.18128  -0.13279  -0.11005
  Beta virt. eigenvalues --   -0.07889  -0.06165  -0.04483  -0.04134  -0.02995
  Beta virt. eigenvalues --   -0.02145  -0.01923  -0.01825  -0.00779  -0.00516
  Beta virt. eigenvalues --    0.00122   0.00228   0.00374   0.00574   0.00798

 Mulliken charges and spin densities:
               1          2
     1  Na   0.024833   0.295789
     2  Na  -0.331607  -0.033076
     3  Na  -0.014455   0.210617
     4  Na   0.092590  -0.107887
     5  Na  -0.500140   0.279552
     6  Na   0.719914   0.067468
     7  Na   0.008865   0.287536
 Sum of Mulliken charges =  -0.00000   1.00000

 Dipole moment (field-independent basis, Debye):
    X=              0.2333    Y=             -0.2674    Z=              0.6064  Tot=              0.7026
 Quadrupole moment (field-independent basis, Debye-Ang):
   XX=            -50.4947   YY=            -77.1673   ZZ=            -65.7519
   XY=             -1.1022   XZ=              0.4205   YZ=             -0.3681

 Normal termination of Gaussian 16 at Tue Dec  5 13:22:20 2023.
