 Gaussian 16, Revision B.01,
 Gaussian 16:  ES64L-G16RevB.01 20-Dec-2017

 -------------------------
 #P B3LYP/6-311+g(d) force
 -------------------------

 -----
 DPGEN
 -----
 Symbolic Z-matrix:
 Charge =  0 Multiplicity = 2

                         Standard orientation:
 ---------------------------------------------------------------------
 Center     Atomic      Atomic             Coordinates (Angstroms)
 Number     Number       Type             X           Y           Z
 ---------------------------------------------------------------------
      1         11           0        1.674535    1.021289   -1.693935
      2         11           0       -0.110425   -2.570763   -1.144046
      3         11           0       -4.000234   -1.128678    0.149424
      4         11           0       -1.686901    0.661927    1.215211
      5         11           0       -0.616693    2.924559   -0.841016
      6         11           0        1.842054    0.906422    1.768645
      7         11           0        2.897665   -1.814756    0.545716
 ---------------------------------------------------------------------

 SCF Done:  E(UB3LYP) =  -1136.12273848     A.U. after   20 cycles

 The electronic state is 2-A.
 Alpha  occ. eigenvalues --  -38.44529 -38.44244 -38.44215 -38.44187 -38.43928
 Alpha  occ. eigenvalues --  -38.43783 -38.43502  -2.20291  -2.20117  -2.20070
 Alpha  occ. eigenvalues --   -2.19995  -2.19762  -2.19640  -2.19383  -1.13969
 Alpha  occ. eigenvalues --   -1.13957  -1.13899  -1.13809  -1.13789  -1.13749
 Alpha  occ. eigenvalues --   -1.13737  -1.13725  -1.13695  -1.13674  -1.13654
 Alpha  occ. eigenvalues --   -1.13629  -1.13431  -1.13418  -1.13395  -1.13319
 Alpha  occ. eigenvalues --   -1.13308  -1.13258  -1.13059  -1.13041  -1.13001
 Alpha  occ. eigenvalues --   -0.17774  -0.13161  -0.12341  -0.11254
 Alpha virt. eigenvalues --   -0.06345  -0.05284  -0.04561  -0.03492  -0.03058
 Alpha virt. eigenvalues --   -0.02771  -0.01783  -0.01189  -0.00497  -0.00272
 Alpha virt. eigenvalues --   -0.00246   0.00247   0.00384   0.00624   0.00699

  Beta  occ. eigenvalues --  -38.44491 -38.44224 -38.44190 -38.44112 -38.43921
  Beta  occ. eigenvalues --  -38.43768 -38.43481  -2.20220  -2.20020  -2.20012
  Beta  occ. eigenvalues --   -2.19933  -2.19754  -2.19615  -2.19344  -1.13915
  Beta  occ. eigenvalues --   -1.13911  -1.13850  -1.13743  -1.13710  -1.13703
  Beta  occ. eigenvalues --   -1.13674  -1.13665  -1.13649  -1.13640  -1.13632
  Beta  occ. eigenvalues --   -1.13579  -1.13421  -1.13407  -1.13369  -1.13304
  Beta  occ. eigenvalues --   -1.13268  -1.13245  -1.13026  -1.13013  -1.12980
  Beta  occ. eigenvalues --   -0.17101  -0.13000  -0.12039
  Beta virt. eigenvalues --   -0.07497  -0.06073  -0.05141  -0.04166  -0.03000
  Beta virt. eigenvalues --   -0.02628  -0.02066  -0.01546  -0.01098  -0.00373
  Beta virt. eigenvalues --   -0.00142  -0.00014   0.00341   0.00478   0.00708

 Mulliken charges and spin densities:
               1          2
     1  Na   0.020621   0.568706
     2  Na  -0.419250   0.127332
     3  Na   0.317958  -0.070504
     4  Na  -0.094472   0.278862
     5  Na   0.051468  -0.207152
     6  Na  -0.124695   0.330946
     7  Na   0.248369  -0.028191
 Sum of Mulliken charges =  -0.00000   1.00000

 Dipole moment (field-independent basis, Debye):
    X=              0.0719    Y=             -0.0754    Z=             -0.3875  Tot=              0.4013
 Quadrupole moment (field-independent basis, Debye-Ang):
   XX=            -59.2498   YY=            -66.6038   ZZ=            -70.8670
   XY=             -0.5689   XZ=              1.9774   YZ=              0.6580

 Normal termination of Gaussian 16 at Sun Dec  3 22:32:52 2023.
