 Gaussian 16, Revision B.01,
 Gaussian 16:  ES64L-G16RevB.01 20-Dec-2017

 -------------------------
 #P B3LYP/6-311+g(d) force
 -------------------------

 -----
 DPGEN
 -----
 Symbolic Z-matrix:
 Charge =  0 Multiplicity = 2

                         Standard orientation:
 ---------------------------------------------------------------------
 Center     Atomic      Atomic             Coordinates (Angstroms)
 Number     Number       Type             X           Y           Z
 ---------------------------------------------------------------------
      1         11           0       -2.564242    1.820562    0.325081
      2         11           0       -2.634968   -1.475793   -0.295907
      3         11           0        0.912043   -2.724255    0.022274
      4         11           0       -0.241198   -0.147796    1.900423
      5         11           0       -0.079345   -0.131003   -1.813490
      6         11           0        1.160044    2.599461   -0.360700
      7         11           0        3.447665    0.058823    0.222319
 ---------------------------------------------------------------------

 SCF Done:  E(UB3LYP) =  -1136.13685274     A.U. after   20 cycles

 The electronic state is 2-A.
 Alpha  occ. eigenvalues --  -38.44597 -38.43936 -38.43720 -38.43612 -38.43382
 Alpha  occ. eigenvalues --  -38.43238 -38.43156  -2.20375  -2.19808  -2.19557
 Alpha  occ. eigenvalues --   -2.19522  -2.19331  -2.19073  -2.19006  -1.14051
 Alpha  occ. eigenvalues --   -1.14030  -1.14017  -1.13507  -1.13474  -1.13437
 Alpha  occ. eigenvalues --   -1.13247  -1.13215  -1.13199  -1.13192  -1.13152
 Alpha  occ. eigenvalues --   -1.13132  -1.13007  -1.12978  -1.12954  -1.12758
 Alpha  occ. eigenvalues --   -1.12735  -1.12694  -1.12686  -1.12683  -1.12622
 Alpha  occ. eigenvalues --   -0.18568  -0.13142  -0.12173  -0.10791
 Alpha virt. eigenvalues --   -0.06044  -0.05153  -0.04376  -0.03279  -0.02820
 Alpha virt. eigenvalues --   -0.02583  -0.01810  -0.01105  -0.00375  -0.00279
 Alpha virt. eigenvalues --   -0.00024   0.00339   0.00758   0.00842   0.00883

  Beta  occ. eigenvalues --  -38.44598 -38.43925 -38.43713 -38.43532 -38.43301
  Beta  occ. eigenvalues --  -38.43230 -38.43151  -2.20378  -2.19792  -2.19547
  Beta  occ. eigenvalues --   -2.19376  -2.19183  -2.19061  -2.19001  -1.14046
  Beta  occ. eigenvalues --   -1.14029  -1.14020  -1.13493  -1.13439  -1.13429
  Beta  occ. eigenvalues --   -1.13222  -1.13202  -1.13183  -1.13102  -1.13052
  Beta  occ. eigenvalues --   -1.13028  -1.12911  -1.12873  -1.12853  -1.12737
  Beta  occ. eigenvalues --   -1.12713  -1.12690  -1.12682  -1.12655  -1.12617
  Beta  occ. eigenvalues --   -0.17830  -0.12929  -0.11907
  Beta virt. eigenvalues --   -0.06901  -0.05969  -0.05148  -0.04339  -0.02535
  Beta virt. eigenvalues --   -0.02048  -0.01718  -0.01536  -0.01036  -0.00414
  Beta virt. eigenvalues --   -0.00305   0.00104   0.00364   0.00818   0.00857

 Mulliken charges and spin densities:
               1          2
     1  Na   0.049953  -0.021780
     2  Na   0.360154  -0.046938
     3  Na   0.024455  -0.134207
     4  Na  -0.300212   0.730864
     5  Na  -0.075579   0.628480
     6  Na   0.024294  -0.083154
     7  Na  -0.083064  -0.073265
 Sum of Mulliken charges =  -0.00000   1.00000

 Dipole moment (field-independent basis, Debye):
    X=              0.1393    Y=             -0.0886    Z=              0.1222  Tot=              0.2054
 Quadrupole moment (field-independent basis, Debye-Ang):
   XX=            -53.4222   YY=            -65.4896   ZZ=            -74.2205
   XY=             -0.5318   XZ=              0.7840   YZ=              0.2795

 Normal termination of Gaussian 16 at Thu Dec  7 21:13:40 2023.
