 Gaussian 16, Revision B.01,
 Gaussian 16:  ES64L-G16RevB.01 20-Dec-2017

 -------------------------
 #P B3LYP/6-311+g(d) force
 -------------------------

 -----
 DPGEN
 -----
 Symbolic Z-matrix:
 Charge =  0 Multiplicity = 2

                         Standard orientation:
 ---------------------------------------------------------------------
 Center     Atomic      Atomic             Coordinates (Angstroms)
 Number     Number       Type             X           Y           Z
 ---------------------------------------------------------------------
      1         11           0        1.948306    2.574100   -0.035983
      2         11           0        0.051494    0.206604   -1.694464
      3         11           0       -3.070304   -1.251526   -0.143743
      4         11           0       -2.205245    2.244362   -0.027804
      5         11           0        0.665927   -2.941477   -0.240336
      6         11           0        2.904149   -0.689410    0.139223
      7         11           0       -0.294328   -0.142653    2.003106
 ---------------------------------------------------------------------

 SCF Done:  E(UB3LYP) =  -1136.13703939     A.U. after   19 cycles

 The electronic state is 2-A.
 Alpha  occ. eigenvalues --  -38.44417 -38.44152 -38.43751 -38.43616 -38.43534
 Alpha  occ. eigenvalues --  -38.43308 -38.43236  -2.20203  -2.19957  -2.19626
 Alpha  occ. eigenvalues --   -2.19426  -2.19403  -2.19165  -2.19153  -1.13879
 Alpha  occ. eigenvalues --   -1.13858  -1.13847  -1.13638  -1.13626  -1.13583
 Alpha  occ. eigenvalues --   -1.13311  -1.13289  -1.13284  -1.13101  -1.13085
 Alpha  occ. eigenvalues --   -1.13075  -1.13068  -1.13030  -1.13022  -1.12859
 Alpha  occ. eigenvalues --   -1.12832  -1.12812  -1.12795  -1.12791  -1.12775
 Alpha  occ. eigenvalues --   -0.18323  -0.13126  -0.12214  -0.10492
 Alpha virt. eigenvalues --   -0.05842  -0.05454  -0.04708  -0.03242  -0.02735
 Alpha virt. eigenvalues --   -0.02427  -0.01638  -0.01299  -0.00604  -0.00489
 Alpha virt. eigenvalues --   -0.00014   0.00356   0.00755   0.00782   0.00881

  Beta  occ. eigenvalues --  -38.44415 -38.44148 -38.43747 -38.43616 -38.43443
  Beta  occ. eigenvalues --  -38.43303 -38.43170  -2.20201  -2.19953  -2.19620
  Beta  occ. eigenvalues --   -2.19428  -2.19236  -2.19146  -2.19044  -1.13859
  Beta  occ. eigenvalues --   -1.13857  -1.13849  -1.13628  -1.13608  -1.13584
  Beta  occ. eigenvalues --   -1.13309  -1.13286  -1.13257  -1.13094  -1.13076
  Beta  occ. eigenvalues --   -1.13071  -1.12964  -1.12912  -1.12901  -1.12826
  Beta  occ. eigenvalues --   -1.12796  -1.12782  -1.12764  -1.12707  -1.12694
  Beta  occ. eigenvalues --   -0.17597  -0.12918  -0.12004
  Beta virt. eigenvalues --   -0.06609  -0.05844  -0.05378  -0.04684  -0.02445
  Beta virt. eigenvalues --   -0.02012  -0.01548  -0.01395  -0.01214  -0.00660
  Beta virt. eigenvalues --   -0.00538   0.00133   0.00381   0.00773   0.00835

 Mulliken charges and spin densities:
               1          2
     1  Na   0.076123  -0.092893
     2  Na  -0.127402   0.603405
     3  Na   0.081239  -0.099319
     4  Na   0.062973  -0.129615
     5  Na   0.065491  -0.068056
     6  Na   0.188300   0.029657
     7  Na  -0.346723   0.756822
 Sum of Mulliken charges =  -0.00000   1.00000

 Dipole moment (field-independent basis, Debye):
    X=             -0.5140    Y=              0.1243    Z=              0.0587  Tot=              0.5320
 Quadrupole moment (field-independent basis, Debye-Ang):
   XX=            -55.9649   YY=            -61.1389   ZZ=            -75.8221
   XY=              0.6434   XZ=              0.9299   YZ=              0.8802

 Normal termination of Gaussian 16 at Thu Dec  7 04:53:47 2023.
