 Gaussian 16, Revision B.01,
 Gaussian 16:  ES64L-G16RevB.01 20-Dec-2017

 -------------------------
 #P B3LYP/6-311+g(d) force
 -------------------------

 -----
 DPGEN
 -----
 Symbolic Z-matrix:
 Charge =  0 Multiplicity = 2

                         Standard orientation:
 ---------------------------------------------------------------------
 Center     Atomic      Atomic             Coordinates (Angstroms)
 Number     Number       Type             X           Y           Z
 ---------------------------------------------------------------------
      1         11           0        2.037275    1.173337    1.312351
      2         11           0       -0.788058    0.525135   -1.057255
      3         11           0       -2.792148   -1.812489    0.812332
      4         11           0        1.508294   -2.166698   -0.788031
      5         11           0        4.276246   -1.050407    0.069168
      6         11           0       -4.851703    0.239809    0.024385
      7         11           0        0.610093    3.091314   -0.372950
 ---------------------------------------------------------------------

 SCF Done:  E(UB3LYP) =  -1136.11679145     A.U. after   20 cycles

 The electronic state is 2-A.
 Alpha  occ. eigenvalues --  -38.44610 -38.44411 -38.44294 -38.43770 -38.43490
 Alpha  occ. eigenvalues --  -38.43471 -38.43184  -2.20433  -2.20241  -2.20191
 Alpha  occ. eigenvalues --   -2.19678  -2.19340  -2.19322  -2.19092  -1.14172
 Alpha  occ. eigenvalues --   -1.14101  -1.14078  -1.13901  -1.13878  -1.13873
 Alpha  occ. eigenvalues --   -1.13850  -1.13839  -1.13819  -1.13361  -1.13355
 Alpha  occ. eigenvalues --   -1.13317  -1.13079  -1.13000  -1.12996  -1.12977
 Alpha  occ. eigenvalues --   -1.12971  -1.12884  -1.12763  -1.12738  -1.12706
 Alpha  occ. eigenvalues --   -0.17320  -0.14215  -0.12236  -0.10701
 Alpha virt. eigenvalues --   -0.06443  -0.04686  -0.04408  -0.03956  -0.03308
 Alpha virt. eigenvalues --   -0.02227  -0.01576  -0.01270  -0.00975  -0.00465
 Alpha virt. eigenvalues --   -0.00294  -0.00026   0.00483   0.00683   0.00689

  Beta  occ. eigenvalues --  -38.44612 -38.44356 -38.44258 -38.43723 -38.43463
  Beta  occ. eigenvalues --  -38.43436 -38.43182  -2.20442  -2.20140  -2.20126
  Beta  occ. eigenvalues --   -2.19595  -2.19290  -2.19260  -2.19089  -1.14157
  Beta  occ. eigenvalues --   -1.14112  -1.14061  -1.13859  -1.13807  -1.13801
  Beta  occ. eigenvalues --   -1.13789  -1.13784  -1.13774  -1.13303  -1.13293
  Beta  occ. eigenvalues --   -1.13259  -1.13044  -1.12962  -1.12950  -1.12939
  Beta  occ. eigenvalues --   -1.12926  -1.12834  -1.12756  -1.12727  -1.12706
  Beta  occ. eigenvalues --   -0.16681  -0.13676  -0.12092
  Beta virt. eigenvalues --   -0.07149  -0.06180  -0.04543  -0.03769  -0.03708
  Beta virt. eigenvalues --   -0.02928  -0.02093  -0.01242  -0.01052  -0.00600
  Beta virt. eigenvalues --   -0.00289  -0.00079   0.00128   0.00565   0.00721

 Mulliken charges and spin densities:
               1          2
     1  Na  -0.178015   0.221520
     2  Na  -1.059565   0.274890
     3  Na   0.224599   0.045945
     4  Na   0.054326   0.079919
     5  Na   0.155249   0.188203
     6  Na   0.134086   0.221225
     7  Na   0.669319  -0.031702
 Sum of Mulliken charges =  -0.00000   1.00000

 Dipole moment (field-independent basis, Debye):
    X=             -0.7513    Y=              0.2005    Z=              0.0302  Tot=              0.7782
 Quadrupole moment (field-independent basis, Debye-Ang):
   XX=            -64.8405   YY=            -67.1231   ZZ=            -67.8771
   XY=             -2.2559   XZ=              0.5693   YZ=             -3.0020

 Normal termination of Gaussian 16 at Tue Nov 28 20:40:42 2023.
