 Gaussian 16, Revision B.01,
 Gaussian 16:  ES64L-G16RevB.01 20-Dec-2017

 -------------------------
 #P B3LYP/6-311+g(d) force
 -------------------------

 -----
 DPGEN
 -----
 Symbolic Z-matrix:
 Charge =  0 Multiplicity = 2

                         Standard orientation:
 ---------------------------------------------------------------------
 Center     Atomic      Atomic             Coordinates (Angstroms)
 Number     Number       Type             X           Y           Z
 ---------------------------------------------------------------------
      1         11           0        0.227304    0.003276   -1.367276
      2         11           0       -0.307452   -0.482810    1.436972
      3         11           0        1.379807   -2.614643    0.009541
      4         11           0       -2.363168   -1.780372   -0.373701
      5         11           0        3.114591    0.503347    0.198578
      6         11           0       -2.715967    1.544838    0.244299
      7         11           0        0.664885    2.826365   -0.148414
 ---------------------------------------------------------------------

 SCF Done:  E(UB3LYP) =  -1136.12888685     A.U. after   22 cycles

 The electronic state is 2-A.
 Alpha  occ. eigenvalues --  -38.44173 -38.43888 -38.43882 -38.43590 -38.43408
 Alpha  occ. eigenvalues --  -38.42846 -38.42586  -2.20024  -2.19791  -2.19739
 Alpha  occ. eigenvalues --   -2.19494  -2.19281  -2.18942  -2.18710  -1.13701
 Alpha  occ. eigenvalues --   -1.13688  -1.13662  -1.13522  -1.13455  -1.13429
 Alpha  occ. eigenvalues --   -1.13411  -1.13386  -1.13359  -1.13226  -1.13166
 Alpha  occ. eigenvalues --   -1.13098  -1.13004  -1.12934  -1.12903  -1.12772
 Alpha  occ. eigenvalues --   -1.12549  -1.12529  -1.12364  -1.12319  -1.12299
 Alpha  occ. eigenvalues --   -0.19279  -0.13426  -0.12774  -0.09893
 Alpha virt. eigenvalues --   -0.05716  -0.05414  -0.04800  -0.02911  -0.02500
 Alpha virt. eigenvalues --   -0.01734  -0.01485  -0.01333  -0.00418  -0.00394
 Alpha virt. eigenvalues --    0.00085   0.00347   0.00794   0.00840   0.00876

  Beta  occ. eigenvalues --  -38.44168 -38.43880 -38.43868 -38.43581 -38.43403
  Beta  occ. eigenvalues --  -38.42784 -38.42520  -2.20018  -2.19769  -2.19728
  Beta  occ. eigenvalues --   -2.19482  -2.19274  -2.18830  -2.18592  -1.13694
  Beta  occ. eigenvalues --   -1.13678  -1.13648  -1.13509  -1.13428  -1.13401
  Beta  occ. eigenvalues --   -1.13392  -1.13365  -1.13351  -1.13218  -1.13132
  Beta  occ. eigenvalues --   -1.13085  -1.12992  -1.12915  -1.12896  -1.12689
  Beta  occ. eigenvalues --   -1.12471  -1.12445  -1.12272  -1.12233  -1.12212
  Beta  occ. eigenvalues --   -0.18588  -0.13156  -0.12495
  Beta virt. eigenvalues --   -0.06039  -0.05677  -0.05380  -0.04776  -0.02146
  Beta virt. eigenvalues --   -0.01776  -0.01631  -0.01272  -0.00621  -0.00459
  Beta virt. eigenvalues --   -0.00406   0.00228   0.00411   0.00833   0.00852

 Mulliken charges and spin densities:
               1          2
     1  Na  -0.507637   0.408634
     2  Na  -0.550598   0.570045
     3  Na   0.402166   0.027042
     4  Na   0.332750   0.037042
     5  Na   0.077100  -0.008930
     6  Na   0.128940   0.003303
     7  Na   0.117278  -0.037135
 Sum of Mulliken charges =  -0.00000   1.00000

 Dipole moment (field-independent basis, Debye):
    X=              0.0689    Y=              0.0060    Z=              0.0184  Tot=              0.0716
 Quadrupole moment (field-independent basis, Debye-Ang):
   XX=            -51.9703   YY=            -59.0216   ZZ=            -78.5508
   XY=             -0.4651   XZ=              1.2175   YZ=              1.2044

 Normal termination of Gaussian 16 at Tue Dec  5 15:43:48 2023.
