 Gaussian 16, Revision B.01,
 Gaussian 16:  ES64L-G16RevB.01 20-Dec-2017

 -------------------------
 #P B3LYP/6-311+g(d) force
 -------------------------

 -----
 DPGEN
 -----
 Symbolic Z-matrix:
 Charge =  0 Multiplicity = 2

                         Standard orientation:
 ---------------------------------------------------------------------
 Center     Atomic      Atomic             Coordinates (Angstroms)
 Number     Number       Type             X           Y           Z
 ---------------------------------------------------------------------
      1         11           0        1.599921    2.550822   -0.047924
      2         11           0       -0.276516   -3.077265   -0.245609
      3         11           0       -1.767740    2.637493   -0.462670
      4         11           0        3.486317   -0.952328    0.265948
      5         11           0       -3.005919   -1.097458   -0.137054
      6         11           0       -0.631286    0.172776    2.055968
      7         11           0        0.595223   -0.234041   -1.428658
 ---------------------------------------------------------------------

 SCF Done:  E(UB3LYP) =  -1136.13270353     A.U. after   20 cycles

 The electronic state is 2-A.
 Alpha  occ. eigenvalues --  -38.44391 -38.44078 -38.43985 -38.43972 -38.43731
 Alpha  occ. eigenvalues --  -38.43417 -38.43127  -2.20154  -2.19896  -2.19818
 Alpha  occ. eigenvalues --   -2.19804  -2.19545  -2.19279  -2.19073  -1.13827
 Alpha  occ. eigenvalues --   -1.13805  -1.13800  -1.13574  -1.13564  -1.13550
 Alpha  occ. eigenvalues --   -1.13523  -1.13503  -1.13483  -1.13457  -1.13442
 Alpha  occ. eigenvalues --   -1.13416  -1.13212  -1.13197  -1.13190  -1.12943
 Alpha  occ. eigenvalues --   -1.12904  -1.12896  -1.12764  -1.12732  -1.12684
 Alpha  occ. eigenvalues --   -0.18061  -0.12935  -0.12511  -0.10158
 Alpha virt. eigenvalues --   -0.05963  -0.05344  -0.05151  -0.03008  -0.02865
 Alpha virt. eigenvalues --   -0.02131  -0.01735  -0.01378  -0.00798  -0.00640
 Alpha virt. eigenvalues --   -0.00021   0.00312   0.00731   0.00755   0.00818

  Beta  occ. eigenvalues --  -38.44388 -38.44075 -38.43979 -38.43964 -38.43720
  Beta  occ. eigenvalues --  -38.43321 -38.43084  -2.20150  -2.19894  -2.19812
  Beta  occ. eigenvalues --   -2.19791  -2.19528  -2.19103  -2.18996  -1.13817
  Beta  occ. eigenvalues --   -1.13803  -1.13797  -1.13572  -1.13553  -1.13537
  Beta  occ. eigenvalues --   -1.13515  -1.13490  -1.13465  -1.13434  -1.13432
  Beta  occ. eigenvalues --   -1.13411  -1.13192  -1.13188  -1.13169  -1.12825
  Beta  occ. eigenvalues --   -1.12779  -1.12774  -1.12705  -1.12673  -1.12627
  Beta  occ. eigenvalues --   -0.17394  -0.12696  -0.12313
  Beta virt. eigenvalues --   -0.06408  -0.05849  -0.05324  -0.05030  -0.02324
  Beta virt. eigenvalues --   -0.02179  -0.01618  -0.01290  -0.01162  -0.00823
  Beta virt. eigenvalues --   -0.00670   0.00153   0.00366   0.00769   0.00810

 Mulliken charges and spin densities:
               1          2
     1  Na   0.105890   0.000549
     2  Na   0.076030  -0.082224
     3  Na   0.003871  -0.003847
     4  Na  -0.056577  -0.022923
     5  Na   0.169601  -0.021501
     6  Na  -0.453216   0.788218
     7  Na   0.154401   0.341729
 Sum of Mulliken charges =  -0.00000   1.00000

 Dipole moment (field-independent basis, Debye):
    X=              0.1517    Y=             -0.1433    Z=              0.0747  Tot=              0.2216
 Quadrupole moment (field-independent basis, Debye-Ang):
   XX=            -55.2433   YY=            -60.0549   ZZ=            -77.1046
   XY=             -0.4956   XZ=              3.0415   YZ=             -0.8863

 Normal termination of Gaussian 16 at Thu Dec  7 10:31:58 2023.
