 Gaussian 16, Revision B.01,
 Gaussian 16:  ES64L-G16RevB.01 20-Dec-2017

 -------------------------
 #P B3LYP/6-311+g(d) force
 -------------------------

 -----
 DPGEN
 -----
 Symbolic Z-matrix:
 Charge =  0 Multiplicity = 2

                         Standard orientation:
 ---------------------------------------------------------------------
 Center     Atomic      Atomic             Coordinates (Angstroms)
 Number     Number       Type             X           Y           Z
 ---------------------------------------------------------------------
      1         11           0        3.230142   -1.039013    0.063147
      2         11           0       -0.311959    0.358371    1.872469
      3         11           0        0.069186    0.000264   -1.636826
      4         11           0       -2.456968    2.137699   -0.072905
      5         11           0        2.589663    2.193494   -0.147614
      6         11           0       -3.246346   -1.038009   -0.209461
      7         11           0        0.126282   -2.612807    0.131191
 ---------------------------------------------------------------------

 SCF Done:  E(UB3LYP) =  -1136.12884998     A.U. after   21 cycles

 The electronic state is 2-A.
 Alpha  occ. eigenvalues --  -38.44951 -38.44815 -38.43931 -38.43879 -38.43726
 Alpha  occ. eigenvalues --  -38.43347 -38.42410  -2.20768  -2.20632  -2.19767
 Alpha  occ. eigenvalues --   -2.19679  -2.19647  -2.19244  -2.18299  -1.14436
 Alpha  occ. eigenvalues --   -1.14429  -1.14406  -1.14304  -1.14291  -1.14278
 Alpha  occ. eigenvalues --   -1.13438  -1.13427  -1.13420  -1.13361  -1.13348
 Alpha  occ. eigenvalues --   -1.13342  -1.13328  -1.13294  -1.13245  -1.12925
 Alpha  occ. eigenvalues --   -1.12869  -1.12855  -1.12005  -1.11958  -1.11921
 Alpha  occ. eigenvalues --   -0.18406  -0.13791  -0.11656  -0.10313
 Alpha virt. eigenvalues --   -0.06591  -0.05877  -0.03895  -0.03432  -0.02440
 Alpha virt. eigenvalues --   -0.02363  -0.02181  -0.01445  -0.00749  -0.00222
 Alpha virt. eigenvalues --   -0.00072   0.00258   0.00611   0.00730   0.00774

  Beta  occ. eigenvalues --  -38.44943 -38.44815 -38.43926 -38.43879 -38.43669
  Beta  occ. eigenvalues --  -38.43254 -38.42402  -2.20754  -2.20635  -2.19761
  Beta  occ. eigenvalues --   -2.19681  -2.19543  -2.19072  -2.18288  -1.14425
  Beta  occ. eigenvalues --   -1.14403  -1.14400  -1.14299  -1.14290  -1.14279
  Beta  occ. eigenvalues --   -1.13433  -1.13420  -1.13395  -1.13349  -1.13338
  Beta  occ. eigenvalues --   -1.13322  -1.13283  -1.13223  -1.13168  -1.12809
  Beta  occ. eigenvalues --   -1.12741  -1.12736  -1.12000  -1.11923  -1.11913
  Beta  occ. eigenvalues --   -0.17698  -0.13592  -0.11426
  Beta virt. eigenvalues --   -0.06517  -0.06412  -0.05881  -0.03904  -0.02694
  Beta virt. eigenvalues --   -0.02229  -0.01681  -0.01476  -0.01103  -0.00806
  Beta virt. eigenvalues --   -0.00237   0.00105   0.00297   0.00685   0.00730

 Mulliken charges and spin densities:
               1          2
     1  Na   0.119364  -0.007090
     2  Na  -0.323182   0.618077
     3  Na  -0.191874   0.423056
     4  Na   0.173283  -0.046080
     5  Na   0.116809  -0.067749
     6  Na   0.201648   0.088637
     7  Na  -0.096048  -0.008851
 Sum of Mulliken charges =  -0.00000   1.00000

 Dipole moment (field-independent basis, Debye):
    X=             -0.1420    Y=             -0.0077    Z=              0.0108  Tot=              0.1426
 Quadrupole moment (field-independent basis, Debye-Ang):
   XX=            -48.6625   YY=            -66.9629   ZZ=            -76.6911
   XY=             -0.1860   XZ=              1.0309   YZ=             -0.9840

 Normal termination of Gaussian 16 at Sat Dec  9 07:03:14 2023.
