 Gaussian 16, Revision B.01,
 Gaussian 16:  ES64L-G16RevB.01 20-Dec-2017

 -------------------------
 #P B3LYP/6-311+g(d) force
 -------------------------

 -----
 DPGEN
 -----
 Symbolic Z-matrix:
 Charge =  0 Multiplicity = 2

                         Standard orientation:
 ---------------------------------------------------------------------
 Center     Atomic      Atomic             Coordinates (Angstroms)
 Number     Number       Type             X           Y           Z
 ---------------------------------------------------------------------
      1         11           0        1.265294   -1.636361   -1.160208
      2         11           0       -2.406574   -1.522221   -1.186771
      3         11           0        3.738997   -0.634920    1.271616
      4         11           0       -0.983370    2.128586   -0.614266
      5         11           0       -4.089678    0.255463    1.225424
      6         11           0        2.298775    1.729418   -0.856195
      7         11           0        0.176555   -0.319966    1.320400
 ---------------------------------------------------------------------

 SCF Done:  E(UB3LYP) =  -1136.12087045     A.U. after   25 cycles

 The electronic state is 2-A.
 Alpha  occ. eigenvalues --  -38.45381 -38.44678 -38.44171 -38.44135 -38.43807
 Alpha  occ. eigenvalues --  -38.43406 -38.42488  -2.21278  -2.20475  -2.19987
 Alpha  occ. eigenvalues --   -2.19977  -2.19710  -2.19272  -2.18340  -1.15041
 Alpha  occ. eigenvalues --   -1.14924  -1.14883  -1.14135  -1.14118  -1.14088
 Alpha  occ. eigenvalues --   -1.13664  -1.13648  -1.13641  -1.13625  -1.13624
 Alpha  occ. eigenvalues --   -1.13588  -1.13436  -1.13352  -1.13297  -1.12964
 Alpha  occ. eigenvalues --   -1.12932  -1.12904  -1.12048  -1.12010  -1.11946
 Alpha  occ. eigenvalues --   -0.18282  -0.14303  -0.11181  -0.10837
 Alpha virt. eigenvalues --   -0.06989  -0.05427  -0.04689  -0.03137  -0.02941
 Alpha virt. eigenvalues --   -0.02371  -0.01993  -0.01287  -0.01060  -0.00298
 Alpha virt. eigenvalues --   -0.00069   0.00268   0.00291   0.00432   0.00693

  Beta  occ. eigenvalues --  -38.45380 -38.44612 -38.44148 -38.44081 -38.43764
  Beta  occ. eigenvalues --  -38.43406 -38.42484  -2.21279  -2.20351  -2.19950
  Beta  occ. eigenvalues --   -2.19874  -2.19634  -2.19276  -2.18335  -1.15017
  Beta  occ. eigenvalues --   -1.14930  -1.14884  -1.14050  -1.14033  -1.14008
  Beta  occ. eigenvalues --   -1.13640  -1.13624  -1.13570  -1.13565  -1.13552
  Beta  occ. eigenvalues --   -1.13527  -1.13389  -1.13301  -1.13218  -1.12958
  Beta  occ. eigenvalues --   -1.12935  -1.12898  -1.12046  -1.11996  -1.11941
  Beta  occ. eigenvalues --   -0.17732  -0.13772  -0.10770
  Beta virt. eigenvalues --   -0.07456  -0.06797  -0.04734  -0.04560  -0.02952
  Beta virt. eigenvalues --   -0.02697  -0.01872  -0.01429  -0.00994  -0.00842
  Beta virt. eigenvalues --   -0.00110   0.00059   0.00370   0.00395   0.00557

 Mulliken charges and spin densities:
               1          2
     1  Na  -0.060946   0.227738
     2  Na  -0.089689   0.076769
     3  Na   1.104873   0.378704
     4  Na  -0.235326   0.040864
     5  Na   0.742583   0.412557
     6  Na  -0.093526  -0.003973
     7  Na  -1.367969  -0.132660
 Sum of Mulliken charges =  -0.00000   1.00000

 Dipole moment (field-independent basis, Debye):
    X=              0.0127    Y=             -0.2265    Z=              0.0687  Tot=              0.2370
 Quadrupole moment (field-independent basis, Debye-Ang):
   XX=            -53.0200   YY=            -79.8819   ZZ=            -64.7088
   XY=              0.2979   XZ=             -1.0799   YZ=              2.3119

 Normal termination of Gaussian 16 at Fri Dec  8 06:34:26 2023.
