 Gaussian 16, Revision B.01,
 Gaussian 16:  ES64L-G16RevB.01 20-Dec-2017

 -------------------------
 #P B3LYP/6-311+g(d) force
 -------------------------

 -----
 DPGEN
 -----
 Symbolic Z-matrix:
 Charge =  0 Multiplicity = 2

                         Standard orientation:
 ---------------------------------------------------------------------
 Center     Atomic      Atomic             Coordinates (Angstroms)
 Number     Number       Type             X           Y           Z
 ---------------------------------------------------------------------
      1         11           0        3.579347   -1.769735    0.698682
      2         11           0        4.172575    1.362869    0.199429
      3         11           0       -2.863471   -1.846746   -0.477172
      4         11           0        0.867981   -3.469470   -0.583553
      5         11           0        0.439522    3.927494   -0.347697
      6         11           0       -1.477549    1.578978   -0.503613
      7         11           0       -4.718406    0.216610    1.013924
 ---------------------------------------------------------------------

 SCF Done:  E(UB3LYP) =  -1136.11196866     A.U. after   20 cycles

 The electronic state is 2-A.
 Alpha  occ. eigenvalues --  -38.45127 -38.45034 -38.44866 -38.44109 -38.44052
 Alpha  occ. eigenvalues --  -38.44030 -38.43221  -2.20912  -2.20856  -2.20672
 Alpha  occ. eigenvalues --   -2.19891  -2.19859  -2.19848  -2.19032  -1.14570
 Alpha  occ. eigenvalues --   -1.14563  -1.14538  -1.14525  -1.14500  -1.14484
 Alpha  occ. eigenvalues --   -1.14356  -1.14342  -1.14280  -1.13553  -1.13550
 Alpha  occ. eigenvalues --   -1.13549  -1.13534  -1.13532  -1.13524  -1.13521
 Alpha  occ. eigenvalues --   -1.13500  -1.13472  -1.12708  -1.12678  -1.12660
 Alpha  occ. eigenvalues --   -0.15945  -0.14184  -0.12653  -0.11177
 Alpha virt. eigenvalues --   -0.06710  -0.05631  -0.03974  -0.03775  -0.03097
 Alpha virt. eigenvalues --   -0.02293  -0.02211  -0.01672  -0.01458  -0.00903
 Alpha virt. eigenvalues --   -0.00367  -0.00207   0.00036   0.00509   0.00612

  Beta  occ. eigenvalues --  -38.45054 -38.44980 -38.44865 -38.44052 -38.44047
  Beta  occ. eigenvalues --  -38.44011 -38.43204  -2.20778  -2.20755  -2.20673
  Beta  occ. eigenvalues --   -2.19856  -2.19827  -2.19775  -2.19004  -1.14478
  Beta  occ. eigenvalues --   -1.14474  -1.14474  -1.14431  -1.14428  -1.14419
  Beta  occ. eigenvalues --   -1.14359  -1.14345  -1.14241  -1.13534  -1.13532
  Beta  occ. eigenvalues --   -1.13529  -1.13512  -1.13495  -1.13469  -1.13467
  Beta  occ. eigenvalues --   -1.13453  -1.13421  -1.12680  -1.12661  -1.12643
  Beta  occ. eigenvalues --   -0.15495  -0.13448  -0.12028
  Beta virt. eigenvalues --   -0.07988  -0.06486  -0.05283  -0.03683  -0.03557
  Beta virt. eigenvalues --   -0.02680  -0.02049  -0.01918  -0.01495  -0.01250
  Beta virt. eigenvalues --   -0.00643  -0.00067   0.00049   0.00170   0.00552

 Mulliken charges and spin densities:
               1          2
     1  Na   0.133102  -0.029010
     2  Na  -0.256456   0.362747
     3  Na   0.064955   0.216170
     4  Na  -0.176608   0.228202
     5  Na   0.607176  -0.141018
     6  Na  -1.454156   0.126877
     7  Na   1.081988   0.236032
 Sum of Mulliken charges =  -0.00000   1.00000

 Dipole moment (field-independent basis, Debye):
    X=             -1.1667    Y=              0.0313    Z=              0.5014  Tot=              1.2702
 Quadrupole moment (field-independent basis, Debye-Ang):
   XX=            -56.6858   YY=            -67.2180   ZZ=            -71.7220
   XY=              3.2741   XZ=             -2.6942   YZ=              2.2753

 Normal termination of Gaussian 16 at Mon Dec  4 01:47:51 2023.
