 Gaussian 16, Revision B.01,
 Gaussian 16:  ES64L-G16RevB.01 20-Dec-2017

 -------------------------
 #P B3LYP/6-311+g(d) force
 -------------------------

 -----
 DPGEN
 -----
 Symbolic Z-matrix:
 Charge =  0 Multiplicity = 2

                         Standard orientation:
 ---------------------------------------------------------------------
 Center     Atomic      Atomic             Coordinates (Angstroms)
 Number     Number       Type             X           Y           Z
 ---------------------------------------------------------------------
      1         11           0       -3.428550    0.600439    0.562368
      2         11           0        1.033151   -0.080236   -1.607461
      3         11           0       -0.473548    2.406646   -0.402323
      4         11           0        1.941711   -2.338461    0.344102
      5         11           0        2.931012    1.554874    0.217933
      6         11           0       -0.070104   -0.472163    2.040957
      7         11           0       -1.933672   -1.671098   -1.155576
 ---------------------------------------------------------------------

 SCF Done:  E(UB3LYP) =  -1136.12975937     A.U. after   19 cycles

 The electronic state is 2-A.
 Alpha  occ. eigenvalues --  -38.44296 -38.44258 -38.44019 -38.43939 -38.43293
 Alpha  occ. eigenvalues --  -38.43271 -38.43209  -2.20130  -2.20078  -2.19892
 Alpha  occ. eigenvalues --   -2.19787  -2.19293  -2.19157  -2.19067  -1.13839
 Alpha  occ. eigenvalues --   -1.13782  -1.13768  -1.13748  -1.13734  -1.13721
 Alpha  occ. eigenvalues --   -1.13562  -1.13533  -1.13513  -1.13472  -1.13429
 Alpha  occ. eigenvalues --   -1.13404  -1.13019  -1.12980  -1.12920  -1.12831
 Alpha  occ. eigenvalues --   -1.12798  -1.12773  -1.12752  -1.12740  -1.12658
 Alpha  occ. eigenvalues --   -0.18595  -0.13424  -0.11847  -0.11191
 Alpha virt. eigenvalues --   -0.06114  -0.05245  -0.04075  -0.03431  -0.02885
 Alpha virt. eigenvalues --   -0.02776  -0.01832  -0.01095  -0.00427   0.00050
 Alpha virt. eigenvalues --    0.00098   0.00310   0.00675   0.00775   0.00812

  Beta  occ. eigenvalues --  -38.44294 -38.44255 -38.43937 -38.43902 -38.43289
  Beta  occ. eigenvalues --  -38.43212 -38.43202  -2.20128  -2.20074  -2.19741
  Beta  occ. eigenvalues --   -2.19721  -2.19188  -2.19153  -2.19058  -1.13833
  Beta  occ. eigenvalues --   -1.13775  -1.13763  -1.13746  -1.13725  -1.13714
  Beta  occ. eigenvalues --   -1.13464  -1.13426  -1.13416  -1.13402  -1.13378
  Beta  occ. eigenvalues --   -1.13363  -1.12963  -1.12926  -1.12836  -1.12810
  Beta  occ. eigenvalues --   -1.12778  -1.12764  -1.12733  -1.12710  -1.12654
  Beta  occ. eigenvalues --   -0.17863  -0.13264  -0.11590
  Beta virt. eigenvalues --   -0.07256  -0.05993  -0.05136  -0.03826  -0.02975
  Beta virt. eigenvalues --   -0.02177  -0.01772  -0.01754  -0.00977  -0.00270
  Beta virt. eigenvalues --    0.00089   0.00133   0.00341   0.00805   0.00835

 Mulliken charges and spin densities:
               1          2
     1  Na   0.317916   0.029680
     2  Na   0.087714   0.204335
     3  Na  -0.285210   0.053139
     4  Na   0.161332   0.002558
     5  Na   0.318103   0.030297
     6  Na  -0.445973   0.620134
     7  Na  -0.153881   0.059858
 Sum of Mulliken charges =  -0.00000   1.00000

 Dipole moment (field-independent basis, Debye):
    X=             -0.0403    Y=              0.0940    Z=              0.4246  Tot=              0.4368
 Quadrupole moment (field-independent basis, Debye-Ang):
   XX=            -52.6885   YY=            -70.0957   ZZ=            -71.3545
   XY=              0.0146   XZ=              0.9149   YZ=              2.1470

 Normal termination of Gaussian 16 at Thu Dec  7 04:38:52 2023.
