 Gaussian 16, Revision B.01,
 Gaussian 16:  ES64L-G16RevB.01 20-Dec-2017

 -------------------------
 #P B3LYP/6-311+g(d) force
 -------------------------

 -----
 DPGEN
 -----
 Symbolic Z-matrix:
 Charge =  0 Multiplicity = 2

                         Standard orientation:
 ---------------------------------------------------------------------
 Center     Atomic      Atomic             Coordinates (Angstroms)
 Number     Number       Type             X           Y           Z
 ---------------------------------------------------------------------
      1         11           0        0.358607    0.275821   -1.901931
      2         11           0        2.082638   -1.217424    0.084694
      3         11           0       -0.124395   -0.331308    1.938540
      4         11           0       -2.632661   -0.209470   -0.030317
      5         11           0        1.738213    1.519130    0.287878
      6         11           0       -0.483939   -1.828717   -0.415721
      7         11           0       -0.938462    1.791968    0.036856
 ---------------------------------------------------------------------

 SCF Done:  E(UB3LYP) =  -1136.06337301     A.U. after   21 cycles

 The electronic state is 2-A.
 Alpha  occ. eigenvalues --  -38.44869 -38.44556 -38.44349 -38.43803 -38.43711
 Alpha  occ. eigenvalues --  -38.43702 -38.43622  -2.21110  -2.20750  -2.20450
 Alpha  occ. eigenvalues --   -2.20017  -2.19946  -2.19899  -2.19832  -1.14936
 Alpha  occ. eigenvalues --   -1.14836  -1.14716  -1.14568  -1.14436  -1.14406
 Alpha  occ. eigenvalues --   -1.14347  -1.14273  -1.14007  -1.13945  -1.13860
 Alpha  occ. eigenvalues --   -1.13810  -1.13601  -1.13548  -1.13518  -1.13487
 Alpha  occ. eigenvalues --   -1.13437  -1.13401  -1.13360  -1.13324  -1.13216
 Alpha  occ. eigenvalues --   -0.22112  -0.13985  -0.13049  -0.12638
 Alpha virt. eigenvalues --   -0.05219  -0.04056  -0.03962  -0.03937  -0.03356
 Alpha virt. eigenvalues --   -0.03176  -0.00981  -0.00303  -0.00236   0.00320
 Alpha virt. eigenvalues --    0.00865   0.00990   0.01081   0.01217   0.01276

  Beta  occ. eigenvalues --  -38.44770 -38.44458 -38.44343 -38.43790 -38.43685
  Beta  occ. eigenvalues --  -38.43684 -38.43604  -2.20932  -2.20574  -2.20443
  Beta  occ. eigenvalues --   -2.19988  -2.19918  -2.19875  -2.19809  -1.14829
  Beta  occ. eigenvalues --   -1.14705  -1.14589  -1.14481  -1.14383  -1.14312
  Beta  occ. eigenvalues --   -1.14279  -1.14207  -1.13961  -1.13928  -1.13850
  Beta  occ. eigenvalues --   -1.13796  -1.13521  -1.13511  -1.13445  -1.13411
  Beta  occ. eigenvalues --   -1.13402  -1.13357  -1.13340  -1.13309  -1.13207
  Beta  occ. eigenvalues --   -0.21198  -0.13604  -0.12323
  Beta virt. eigenvalues --   -0.08698  -0.05224  -0.03987  -0.03759  -0.03037
  Beta virt. eigenvalues --   -0.02455  -0.02207  -0.00908  -0.00257  -0.00058
  Beta virt. eigenvalues --    0.00341   0.00895   0.00980   0.01118   0.01212

 Mulliken charges and spin densities:
               1          2
     1  Na   0.091290   0.451681
     2  Na   0.091691  -0.018909
     3  Na   0.007135   0.505148
     4  Na  -0.057337  -0.049225
     5  Na   0.036853   0.055180
     6  Na  -0.083400   0.018097
     7  Na  -0.086232   0.038027
 Sum of Mulliken charges =  -0.00000   1.00000

 Dipole moment (field-independent basis, Debye):
    X=             -0.0603    Y=             -0.0249    Z=              0.1754  Tot=              0.1871
 Quadrupole moment (field-independent basis, Debye-Ang):
   XX=            -61.3395   YY=            -73.4384   ZZ=            -64.6781
   XY=              0.1296   XZ=              0.6082   YZ=              0.8287

 Normal termination of Gaussian 16 at Fri Dec  8 19:55:22 2023.
