 Gaussian 16, Revision B.01,
 Gaussian 16:  ES64L-G16RevB.01 20-Dec-2017

 -------------------------
 #P B3LYP/6-311+g(d) force
 -------------------------

 -----
 DPGEN
 -----
 Symbolic Z-matrix:
 Charge =  0 Multiplicity = 2

                         Standard orientation:
 ---------------------------------------------------------------------
 Center     Atomic      Atomic             Coordinates (Angstroms)
 Number     Number       Type             X           Y           Z
 ---------------------------------------------------------------------
      1         11           0       -0.092347   -0.367451   -1.654740
      2         11           0        2.586555   -0.163567   -0.329260
      3         11           0        0.857043   -1.994497    0.420540
      4         11           0        1.172068    1.981841    0.230440
      5         11           0       -0.328643    0.286551    1.663940
      6         11           0       -1.947185    1.490861   -0.427560
      7         11           0       -2.247492   -1.233737    0.096640
 ---------------------------------------------------------------------

 SCF Done:  E(UB3LYP) =  -1136.07469472     A.U. after   19 cycles

 The electronic state is 2-A.
 Alpha  occ. eigenvalues --  -38.44707 -38.44151 -38.43907 -38.43855 -38.43767
 Alpha  occ. eigenvalues --  -38.43634 -38.43589  -2.20843  -2.20442  -2.20176
 Alpha  occ. eigenvalues --   -2.19965  -2.19866  -2.19759  -2.19752  -1.14721
 Alpha  occ. eigenvalues --   -1.14689  -1.14432  -1.14292  -1.14246  -1.14125
 Alpha  occ. eigenvalues --   -1.13988  -1.13951  -1.13803  -1.13751  -1.13587
 Alpha  occ. eigenvalues --   -1.13528  -1.13487  -1.13474  -1.13378  -1.13368
 Alpha  occ. eigenvalues --   -1.13353  -1.13348  -1.13317  -1.13298  -1.13271
 Alpha  occ. eigenvalues --   -0.21672  -0.14284  -0.12729  -0.12164
 Alpha virt. eigenvalues --   -0.05506  -0.04499  -0.03964  -0.03842  -0.02945
 Alpha virt. eigenvalues --   -0.02683  -0.01163  -0.00539  -0.00062   0.00329
 Alpha virt. eigenvalues --    0.00721   0.00770   0.01004   0.01104   0.01149

  Beta  occ. eigenvalues --  -38.44694 -38.44061 -38.43842 -38.43823 -38.43749
  Beta  occ. eigenvalues --  -38.43621 -38.43569  -2.20826  -2.20281  -2.20028
  Beta  occ. eigenvalues --   -2.19945  -2.19840  -2.19740  -2.19722  -1.14716
  Beta  occ. eigenvalues --   -1.14680  -1.14372  -1.14195  -1.14162  -1.14019
  Beta  occ. eigenvalues --   -1.13900  -1.13857  -1.13727  -1.13698  -1.13545
  Beta  occ. eigenvalues --   -1.13474  -1.13462  -1.13403  -1.13357  -1.13349
  Beta  occ. eigenvalues --   -1.13330  -1.13320  -1.13262  -1.13254  -1.13233
  Beta  occ. eigenvalues --   -0.20861  -0.13903  -0.12398
  Beta virt. eigenvalues --   -0.07939  -0.05519  -0.04490  -0.03794  -0.02963
  Beta virt. eigenvalues --   -0.02114  -0.01570  -0.01074  -0.00496   0.00084
  Beta virt. eigenvalues --    0.00357   0.00700   0.00762   0.01038   0.01110

 Mulliken charges and spin densities:
               1          2
     1  Na  -0.430916   0.411326
     2  Na   0.106310   0.019324
     3  Na   0.279877   0.093630
     4  Na   0.262037   0.102523
     5  Na  -0.463936   0.380532
     6  Na   0.148178   0.052867
     7  Na   0.098450  -0.060203
 Sum of Mulliken charges =  -0.00000   1.00000

 Dipole moment (field-independent basis, Debye):
    X=             -0.1745    Y=              0.0264    Z=             -0.1072  Tot=              0.2065
 Quadrupole moment (field-independent basis, Debye-Ang):
   XX=            -58.7437   YY=            -69.6638   ZZ=            -69.5538
   XY=              0.2538   XZ=             -0.0004   YZ=             -1.3367

 Normal termination of Gaussian 16 at Sat Dec  9 06:58:39 2023.
