 Gaussian 16, Revision B.01,
 Gaussian 16:  ES64L-G16RevB.01 20-Dec-2017

 -------------------------
 #P B3LYP/6-311+g(d) force
 -------------------------

 -----
 DPGEN
 -----
 Symbolic Z-matrix:
 Charge =  0 Multiplicity = 2

                         Standard orientation:
 ---------------------------------------------------------------------
 Center     Atomic      Atomic             Coordinates (Angstroms)
 Number     Number       Type             X           Y           Z
 ---------------------------------------------------------------------
      1         11           0       -1.050247    0.051560    1.563943
      2         11           0        2.161653   -0.009849   -1.321157
      3         11           0        0.211959    2.198157   -0.286457
      4         11           0        1.694054    0.523052    1.358543
      5         11           0        0.767547   -2.188745    0.429143
      6         11           0       -0.560449   -0.543541   -1.387157
      7         11           0       -3.224517   -0.030634   -0.356857
 ---------------------------------------------------------------------

 SCF Done:  E(UB3LYP) =  -1136.08489079     A.U. after   23 cycles

 The electronic state is 2-A.
 Alpha  occ. eigenvalues --  -38.44571 -38.44377 -38.44224 -38.43981 -38.43816
 Alpha  occ. eigenvalues --  -38.42748 -38.42635  -2.20517  -2.20491  -2.20437
 Alpha  occ. eigenvalues --   -2.20174  -2.20094  -2.18828  -2.18716  -1.14454
 Alpha  occ. eigenvalues --   -1.14422  -1.14338  -1.14264  -1.14192  -1.14096
 Alpha  occ. eigenvalues --   -1.14067  -1.14011  -1.13907  -1.13900  -1.13758
 Alpha  occ. eigenvalues --   -1.13743  -1.13709  -1.13680  -1.13637  -1.12538
 Alpha  occ. eigenvalues --   -1.12472  -1.12444  -1.12405  -1.12369  -1.12285
 Alpha  occ. eigenvalues --   -0.21267  -0.13834  -0.12827  -0.12010
 Alpha virt. eigenvalues --   -0.05794  -0.04132  -0.03720  -0.03448  -0.03090
 Alpha virt. eigenvalues --   -0.02920  -0.01447  -0.00448  -0.00277   0.00297
 Alpha virt. eigenvalues --    0.00612   0.00763   0.00988   0.01038   0.01064

  Beta  occ. eigenvalues --  -38.44566 -38.44330 -38.44169 -38.43913 -38.43754
  Beta  occ. eigenvalues --  -38.42730 -38.42619  -2.20481  -2.20432  -2.20344
  Beta  occ. eigenvalues --   -2.20056  -2.19984  -2.18800  -2.18694  -1.14403
  Beta  occ. eigenvalues --   -1.14339  -1.14260  -1.14229  -1.14157  -1.14062
  Beta  occ. eigenvalues --   -1.14028  -1.13945  -1.13845  -1.13831  -1.13683
  Beta  occ. eigenvalues --   -1.13646  -1.13627  -1.13603  -1.13546  -1.12524
  Beta  occ. eigenvalues --   -1.12436  -1.12415  -1.12382  -1.12311  -1.12270
  Beta  occ. eigenvalues --   -0.20403  -0.13671  -0.11719
  Beta virt. eigenvalues --   -0.08329  -0.05710  -0.03548  -0.03444  -0.03357
  Beta virt. eigenvalues --   -0.02242  -0.01942  -0.01367  -0.00271  -0.00134
  Beta virt. eigenvalues --    0.00328   0.00687   0.00913   0.00979   0.01046

 Mulliken charges and spin densities:
               1          2
     1  Na   0.161887   0.087758
     2  Na   0.478147   0.069234
     3  Na  -1.120574   0.096663
     4  Na   1.037743   0.050634
     5  Na  -0.986822   0.338069
     6  Na   0.687830   0.302738
     7  Na  -0.258210   0.054904
 Sum of Mulliken charges =  -0.00000   1.00000

 Dipole moment (field-independent basis, Debye):
    X=             -0.4860    Y=              0.0386    Z=             -0.1372  Tot=              0.5065
 Quadrupole moment (field-independent basis, Debye-Ang):
   XX=            -56.2363   YY=            -74.2952   ZZ=            -65.1029
   XY=             -0.5855   XZ=              0.1207   YZ=             -1.9316

 Normal termination of Gaussian 16 at Fri Dec  8 06:56:55 2023.
