 Gaussian 16, Revision B.01,
 Gaussian 16:  ES64L-G16RevB.01 20-Dec-2017

 -------------------------
 #P B3LYP/6-311+g(d) force
 -------------------------

 -----
 DPGEN
 -----
 Symbolic Z-matrix:
 Charge =  0 Multiplicity = 2

                         Standard orientation:
 ---------------------------------------------------------------------
 Center     Atomic      Atomic             Coordinates (Angstroms)
 Number     Number       Type             X           Y           Z
 ---------------------------------------------------------------------
      1         11           0       -0.419338    0.018440    1.895406
      2         11           0       -2.871812    0.869511   -0.078297
      3         11           0       -0.021024   -0.180456   -1.760147
      4         11           0        3.124556    0.818064   -0.145749
      5         11           0        1.698326   -2.197815    0.339467
      6         11           0       -1.592031   -2.165030   -0.258295
      7         11           0        0.081322    2.837286    0.007614
 ---------------------------------------------------------------------

 SCF Done:  E(UB3LYP) =  -1136.13678337     A.U. after   19 cycles

 The electronic state is 2-A.
 Alpha  occ. eigenvalues --  -38.44003 -38.43796 -38.43427 -38.43375 -38.43293
 Alpha  occ. eigenvalues --  -38.43267 -38.43193  -2.19813  -2.19690  -2.19396
 Alpha  occ. eigenvalues --   -2.19384  -2.19166  -2.19163  -2.19140  -1.13484
 Alpha  occ. eigenvalues --   -1.13479  -1.13457  -1.13389  -1.13358  -1.13326
 Alpha  occ. eigenvalues --   -1.13173  -1.13077  -1.13034  -1.13023  -1.13020
 Alpha  occ. eigenvalues --   -1.12997  -1.12845  -1.12825  -1.12817  -1.12816
 Alpha  occ. eigenvalues --   -1.12813  -1.12800  -1.12797  -1.12760  -1.12745
 Alpha  occ. eigenvalues --   -0.19215  -0.13137  -0.12567  -0.10998
 Alpha virt. eigenvalues --   -0.05634  -0.04882  -0.04562  -0.03227  -0.02964
 Alpha virt. eigenvalues --   -0.02605  -0.01462  -0.00943  -0.00222  -0.00070
 Alpha virt. eigenvalues --    0.00030   0.00360   0.00864   0.00928   0.00952

  Beta  occ. eigenvalues --  -38.44004 -38.43789 -38.43340 -38.43298 -38.43289
  Beta  occ. eigenvalues --  -38.43257 -38.43179  -2.19817  -2.19681  -2.19244
  Beta  occ. eigenvalues --   -2.19237  -2.19150  -2.19144  -2.19136  -1.13484
  Beta  occ. eigenvalues --   -1.13472  -1.13461  -1.13382  -1.13327  -1.13316
  Beta  occ. eigenvalues --   -1.13098  -1.12977  -1.12932  -1.12918  -1.12916
  Beta  occ. eigenvalues --   -1.12898  -1.12826  -1.12808  -1.12807  -1.12790
  Beta  occ. eigenvalues --   -1.12779  -1.12778  -1.12760  -1.12741  -1.12725
  Beta  occ. eigenvalues --   -0.18453  -0.12897  -0.12294
  Beta virt. eigenvalues --   -0.07018  -0.05606  -0.04879  -0.04538  -0.02436
  Beta virt. eigenvalues --   -0.02144  -0.01541  -0.01382  -0.00877  -0.00258
  Beta virt. eigenvalues --   -0.00092   0.00128   0.00384   0.00905   0.00927

 Mulliken charges and spin densities:
               1          2
     1  Na  -0.386826   0.696508
     2  Na   0.276143  -0.076948
     3  Na  -0.401092   0.606190
     4  Na  -0.109636  -0.105197
     5  Na   0.118825  -0.019221
     6  Na   0.574636   0.043759
     7  Na  -0.072050  -0.145090
 Sum of Mulliken charges =  -0.00000   1.00000

 Dipole moment (field-independent basis, Debye):
    X=              0.0876    Y=              0.2238    Z=              0.0741  Tot=              0.2514
 Quadrupole moment (field-independent basis, Debye-Ang):
   XX=            -56.4965   YY=            -64.3014   ZZ=            -73.1616
   XY=             -0.1569   XZ=              0.6702   YZ=             -0.5998

 Normal termination of Gaussian 16 at Thu Dec  7 21:12:22 2023.
