 Gaussian 16, Revision B.01,
 Gaussian 16:  ES64L-G16RevB.01 20-Dec-2017

 -------------------------
 #P B3LYP/6-311+g(d) force
 -------------------------

 -----
 DPGEN
 -----
 Symbolic Z-matrix:
 Charge =  0 Multiplicity = 2

                         Standard orientation:
 ---------------------------------------------------------------------
 Center     Atomic      Atomic             Coordinates (Angstroms)
 Number     Number       Type             X           Y           Z
 ---------------------------------------------------------------------
      1         11           0       -4.211043    1.858727    0.058407
      2         11           0       -2.621241   -1.099067   -0.181477
      3         11           0        0.484759   -2.617116   -1.351141
      4         11           0        2.873115   -0.736304    0.109425
      5         11           0       -0.177741    1.193092   -0.639174
      6         11           0        0.248707   -1.196735    2.162820
      7         11           0        3.403444    2.597402   -0.158860
 ---------------------------------------------------------------------

 SCF Done:  E(UB3LYP) =  -1136.12255779     A.U. after   22 cycles

 The electronic state is 2-A.
 Alpha  occ. eigenvalues --  -38.45074 -38.44895 -38.44343 -38.44257 -38.43735
 Alpha  occ. eigenvalues --  -38.43410 -38.43206  -2.20881  -2.20653  -2.20215
 Alpha  occ. eigenvalues --   -2.20111  -2.19512  -2.19285  -2.19061  -1.14600
 Alpha  occ. eigenvalues --   -1.14564  -1.14478  -1.14330  -1.14322  -1.14284
 Alpha  occ. eigenvalues --   -1.13909  -1.13893  -1.13836  -1.13812  -1.13791
 Alpha  occ. eigenvalues --   -1.13710  -1.13184  -1.13177  -1.13146  -1.12939
 Alpha  occ. eigenvalues --   -1.12931  -1.12879  -1.12733  -1.12713  -1.12672
 Alpha  occ. eigenvalues --   -0.17925  -0.13616  -0.11899  -0.10407
 Alpha virt. eigenvalues --   -0.06980  -0.06072  -0.04234  -0.03164  -0.02604
 Alpha virt. eigenvalues --   -0.02397  -0.02244  -0.01808  -0.01209  -0.00400
 Alpha virt. eigenvalues --   -0.00162   0.00100   0.00176   0.00550   0.00665

  Beta  occ. eigenvalues --  -38.45061 -38.44903 -38.44332 -38.44249 -38.43740
  Beta  occ. eigenvalues --  -38.43309 -38.43151  -2.20858  -2.20670  -2.20199
  Beta  occ. eigenvalues --   -2.20098  -2.19521  -2.19096  -2.18959  -1.14569
  Beta  occ. eigenvalues --   -1.14543  -1.14464  -1.14342  -1.14331  -1.14295
  Beta  occ. eigenvalues --   -1.13889  -1.13859  -1.13831  -1.13805  -1.13757
  Beta  occ. eigenvalues --   -1.13706  -1.13191  -1.13180  -1.13152  -1.12810
  Beta  occ. eigenvalues --   -1.12797  -1.12755  -1.12661  -1.12637  -1.12603
  Beta  occ. eigenvalues --   -0.17267  -0.13523  -0.11719
  Beta virt. eigenvalues --   -0.06843  -0.06400  -0.05960  -0.04046  -0.02682
  Beta virt. eigenvalues --   -0.02451  -0.01975  -0.01889  -0.01284  -0.00992
  Beta virt. eigenvalues --   -0.00261   0.00051   0.00167   0.00443   0.00579

 Mulliken charges and spin densities:
               1          2
     1  Na   0.286519  -0.071935
     2  Na   0.392280   0.174675
     3  Na  -0.052016   0.245785
     4  Na   0.345022   0.289256
     5  Na  -1.109568   0.078859
     6  Na  -0.181220   0.373021
     7  Na   0.318982  -0.089661
 Sum of Mulliken charges =  -0.00000   1.00000

 Dipole moment (field-independent basis, Debye):
    X=             -0.8779    Y=              0.4822    Z=              0.0920  Tot=              1.0059
 Quadrupole moment (field-independent basis, Debye-Ang):
   XX=            -53.2096   YY=            -63.9050   ZZ=            -76.8855
   XY=             -3.1248   XZ=             -0.5858   YZ=              0.6736

 Normal termination of Gaussian 16 at Fri Dec  8 02:05:20 2023.
