 Gaussian 16, Revision B.01,
 Gaussian 16:  ES64L-G16RevB.01 20-Dec-2017

 -------------------------
 #P B3LYP/6-311+g(d) force
 -------------------------

 -----
 DPGEN
 -----
 Symbolic Z-matrix:
 Charge =  0 Multiplicity = 2

                         Standard orientation:
 ---------------------------------------------------------------------
 Center     Atomic      Atomic             Coordinates (Angstroms)
 Number     Number       Type             X           Y           Z
 ---------------------------------------------------------------------
      1         11           0       -2.768401   -1.285236    0.048664
      2         11           0        3.066382   -0.284015   -0.691360
      3         11           0       -0.264150   -0.383448   -1.686110
      4         11           0        0.160632    0.169599    1.930696
      5         11           0       -2.050482    2.042187   -0.387369
      6         11           0        1.228323    2.554689    0.352699
      7         11           0        0.627696   -2.813776    0.432780
 ---------------------------------------------------------------------

 SCF Done:  E(UB3LYP) =  -1136.13822294     A.U. after   18 cycles

 The electronic state is 2-A.
 Alpha  occ. eigenvalues --  -38.43856 -38.43768 -38.43540 -38.43477 -38.43433
 Alpha  occ. eigenvalues --  -38.43292 -38.43237  -2.19681  -2.19627  -2.19489
 Alpha  occ. eigenvalues --   -2.19333  -2.19310  -2.19278  -2.19124  -1.13362
 Alpha  occ. eigenvalues --   -1.13337  -1.13327  -1.13320  -1.13292  -1.13254
 Alpha  occ. eigenvalues --   -1.13198  -1.13150  -1.13103  -1.13037  -1.13020
 Alpha  occ. eigenvalues --   -1.13004  -1.12967  -1.12950  -1.12944  -1.12934
 Alpha  occ. eigenvalues --   -1.12902  -1.12877  -1.12806  -1.12766  -1.12740
 Alpha  occ. eigenvalues --   -0.18879  -0.12920  -0.12625  -0.11021
 Alpha virt. eigenvalues --   -0.05382  -0.04952  -0.04691  -0.03250  -0.03124
 Alpha virt. eigenvalues --   -0.02600  -0.01400  -0.01061  -0.00259  -0.00085
 Alpha virt. eigenvalues --    0.00052   0.00363   0.00864   0.00897   0.00932

  Beta  occ. eigenvalues --  -38.43836 -38.43766 -38.43466 -38.43453 -38.43426
  Beta  occ. eigenvalues --  -38.43230 -38.43228  -2.19647  -2.19625  -2.19329
  Beta  occ. eigenvalues --   -2.19317  -2.19299  -2.19166  -2.19113  -1.13331
  Beta  occ. eigenvalues --   -1.13325  -1.13301  -1.13299  -1.13285  -1.13244
  Beta  occ. eigenvalues --   -1.13094  -1.13057  -1.13015  -1.12997  -1.12994
  Beta  occ. eigenvalues --   -1.12960  -1.12951  -1.12935  -1.12928  -1.12868
  Beta  occ. eigenvalues --   -1.12827  -1.12800  -1.12777  -1.12747  -1.12731
  Beta  occ. eigenvalues --   -0.18162  -0.12636  -0.12362
  Beta virt. eigenvalues --   -0.07131  -0.05327  -0.04917  -0.04631  -0.02513
  Beta virt. eigenvalues --   -0.02341  -0.01581  -0.01282  -0.00988  -0.00243
  Beta virt. eigenvalues --   -0.00109   0.00136   0.00392   0.00888   0.00914

 Mulliken charges and spin densities:
               1          2
     1  Na   0.113565  -0.054831
     2  Na  -0.052689   0.034591
     3  Na  -0.187013   0.470146
     4  Na  -0.224885   0.558815
     5  Na   0.048245  -0.052495
     6  Na   0.226047   0.034999
     7  Na   0.076731   0.008775
 Sum of Mulliken charges =  -0.00000   1.00000

 Dipole moment (field-independent basis, Debye):
    X=             -0.0552    Y=             -0.2075    Z=              0.0238  Tot=              0.2160
 Quadrupole moment (field-independent basis, Debye-Ang):
   XX=            -58.2961   YY=            -62.7194   ZZ=            -72.8407
   XY=              0.1400   XZ=             -1.3072   YZ=             -1.4156

 Normal termination of Gaussian 16 at Fri Dec  8 01:46:40 2023.
