 Gaussian 16, Revision B.01,
 Gaussian 16:  ES64L-G16RevB.01 20-Dec-2017

 -------------------------
 #P B3LYP/6-311+g(d) force
 -------------------------

 -----
 DPGEN
 -----
 Symbolic Z-matrix:
 Charge =  0 Multiplicity = 2

                         Standard orientation:
 ---------------------------------------------------------------------
 Center     Atomic      Atomic             Coordinates (Angstroms)
 Number     Number       Type             X           Y           Z
 ---------------------------------------------------------------------
      1         11           0       -0.294435   -1.525461    1.184245
      2         11           0        7.431664    2.359756    0.196156
      3         11           0       -3.851452   -2.123002    0.051515
      4         11           0       -6.201591    3.339131    0.141972
      5         11           0       -6.509541   -0.319245   -0.670190
      6         11           0        6.271842   -0.664978   -0.494827
      7         11           0        3.153514   -1.066202   -0.408870
 ---------------------------------------------------------------------

 SCF Done:  E(UB3LYP) =  -1136.09931048     A.U. after   20 cycles

 The electronic state is 2-A.
 Alpha  occ. eigenvalues --  -38.45428 -38.45288 -38.44475 -38.44449 -38.44436
 Alpha  occ. eigenvalues --  -38.44359 -38.44336  -2.21194  -2.21074  -2.20255
 Alpha  occ. eigenvalues --   -2.20230  -2.20154  -2.20151  -2.20144  -1.14835
 Alpha  occ. eigenvalues --   -1.14834  -1.14794  -1.14717  -1.14715  -1.14697
 Alpha  occ. eigenvalues --   -1.13957  -1.13937  -1.13917  -1.13908  -1.13904
 Alpha  occ. eigenvalues --   -1.13886  -1.13846  -1.13838  -1.13814  -1.13814
 Alpha  occ. eigenvalues --   -1.13808  -1.13801  -1.13797  -1.13772  -1.13747
 Alpha  occ. eigenvalues --   -0.14989  -0.14404  -0.12486  -0.11377
 Alpha virt. eigenvalues --   -0.07807  -0.05548  -0.03967  -0.03216  -0.03163
 Alpha virt. eigenvalues --   -0.02922  -0.02589  -0.02064  -0.01719  -0.01040
 Alpha virt. eigenvalues --   -0.00870  -0.00635  -0.00203   0.00039   0.00175

  Beta  occ. eigenvalues --  -38.45317 -38.45208 -38.44507 -38.44492 -38.44389
  Beta  occ. eigenvalues --  -38.44350 -38.44302  -2.20986  -2.20924  -2.20295
  Beta  occ. eigenvalues --   -2.20253  -2.20183  -2.20141  -2.20043  -1.14694
  Beta  occ. eigenvalues --   -1.14692  -1.14657  -1.14614  -1.14612  -1.14600
  Beta  occ. eigenvalues --   -1.13968  -1.13966  -1.13923  -1.13921  -1.13913
  Beta  occ. eigenvalues --   -1.13905  -1.13855  -1.13847  -1.13834  -1.13822
  Beta  occ. eigenvalues --   -1.13807  -1.13738  -1.13737  -1.13729  -1.13700
  Beta  occ. eigenvalues --   -0.14556  -0.13912  -0.12047
  Beta virt. eigenvalues --   -0.08137  -0.07108  -0.05200  -0.03776  -0.03064
  Beta virt. eigenvalues --   -0.02907  -0.02758  -0.02287  -0.01699  -0.01524
  Beta virt. eigenvalues --   -0.00931  -0.00394  -0.00279   0.00063   0.00104

 Mulliken charges and spin densities:
               1          2
     1  Na  -0.170887  -0.274493
     2  Na   0.191401   0.398840
     3  Na  -0.074539   0.262541
     4  Na   0.018952   0.565919
     5  Na   0.119899  -0.135798
     6  Na   0.403270  -0.073971
     7  Na  -0.488097   0.256961
 Sum of Mulliken charges =  -0.00000   1.00000

 Dipole moment (field-independent basis, Debye):
    X=              0.6359    Y=              1.4327    Z=              0.1485  Tot=              1.5745
 Quadrupole moment (field-independent basis, Debye-Ang):
   XX=            -56.9476   YY=            -61.5357   ZZ=            -73.1357
   XY=              3.6537   XZ=              1.0492   YZ=              3.2075

 Normal termination of Gaussian 16 at Sun Dec  3 16:32:37 2023.
