 Gaussian 16, Revision B.01,
 Gaussian 16:  ES64L-G16RevB.01 20-Dec-2017

 -------------------------
 #P B3LYP/6-311+g(d) force
 -------------------------

 -----
 DPGEN
 -----
 Symbolic Z-matrix:
 Charge =  0 Multiplicity = 2

                         Standard orientation:
 ---------------------------------------------------------------------
 Center     Atomic      Atomic             Coordinates (Angstroms)
 Number     Number       Type             X           Y           Z
 ---------------------------------------------------------------------
      1         11           0        2.045403   -2.501432    0.134848
      2         11           0       -2.710189   -1.982122   -0.197339
      3         11           0        0.066594   -0.773347   -1.439082
      4         11           0        2.971948    0.724394   -0.123188
      5         11           0       -2.837358    1.585007   -0.174733
      6         11           0       -0.284175    0.061716    2.122294
      7         11           0        0.747777    2.885785   -0.322801
 ---------------------------------------------------------------------

 SCF Done:  E(UB3LYP) =  -1136.13109773     A.U. after   20 cycles

 The electronic state is 2-A.
 Alpha  occ. eigenvalues --  -38.44572 -38.44375 -38.43984 -38.43922 -38.43557
 Alpha  occ. eigenvalues --  -38.43309 -38.43142  -2.20355  -2.20182  -2.19858
 Alpha  occ. eigenvalues --   -2.19770  -2.19408  -2.19260  -2.18979  -1.14034
 Alpha  occ. eigenvalues --   -1.14014  -1.13997  -1.13868  -1.13835  -1.13812
 Alpha  occ. eigenvalues --   -1.13554  -1.13529  -1.13514  -1.13480  -1.13408
 Alpha  occ. eigenvalues --   -1.13394  -1.13074  -1.13031  -1.13023  -1.12942
 Alpha  occ. eigenvalues --   -1.12900  -1.12886  -1.12659  -1.12636  -1.12616
 Alpha  occ. eigenvalues --   -0.18248  -0.13368  -0.12237  -0.10382
 Alpha virt. eigenvalues --   -0.06073  -0.05720  -0.04539  -0.03266  -0.02698
 Alpha virt. eigenvalues --   -0.02328  -0.01756  -0.01461  -0.00736  -0.00432
 Alpha virt. eigenvalues --   -0.00014   0.00316   0.00691   0.00729   0.00870

  Beta  occ. eigenvalues --  -38.44570 -38.44368 -38.43979 -38.43919 -38.43451
  Beta  occ. eigenvalues --  -38.43268 -38.43136  -2.20354  -2.20173  -2.19851
  Beta  occ. eigenvalues --   -2.19767  -2.19212  -2.19185  -2.18970  -1.14018
  Beta  occ. eigenvalues --   -1.14012  -1.13997  -1.13856  -1.13815  -1.13809
  Beta  occ. eigenvalues --   -1.13549  -1.13527  -1.13488  -1.13474  -1.13396
  Beta  occ. eigenvalues --   -1.13388  -1.12945  -1.12896  -1.12883  -1.12878
  Beta  occ. eigenvalues --   -1.12848  -1.12831  -1.12655  -1.12622  -1.12602
  Beta  occ. eigenvalues --   -0.17572  -0.13156  -0.12035
  Beta virt. eigenvalues --   -0.06514  -0.06038  -0.05634  -0.04489  -0.02511
  Beta virt. eigenvalues --   -0.01996  -0.01657  -0.01423  -0.01271  -0.00777
  Beta virt. eigenvalues --   -0.00446   0.00165   0.00374   0.00734   0.00781

 Mulliken charges and spin densities:
               1          2
     1  Na   0.406801   0.050987
     2  Na   0.177799  -0.001127
     3  Na  -0.121186   0.159427
     4  Na   0.146094   0.068362
     5  Na   0.030066   0.014859
     6  Na  -0.455383   0.693750
     7  Na  -0.184191   0.013742
 Sum of Mulliken charges =  -0.00000   1.00000

 Dipole moment (field-independent basis, Debye):
    X=             -0.4983    Y=             -0.3773    Z=              0.1105  Tot=              0.6348
 Quadrupole moment (field-independent basis, Debye-Ang):
   XX=            -54.1870   YY=            -62.8902   ZZ=            -76.5266
   XY=             -1.3827   XZ=              0.8735   YZ=             -1.6884

 Normal termination of Gaussian 16 at Thu Dec  7 07:52:50 2023.
