 Gaussian 16, Revision B.01,
 Gaussian 16:  ES64L-G16RevB.01 20-Dec-2017

 -------------------------
 #P B3LYP/6-311+g(d) force
 -------------------------

 -----
 DPGEN
 -----
 Symbolic Z-matrix:
 Charge =  0 Multiplicity = 2

                         Standard orientation:
 ---------------------------------------------------------------------
 Center     Atomic      Atomic             Coordinates (Angstroms)
 Number     Number       Type             X           Y           Z
 ---------------------------------------------------------------------
      1         11           0       -2.503115    1.226184    0.816133
      2         11           0        0.142404   -1.952554   -0.584510
      3         11           0        2.706937    1.151799   -1.323156
      4         11           0        0.291562    3.221320   -0.414335
      5         11           0        3.175403   -2.362729    0.507717
      6         11           0        0.373485    0.310758    1.841019
      7         11           0       -4.186676   -1.594778   -0.842868
 ---------------------------------------------------------------------

 SCF Done:  E(UB3LYP) =  -1136.12315348     A.U. after   19 cycles

 The electronic state is 2-A.
 Alpha  occ. eigenvalues --  -38.44741 -38.44740 -38.44322 -38.43928 -38.43901
 Alpha  occ. eigenvalues --  -38.43808 -38.43521  -2.20554  -2.20533  -2.20213
 Alpha  occ. eigenvalues --   -2.19747  -2.19732  -2.19581  -2.19338  -1.14277
 Alpha  occ. eigenvalues --   -1.14252  -1.14225  -1.14191  -1.14179  -1.14102
 Alpha  occ. eigenvalues --   -1.13913  -1.13851  -1.13815  -1.13431  -1.13424
 Alpha  occ. eigenvalues --   -1.13405  -1.13402  -1.13361  -1.13341  -1.13236
 Alpha  occ. eigenvalues --   -1.13230  -1.13193  -1.13016  -1.13002  -1.12975
 Alpha  occ. eigenvalues --   -0.17514  -0.13361  -0.12453  -0.10616
 Alpha virt. eigenvalues --   -0.06210  -0.05780  -0.04948  -0.03400  -0.03071
 Alpha virt. eigenvalues --   -0.02275  -0.01774  -0.01571  -0.00916  -0.00449
 Alpha virt. eigenvalues --   -0.00373   0.00079   0.00379   0.00460   0.00685

  Beta  occ. eigenvalues --  -38.44741 -38.44739 -38.44251 -38.43890 -38.43872
  Beta  occ. eigenvalues --  -38.43743 -38.43520  -2.20558  -2.20533  -2.20084
  Beta  occ. eigenvalues --   -2.19717  -2.19642  -2.19458  -2.19339  -1.14268
  Beta  occ. eigenvalues --   -1.14250  -1.14228  -1.14186  -1.14178  -1.14105
  Beta  occ. eigenvalues --   -1.13832  -1.13758  -1.13723  -1.13407  -1.13400
  Beta  occ. eigenvalues --   -1.13351  -1.13336  -1.13313  -1.13283  -1.13152
  Beta  occ. eigenvalues --   -1.13146  -1.13115  -1.13020  -1.13002  -1.12952
  Beta  occ. eigenvalues --   -0.17013  -0.13073  -0.11824
  Beta virt. eigenvalues --   -0.07258  -0.06159  -0.05504  -0.04530  -0.02964
  Beta virt. eigenvalues --   -0.02585  -0.02152  -0.01374  -0.01287  -0.00765
  Beta virt. eigenvalues --   -0.00295  -0.00117   0.00187   0.00520   0.00554

 Mulliken charges and spin densities:
               1          2
     1  Na   0.012323   0.000846
     2  Na  -0.991891   0.088700
     3  Na  -0.024103   0.291003
     4  Na  -0.034734   0.004895
     5  Na   0.942061   0.032293
     6  Na  -0.056868   0.241727
     7  Na   0.153214   0.340536
 Sum of Mulliken charges =  -0.00000   1.00000

 Dipole moment (field-independent basis, Debye):
    X=              1.3458    Y=             -0.4559    Z=              0.5185  Tot=              1.5125
 Quadrupole moment (field-independent basis, Debye-Ang):
   XX=            -60.9652   YY=            -66.3743   ZZ=            -71.2503
   XY=             -8.5660   XZ=              2.5241   YZ=              0.9234

 Normal termination of Gaussian 16 at Sun Dec  3 20:40:08 2023.
