 Gaussian 16, Revision B.01,
 Gaussian 16:  ES64L-G16RevB.01 20-Dec-2017

 -------------------------
 #P B3LYP/6-311+g(d) force
 -------------------------

 -----
 DPGEN
 -----
 Symbolic Z-matrix:
 Charge =  0 Multiplicity = 2

                         Standard orientation:
 ---------------------------------------------------------------------
 Center     Atomic      Atomic             Coordinates (Angstroms)
 Number     Number       Type             X           Y           Z
 ---------------------------------------------------------------------
      1         11           0       -0.717589   -2.471985    0.292683
      2         11           0       -0.231249    0.174006   -1.741164
      3         11           0       -3.262320   -0.666072   -0.372255
      4         11           0        2.763213    1.694066   -0.281925
      5         11           0        3.051089   -1.616331   -0.015986
      6         11           0       -0.160426    0.396224    1.931989
      7         11           0       -1.442718    2.490092    0.186658
 ---------------------------------------------------------------------

 SCF Done:  E(UB3LYP) =  -1136.13014642     A.U. after   21 cycles

 The electronic state is 2-A.
 Alpha  occ. eigenvalues --  -38.44547 -38.44318 -38.44273 -38.43737 -38.43509
 Alpha  occ. eigenvalues --  -38.43162 -38.42861  -2.20398  -2.20119  -2.20055
 Alpha  occ. eigenvalues --   -2.19672  -2.19447  -2.19053  -2.18752  -1.14070
 Alpha  occ. eigenvalues --   -1.14061  -1.14031  -1.13805  -1.13796  -1.13757
 Alpha  occ. eigenvalues --   -1.13727  -1.13698  -1.13688  -1.13367  -1.13324
 Alpha  occ. eigenvalues --   -1.13283  -1.13157  -1.13099  -1.13049  -1.12727
 Alpha  occ. eigenvalues --   -1.12713  -1.12660  -1.12444  -1.12416  -1.12377
 Alpha  occ. eigenvalues --   -0.18606  -0.13408  -0.11964  -0.10804
 Alpha virt. eigenvalues --   -0.06204  -0.05531  -0.03974  -0.03318  -0.02768
 Alpha virt. eigenvalues --   -0.02536  -0.02042  -0.01253  -0.00456  -0.00138
 Alpha virt. eigenvalues --   -0.00049   0.00294   0.00710   0.00799   0.00853

  Beta  occ. eigenvalues --  -38.44536 -38.44312 -38.44276 -38.43675 -38.43414
  Beta  occ. eigenvalues --  -38.43152 -38.42849  -2.20379  -2.20110  -2.20063
  Beta  occ. eigenvalues --   -2.19558  -2.19274  -2.19039  -2.18734  -1.14060
  Beta  occ. eigenvalues --   -1.14029  -1.14018  -1.13804  -1.13777  -1.13752
  Beta  occ. eigenvalues --   -1.13726  -1.13701  -1.13690  -1.13290  -1.13245
  Beta  occ. eigenvalues --   -1.13193  -1.13047  -1.12975  -1.12929  -1.12711
  Beta  occ. eigenvalues --   -1.12668  -1.12652  -1.12435  -1.12381  -1.12360
  Beta  occ. eigenvalues --   -0.17877  -0.13194  -0.11697
  Beta virt. eigenvalues --   -0.06909  -0.06079  -0.05534  -0.03941  -0.02636
  Beta virt. eigenvalues --   -0.02009  -0.01894  -0.01485  -0.01220  -0.00490
  Beta virt. eigenvalues --   -0.00137   0.00094   0.00336   0.00776   0.00806

 Mulliken charges and spin densities:
               1          2
     1  Na  -0.078071  -0.029821
     2  Na  -0.213757   0.593689
     3  Na   0.331418   0.062193
     4  Na   0.133912  -0.067678
     5  Na  -0.134531  -0.068210
     6  Na  -0.182105   0.640484
     7  Na   0.143136  -0.130658
 Sum of Mulliken charges =  -0.00000   1.00000

 Dipole moment (field-independent basis, Debye):
    X=              0.1086    Y=              0.1322    Z=             -0.1162  Tot=              0.2068
 Quadrupole moment (field-independent basis, Debye-Ang):
   XX=            -51.7788   YY=            -67.5530   ZZ=            -74.2232
   XY=             -0.2290   XZ=              0.4021   YZ=             -0.6382

 Normal termination of Gaussian 16 at Thu Dec  7 09:31:43 2023.
