 Gaussian 16, Revision B.01,
 Gaussian 16:  ES64L-G16RevB.01 20-Dec-2017

 -------------------------
 #P B3LYP/6-311+g(d) force
 -------------------------

 -----
 DPGEN
 -----
 Symbolic Z-matrix:
 Charge =  0 Multiplicity = 2

                         Standard orientation:
 ---------------------------------------------------------------------
 Center     Atomic      Atomic             Coordinates (Angstroms)
 Number     Number       Type             X           Y           Z
 ---------------------------------------------------------------------
      1         11           0       -3.398239   -0.988010    0.115799
      2         11           0        3.537346    0.050803    0.166692
      3         11           0        1.262327    2.104812   -0.250813
      4         11           0       -0.095206   -0.385945    2.146140
      5         11           0       -0.375961   -0.300863   -1.643484
      6         11           0       -1.920924    2.015302   -0.081143
      7         11           0        0.990658   -2.496099   -0.453191
 ---------------------------------------------------------------------

 SCF Done:  E(UB3LYP) =  -1136.12291742     A.U. after   21 cycles

 The electronic state is 2-A.
 Alpha  occ. eigenvalues --  -38.45239 -38.45151 -38.44185 -38.43438 -38.43188
 Alpha  occ. eigenvalues --  -38.43158 -38.42601  -2.21045  -2.20940  -2.20037
 Alpha  occ. eigenvalues --   -2.19468  -2.19103  -2.19045  -2.18536  -1.14742
 Alpha  occ. eigenvalues --   -1.14702  -1.14666  -1.14610  -1.14604  -1.14575
 Alpha  occ. eigenvalues --   -1.13708  -1.13672  -1.13646  -1.13267  -1.13143
 Alpha  occ. eigenvalues --   -1.13065  -1.12800  -1.12761  -1.12736  -1.12712
 Alpha  occ. eigenvalues --   -1.12680  -1.12631  -1.12222  -1.12189  -1.12179
 Alpha  occ. eigenvalues --   -0.18818  -0.13537  -0.11808  -0.10987
 Alpha virt. eigenvalues --   -0.06940  -0.04815  -0.03768  -0.03435  -0.02824
 Alpha virt. eigenvalues --   -0.02654  -0.02446  -0.01000  -0.00306  -0.00122
 Alpha virt. eigenvalues --    0.00101   0.00246   0.00552   0.00803   0.00816

  Beta  occ. eigenvalues --  -38.45241 -38.45150 -38.44093 -38.43363 -38.43181
  Beta  occ. eigenvalues --  -38.43142 -38.42592  -2.21048  -2.20940  -2.19867
  Beta  occ. eigenvalues --   -2.19334  -2.19094  -2.19021  -2.18525  -1.14747
  Beta  occ. eigenvalues --   -1.14690  -1.14671  -1.14610  -1.14590  -1.14577
  Beta  occ. eigenvalues --   -1.13594  -1.13553  -1.13522  -1.13178  -1.13052
  Beta  occ. eigenvalues --   -1.12972  -1.12789  -1.12746  -1.12716  -1.12679
  Beta  occ. eigenvalues --   -1.12639  -1.12619  -1.12213  -1.12187  -1.12142
  Beta  occ. eigenvalues --   -0.18076  -0.13367  -0.11520
  Beta virt. eigenvalues --   -0.07089  -0.06789  -0.04837  -0.03690  -0.02800
  Beta virt. eigenvalues --   -0.02348  -0.01889  -0.01621  -0.00971  -0.00305
  Beta virt. eigenvalues --    0.00028   0.00085   0.00256   0.00724   0.00832

 Mulliken charges and spin densities:
               1          2
     1  Na   0.319280   0.014077
     2  Na   0.063623   0.005861
     3  Na   0.050906   0.101541
     4  Na  -0.676097   0.618956
     5  Na  -0.271249   0.110624
     6  Na   0.194504   0.112815
     7  Na   0.319033   0.036126
 Sum of Mulliken charges =  -0.00000   1.00000

 Dipole moment (field-independent basis, Debye):
    X=             -0.1874    Y=             -0.4498    Z=              0.4781  Tot=              0.6827
 Quadrupole moment (field-independent basis, Debye-Ang):
   XX=            -46.7704   YY=            -72.2877   ZZ=            -73.4500
   XY=              0.5024   XZ=              0.1031   YZ=             -0.1886

 Normal termination of Gaussian 16 at Thu Dec  7 06:24:57 2023.
