 Gaussian 16, Revision B.01,
 Gaussian 16:  ES64L-G16RevB.01 20-Dec-2017

 -------------------------
 #P B3LYP/6-311+g(d) force
 -------------------------

 -----
 DPGEN
 -----
 Symbolic Z-matrix:
 Charge =  0 Multiplicity = 2

                         Standard orientation:
 ---------------------------------------------------------------------
 Center     Atomic      Atomic             Coordinates (Angstroms)
 Number     Number       Type             X           Y           Z
 ---------------------------------------------------------------------
      1         11           0        0.133860    2.745622    0.154193
      2         11           0        0.412853   -1.243625    1.864429
      3         11           0        3.614021    0.989188    0.943655
      4         11           0        2.587509   -1.658937   -1.505289
      5         11           0       -0.537308   -1.297883   -1.501097
      6         11           0       -2.631094    1.932030   -1.006026
      7         11           0       -3.579841   -1.466395    1.050135
 ---------------------------------------------------------------------

 SCF Done:  E(UB3LYP) =  -1136.11792589     A.U. after   22 cycles

 The electronic state is 2-A.
 Alpha  occ. eigenvalues --  -38.45266 -38.44941 -38.44660 -38.44331 -38.43939
 Alpha  occ. eigenvalues --  -38.43556 -38.43227  -2.21035  -2.20686  -2.20421
 Alpha  occ. eigenvalues --   -2.20163  -2.19796  -2.19376  -2.19020  -1.14729
 Alpha  occ. eigenvalues --   -1.14703  -1.14630  -1.14357  -1.14339  -1.14309
 Alpha  occ. eigenvalues --   -1.14093  -1.14069  -1.14056  -1.13869  -1.13808
 Alpha  occ. eigenvalues --   -1.13771  -1.13483  -1.13440  -1.13416  -1.13079
 Alpha  occ. eigenvalues --   -1.13040  -1.12999  -1.12700  -1.12692  -1.12647
 Alpha  occ. eigenvalues --   -0.17152  -0.13270  -0.11883  -0.11180
 Alpha virt. eigenvalues --   -0.06860  -0.05206  -0.04932  -0.03378  -0.02811
 Alpha virt. eigenvalues --   -0.02577  -0.02446  -0.01329  -0.01059  -0.00190
 Alpha virt. eigenvalues --   -0.00041   0.00094   0.00184   0.00411   0.00486

  Beta  occ. eigenvalues --  -38.45224 -38.44910 -38.44636 -38.44280 -38.43894
  Beta  occ. eigenvalues --  -38.43541 -38.43234  -2.20959  -2.20629  -2.20376
  Beta  occ. eigenvalues --   -2.20072  -2.19717  -2.19347  -2.19034  -1.14679
  Beta  occ. eigenvalues --   -1.14648  -1.14569  -1.14317  -1.14295  -1.14272
  Beta  occ. eigenvalues --   -1.14057  -1.14040  -1.14026  -1.13792  -1.13750
  Beta  occ. eigenvalues --   -1.13704  -1.13437  -1.13383  -1.13335  -1.13062
  Beta  occ. eigenvalues --   -1.13015  -1.12982  -1.12710  -1.12700  -1.12646
  Beta  occ. eigenvalues --   -0.16568  -0.12957  -0.11464
  Beta virt. eigenvalues --   -0.07696  -0.06621  -0.05012  -0.04419  -0.03182
  Beta virt. eigenvalues --   -0.02300  -0.02263  -0.01876  -0.01154  -0.00776
  Beta virt. eigenvalues --   -0.00141   0.00036   0.00182   0.00265   0.00564

 Mulliken charges and spin densities:
               1          2
     1  Na  -0.361254  -0.067357
     2  Na  -0.207102   0.337451
     3  Na   0.161933   0.177771
     4  Na   0.058131   0.061298
     5  Na  -0.268014   0.383594
     6  Na   0.406075  -0.029182
     7  Na   0.210230   0.136425
 Sum of Mulliken charges =  -0.00000   1.00000

 Dipole moment (field-independent basis, Debye):
    X=              0.1855    Y=             -0.7609    Z=              0.3909  Tot=              0.8753
 Quadrupole moment (field-independent basis, Debye-Ang):
   XX=            -49.9349   YY=            -76.6837   ZZ=            -69.7665
   XY=              1.0826   XZ=             -0.3761   YZ=              0.0407

 Normal termination of Gaussian 16 at Sun Dec  3 23:28:58 2023.
