 Gaussian 16, Revision B.01,
 Gaussian 16:  ES64L-G16RevB.01 20-Dec-2017

 -------------------------
 #P B3LYP/6-311+g(d) force
 -------------------------

 -----
 DPGEN
 -----
 Symbolic Z-matrix:
 Charge =  0 Multiplicity = 2

                         Standard orientation:
 ---------------------------------------------------------------------
 Center     Atomic      Atomic             Coordinates (Angstroms)
 Number     Number       Type             X           Y           Z
 ---------------------------------------------------------------------
      1         11           0        0.342768   -0.088877    2.070756
      2         11           0       -0.285008   -2.717667   -0.192739
      3         11           0        2.583681   -1.175100   -0.007558
      4         11           0       -1.943215    2.598238    0.123946
      5         11           0        2.321253    2.159738   -0.296730
      6         11           0       -2.922266   -0.797209   -0.006871
      7         11           0       -0.097213    0.020878   -1.690803
 ---------------------------------------------------------------------

 SCF Done:  E(UB3LYP) =  -1136.13599235     A.U. after   19 cycles

 The electronic state is 2-A.
 Alpha  occ. eigenvalues --  -38.43893 -38.43885 -38.43857 -38.43744 -38.43552
 Alpha  occ. eigenvalues --  -38.43286 -38.42939  -2.19713  -2.19708  -2.19667
 Alpha  occ. eigenvalues --   -2.19641  -2.19476  -2.19269  -2.18877  -1.13402
 Alpha  occ. eigenvalues --   -1.13387  -1.13379  -1.13373  -1.13365  -1.13352
 Alpha  occ. eigenvalues --   -1.13342  -1.13329  -1.13318  -1.13300  -1.13275
 Alpha  occ. eigenvalues --   -1.13254  -1.13160  -1.13131  -1.13102  -1.12971
 Alpha  occ. eigenvalues --   -1.12907  -1.12886  -1.12555  -1.12523  -1.12510
 Alpha  occ. eigenvalues --   -0.18836  -0.13133  -0.12346  -0.10901
 Alpha virt. eigenvalues --   -0.05662  -0.05207  -0.04556  -0.03276  -0.02865
 Alpha virt. eigenvalues --   -0.02661  -0.01403  -0.01147  -0.00456  -0.00162
 Alpha virt. eigenvalues --   -0.00017   0.00363   0.00815   0.00873   0.00909

  Beta  occ. eigenvalues --  -38.43888 -38.43886 -38.43854 -38.43649 -38.43542
  Beta  occ. eigenvalues --  -38.43218 -38.42929  -2.19711  -2.19700  -2.19670
  Beta  occ. eigenvalues --   -2.19466  -2.19463  -2.19146  -2.18864  -1.13398
  Beta  occ. eigenvalues --   -1.13379  -1.13372  -1.13355  -1.13354  -1.13347
  Beta  occ. eigenvalues --   -1.13331  -1.13320  -1.13304  -1.13235  -1.13158
  Beta  occ. eigenvalues --   -1.13138  -1.13129  -1.13097  -1.13071  -1.12893
  Beta  occ. eigenvalues --   -1.12815  -1.12796  -1.12543  -1.12513  -1.12472
  Beta  occ. eigenvalues --   -0.18076  -0.12899  -0.12113
  Beta virt. eigenvalues --   -0.06949  -0.05666  -0.05116  -0.04549  -0.02475
  Beta virt. eigenvalues --   -0.02111  -0.01601  -0.01316  -0.01062  -0.00502
  Beta virt. eigenvalues --   -0.00213   0.00129   0.00389   0.00848   0.00907

 Mulliken charges and spin densities:
               1          2
     1  Na  -0.583355   0.697075
     2  Na   0.346973   0.033648
     3  Na   0.537436   0.096292
     4  Na  -0.100453  -0.103283
     5  Na  -0.024751  -0.105853
     6  Na   0.059151  -0.045689
     7  Na  -0.235001   0.427810
 Sum of Mulliken charges =  -0.00000   1.00000

 Dipole moment (field-independent basis, Debye):
    X=             -0.0497    Y=              0.3596    Z=              0.1688  Tot=              0.4003
 Quadrupole moment (field-independent basis, Debye-Ang):
   XX=            -58.2957   YY=            -62.1966   ZZ=            -73.5990
   XY=              0.5901   XZ=             -0.9621   YZ=              0.2244

 Normal termination of Gaussian 16 at Tue Dec  5 13:03:52 2023.
