 Gaussian 16, Revision B.01,
 Gaussian 16:  ES64L-G16RevB.01 20-Dec-2017

 -------------------------
 #P B3LYP/6-311+g(d) force
 -------------------------

 -----
 DPGEN
 -----
 Symbolic Z-matrix:
 Charge =  0 Multiplicity = 2

                         Standard orientation:
 ---------------------------------------------------------------------
 Center     Atomic      Atomic             Coordinates (Angstroms)
 Number     Number       Type             X           Y           Z
 ---------------------------------------------------------------------
      1         11           0        0.941504   -2.007429   -1.495058
      2         11           0        1.707377    1.069459   -1.318959
      3         11           0       -3.060070   -1.689548    0.774539
      4         11           0       -1.469221    2.869271    0.304981
      5         11           0        0.202768   -0.375790    2.017922
      6         11           0        3.612672   -0.100032    0.995040
      7         11           0       -1.935030    0.234069   -1.278465
 ---------------------------------------------------------------------

 SCF Done:  E(UB3LYP) =  -1136.12224133     A.U. after   23 cycles

 The electronic state is 2-A.
 Alpha  occ. eigenvalues --  -38.44845 -38.44830 -38.44551 -38.43886 -38.43771
 Alpha  occ. eigenvalues --  -38.43442 -38.42629  -2.20664  -2.20646  -2.20393
 Alpha  occ. eigenvalues --   -2.19701  -2.19664  -2.19384  -2.18448  -1.14340
 Alpha  occ. eigenvalues --   -1.14325  -1.14315  -1.14310  -1.14277  -1.14259
 Alpha  occ. eigenvalues --   -1.14100  -1.14023  -1.13995  -1.13446  -1.13373
 Alpha  occ. eigenvalues --   -1.13348  -1.13325  -1.13324  -1.13261  -1.13064
 Alpha  occ. eigenvalues --   -1.13053  -1.12999  -1.12131  -1.12107  -1.12076
 Alpha  occ. eigenvalues --   -0.18243  -0.13566  -0.11857  -0.11074
 Alpha virt. eigenvalues --   -0.06415  -0.05040  -0.04606  -0.03345  -0.03008
 Alpha virt. eigenvalues --   -0.02640  -0.02091  -0.00994  -0.00766  -0.00004
 Alpha virt. eigenvalues --    0.00136   0.00164   0.00298   0.00740   0.00757

  Beta  occ. eigenvalues --  -38.44808 -38.44778 -38.44481 -38.43887 -38.43743
  Beta  occ. eigenvalues --  -38.43428 -38.42629  -2.20607  -2.20539  -2.20266
  Beta  occ. eigenvalues --   -2.19704  -2.19617  -2.19360  -2.18450  -1.14301
  Beta  occ. eigenvalues --   -1.14271  -1.14252  -1.14245  -1.14225  -1.14176
  Beta  occ. eigenvalues --   -1.14003  -1.13928  -1.13912  -1.13450  -1.13341
  Beta  occ. eigenvalues --   -1.13327  -1.13326  -1.13278  -1.13233  -1.13041
  Beta  occ. eigenvalues --   -1.13021  -1.12991  -1.12134  -1.12102  -1.12077
  Beta  occ. eigenvalues --   -0.17428  -0.13400  -0.10948
  Beta virt. eigenvalues --   -0.07863  -0.06196  -0.04764  -0.04121  -0.03035
  Beta virt. eigenvalues --   -0.02342  -0.02120  -0.01847  -0.00833  -0.00468
  Beta virt. eigenvalues --    0.00045   0.00232   0.00294   0.00334   0.00790

 Mulliken charges and spin densities:
               1          2
     1  Na  -0.235885   0.225892
     2  Na   0.012226   0.358395
     3  Na  -0.120985  -0.068028
     4  Na  -0.141701  -0.100351
     5  Na  -0.317537   0.571027
     6  Na   0.225327  -0.064077
     7  Na   0.578555   0.077141
 Sum of Mulliken charges =  -0.00000   1.00000

 Dipole moment (field-independent basis, Debye):
    X=              1.1444    Y=             -0.6502    Z=              0.5174  Tot=              1.4143
 Quadrupole moment (field-independent basis, Debye-Ang):
   XX=            -55.3729   YY=            -73.7235   ZZ=            -66.8857
   XY=              0.8072   XZ=              0.0990   YZ=              2.5629

 Normal termination of Gaussian 16 at Tue Dec  5 17:09:46 2023.
