 Gaussian 16, Revision B.01,
 Gaussian 16:  ES64L-G16RevB.01 20-Dec-2017

 -------------------------
 #P B3LYP/6-311+g(d) force
 -------------------------

 -----
 DPGEN
 -----
 Symbolic Z-matrix:
 Charge =  0 Multiplicity = 2

                         Standard orientation:
 ---------------------------------------------------------------------
 Center     Atomic      Atomic             Coordinates (Angstroms)
 Number     Number       Type             X           Y           Z
 ---------------------------------------------------------------------
      1         11           0        2.527076   -1.927413   -0.109298
      2         11           0       -0.002876    0.224958   -1.740942
      3         11           0       -0.924596    2.713176    0.222418
      4         11           0       -1.221229   -2.452117   -0.127553
      5         11           0       -3.413259   -0.088472   -0.114337
      6         11           0        0.432610   -0.047124    2.274403
      7         11           0        2.602274    1.576992   -0.404692
 ---------------------------------------------------------------------

 SCF Done:  E(UB3LYP) =  -1136.13640597     A.U. after   20 cycles

 The electronic state is 2-A.
 Alpha  occ. eigenvalues --  -38.44290 -38.44057 -38.43951 -38.43734 -38.43566
 Alpha  occ. eigenvalues --  -38.43238 -38.43188  -2.20097  -2.19902  -2.19797
 Alpha  occ. eigenvalues --   -2.19548  -2.19514  -2.19070  -2.19047  -1.13773
 Alpha  occ. eigenvalues --   -1.13762  -1.13734  -1.13554  -1.13534  -1.13519
 Alpha  occ. eigenvalues --   -1.13507  -1.13451  -1.13421  -1.13220  -1.13210
 Alpha  occ. eigenvalues --   -1.13196  -1.13193  -1.13161  -1.13131  -1.12752
 Alpha  occ. eigenvalues --   -1.12740  -1.12735  -1.12714  -1.12692  -1.12669
 Alpha  occ. eigenvalues --   -0.18375  -0.13081  -0.12103  -0.11048
 Alpha virt. eigenvalues --   -0.05849  -0.05271  -0.04314  -0.03295  -0.03001
 Alpha virt. eigenvalues --   -0.02875  -0.01691  -0.01111  -0.00387  -0.00175
 Alpha virt. eigenvalues --   -0.00079   0.00338   0.00720   0.00869   0.00877

  Beta  occ. eigenvalues --  -38.44292 -38.43951 -38.43940 -38.43732 -38.43506
  Beta  occ. eigenvalues --  -38.43232 -38.43183  -2.20101  -2.19780  -2.19707
  Beta  occ. eigenvalues --   -2.19548  -2.19404  -2.19062  -2.19040  -1.13778
  Beta  occ. eigenvalues --   -1.13753  -1.13739  -1.13485  -1.13434  -1.13421
  Beta  occ. eigenvalues --   -1.13411  -1.13394  -1.13377  -1.13209  -1.13204
  Beta  occ. eigenvalues --   -1.13189  -1.13124  -1.13084  -1.13051  -1.12747
  Beta  occ. eigenvalues --   -1.12729  -1.12711  -1.12695  -1.12691  -1.12665
  Beta  occ. eigenvalues --   -0.17643  -0.12883  -0.11890
  Beta virt. eigenvalues --   -0.07073  -0.05780  -0.05276  -0.04242  -0.02569
  Beta virt. eigenvalues --   -0.02154  -0.01848  -0.01606  -0.01057  -0.00423
  Beta virt. eigenvalues --   -0.00212   0.00085   0.00372   0.00815   0.00863

 Mulliken charges and spin densities:
               1          2
     1  Na   0.132150  -0.038584
     2  Na  -0.120154   0.398643
     3  Na   0.069424  -0.015632
     4  Na   0.105370  -0.044247
     5  Na   0.045111  -0.056078
     6  Na  -0.574679   0.758434
     7  Na   0.342778  -0.002536
 Sum of Mulliken charges =  -0.00000   1.00000

 Dipole moment (field-independent basis, Debye):
    X=              0.0237    Y=              0.1012    Z=              0.1313  Tot=              0.1675
 Quadrupole moment (field-independent basis, Debye-Ang):
   XX=            -55.0046   YY=            -66.7239   ZZ=            -72.6987
   XY=             -0.8232   XZ=             -0.8287   YZ=              0.5103

 Normal termination of Gaussian 16 at Fri Dec  8 02:31:45 2023.
