 Gaussian 16, Revision B.01,
 Gaussian 16:  ES64L-G16RevB.01 20-Dec-2017

 -------------------------
 #P B3LYP/6-311+g(d) force
 -------------------------

 -----
 DPGEN
 -----
 Symbolic Z-matrix:
 Charge =  0 Multiplicity = 2

                         Standard orientation:
 ---------------------------------------------------------------------
 Center     Atomic      Atomic             Coordinates (Angstroms)
 Number     Number       Type             X           Y           Z
 ---------------------------------------------------------------------
      1         11           0        0.715840   -3.005510    0.014672
      2         11           0        0.322847   -0.236671   -1.800794
      3         11           0       -2.685835   -1.545118    0.203950
      4         11           0       -2.804361    1.861321   -0.407077
      5         11           0        1.218813    3.008424    0.204536
      6         11           0        3.196648   -0.115793   -0.106488
      7         11           0        0.036048    0.033348    1.891201
 ---------------------------------------------------------------------

 SCF Done:  E(UB3LYP) =  -1136.13628003     A.U. after   19 cycles

 The electronic state is 2-A.
 Alpha  occ. eigenvalues --  -38.44266 -38.44022 -38.43902 -38.43846 -38.43513
 Alpha  occ. eigenvalues --  -38.43506 -38.43462  -2.20084  -2.19796  -2.19681
 Alpha  occ. eigenvalues --   -2.19665  -2.19408  -2.19347  -2.19343  -1.13774
 Alpha  occ. eigenvalues --   -1.13748  -1.13708  -1.13468  -1.13459  -1.13441
 Alpha  occ. eigenvalues --   -1.13359  -1.13345  -1.13341  -1.13329  -1.13320
 Alpha  occ. eigenvalues --   -1.13295  -1.13108  -1.13062  -1.13034  -1.13025
 Alpha  occ. eigenvalues --   -1.13010  -1.12990  -1.12975  -1.12971  -1.12956
 Alpha  occ. eigenvalues --   -0.18116  -0.12896  -0.12283  -0.10465
 Alpha virt. eigenvalues --   -0.05770  -0.05332  -0.05084  -0.03112  -0.02847
 Alpha virt. eigenvalues --   -0.02397  -0.01578  -0.01325  -0.00767  -0.00592
 Alpha virt. eigenvalues --   -0.00020   0.00354   0.00783   0.00790   0.00834

  Beta  occ. eigenvalues --  -38.44261 -38.44015 -38.43899 -38.43842 -38.43509
  Beta  occ. eigenvalues --  -38.43435 -38.43378  -2.20078  -2.19783  -2.19678
  Beta  occ. eigenvalues --   -2.19661  -2.19342  -2.19278  -2.19191  -1.13760
  Beta  occ. eigenvalues --   -1.13734  -1.13703  -1.13454  -1.13447  -1.13433
  Beta  occ. eigenvalues --   -1.13344  -1.13336  -1.13332  -1.13321  -1.13320
  Beta  occ. eigenvalues --   -1.13290  -1.13054  -1.13001  -1.12987  -1.12972
  Beta  occ. eigenvalues --   -1.12942  -1.12920  -1.12914  -1.12868  -1.12845
  Beta  occ. eigenvalues --   -0.17403  -0.12669  -0.12056
  Beta virt. eigenvalues --   -0.06664  -0.05720  -0.05305  -0.04975  -0.02379
  Beta virt. eigenvalues --   -0.02125  -0.01479  -0.01412  -0.01227  -0.00806
  Beta virt. eigenvalues --   -0.00648   0.00120   0.00384   0.00790   0.00831

 Mulliken charges and spin densities:
               1          2
     1  Na   0.112756  -0.137713
     2  Na  -0.076641   0.731808
     3  Na   0.087871  -0.046890
     4  Na  -0.123163  -0.025191
     5  Na  -0.093418  -0.101189
     6  Na   0.174357  -0.126735
     7  Na  -0.081762   0.705910
 Sum of Mulliken charges =  -0.00000   1.00000

 Dipole moment (field-independent basis, Debye):
    X=              0.2374    Y=              0.0329    Z=              0.0127  Tot=              0.2400
 Quadrupole moment (field-independent basis, Debye-Ang):
   XX=            -57.1632   YY=            -60.0557   ZZ=            -75.7944
   XY=             -0.1680   XZ=              0.6063   YZ=             -0.9223

 Normal termination of Gaussian 16 at Thu Dec  7 08:41:40 2023.
