 Gaussian 16, Revision B.01,
 Gaussian 16:  ES64L-G16RevB.01 20-Dec-2017

 -------------------------
 #P B3LYP/6-311+g(d) force
 -------------------------

 -----
 DPGEN
 -----
 Symbolic Z-matrix:
 Charge =  0 Multiplicity = 2

                         Standard orientation:
 ---------------------------------------------------------------------
 Center     Atomic      Atomic             Coordinates (Angstroms)
 Number     Number       Type             X           Y           Z
 ---------------------------------------------------------------------
      1         11           0       -1.824600    2.809144    0.030009
      2         11           0        1.211465    0.462859    2.260542
      3         11           0       -1.601053   -1.279950    1.600661
      4         11           0        0.631101   -2.268966   -0.458798
      5         11           0        3.799104    0.210361   -0.797958
      6         11           0        0.739150    0.905446   -1.241164
      7         11           0       -2.955166   -0.838892   -1.393293
 ---------------------------------------------------------------------

 SCF Done:  E(UB3LYP) =  -1136.12524139     A.U. after   21 cycles

 The electronic state is 2-A.
 Alpha  occ. eigenvalues --  -38.44840 -38.44796 -38.44643 -38.43547 -38.43512
 Alpha  occ. eigenvalues --  -38.43142 -38.42766  -2.20682  -2.20591  -2.20445
 Alpha  occ. eigenvalues --   -2.19413  -2.19405  -2.19069  -2.18542  -1.14357
 Alpha  occ. eigenvalues --   -1.14303  -1.14293  -1.14280  -1.14237  -1.14196
 Alpha  occ. eigenvalues --   -1.14133  -1.14094  -1.14070  -1.13165  -1.13126
 Alpha  occ. eigenvalues --   -1.13073  -1.13047  -1.13033  -1.12976  -1.12764
 Alpha  occ. eigenvalues --   -1.12749  -1.12680  -1.12214  -1.12205  -1.12184
 Alpha  occ. eigenvalues --   -0.18175  -0.13187  -0.11815  -0.11173
 Alpha virt. eigenvalues --   -0.06252  -0.04982  -0.04368  -0.03241  -0.03208
 Alpha virt. eigenvalues --   -0.02665  -0.02099  -0.00957  -0.00693  -0.00000
 Alpha virt. eigenvalues --    0.00161   0.00230   0.00383   0.00586   0.00809

  Beta  occ. eigenvalues --  -38.44762 -38.44744 -38.44631 -38.43533 -38.43486
  Beta  occ. eigenvalues --  -38.43122 -38.42768  -2.20528  -2.20507  -2.20424
  Beta  occ. eigenvalues --   -2.19389  -2.19362  -2.19035  -2.18546  -1.14237
  Beta  occ. eigenvalues --   -1.14236  -1.14194  -1.14174  -1.14171  -1.14152
  Beta  occ. eigenvalues --   -1.14113  -1.14076  -1.14058  -1.13150  -1.13096
  Beta  occ. eigenvalues --   -1.13026  -1.13008  -1.13001  -1.12955  -1.12745
  Beta  occ. eigenvalues --   -1.12706  -1.12653  -1.12218  -1.12203  -1.12186
  Beta  occ. eigenvalues --   -0.17403  -0.12933  -0.11062
  Beta virt. eigenvalues --   -0.07828  -0.06059  -0.04527  -0.04151  -0.03093
  Beta virt. eigenvalues --   -0.02310  -0.02058  -0.01941  -0.00645  -0.00519
  Beta virt. eigenvalues --    0.00098   0.00220   0.00268   0.00455   0.00722

 Mulliken charges and spin densities:
               1          2
     1  Na  -0.160055   0.005599
     2  Na  -0.075943   0.361816
     3  Na   0.422805   0.153476
     4  Na  -0.045220   0.123622
     5  Na   0.466590   0.002956
     6  Na  -0.712002   0.271547
     7  Na   0.103826   0.080985
 Sum of Mulliken charges =  -0.00000   1.00000

 Dipole moment (field-independent basis, Debye):
    X=              0.7215    Y=             -0.5987    Z=              0.0751  Tot=              0.9406
 Quadrupole moment (field-independent basis, Debye-Ang):
   XX=            -51.8987   YY=            -75.7019   ZZ=            -65.8316
   XY=              1.7074   XZ=              1.4106   YZ=              4.4970

 Normal termination of Gaussian 16 at Sun Dec  3 15:38:43 2023.
