 Gaussian 16, Revision B.01,
 Gaussian 16:  ES64L-G16RevB.01 20-Dec-2017

 -------------------------
 #P B3LYP/6-311+g(d) force
 -------------------------

 -----
 DPGEN
 -----
 Symbolic Z-matrix:
 Charge =  0 Multiplicity = 2

                         Standard orientation:
 ---------------------------------------------------------------------
 Center     Atomic      Atomic             Coordinates (Angstroms)
 Number     Number       Type             X           Y           Z
 ---------------------------------------------------------------------
      1         11           0       -2.522061    1.672340   -0.038249
      2         11           0        3.231210   -0.168914    0.022382
      3         11           0        1.234914    2.612188   -0.305881
      4         11           0       -0.254817    0.332312    1.983412
      5         11           0       -0.008326   -0.246292   -1.663310
      6         11           0       -2.678311   -1.580925   -0.190132
      7         11           0        0.997390   -2.620709    0.191778
 ---------------------------------------------------------------------

 SCF Done:  E(UB3LYP) =  -1136.13790208     A.U. after   19 cycles

 The electronic state is 2-A.
 Alpha  occ. eigenvalues --  -38.44304 -38.43908 -38.43866 -38.43485 -38.43197
 Alpha  occ. eigenvalues --  -38.43187 -38.43119  -2.20136  -2.19762  -2.19732
 Alpha  occ. eigenvalues --   -2.19390  -2.19180  -2.19035  -2.18992  -1.13802
 Alpha  occ. eigenvalues --   -1.13797  -1.13786  -1.13481  -1.13434  -1.13412
 Alpha  occ. eigenvalues --   -1.13403  -1.13385  -1.13336  -1.13061  -1.13016
 Alpha  occ. eigenvalues --   -1.13009  -1.12886  -1.12844  -1.12803  -1.12705
 Alpha  occ. eigenvalues --   -1.12699  -1.12664  -1.12659  -1.12649  -1.12616
 Alpha  occ. eigenvalues --   -0.18788  -0.13386  -0.12213  -0.10708
 Alpha virt. eigenvalues --   -0.05877  -0.05285  -0.04337  -0.03324  -0.02797
 Alpha virt. eigenvalues --   -0.02447  -0.01712  -0.01086  -0.00339  -0.00254
 Alpha virt. eigenvalues --   -0.00013   0.00355   0.00762   0.00881   0.00907

  Beta  occ. eigenvalues --  -38.44303 -38.43902 -38.43860 -38.43394 -38.43179
  Beta  occ. eigenvalues --  -38.43131 -38.43113  -2.20137  -2.19754  -2.19725
  Beta  occ. eigenvalues --   -2.19224  -2.19059  -2.19024  -2.18983  -1.13802
  Beta  occ. eigenvalues --   -1.13790  -1.13783  -1.13478  -1.13414  -1.13398
  Beta  occ. eigenvalues --   -1.13386  -1.13363  -1.13335  -1.12952  -1.12895
  Beta  occ. eigenvalues --   -1.12893  -1.12811  -1.12771  -1.12724  -1.12684
  Beta  occ. eigenvalues --   -1.12670  -1.12656  -1.12642  -1.12618  -1.12608
  Beta  occ. eigenvalues --   -0.18057  -0.13154  -0.11966
  Beta virt. eigenvalues --   -0.06798  -0.05824  -0.05284  -0.04311  -0.02526
  Beta virt. eigenvalues --   -0.02017  -0.01620  -0.01402  -0.01028  -0.00386
  Beta virt. eigenvalues --   -0.00296   0.00131   0.00380   0.00827   0.00877

 Mulliken charges and spin densities:
               1          2
     1  Na   0.290462  -0.047013
     2  Na   0.048998  -0.050239
     3  Na   0.103324  -0.087692
     4  Na  -0.492543   0.739162
     5  Na  -0.288207   0.536595
     6  Na   0.216872  -0.040485
     7  Na   0.121094  -0.050328
 Sum of Mulliken charges =  -0.00000   1.00000

 Dipole moment (field-independent basis, Debye):
    X=             -0.0328    Y=              0.0226    Z=              0.1094  Tot=              0.1165
 Quadrupole moment (field-independent basis, Debye-Ang):
   XX=            -53.7227   YY=            -65.0189   ZZ=            -74.5254
   XY=              0.1724   XZ=              0.6354   YZ=             -1.2132

 Normal termination of Gaussian 16 at Thu Dec  7 07:08:25 2023.
