 Gaussian 16, Revision B.01,
 Gaussian 16:  ES64L-G16RevB.01 20-Dec-2017

 -------------------------
 #P B3LYP/6-311+g(d) force
 -------------------------

 -----
 DPGEN
 -----
 Symbolic Z-matrix:
 Charge =  0 Multiplicity = 2

                         Standard orientation:
 ---------------------------------------------------------------------
 Center     Atomic      Atomic             Coordinates (Angstroms)
 Number     Number       Type             X           Y           Z
 ---------------------------------------------------------------------
      1         11           0        1.255432    2.537986   -1.069649
      2         11           0        0.246066   -1.654354    2.606720
      3         11           0        3.893017    0.210403    0.607951
      4         11           0        1.922045   -1.726283   -1.663232
      5         11           0       -3.646835   -1.535661   -1.081739
      6         11           0       -0.981925   -0.031478   -0.469489
      7         11           0       -2.687800    2.199386    1.069438
 ---------------------------------------------------------------------

 SCF Done:  E(UB3LYP) =  -1136.10241198     A.U. after   27 cycles

 The electronic state is 2-A.
 Alpha  occ. eigenvalues --  -38.45969 -38.44846 -38.44656 -38.44619 -38.44541
 Alpha  occ. eigenvalues --  -38.43705 -38.42751  -2.21698  -2.20610  -2.20445
 Alpha  occ. eigenvalues --   -2.20390  -2.20320  -2.19461  -2.18711  -1.15378
 Alpha  occ. eigenvalues --   -1.15350  -1.15339  -1.14300  -1.14262  -1.14235
 Alpha  occ. eigenvalues --   -1.14120  -1.14083  -1.14071  -1.14065  -1.14045
 Alpha  occ. eigenvalues --   -1.14010  -1.13963  -1.13943  -1.13931  -1.13169
 Alpha  occ. eigenvalues --   -1.13138  -1.13075  -1.12420  -1.12396  -1.12336
 Alpha  occ. eigenvalues --   -0.16875  -0.13274  -0.11246  -0.10704
 Alpha virt. eigenvalues --   -0.07162  -0.06251  -0.04138  -0.03441  -0.02748
 Alpha virt. eigenvalues --   -0.02502  -0.02211  -0.01605  -0.00833  -0.00494
 Alpha virt. eigenvalues --   -0.00280  -0.00123   0.00167   0.00309   0.00490

  Beta  occ. eigenvalues --  -38.45978 -38.44836 -38.44612 -38.44593 -38.44422
  Beta  occ. eigenvalues --  -38.43719 -38.42740  -2.21715  -2.20592  -2.20364
  Beta  occ. eigenvalues --   -2.20344  -2.20097  -2.19488  -2.18698  -1.15386
  Beta  occ. eigenvalues --   -1.15364  -1.15348  -1.14286  -1.14247  -1.14223
  Beta  occ. eigenvalues --   -1.14064  -1.14035  -1.14028  -1.14014  -1.14009
  Beta  occ. eigenvalues --   -1.13979  -1.13810  -1.13792  -1.13779  -1.13186
  Beta  occ. eigenvalues --   -1.13156  -1.13091  -1.12394  -1.12366  -1.12329
  Beta  occ. eigenvalues --   -0.16381  -0.13076  -0.10683
  Beta virt. eigenvalues --   -0.07266  -0.06907  -0.05961  -0.03765  -0.03013
  Beta virt. eigenvalues --   -0.02418  -0.02334  -0.01692  -0.01330  -0.00723
  Beta virt. eigenvalues --   -0.00297  -0.00157   0.00027   0.00224   0.00391

 Mulliken charges and spin densities:
               1          2
     1  Na   0.566564  -0.099225
     2  Na   0.038688   0.613455
     3  Na   0.157525  -0.022578
     4  Na   0.185916   0.004609
     5  Na   0.186483   0.216136
     6  Na  -1.758017   0.152395
     7  Na   0.622842   0.135208
 Sum of Mulliken charges =  -0.00000   1.00000

 Dipole moment (field-independent basis, Debye):
    X=              0.7426    Y=             -0.0711    Z=              0.3278  Tot=              0.8148
 Quadrupole moment (field-independent basis, Debye-Ang):
   XX=            -48.3725   YY=            -74.5471   ZZ=            -69.3262
   XY=             -0.2852   XZ=              0.1764   YZ=              3.4456

 Normal termination of Gaussian 16 at Tue Dec  5 19:25:16 2023.
