 Gaussian 16, Revision B.01,
 Gaussian 16:  ES64L-G16RevB.01 20-Dec-2017

 -------------------------
 #P B3LYP/6-311+g(d) force
 -------------------------

 -----
 DPGEN
 -----
 Symbolic Z-matrix:
 Charge =  0 Multiplicity = 2

                         Standard orientation:
 ---------------------------------------------------------------------
 Center     Atomic      Atomic             Coordinates (Angstroms)
 Number     Number       Type             X           Y           Z
 ---------------------------------------------------------------------
      1         11           0       -0.097525   -0.409851    2.012975
      2         11           0       -1.597185    2.588346    0.391681
      3         11           0       -2.821857   -0.567169   -0.200097
      4         11           0        2.036379    2.166918   -0.494181
      5         11           0        2.875169   -0.857155    0.295963
      6         11           0       -0.209125   -0.108530   -1.708818
      7         11           0       -0.185855   -2.812559   -0.297523
 ---------------------------------------------------------------------

 SCF Done:  E(UB3LYP) =  -1136.13695788     A.U. after   19 cycles

 The electronic state is 2-A.
 Alpha  occ. eigenvalues --  -38.43714 -38.43709 -38.43671 -38.43514 -38.43508
 Alpha  occ. eigenvalues --  -38.43390 -38.43300  -2.19626  -2.19623  -2.19526
 Alpha  occ. eigenvalues --   -2.19404  -2.19349  -2.19335  -2.19212  -1.13388
 Alpha  occ. eigenvalues --   -1.13313  -1.13289  -1.13257  -1.13244  -1.13239
 Alpha  occ. eigenvalues --   -1.13211  -1.13189  -1.13165  -1.13122  -1.13065
 Alpha  occ. eigenvalues --   -1.13030  -1.13007  -1.13001  -1.12990  -1.12987
 Alpha  occ. eigenvalues --   -1.12985  -1.12964  -1.12867  -1.12861  -1.12818
 Alpha  occ. eigenvalues --   -0.18945  -0.13054  -0.12520  -0.11100
 Alpha virt. eigenvalues --   -0.05270  -0.05051  -0.04742  -0.03289  -0.03046
 Alpha virt. eigenvalues --   -0.02754  -0.01256  -0.01062  -0.00270  -0.00075
 Alpha virt. eigenvalues --    0.00016   0.00375   0.00882   0.00909   0.00930

  Beta  occ. eigenvalues --  -38.43705 -38.43667 -38.43619 -38.43508 -38.43501
  Beta  occ. eigenvalues --  -38.43318 -38.43289  -2.19612  -2.19521  -2.19460
  Beta  occ. eigenvalues --   -2.19337  -2.19327  -2.19273  -2.19197  -1.13363
  Beta  occ. eigenvalues --   -1.13264  -1.13231  -1.13226  -1.13191  -1.13171
  Beta  occ. eigenvalues --   -1.13165  -1.13141  -1.13107  -1.13054  -1.13023
  Beta  occ. eigenvalues --   -1.12995  -1.12989  -1.12984  -1.12977  -1.12958
  Beta  occ. eigenvalues --   -1.12943  -1.12914  -1.12845  -1.12825  -1.12793
  Beta  occ. eigenvalues --   -0.18201  -0.12794  -0.12262
  Beta virt. eigenvalues --   -0.07164  -0.05252  -0.05005  -0.04679  -0.02492
  Beta virt. eigenvalues --   -0.02293  -0.01688  -0.01178  -0.00990  -0.00258
  Beta virt. eigenvalues --   -0.00134   0.00126   0.00401   0.00901   0.00917

 Mulliken charges and spin densities:
               1          2
     1  Na  -0.405018   0.694645
     2  Na  -0.128307   0.003130
     3  Na   0.314606  -0.034049
     4  Na   0.002783  -0.036284
     5  Na   0.046497  -0.020684
     6  Na  -0.135260   0.461425
     7  Na   0.304699  -0.068183
 Sum of Mulliken charges =  -0.00000   1.00000

 Dipole moment (field-independent basis, Debye):
    X=             -0.0476    Y=             -0.0407    Z=              0.2113  Tot=              0.2204
 Quadrupole moment (field-independent basis, Debye-Ang):
   XX=            -59.7910   YY=            -62.2539   ZZ=            -72.5433
   XY=             -0.3768   XZ=             -0.1805   YZ=              0.4974

 Normal termination of Gaussian 16 at Thu Dec  7 03:14:11 2023.
