 Gaussian 16, Revision B.01,
 Gaussian 16:  ES64L-G16RevB.01 20-Dec-2017

 -------------------------
 #P B3LYP/6-311+g(d) force
 -------------------------

 -----
 DPGEN
 -----
 Symbolic Z-matrix:
 Charge =  0 Multiplicity = 2

                         Standard orientation:
 ---------------------------------------------------------------------
 Center     Atomic      Atomic             Coordinates (Angstroms)
 Number     Number       Type             X           Y           Z
 ---------------------------------------------------------------------
      1         11           0        3.312563   -1.762163    0.115659
      2         11           0       -1.429008    0.701175   -1.365250
      3         11           0        1.991540    1.178559   -0.399188
      4         11           0       -0.351524   -2.336660   -0.847666
      5         11           0        0.361061    0.335151    1.700774
      6         11           0       -0.543610    3.518964    0.074073
      7         11           0       -3.341022   -1.635026    0.721598
 ---------------------------------------------------------------------

 SCF Done:  E(UB3LYP) =  -1136.12750898     A.U. after   20 cycles

 The electronic state is 2-A.
 Alpha  occ. eigenvalues --  -38.44119 -38.43930 -38.43897 -38.43888 -38.43844
 Alpha  occ. eigenvalues --  -38.43701 -38.43153  -2.19910  -2.19848  -2.19791
 Alpha  occ. eigenvalues --   -2.19731  -2.19722  -2.19556  -2.19082  -1.13835
 Alpha  occ. eigenvalues --   -1.13583  -1.13563  -1.13540  -1.13494  -1.13463
 Alpha  occ. eigenvalues --   -1.13433  -1.13412  -1.13402  -1.13385  -1.13384
 Alpha  occ. eigenvalues --   -1.13370  -1.13354  -1.13344  -1.13305  -1.13273
 Alpha  occ. eigenvalues --   -1.13227  -1.13146  -1.12787  -1.12741  -1.12671
 Alpha  occ. eigenvalues --   -0.18372  -0.13045  -0.12727  -0.10079
 Alpha virt. eigenvalues --   -0.06027  -0.05370  -0.04815  -0.03265  -0.02693
 Alpha virt. eigenvalues --   -0.01934  -0.01830  -0.01666  -0.00525  -0.00289
 Alpha virt. eigenvalues --    0.00094   0.00267   0.00733   0.00745   0.00790

  Beta  occ. eigenvalues --  -38.44100 -38.43933 -38.43887 -38.43832 -38.43826
  Beta  occ. eigenvalues --  -38.43679 -38.43105  -2.19874  -2.19795  -2.19739
  Beta  occ. eigenvalues --   -2.19723  -2.19696  -2.19518  -2.18996  -1.13779
  Beta  occ. eigenvalues --   -1.13559  -1.13529  -1.13518  -1.13460  -1.13433
  Beta  occ. eigenvalues --   -1.13403  -1.13397  -1.13379  -1.13370  -1.13367
  Beta  occ. eigenvalues --   -1.13357  -1.13317  -1.13290  -1.13274  -1.13243
  Beta  occ. eigenvalues --   -1.13184  -1.13120  -1.12729  -1.12664  -1.12610
  Beta  occ. eigenvalues --   -0.17695  -0.12798  -0.12553
  Beta virt. eigenvalues --   -0.06389  -0.05815  -0.05227  -0.04738  -0.02615
  Beta virt. eigenvalues --   -0.02144  -0.01791  -0.01550  -0.01074  -0.00495
  Beta virt. eigenvalues --   -0.00092   0.00179   0.00339   0.00758   0.00780

 Mulliken charges and spin densities:
               1          2
     1  Na   0.323317  -0.054665
     2  Na   0.014821   0.209987
     3  Na  -0.079322   0.203414
     4  Na  -0.212363   0.087921
     5  Na  -0.391145   0.533175
     6  Na   0.480243   0.016927
     7  Na  -0.135550   0.003240
 Sum of Mulliken charges =  -0.00000   1.00000

 Dipole moment (field-independent basis, Debye):
    X=             -0.1307    Y=              0.0890    Z=              0.1467  Tot=              0.2157
 Quadrupole moment (field-independent basis, Debye-Ang):
   XX=            -57.6048   YY=            -57.6316   ZZ=            -75.8993
   XY=             -2.4942   XZ=             -2.1662   YZ=             -0.3229

 Normal termination of Gaussian 16 at Tue Dec  5 22:05:32 2023.
