 Gaussian 16, Revision B.01,
 Gaussian 16:  ES64L-G16RevB.01 20-Dec-2017

 -------------------------
 #P B3LYP/6-311+g(d) force
 -------------------------

 -----
 DPGEN
 -----
 Symbolic Z-matrix:
 Charge =  0 Multiplicity = 2

                         Standard orientation:
 ---------------------------------------------------------------------
 Center     Atomic      Atomic             Coordinates (Angstroms)
 Number     Number       Type             X           Y           Z
 ---------------------------------------------------------------------
      1         11           0       -0.899004   -2.151457    0.243489
      2         11           0       -0.829609    1.123798    1.872360
      3         11           0        2.004600    2.151133   -0.273397
      4         11           0       -3.985331   -0.773880   -0.538572
      5         11           0       -1.669106    1.660225   -1.246236
      6         11           0        2.120746   -0.809444    1.511420
      7         11           0        3.257705   -1.200376   -1.569065
 ---------------------------------------------------------------------

 SCF Done:  E(UB3LYP) =  -1136.12706173     A.U. after   21 cycles

 The electronic state is 2-A.
 Alpha  occ. eigenvalues --  -38.44335 -38.44285 -38.43960 -38.43882 -38.43724
 Alpha  occ. eigenvalues --  -38.43721 -38.43688  -2.20139  -2.20090  -2.19835
 Alpha  occ. eigenvalues --   -2.19717  -2.19607  -2.19532  -2.19494  -1.13808
 Alpha  occ. eigenvalues --   -1.13793  -1.13775  -1.13750  -1.13730  -1.13722
 Alpha  occ. eigenvalues --   -1.13530  -1.13506  -1.13446  -1.13397  -1.13375
 Alpha  occ. eigenvalues --   -1.13315  -1.13289  -1.13276  -1.13250  -1.13218
 Alpha  occ. eigenvalues --   -1.13194  -1.13181  -1.13178  -1.13141  -1.13105
 Alpha  occ. eigenvalues --   -0.17784  -0.13907  -0.11328  -0.11227
 Alpha virt. eigenvalues --   -0.05975  -0.05503  -0.04977  -0.03246  -0.02753
 Alpha virt. eigenvalues --   -0.02582  -0.02111  -0.00982  -0.00751  -0.00287
 Alpha virt. eigenvalues --    0.00071   0.00227   0.00278   0.00457   0.00614

  Beta  occ. eigenvalues --  -38.44318 -38.44230 -38.43907 -38.43862 -38.43708
  Beta  occ. eigenvalues --  -38.43700 -38.43676  -2.20107  -2.19988  -2.19740
  Beta  occ. eigenvalues --   -2.19679  -2.19569  -2.19511  -2.19474  -1.13781
  Beta  occ. eigenvalues --   -1.13770  -1.13758  -1.13682  -1.13664  -1.13646
  Beta  occ. eigenvalues --   -1.13478  -1.13423  -1.13384  -1.13371  -1.13338
  Beta  occ. eigenvalues --   -1.13282  -1.13268  -1.13250  -1.13197  -1.13185
  Beta  occ. eigenvalues --   -1.13178  -1.13170  -1.13145  -1.13117  -1.13091
  Beta  occ. eigenvalues --   -0.17092  -0.13467  -0.11184
  Beta virt. eigenvalues --   -0.07578  -0.05772  -0.05297  -0.04352  -0.03133
  Beta virt. eigenvalues --   -0.02330  -0.01977  -0.01749  -0.00897  -0.00446
  Beta virt. eigenvalues --   -0.00099   0.00113   0.00311   0.00396   0.00541

 Mulliken charges and spin densities:
               1          2
     1  Na  -0.481328   0.060329
     2  Na   0.248856   0.194981
     3  Na  -0.324882   0.264360
     4  Na   0.354693  -0.026324
     5  Na  -0.200801   0.212785
     6  Na   0.328476   0.045317
     7  Na   0.074986   0.248552
 Sum of Mulliken charges =  -0.00000   1.00000

 Dipole moment (field-independent basis, Debye):
    X=             -0.4551    Y=              0.1487    Z=             -0.2048  Tot=              0.5207
 Quadrupole moment (field-independent basis, Debye-Ang):
   XX=            -56.7863   YY=            -75.0439   ZZ=            -64.9634
   XY=              0.7206   XZ=             -0.8169   YZ=              0.9418

 Normal termination of Gaussian 16 at Sun Dec  3 12:53:20 2023.
