 Gaussian 16, Revision B.01,
 Gaussian 16:  ES64L-G16RevB.01 20-Dec-2017

 -------------------------
 #P B3LYP/6-311+g(d) force
 -------------------------

 -----
 DPGEN
 -----
 Symbolic Z-matrix:
 Charge =  0 Multiplicity = 2

                         Standard orientation:
 ---------------------------------------------------------------------
 Center     Atomic      Atomic             Coordinates (Angstroms)
 Number     Number       Type             X           Y           Z
 ---------------------------------------------------------------------
      1         11           0       -1.087990   -0.628638    2.563075
      2         11           0        2.105204    1.445311    1.004633
      3         11           0       -1.875223   -2.775773   -0.573557
      4         11           0        0.989307   -1.120890   -1.280125
      5         11           0        4.354048   -0.607392   -0.354810
      6         11           0       -0.934723    3.025422   -0.923841
      7         11           0       -3.550624    0.661960   -0.435376
 ---------------------------------------------------------------------

 SCF Done:  E(UB3LYP) =  -1136.11719648     A.U. after   21 cycles

 The electronic state is 2-A.
 Alpha  occ. eigenvalues --  -38.45121 -38.45099 -38.44569 -38.44472 -38.44333
 Alpha  occ. eigenvalues --  -38.43340 -38.43255  -2.20910  -2.20858  -2.20358
 Alpha  occ. eigenvalues --   -2.20283  -2.20140  -2.19139  -2.19015  -1.14581
 Alpha  occ. eigenvalues --   -1.14571  -1.14547  -1.14542  -1.14508  -1.14482
 Alpha  occ. eigenvalues --   -1.14011  -1.13991  -1.13975  -1.13962  -1.13961
 Alpha  occ. eigenvalues --   -1.13896  -1.13827  -1.13804  -1.13760  -1.12819
 Alpha  occ. eigenvalues --   -1.12800  -1.12777  -1.12697  -1.12670  -1.12661
 Alpha  occ. eigenvalues --   -0.16938  -0.13641  -0.11556  -0.10914
 Alpha virt. eigenvalues --   -0.07166  -0.05531  -0.04429  -0.03634  -0.02881
 Alpha virt. eigenvalues --   -0.02609  -0.02476  -0.01363  -0.00731  -0.00609
 Alpha virt. eigenvalues --   -0.00319   0.00023   0.00187   0.00509   0.00760

  Beta  occ. eigenvalues --  -38.45122 -38.45076 -38.44457 -38.44448 -38.44316
  Beta  occ. eigenvalues --  -38.43336 -38.43252  -2.20911  -2.20816  -2.20241
  Beta  occ. eigenvalues --   -2.20149  -2.20110  -2.19132  -2.19010  -1.14577
  Beta  occ. eigenvalues --   -1.14572  -1.14547  -1.14504  -1.14482  -1.14451
  Beta  occ. eigenvalues --   -1.13939  -1.13934  -1.13867  -1.13865  -1.13850
  Beta  occ. eigenvalues --   -1.13816  -1.13807  -1.13774  -1.13739  -1.12811
  Beta  occ. eigenvalues --   -1.12789  -1.12770  -1.12693  -1.12669  -1.12651
  Beta  occ. eigenvalues --   -0.16392  -0.13442  -0.11339
  Beta virt. eigenvalues --   -0.07140  -0.06986  -0.05138  -0.04237  -0.03248
  Beta virt. eigenvalues --   -0.02573  -0.02207  -0.01791  -0.01198  -0.00684
  Beta virt. eigenvalues --   -0.00324  -0.00189   0.00101   0.00336   0.00589

 Mulliken charges and spin densities:
               1          2
     1  Na  -0.014542   0.487007
     2  Na  -0.327470   0.201203
     3  Na   0.466186   0.019520
     4  Na  -0.786893   0.197904
     5  Na   0.620244  -0.051655
     6  Na   0.134160  -0.080177
     7  Na  -0.091685   0.226197
 Sum of Mulliken charges =  -0.00000   1.00000

 Dipole moment (field-independent basis, Debye):
    X=              1.0744    Y=             -0.5176    Z=              0.0489  Tot=              1.1936
 Quadrupole moment (field-independent basis, Debye-Ang):
   XX=            -48.0063   YY=            -74.4274   ZZ=            -72.8820
   XY=              1.8493   XZ=             -0.9137   YZ=              0.5247

 Normal termination of Gaussian 16 at Sun Dec  3 13:25:21 2023.
