 Gaussian 16, Revision B.01,
 Gaussian 16:  ES64L-G16RevB.01 20-Dec-2017

 -------------------------
 #P B3LYP/6-311+g(d) force
 -------------------------

 -----
 DPGEN
 -----
 Symbolic Z-matrix:
 Charge =  0 Multiplicity = 2

                         Standard orientation:
 ---------------------------------------------------------------------
 Center     Atomic      Atomic             Coordinates (Angstroms)
 Number     Number       Type             X           Y           Z
 ---------------------------------------------------------------------
      1         11           0        0.472236   -2.859861    0.322932
      2         11           0        0.693269   -0.033413   -1.433029
      3         11           0        3.013115   -0.367941   -0.248108
      4         11           0       -2.776489    1.912053   -0.247653
      5         11           0       -0.138043    0.160014    1.891732
      6         11           0       -2.564722   -1.621217   -0.396834
      7         11           0        1.300633    2.810365    0.110960
 ---------------------------------------------------------------------

 SCF Done:  E(UB3LYP) =  -1136.12795822     A.U. after   21 cycles

 The electronic state is 2-A.
 Alpha  occ. eigenvalues --  -38.44352 -38.44153 -38.43926 -38.43795 -38.43521
 Alpha  occ. eigenvalues --  -38.43262 -38.43225  -2.20288  -2.19925  -2.19758
 Alpha  occ. eigenvalues --   -2.19625  -2.19582  -2.19147  -2.19144  -1.14269
 Alpha  occ. eigenvalues --   -1.13894  -1.13857  -1.13601  -1.13582  -1.13566
 Alpha  occ. eigenvalues --   -1.13451  -1.13429  -1.13380  -1.13301  -1.13290
 Alpha  occ. eigenvalues --   -1.13265  -1.13226  -1.13180  -1.13154  -1.12846
 Alpha  occ. eigenvalues --   -1.12812  -1.12808  -1.12782  -1.12761  -1.12746
 Alpha  occ. eigenvalues --   -0.18733  -0.13162  -0.12556  -0.10426
 Alpha virt. eigenvalues --   -0.05823  -0.05214  -0.04888  -0.03129  -0.02883
 Alpha virt. eigenvalues --   -0.02112  -0.01474  -0.01315  -0.00612  -0.00418
 Alpha virt. eigenvalues --    0.00037   0.00321   0.00798   0.00855   0.00871

  Beta  occ. eigenvalues --  -38.44337 -38.44149 -38.43920 -38.43786 -38.43470
  Beta  occ. eigenvalues --  -38.43252 -38.43134  -2.20265  -2.19919  -2.19750
  Beta  occ. eigenvalues --   -2.19611  -2.19491  -2.19132  -2.18977  -1.14239
  Beta  occ. eigenvalues --   -1.13852  -1.13847  -1.13591  -1.13577  -1.13561
  Beta  occ. eigenvalues --   -1.13445  -1.13403  -1.13376  -1.13289  -1.13269
  Beta  occ. eigenvalues --   -1.13255  -1.13157  -1.13113  -1.13094  -1.12817
  Beta  occ. eigenvalues --   -1.12781  -1.12766  -1.12713  -1.12645  -1.12629
  Beta  occ. eigenvalues --   -0.18047  -0.12862  -0.12328
  Beta virt. eigenvalues --   -0.06604  -0.05773  -0.05109  -0.04858  -0.02373
  Beta virt. eigenvalues --   -0.02139  -0.01390  -0.01267  -0.01136  -0.00625
  Beta virt. eigenvalues --   -0.00429   0.00167   0.00380   0.00807   0.00874

 Mulliken charges and spin densities:
               1          2
     1  Na   0.235739   0.069074
     2  Na  -0.553314   0.392628
     3  Na   0.844380   0.063073
     4  Na  -0.149949  -0.040827
     5  Na  -0.242220   0.618141
     6  Na  -0.113780   0.004977
     7  Na  -0.020857  -0.107067
 Sum of Mulliken charges =  -0.00000   1.00000

 Dipole moment (field-independent basis, Debye):
    X=              0.0005    Y=              0.3075    Z=              0.2264  Tot=              0.3819
 Quadrupole moment (field-independent basis, Debye-Ang):
   XX=            -58.0458   YY=            -59.0370   ZZ=            -75.9386
   XY=             -0.0390   XZ=              1.8145   YZ=             -0.4912

 Normal termination of Gaussian 16 at Fri Dec  8 01:06:47 2023.
