 Gaussian 16, Revision B.01,
 Gaussian 16:  ES64L-G16RevB.01 20-Dec-2017

 -------------------------
 #P B3LYP/6-311+g(d) force
 -------------------------

 -----
 DPGEN
 -----
 Symbolic Z-matrix:
 Charge =  0 Multiplicity = 2

                         Standard orientation:
 ---------------------------------------------------------------------
 Center     Atomic      Atomic             Coordinates (Angstroms)
 Number     Number       Type             X           Y           Z
 ---------------------------------------------------------------------
      1         11           0       -4.078078   -0.634256    1.598383
      2         11           0        4.003370   -1.275168    0.717020
      3         11           0        1.392622   -2.804971   -1.376876
      4         11           0       -1.729764   -1.826553    0.076932
      5         11           0        3.106999    2.231656    0.879612
      6         11           0       -0.186880    3.075870   -0.770194
      7         11           0       -2.508268    1.233422   -1.124876
 ---------------------------------------------------------------------

 SCF Done:  E(UB3LYP) =  -1136.11249358     A.U. after   21 cycles

 The electronic state is 2-A.
 Alpha  occ. eigenvalues --  -38.44799 -38.44631 -38.44592 -38.44550 -38.44344
 Alpha  occ. eigenvalues --  -38.43918 -38.43456  -2.20545  -2.20450  -2.20424
 Alpha  occ. eigenvalues --   -2.20389  -2.20208  -2.19704  -2.19275  -1.14231
 Alpha  occ. eigenvalues --   -1.14210  -1.14183  -1.14163  -1.14129  -1.14097
 Alpha  occ. eigenvalues --   -1.14080  -1.14078  -1.14065  -1.14044  -1.14034
 Alpha  occ. eigenvalues --   -1.14006  -1.13890  -1.13873  -1.13809  -1.13362
 Alpha  occ. eigenvalues --   -1.13358  -1.13327  -1.12966  -1.12927  -1.12904
 Alpha  occ. eigenvalues --   -0.16580  -0.13883  -0.12679  -0.11137
 Alpha virt. eigenvalues --   -0.06761  -0.05560  -0.04316  -0.03546  -0.03184
 Alpha virt. eigenvalues --   -0.02381  -0.01947  -0.01363  -0.01071  -0.00922
 Alpha virt. eigenvalues --   -0.00526  -0.00173  -0.00006   0.00471   0.00650

  Beta  occ. eigenvalues --  -38.44799 -38.44593 -38.44521 -38.44517 -38.44327
  Beta  occ. eigenvalues --  -38.43866 -38.43442  -2.20547  -2.20368  -2.20320
  Beta  occ. eigenvalues --   -2.20316  -2.20183  -2.19608  -2.19254  -1.14235
  Beta  occ. eigenvalues --   -1.14212  -1.14167  -1.14082  -1.14076  -1.14061
  Beta  occ. eigenvalues --   -1.14018  -1.14009  -1.14000  -1.13988  -1.13961
  Beta  occ. eigenvalues --   -1.13956  -1.13871  -1.13862  -1.13744  -1.13297
  Beta  occ. eigenvalues --   -1.13289  -1.13266  -1.12938  -1.12914  -1.12886
  Beta  occ. eigenvalues --   -0.15990  -0.13336  -0.12121
  Beta virt. eigenvalues --   -0.07821  -0.06677  -0.05053  -0.03999  -0.03279
  Beta virt. eigenvalues --   -0.02881  -0.02085  -0.01692  -0.01127  -0.00783
  Beta virt. eigenvalues --   -0.00582  -0.00388   0.00012   0.00179   0.00557

 Mulliken charges and spin densities:
               1          2
     1  Na   1.353147   0.334783
     2  Na   0.046532  -0.037436
     3  Na  -0.099854   0.011679
     4  Na  -1.380091   0.324354
     5  Na   0.034455   0.258889
     6  Na  -0.003782  -0.056898
     7  Na   0.049593   0.164629
 Sum of Mulliken charges =  -0.00000   1.00000

 Dipole moment (field-independent basis, Debye):
    X=             -0.6631    Y=             -0.1761    Z=              0.6089  Tot=              0.9173
 Quadrupole moment (field-independent basis, Debye-Ang):
   XX=            -58.4237   YY=            -71.5414   ZZ=            -68.2066
   XY=             -2.3719   XZ=             -0.4318   YZ=              1.2896

 Normal termination of Gaussian 16 at Sun Dec  3 23:04:45 2023.
