 Gaussian 16, Revision B.01,
 Gaussian 16:  ES64L-G16RevB.01 20-Dec-2017

 -------------------------
 #P B3LYP/6-311+g(d) force
 -------------------------

 -----
 DPGEN
 -----
 Symbolic Z-matrix:
 Charge =  0 Multiplicity = 2

                         Standard orientation:
 ---------------------------------------------------------------------
 Center     Atomic      Atomic             Coordinates (Angstroms)
 Number     Number       Type             X           Y           Z
 ---------------------------------------------------------------------
      1         11           0        2.504839    1.865815   -0.379939
      2         11           0       -3.719190   -0.733296   -0.433565
      3         11           0        0.893569    0.214596    1.884480
      4         11           0       -0.561771   -2.589871    0.819160
      5         11           0        2.491233   -1.818267   -0.663532
      6         11           0       -0.133107   -0.000755   -1.520700
      7         11           0       -1.475572    3.061779    0.294095
 ---------------------------------------------------------------------

 SCF Done:  E(UB3LYP) =  -1136.12907556     A.U. after   20 cycles

 The electronic state is 2-A.
 Alpha  occ. eigenvalues --  -38.44509 -38.44488 -38.44056 -38.43810 -38.43447
 Alpha  occ. eigenvalues --  -38.43445 -38.43281  -2.20242  -2.20226  -2.19897
 Alpha  occ. eigenvalues --   -2.19672  -2.19373  -2.19369  -2.19139  -1.13927
 Alpha  occ. eigenvalues --   -1.13905  -1.13899  -1.13878  -1.13875  -1.13863
 Alpha  occ. eigenvalues --   -1.13597  -1.13573  -1.13509  -1.13367  -1.13321
 Alpha  occ. eigenvalues --   -1.13306  -1.13090  -1.13041  -1.13019  -1.13010
 Alpha  occ. eigenvalues --   -1.12987  -1.12969  -1.12822  -1.12798  -1.12750
 Alpha  occ. eigenvalues --   -0.18223  -0.12596  -0.12272  -0.10655
 Alpha virt. eigenvalues --   -0.06252  -0.05445  -0.04548  -0.03002  -0.02878
 Alpha virt. eigenvalues --   -0.02386  -0.01780  -0.01469  -0.00689  -0.00402
 Alpha virt. eigenvalues --   -0.00036   0.00305   0.00546   0.00710   0.00766

  Beta  occ. eigenvalues --  -38.44510 -38.44484 -38.44046 -38.43790 -38.43395
  Beta  occ. eigenvalues --  -38.43365 -38.43258  -2.20245  -2.20219  -2.19882
  Beta  occ. eigenvalues --   -2.19639  -2.19282  -2.19218  -2.19100  -1.13922
  Beta  occ. eigenvalues --   -1.13902  -1.13895  -1.13877  -1.13874  -1.13859
  Beta  occ. eigenvalues --   -1.13585  -1.13550  -1.13491  -1.13338  -1.13296
  Beta  occ. eigenvalues --   -1.13267  -1.13022  -1.12953  -1.12943  -1.12914
  Beta  occ. eigenvalues --   -1.12910  -1.12861  -1.12787  -1.12758  -1.12717
  Beta  occ. eigenvalues --   -0.17498  -0.12371  -0.12055
  Beta virt. eigenvalues --   -0.06804  -0.06162  -0.05323  -0.04454  -0.02387
  Beta virt. eigenvalues --   -0.02258  -0.01736  -0.01476  -0.01263  -0.00674
  Beta virt. eigenvalues --   -0.00338   0.00101   0.00357   0.00628   0.00764

 Mulliken charges and spin densities:
               1          2
     1  Na   0.015457  -0.044195
     2  Na  -0.066766  -0.022333
     3  Na   0.225358   0.529455
     4  Na  -0.203986   0.106152
     5  Na   0.218830   0.133799
     6  Na   0.159320   0.372299
     7  Na  -0.348213  -0.075177
 Sum of Mulliken charges =  -0.00000   1.00000

 Dipole moment (field-independent basis, Debye):
    X=             -0.0077    Y=              0.3269    Z=             -0.0079  Tot=              0.3271
 Quadrupole moment (field-independent basis, Debye-Ang):
   XX=            -55.1878   YY=            -62.2036   ZZ=            -74.6711
   XY=             -0.7197   XZ=             -1.7727   YZ=              0.1062

 Normal termination of Gaussian 16 at Tue Dec  5 12:43:38 2023.
