 Gaussian 16, Revision B.01,
 Gaussian 16:  ES64L-G16RevB.01 20-Dec-2017

 -------------------------
 #P B3LYP/6-311+g(d) force
 -------------------------

 -----
 DPGEN
 -----
 Symbolic Z-matrix:
 Charge =  0 Multiplicity = 2

                         Standard orientation:
 ---------------------------------------------------------------------
 Center     Atomic      Atomic             Coordinates (Angstroms)
 Number     Number       Type             X           Y           Z
 ---------------------------------------------------------------------
      1         11           0       -3.064568    0.676636   -0.284619
      2         11           0       -0.095050   -0.245943    2.027229
      3         11           0        2.082839   -2.092076   -0.145318
      4         11           0        2.890160    1.359046   -0.205829
      5         11           0       -0.198108    2.573233    0.219498
      6         11           0       -0.217915   -0.155717   -1.686897
      7         11           0       -1.397358   -2.115179    0.075936
 ---------------------------------------------------------------------

 SCF Done:  E(UB3LYP) =  -1136.13328274     A.U. after   19 cycles

 The electronic state is 2-A.
 Alpha  occ. eigenvalues --  -38.43912 -38.43892 -38.43727 -38.43464 -38.43463
 Alpha  occ. eigenvalues --  -38.43251 -38.42949  -2.19790  -2.19712  -2.19684
 Alpha  occ. eigenvalues --   -2.19504  -2.19322  -2.19252  -2.18848  -1.13488
 Alpha  occ. eigenvalues --   -1.13451  -1.13434  -1.13408  -1.13382  -1.13373
 Alpha  occ. eigenvalues --   -1.13363  -1.13326  -1.13301  -1.13277  -1.13150
 Alpha  occ. eigenvalues --   -1.13110  -1.12991  -1.12982  -1.12957  -1.12911
 Alpha  occ. eigenvalues --   -1.12880  -1.12817  -1.12539  -1.12520  -1.12464
 Alpha  occ. eigenvalues --   -0.19292  -0.13194  -0.12463  -0.11145
 Alpha virt. eigenvalues --   -0.05598  -0.05098  -0.04195  -0.03241  -0.02958
 Alpha virt. eigenvalues --   -0.02740  -0.01603  -0.00959  -0.00090   0.00014
 Alpha virt. eigenvalues --    0.00055   0.00341   0.00813   0.00925   0.00966

  Beta  occ. eigenvalues --  -38.43905 -38.43893 -38.43626 -38.43459 -38.43396
  Beta  occ. eigenvalues --  -38.43235 -38.42941  -2.19781  -2.19714  -2.19500
  Beta  occ. eigenvalues --   -2.19380  -2.19318  -2.19230  -2.18836  -1.13474
  Beta  occ. eigenvalues --   -1.13440  -1.13410  -1.13380  -1.13368  -1.13364
  Beta  occ. eigenvalues --   -1.13305  -1.13229  -1.13190  -1.13149  -1.13062
  Beta  occ. eigenvalues --   -1.13036  -1.12971  -1.12958  -1.12951  -1.12876
  Beta  occ. eigenvalues --   -1.12821  -1.12806  -1.12533  -1.12480  -1.12462
  Beta  occ. eigenvalues --   -0.18527  -0.12940  -0.12195
  Beta virt. eigenvalues --   -0.07148  -0.05547  -0.05096  -0.04188  -0.02464
  Beta virt. eigenvalues --   -0.02122  -0.01647  -0.01507  -0.00926  -0.00047
  Beta virt. eigenvalues --   -0.00023   0.00115   0.00366   0.00873   0.00909

 Mulliken charges and spin densities:
               1          2
     1  Na   0.279656  -0.016164
     2  Na  -0.574467   0.640989
     3  Na   0.148359  -0.093116
     4  Na  -0.095812  -0.085901
     5  Na   0.172046  -0.022297
     6  Na  -0.651674   0.565258
     7  Na   0.721892   0.011232
 Sum of Mulliken charges =  -0.00000   1.00000

 Dipole moment (field-independent basis, Debye):
    X=              0.1029    Y=              0.0579    Z=              0.0867  Tot=              0.1464
 Quadrupole moment (field-independent basis, Debye-Ang):
   XX=            -54.8377   YY=            -66.7149   ZZ=            -72.4397
   XY=             -1.0906   XZ=             -0.1572   YZ=              0.0168

 Normal termination of Gaussian 16 at Thu Dec  7 14:53:28 2023.
