 Gaussian 16, Revision B.01,
 Gaussian 16:  ES64L-G16RevB.01 20-Dec-2017

 -------------------------
 #P B3LYP/6-311+g(d) force
 -------------------------

 -----
 DPGEN
 -----
 Symbolic Z-matrix:
 Charge =  0 Multiplicity = 2

                         Standard orientation:
 ---------------------------------------------------------------------
 Center     Atomic      Atomic             Coordinates (Angstroms)
 Number     Number       Type             X           Y           Z
 ---------------------------------------------------------------------
      1         11           0       -0.021307    0.378529    1.839031
      2         11           0        3.160024    1.479327   -0.063818
      3         11           0       -0.946844    2.792639   -0.021184
      4         11           0       -1.048257   -2.489237    0.406822
      5         11           0        2.345963   -2.117808   -0.262551
      6         11           0       -0.295575    0.068213   -1.656070
      7         11           0       -3.194003   -0.111663   -0.242231
 ---------------------------------------------------------------------

 SCF Done:  E(UB3LYP) =  -1136.13343614     A.U. after   20 cycles

 The electronic state is 2-A.
 Alpha  occ. eigenvalues --  -38.44674 -38.44265 -38.43832 -38.43521 -38.43303
 Alpha  occ. eigenvalues --  -38.43224 -38.42945  -2.20425  -2.20133  -2.19635
 Alpha  occ. eigenvalues --   -2.19384  -2.19274  -2.19160  -2.18851  -1.14107
 Alpha  occ. eigenvalues --   -1.14076  -1.14066  -1.13824  -1.13791  -1.13763
 Alpha  occ. eigenvalues --   -1.13312  -1.13297  -1.13274  -1.13114  -1.13078
 Alpha  occ. eigenvalues --   -1.12994  -1.12966  -1.12899  -1.12887  -1.12834
 Alpha  occ. eigenvalues --   -1.12791  -1.12764  -1.12530  -1.12505  -1.12485
 Alpha  occ. eigenvalues --   -0.18648  -0.13044  -0.12355  -0.10517
 Alpha virt. eigenvalues --   -0.06176  -0.05283  -0.04427  -0.03068  -0.02839
 Alpha virt. eigenvalues --   -0.02287  -0.01887  -0.01190  -0.00561  -0.00288
 Alpha virt. eigenvalues --    0.00002   0.00315   0.00736   0.00826   0.00875

  Beta  occ. eigenvalues --  -38.44676 -38.44255 -38.43829 -38.43512 -38.43238
  Beta  occ. eigenvalues --  -38.43136 -38.42931  -2.20430  -2.20118  -2.19632
  Beta  occ. eigenvalues --   -2.19374  -2.19156  -2.18999  -2.18830  -1.14102
  Beta  occ. eigenvalues --   -1.14079  -1.14071  -1.13811  -1.13763  -1.13749
  Beta  occ. eigenvalues --   -1.13302  -1.13289  -1.13275  -1.13101  -1.13035
  Beta  occ. eigenvalues --   -1.12989  -1.12886  -1.12820  -1.12797  -1.12729
  Beta  occ. eigenvalues --   -1.12677  -1.12650  -1.12516  -1.12477  -1.12456
  Beta  occ. eigenvalues --   -0.17919  -0.12818  -0.12104
  Beta virt. eigenvalues --   -0.06620  -0.06148  -0.05233  -0.04404  -0.02362
  Beta virt. eigenvalues --   -0.02057  -0.01809  -0.01246  -0.01128  -0.00614
  Beta virt. eigenvalues --   -0.00295   0.00135   0.00353   0.00756   0.00867

 Mulliken charges and spin densities:
               1          2
     1  Na  -0.154571   0.652362
     2  Na  -0.084257  -0.123011
     3  Na   0.039289  -0.183725
     4  Na   0.095933   0.047953
     5  Na  -0.073485  -0.047370
     6  Na  -0.226790   0.619751
     7  Na   0.403880   0.034040
 Sum of Mulliken charges =  -0.00000   1.00000

 Dipole moment (field-independent basis, Debye):
    X=              0.2095    Y=              0.3419    Z=             -0.0220  Tot=              0.4015
 Quadrupole moment (field-independent basis, Debye-Ang):
   XX=            -53.0228   YY=            -63.3669   ZZ=            -75.7398
   XY=              0.4129   XZ=             -0.4476   YZ=             -0.5540

 Normal termination of Gaussian 16 at Tue Dec  5 17:30:02 2023.
