 Gaussian 16, Revision B.01,
 Gaussian 16:  ES64L-G16RevB.01 20-Dec-2017

 -------------------------
 #P B3LYP/6-311+g(d) force
 -------------------------

 -----
 DPGEN
 -----
 Symbolic Z-matrix:
 Charge =  0 Multiplicity = 2

                         Standard orientation:
 ---------------------------------------------------------------------
 Center     Atomic      Atomic             Coordinates (Angstroms)
 Number     Number       Type             X           Y           Z
 ---------------------------------------------------------------------
      1         11           0        8.582531    0.189049   -0.042534
      2         11           0        5.568213    0.310244   -0.300593
      3         11           0       -4.630114    2.086243    0.142234
      4         11           0       -6.656069   -0.186043   -0.911867
      5         11           0        1.980262   -0.824016   -0.351532
      6         11           0       -0.834622    0.121236    1.006481
      7         11           0       -4.010200   -1.696714    0.457811
 ---------------------------------------------------------------------

 SCF Done:  E(UB3LYP) =  -1136.10537623     A.U. after   30 cycles

 The electronic state is 2-A.
 Alpha  occ. eigenvalues --  -38.45851 -38.45495 -38.44336 -38.44184 -38.43994
 Alpha  occ. eigenvalues --  -38.43907 -38.43444  -2.21660  -2.21309  -2.20179
 Alpha  occ. eigenvalues --   -2.19979  -2.19801  -2.19691  -2.19249  -1.15323
 Alpha  occ. eigenvalues --   -1.15312  -1.15285  -1.14975  -1.14973  -1.14951
 Alpha  occ. eigenvalues --   -1.13839  -1.13816  -1.13794  -1.13640  -1.13636
 Alpha  occ. eigenvalues --   -1.13620  -1.13490  -1.13441  -1.13441  -1.13373
 Alpha  occ. eigenvalues --   -1.13365  -1.13332  -1.12914  -1.12913  -1.12895
 Alpha  occ. eigenvalues --   -0.16496  -0.14045  -0.12422  -0.10481
 Alpha virt. eigenvalues --   -0.08105  -0.05472  -0.04038  -0.03737  -0.02937
 Alpha virt. eigenvalues --   -0.02757  -0.02455  -0.02210  -0.01306  -0.00933
 Alpha virt. eigenvalues --   -0.00898  -0.00235  -0.00031   0.00170   0.00295

  Beta  occ. eigenvalues --  -38.45791 -38.45496 -38.44251 -38.44143 -38.43965
  Beta  occ. eigenvalues --  -38.43919 -38.43447  -2.21550  -2.21317  -2.20021
  Beta  occ. eigenvalues --   -2.19903  -2.19747  -2.19719  -2.19258  -1.15247
  Beta  occ. eigenvalues --   -1.15239  -1.15197  -1.14983  -1.14967  -1.14936
  Beta  occ. eigenvalues --   -1.13731  -1.13709  -1.13692  -1.13591  -1.13585
  Beta  occ. eigenvalues --   -1.13573  -1.13457  -1.13404  -1.13404  -1.13394
  Beta  occ. eigenvalues --   -1.13384  -1.13323  -1.12923  -1.12923  -1.12876
  Beta  occ. eigenvalues --   -0.15927  -0.13645  -0.12144
  Beta virt. eigenvalues --   -0.07826  -0.06968  -0.05149  -0.03891  -0.03530
  Beta virt. eigenvalues --   -0.02550  -0.02256  -0.02142  -0.02102  -0.01221
  Beta virt. eigenvalues --   -0.00718  -0.00540   0.00027   0.00115   0.00362

 Mulliken charges and spin densities:
               1          2
     1  Na   0.465858   0.145927
     2  Na  -1.038354   0.007308
     3  Na   0.026060   0.340057
     4  Na   0.380658   0.024177
     5  Na   0.806450   0.141187
     6  Na  -0.704658  -0.012689
     7  Na   0.063986   0.354033
 Sum of Mulliken charges =  -0.00000   1.00000

 Dipole moment (field-independent basis, Debye):
    X=             -3.1843    Y=              0.1034    Z=             -0.2939  Tot=              3.1995
 Quadrupole moment (field-independent basis, Debye-Ang):
   XX=            -49.1633   YY=            -69.9247   ZZ=            -72.4816
   XY=              2.7521   XZ=              3.8295   YZ=              4.2951

 Normal termination of Gaussian 16 at Mon Dec  4 05:34:06 2023.
