 Gaussian 16, Revision B.01,
 Gaussian 16:  ES64L-G16RevB.01 20-Dec-2017

 -------------------------
 #P B3LYP/6-311+g(d) force
 -------------------------

 -----
 DPGEN
 -----
 Symbolic Z-matrix:
 Charge =  0 Multiplicity = 2

                         Standard orientation:
 ---------------------------------------------------------------------
 Center     Atomic      Atomic             Coordinates (Angstroms)
 Number     Number       Type             X           Y           Z
 ---------------------------------------------------------------------
      1         11           0        2.353207   -1.906328   -0.191673
      2         11           0       -0.459081    2.830967   -0.285678
      3         11           0        3.173446    1.210363    0.023901
      4         11           0       -0.290646   -0.054808   -1.729042
      5         11           0       -1.267983   -2.533704   -0.037245
      6         11           0        0.020797    0.089214    2.120631
      7         11           0       -3.529739    0.364297    0.099107
 ---------------------------------------------------------------------

 SCF Done:  E(UB3LYP) =  -1136.13264567     A.U. after   20 cycles

 The electronic state is 2-A.
 Alpha  occ. eigenvalues --  -38.45164 -38.44407 -38.43863 -38.43580 -38.43406
 Alpha  occ. eigenvalues --  -38.43229 -38.43121  -2.20924  -2.20200  -2.19712
 Alpha  occ. eigenvalues --   -2.19423  -2.19350  -2.19051  -2.18982  -1.14602
 Alpha  occ. eigenvalues --   -1.14576  -1.14563  -1.13885  -1.13867  -1.13833
 Alpha  occ. eigenvalues --   -1.13379  -1.13343  -1.13326  -1.13104  -1.13085
 Alpha  occ. eigenvalues --   -1.13067  -1.13040  -1.13030  -1.12956  -1.12743
 Alpha  occ. eigenvalues --   -1.12715  -1.12671  -1.12663  -1.12645  -1.12596
 Alpha  occ. eigenvalues --   -0.18247  -0.13110  -0.11990  -0.10684
 Alpha virt. eigenvalues --   -0.06529  -0.05054  -0.04321  -0.03259  -0.02757
 Alpha virt. eigenvalues --   -0.02641  -0.02167  -0.01115  -0.00453  -0.00339
 Alpha virt. eigenvalues --   -0.00085   0.00308   0.00693   0.00740   0.00836

  Beta  occ. eigenvalues --  -38.45164 -38.44408 -38.43766 -38.43576 -38.43338
  Beta  occ. eigenvalues --  -38.43221 -38.43114  -2.20928  -2.20205  -2.19534
  Beta  occ. eigenvalues --   -2.19418  -2.19225  -2.19039  -2.18974  -1.14588
  Beta  occ. eigenvalues --   -1.14580  -1.14568  -1.13890  -1.13854  -1.13838
  Beta  occ. eigenvalues --   -1.13261  -1.13217  -1.13199  -1.13097  -1.13065
  Beta  occ. eigenvalues --   -1.13062  -1.12961  -1.12944  -1.12869  -1.12725
  Beta  occ. eigenvalues --   -1.12689  -1.12659  -1.12658  -1.12614  -1.12593
  Beta  occ. eigenvalues --   -0.17511  -0.12953  -0.11739
  Beta virt. eigenvalues --   -0.06780  -0.06445  -0.05088  -0.04265  -0.02544
  Beta virt. eigenvalues --   -0.02062  -0.01953  -0.01573  -0.01078  -0.00476
  Beta virt. eigenvalues --   -0.00393   0.00072   0.00328   0.00792   0.00835

 Mulliken charges and spin densities:
               1          2
     1  Na   0.145967  -0.043891
     2  Na   0.002415  -0.145911
     3  Na   0.068836  -0.059497
     4  Na  -0.032702   0.553924
     5  Na   0.172112  -0.052349
     6  Na  -0.485153   0.818311
     7  Na   0.128524  -0.070587
 Sum of Mulliken charges =  -0.00000   1.00000

 Dipole moment (field-independent basis, Debye):
    X=             -0.4184    Y=              0.1908    Z=              0.1814  Tot=              0.4943
 Quadrupole moment (field-independent basis, Debye-Ang):
   XX=            -50.5777   YY=            -67.1265   ZZ=            -74.9124
   XY=              0.2684   XZ=             -0.7609   YZ=             -0.0636

 Normal termination of Gaussian 16 at Thu Dec  7 05:53:04 2023.
