 Gaussian 16, Revision B.01,
 Gaussian 16:  ES64L-G16RevB.01 20-Dec-2017

 -------------------------
 #P B3LYP/6-311+g(d) force
 -------------------------

 -----
 DPGEN
 -----
 Symbolic Z-matrix:
 Charge =  0 Multiplicity = 2

                         Standard orientation:
 ---------------------------------------------------------------------
 Center     Atomic      Atomic             Coordinates (Angstroms)
 Number     Number       Type             X           Y           Z
 ---------------------------------------------------------------------
      1         11           0        0.319333   -0.398028   -1.630946
      2         11           0        1.845818   -1.894092    0.834886
      3         11           0        3.646704    0.394567   -0.878373
      4         11           0        1.368905    1.363424    0.964331
      5         11           0       -2.106689    2.247247   -0.109285
      6         11           0       -3.561809   -1.201023   -0.913253
      7         11           0       -1.512260   -0.512095    1.732641
 ---------------------------------------------------------------------

 SCF Done:  E(UB3LYP) =  -1136.12001817     A.U. after   33 cycles

 The electronic state is 2-A.
 Alpha  occ. eigenvalues --  -38.45053 -38.44769 -38.44194 -38.43950 -38.43715
 Alpha  occ. eigenvalues --  -38.43327 -38.42766  -2.20934  -2.20655  -2.19973
 Alpha  occ. eigenvalues --   -2.19845  -2.19624  -2.19145  -2.18731  -1.14618
 Alpha  occ. eigenvalues --   -1.14584  -1.14550  -1.14377  -1.14305  -1.14254
 Alpha  occ. eigenvalues --   -1.13659  -1.13630  -1.13620  -1.13533  -1.13491
 Alpha  occ. eigenvalues --   -1.13462  -1.13313  -1.13279  -1.13236  -1.12832
 Alpha  occ. eigenvalues --   -1.12809  -1.12767  -1.12435  -1.12406  -1.12336
 Alpha  occ. eigenvalues --   -0.18828  -0.14337  -0.11353  -0.10570
 Alpha virt. eigenvalues --   -0.06911  -0.05263  -0.04925  -0.03027  -0.02708
 Alpha virt. eigenvalues --   -0.02288  -0.02148  -0.01104  -0.00944  -0.00179
 Alpha virt. eigenvalues --    0.00107   0.00231   0.00286   0.00577   0.00746

  Beta  occ. eigenvalues --  -38.45018 -38.44727 -38.44198 -38.43902 -38.43670
  Beta  occ. eigenvalues --  -38.43328 -38.42741  -2.20872  -2.20580  -2.19982
  Beta  occ. eigenvalues --   -2.19759  -2.19545  -2.19147  -2.18691  -1.14576
  Beta  occ. eigenvalues --   -1.14531  -1.14508  -1.14317  -1.14251  -1.14194
  Beta  occ. eigenvalues --   -1.13665  -1.13633  -1.13621  -1.13475  -1.13412
  Beta  occ. eigenvalues --   -1.13404  -1.13261  -1.13217  -1.13160  -1.12827
  Beta  occ. eigenvalues --   -1.12813  -1.12767  -1.12413  -1.12331  -1.12318
  Beta  occ. eigenvalues --   -0.18033  -0.14154  -0.10411
  Beta virt. eigenvalues --   -0.07444  -0.06674  -0.05152  -0.04316  -0.02718
  Beta virt. eigenvalues --   -0.02508  -0.01730  -0.01500  -0.00916  -0.00625
  Beta virt. eigenvalues --   -0.00117   0.00152   0.00255   0.00383   0.00660

 Mulliken charges and spin densities:
               1          2
     1  Na  -0.577052   0.302332
     2  Na  -0.134785   0.262704
     3  Na   1.018730   0.112190
     4  Na  -0.515157   0.179303
     5  Na  -0.133167   0.082486
     6  Na  -0.023275   0.036914
     7  Na   0.364706   0.024071
 Sum of Mulliken charges =  -0.00000   1.00000

 Dipole moment (field-independent basis, Debye):
    X=              0.6763    Y=             -0.0520    Z=             -0.3748  Tot=              0.7750
 Quadrupole moment (field-independent basis, Debye-Ang):
   XX=            -48.4373   YY=            -77.5526   ZZ=            -68.1359
   XY=             -1.0775   XZ=             -0.6223   YZ=             -3.6495

 Normal termination of Gaussian 16 at Tue Dec  5 22:41:50 2023.
