 Gaussian 16, Revision B.01,
 Gaussian 16:  ES64L-G16RevB.01 20-Dec-2017

 -------------------------
 #P B3LYP/6-311+g(d) force
 -------------------------

 -----
 DPGEN
 -----
 Symbolic Z-matrix:
 Charge =  0 Multiplicity = 2

                         Standard orientation:
 ---------------------------------------------------------------------
 Center     Atomic      Atomic             Coordinates (Angstroms)
 Number     Number       Type             X           Y           Z
 ---------------------------------------------------------------------
      1         11           0       -0.023511    0.118386   -1.595127
      2         11           0       -2.756217    1.672504   -0.484023
      3         11           0        1.833261   -2.129867   -0.463528
      4         11           0        0.525539    2.490457    0.686500
      5         11           0       -2.401168   -2.095868   -0.021768
      6         11           0        2.956367    0.701582   -0.220894
      7         11           0       -0.134271   -0.757193    2.098840
 ---------------------------------------------------------------------

 SCF Done:  E(UB3LYP) =  -1136.13275173     A.U. after   19 cycles

 The electronic state is 2-A.
 Alpha  occ. eigenvalues --  -38.43979 -38.43978 -38.43857 -38.43792 -38.43573
 Alpha  occ. eigenvalues --  -38.43333 -38.42979  -2.19793  -2.19781  -2.19774
 Alpha  occ. eigenvalues --   -2.19674  -2.19481  -2.19339  -2.18877  -1.13494
 Alpha  occ. eigenvalues --   -1.13481  -1.13474  -1.13456  -1.13449  -1.13442
 Alpha  occ. eigenvalues --   -1.13428  -1.13417  -1.13408  -1.13332  -1.13308
 Alpha  occ. eigenvalues --   -1.13284  -1.13207  -1.13125  -1.13085  -1.13020
 Alpha  occ. eigenvalues --   -1.12963  -1.12953  -1.12559  -1.12532  -1.12504
 Alpha  occ. eigenvalues --   -0.18818  -0.13249  -0.12225  -0.11124
 Alpha virt. eigenvalues --   -0.05572  -0.05473  -0.04067  -0.03404  -0.03072
 Alpha virt. eigenvalues --   -0.02693  -0.01578  -0.01166  -0.00172  -0.00135
 Alpha virt. eigenvalues --    0.00066   0.00339   0.00756   0.00837   0.00958

  Beta  occ. eigenvalues --  -38.43977 -38.43969 -38.43852 -38.43700 -38.43559
  Beta  occ. eigenvalues --  -38.43277 -38.42960  -2.19784  -2.19775  -2.19769
  Beta  occ. eigenvalues --   -2.19504  -2.19458  -2.19237  -2.18844  -1.13486
  Beta  occ. eigenvalues --   -1.13463  -1.13458  -1.13455  -1.13442  -1.13430
  Beta  occ. eigenvalues --   -1.13424  -1.13404  -1.13388  -1.13225  -1.13196
  Beta  occ. eigenvalues --   -1.13174  -1.13161  -1.13103  -1.13058  -1.12949
  Beta  occ. eigenvalues --   -1.12899  -1.12875  -1.12540  -1.12503  -1.12466
  Beta  occ. eigenvalues --   -0.18095  -0.12961  -0.11992
  Beta virt. eigenvalues --   -0.07205  -0.05548  -0.05383  -0.03995  -0.02635
  Beta virt. eigenvalues --   -0.02354  -0.01685  -0.01449  -0.01114  -0.00202
  Beta virt. eigenvalues --   -0.00027   0.00119   0.00376   0.00817   0.00863

 Mulliken charges and spin densities:
               1          2
     1  Na  -0.370366   0.186719
     2  Na   0.051753   0.024781
     3  Na   0.428914   0.028281
     4  Na   0.167180   0.213887
     5  Na   0.070672  -0.063893
     6  Na   0.128173   0.060073
     7  Na  -0.476326   0.550154
 Sum of Mulliken charges =  -0.00000   1.00000

 Dipole moment (field-independent basis, Debye):
    X=             -0.3366    Y=             -0.2385    Z=              0.1083  Tot=              0.4265
 Quadrupole moment (field-independent basis, Debye-Ang):
   XX=            -55.9187   YY=            -66.0762   ZZ=            -72.3025
   XY=              0.1547   XZ=              0.5325   YZ=              1.2615

 Normal termination of Gaussian 16 at Thu Dec  7 20:13:06 2023.
