 Gaussian 16, Revision B.01,
 Gaussian 16:  ES64L-G16RevB.01 20-Dec-2017

 -------------------------
 #P B3LYP/6-311+g(d) force
 -------------------------

 -----
 DPGEN
 -----
 Symbolic Z-matrix:
 Charge =  0 Multiplicity = 2

                         Standard orientation:
 ---------------------------------------------------------------------
 Center     Atomic      Atomic             Coordinates (Angstroms)
 Number     Number       Type             X           Y           Z
 ---------------------------------------------------------------------
      1         11           0       -2.119303   -2.495065    0.819151
      2         11           0       -0.913926   -0.234671   -1.945175
      3         11           0       -3.132257    1.389808   -0.638501
      4         11           0        0.182425    3.001402    0.632934
      5         11           0        0.350772   -0.718678    2.417120
      6         11           0        2.348958   -1.767002   -1.301221
      7         11           0        3.283331    0.824206    0.015693
 ---------------------------------------------------------------------

 SCF Done:  E(UB3LYP) =  -1136.11966024     A.U. after   22 cycles

 The electronic state is 2-A.
 Alpha  occ. eigenvalues --  -38.45039 -38.44449 -38.44222 -38.44149 -38.44144
 Alpha  occ. eigenvalues --  -38.43863 -38.43647  -2.20834  -2.20303  -2.20032
 Alpha  occ. eigenvalues --   -2.19980  -2.19958  -2.19641  -2.19404  -1.14492
 Alpha  occ. eigenvalues --   -1.14473  -1.14447  -1.14028  -1.13956  -1.13923
 Alpha  occ. eigenvalues --   -1.13764  -1.13706  -1.13671  -1.13642  -1.13641
 Alpha  occ. eigenvalues --   -1.13623  -1.13602  -1.13586  -1.13539  -1.13319
 Alpha  occ. eigenvalues --   -1.13298  -1.13281  -1.13089  -1.13070  -1.13028
 Alpha  occ. eigenvalues --   -0.17277  -0.13167  -0.11887  -0.11655
 Alpha virt. eigenvalues --   -0.05860  -0.05405  -0.04884  -0.03448  -0.03378
 Alpha virt. eigenvalues --   -0.03031  -0.01627  -0.01119  -0.00581  -0.00365
 Alpha virt. eigenvalues --   -0.00197   0.00327   0.00436   0.00550   0.00643

  Beta  occ. eigenvalues --  -38.44949 -38.44398 -38.44214 -38.44152 -38.44103
  Beta  occ. eigenvalues --  -38.43854 -38.43634  -2.20667  -2.20209  -2.20018
  Beta  occ. eigenvalues --   -2.19969  -2.19904  -2.19628  -2.19380  -1.14380
  Beta  occ. eigenvalues --   -1.14362  -1.14319  -1.13960  -1.13891  -1.13866
  Beta  occ. eigenvalues --   -1.13742  -1.13677  -1.13662  -1.13637  -1.13631
  Beta  occ. eigenvalues --   -1.13602  -1.13570  -1.13545  -1.13511  -1.13300
  Beta  occ. eigenvalues --   -1.13293  -1.13265  -1.13068  -1.13056  -1.13010
  Beta  occ. eigenvalues --   -0.16577  -0.12937  -0.11370
  Beta virt. eigenvalues --   -0.08103  -0.05587  -0.05212  -0.04462  -0.03067
  Beta virt. eigenvalues --   -0.02731  -0.02392  -0.01517  -0.01001  -0.00439
  Beta virt. eigenvalues --   -0.00331  -0.00039   0.00380   0.00619   0.00707

 Mulliken charges and spin densities:
               1          2
     1  Na  -0.234454  -0.006570
     2  Na   0.113249   0.248880
     3  Na   0.391350   0.023670
     4  Na  -0.397075   0.111929
     5  Na   0.065799   0.465192
     6  Na   0.171063   0.152343
     7  Na  -0.109931   0.004556
 Sum of Mulliken charges =  -0.00000   1.00000

 Dipole moment (field-independent basis, Debye):
    X=             -0.1515    Y=             -0.2813    Z=              0.1583  Tot=              0.3566
 Quadrupole moment (field-independent basis, Debye-Ang):
   XX=            -59.3598   YY=            -70.4273   ZZ=            -68.9746
   XY=              0.2326   XZ=             -0.0512   YZ=              2.1355

 Normal termination of Gaussian 16 at Sun Dec  3 21:47:21 2023.
