 Gaussian 16, Revision B.01,
 Gaussian 16:  ES64L-G16RevB.01 20-Dec-2017

 -------------------------
 #P B3LYP/6-311+g(d) force
 -------------------------

 -----
 DPGEN
 -----
 Symbolic Z-matrix:
 Charge =  0 Multiplicity = 2

                         Standard orientation:
 ---------------------------------------------------------------------
 Center     Atomic      Atomic             Coordinates (Angstroms)
 Number     Number       Type             X           Y           Z
 ---------------------------------------------------------------------
      1         11           0        2.054962   -2.251303    0.425457
      2         11           0       -4.759447   -0.921146    0.163225
      3         11           0       -2.442677   -2.894399   -0.358692
      4         11           0        5.399160   -0.558927   -0.562169
      5         11           0       -0.160755    2.732471   -0.763398
      6         11           0        3.257972    1.463350    0.848808
      7         11           0       -3.349216    2.429953    0.246769
 ---------------------------------------------------------------------

 SCF Done:  E(UB3LYP) =  -1136.10527858     A.U. after   24 cycles

 The electronic state is 2-A.
 Alpha  occ. eigenvalues --  -38.45695 -38.45349 -38.44704 -38.44579 -38.44454
 Alpha  occ. eigenvalues --  -38.43691 -38.43531  -2.21474  -2.21104  -2.20521
 Alpha  occ. eigenvalues --   -2.20339  -2.20216  -2.19513  -2.19309  -1.15165
 Alpha  occ. eigenvalues --   -1.15137  -1.15106  -1.14785  -1.14768  -1.14692
 Alpha  occ. eigenvalues --   -1.14179  -1.14169  -1.14131  -1.14025  -1.14014
 Alpha  occ. eigenvalues --   -1.13981  -1.13910  -1.13895  -1.13865  -1.13172
 Alpha  occ. eigenvalues --   -1.13169  -1.13145  -1.12974  -1.12969  -1.12941
 Alpha  occ. eigenvalues --   -0.15861  -0.14208  -0.12074  -0.10681
 Alpha virt. eigenvalues --   -0.07561  -0.05997  -0.04331  -0.03376  -0.03063
 Alpha virt. eigenvalues --   -0.02940  -0.02219  -0.01835  -0.01086  -0.00617
 Alpha virt. eigenvalues --   -0.00486  -0.00318  -0.00137   0.00168   0.00392

  Beta  occ. eigenvalues --  -38.45680 -38.45278 -38.44641 -38.44594 -38.44475
  Beta  occ. eigenvalues --  -38.43671 -38.43505  -2.21451  -2.20973  -2.20404
  Beta  occ. eigenvalues --   -2.20367  -2.20254  -2.19473  -2.19259  -1.15149
  Beta  occ. eigenvalues --   -1.15120  -1.15062  -1.14697  -1.14678  -1.14591
  Beta  occ. eigenvalues --   -1.14094  -1.14086  -1.14058  -1.14046  -1.14035
  Beta  occ. eigenvalues --   -1.13987  -1.13935  -1.13922  -1.13882  -1.13155
  Beta  occ. eigenvalues --   -1.13141  -1.13118  -1.12938  -1.12936  -1.12912
  Beta  occ. eigenvalues --   -0.15232  -0.14057  -0.11988
  Beta virt. eigenvalues --   -0.07365  -0.07050  -0.05394  -0.03949  -0.03081
  Beta virt. eigenvalues --   -0.02878  -0.02689  -0.01996  -0.01632  -0.00724
  Beta virt. eigenvalues --   -0.00432  -0.00152  -0.00109   0.00016   0.00224

 Mulliken charges and spin densities:
               1          2
     1  Na  -0.169084   0.411919
     2  Na   0.115656   0.143595
     3  Na  -0.122142  -0.106758
     4  Na   0.371001   0.297216
     5  Na  -0.378813   0.069329
     6  Na  -0.040139   0.149657
     7  Na   0.223521   0.035043
 Sum of Mulliken charges =  -0.00000   1.00000

 Dipole moment (field-independent basis, Debye):
    X=              1.6027    Y=             -0.0809    Z=              0.1372  Tot=              1.6106
 Quadrupole moment (field-independent basis, Debye-Ang):
   XX=            -58.1190   YY=            -70.6351   ZZ=            -70.8136
   XY=             -3.8925   XZ=             -2.1250   YZ=              3.3143

 Normal termination of Gaussian 16 at Mon Dec  4 00:32:20 2023.
