 Gaussian 16, Revision B.01,
 Gaussian 16:  ES64L-G16RevB.01 20-Dec-2017

 -------------------------
 #P B3LYP/6-311+g(d) force
 -------------------------

 -----
 DPGEN
 -----
 Symbolic Z-matrix:
 Charge =  0 Multiplicity = 2

                         Standard orientation:
 ---------------------------------------------------------------------
 Center     Atomic      Atomic             Coordinates (Angstroms)
 Number     Number       Type             X           Y           Z
 ---------------------------------------------------------------------
      1         11           0        0.580374   -0.987193    1.383282
      2         11           0        2.270137   -2.878728   -0.578017
      3         11           0        3.980120   -0.610013   -0.275069
      4         11           0       -0.436616    1.472949   -0.831745
      5         11           0       -3.014823    0.193402    1.019922
      6         11           0        2.223709    3.386392    0.037171
      7         11           0       -5.602901   -0.576810   -0.755544
 ---------------------------------------------------------------------

 SCF Done:  E(UB3LYP) =  -1136.11450249     A.U. after   19 cycles

 The electronic state is 2-A.
 Alpha  occ. eigenvalues --  -38.44995 -38.44668 -38.44300 -38.44146 -38.44135
 Alpha  occ. eigenvalues --  -38.43476 -38.43380  -2.20850  -2.20535  -2.20190
 Alpha  occ. eigenvalues --   -2.19963  -2.19955  -2.19307  -2.19154  -1.14600
 Alpha  occ. eigenvalues --   -1.14497  -1.14459  -1.14232  -1.14189  -1.14147
 Alpha  occ. eigenvalues --   -1.13849  -1.13822  -1.13811  -1.13652  -1.13641
 Alpha  occ. eigenvalues --   -1.13596  -1.13589  -1.13585  -1.13578  -1.12996
 Alpha  occ. eigenvalues --   -1.12979  -1.12954  -1.12822  -1.12808  -1.12793
 Alpha  occ. eigenvalues --   -0.17120  -0.14097  -0.12074  -0.10940
 Alpha virt. eigenvalues --   -0.06081  -0.05770  -0.04703  -0.03733  -0.02752
 Alpha virt. eigenvalues --   -0.02397  -0.02029  -0.01553  -0.01034  -0.00670
 Alpha virt. eigenvalues --   -0.00361  -0.00042   0.00332   0.00437   0.00612

  Beta  occ. eigenvalues --  -38.44953 -38.44608 -38.44298 -38.44133 -38.44059
  Beta  occ. eigenvalues --  -38.43478 -38.43365  -2.20771  -2.20426  -2.20188
  Beta  occ. eigenvalues --   -2.19961  -2.19792  -2.19320  -2.19126  -1.14549
  Beta  occ. eigenvalues --   -1.14443  -1.14404  -1.14160  -1.14116  -1.14061
  Beta  occ. eigenvalues --   -1.13834  -1.13813  -1.13807  -1.13653  -1.13628
  Beta  occ. eigenvalues --   -1.13579  -1.13489  -1.13477  -1.13476  -1.13014
  Beta  occ. eigenvalues --   -1.12994  -1.12902  -1.12803  -1.12787  -1.12776
  Beta  occ. eigenvalues --   -0.16562  -0.13578  -0.11636
  Beta virt. eigenvalues --   -0.07662  -0.05833  -0.05114  -0.04528  -0.03498
  Beta virt. eigenvalues --   -0.02540  -0.01953  -0.01849  -0.01162  -0.00871
  Beta virt. eigenvalues --   -0.00339  -0.00195   0.00128   0.00484   0.00516

 Mulliken charges and spin densities:
               1          2
     1  Na  -0.370674   0.251750
     2  Na   0.471679   0.024123
     3  Na   0.012433   0.280293
     4  Na  -0.764889  -0.163608
     5  Na   0.280324   0.028141
     6  Na   0.415706   0.145637
     7  Na  -0.044578   0.433664
 Sum of Mulliken charges =  -0.00000   1.00000

 Dipole moment (field-independent basis, Debye):
    X=              1.0601    Y=             -1.0576    Z=             -0.1534  Tot=              1.5053
 Quadrupole moment (field-independent basis, Debye-Ang):
   XX=            -66.8639   YY=            -69.5993   ZZ=            -66.0028
   XY=              0.3210   XZ=              3.4456   YZ=              3.4385

 Normal termination of Gaussian 16 at Wed Nov 29 03:53:59 2023.
