 Gaussian 16, Revision B.01,
 Gaussian 16:  ES64L-G16RevB.01 20-Dec-2017

 -------------------------
 #P B3LYP/6-311+g(d) force
 -------------------------

 -----
 DPGEN
 -----
 Symbolic Z-matrix:
 Charge =  0 Multiplicity = 2

                         Standard orientation:
 ---------------------------------------------------------------------
 Center     Atomic      Atomic             Coordinates (Angstroms)
 Number     Number       Type             X           Y           Z
 ---------------------------------------------------------------------
      1         11           0       -0.033296   -0.196700    1.957040
      2         11           0        0.058819    0.123235   -1.879400
      3         11           0       -2.504926   -0.683929   -0.057608
      4         11           0        0.063712   -2.261638   -0.113372
      5         11           0       -1.413692    1.887242    0.020477
      6         11           0        2.316642   -0.779972   -0.053055
      7         11           0        1.512741    1.911761    0.125918
 ---------------------------------------------------------------------

 SCF Done:  E(UB3LYP) =  -1136.09807678     A.U. after   20 cycles

 The electronic state is 2-A.
 Alpha  occ. eigenvalues --  -38.44159 -38.44103 -38.43737 -38.43556 -38.43347
 Alpha  occ. eigenvalues --  -38.43319 -38.43286  -2.20279  -2.20270  -2.19865
 Alpha  occ. eigenvalues --   -2.19601  -2.19451  -2.19439  -2.19361  -1.14065
 Alpha  occ. eigenvalues --   -1.13986  -1.13960  -1.13924  -1.13913  -1.13898
 Alpha  occ. eigenvalues --   -1.13740  -1.13589  -1.13473  -1.13449  -1.13312
 Alpha  occ. eigenvalues --   -1.13219  -1.13213  -1.13068  -1.13062  -1.13060
 Alpha  occ. eigenvalues --   -1.13003  -1.12993  -1.12975  -1.12958  -1.12871
 Alpha  occ. eigenvalues --   -0.21332  -0.13578  -0.12994  -0.12417
 Alpha virt. eigenvalues --   -0.04934  -0.04318  -0.04136  -0.03718  -0.03389
 Alpha virt. eigenvalues --   -0.03203  -0.00854  -0.00523  -0.00155   0.00332
 Alpha virt. eigenvalues --    0.00787   0.00850   0.01053   0.01063   0.01159

  Beta  occ. eigenvalues --  -38.44061 -38.44008 -38.43724 -38.43548 -38.43336
  Beta  occ. eigenvalues --  -38.43303 -38.43275  -2.20102  -2.20099  -2.19848
  Beta  occ. eigenvalues --   -2.19591  -2.19432  -2.19424  -2.19346  -1.13977
  Beta  occ. eigenvalues --   -1.13875  -1.13847  -1.13798  -1.13795  -1.13771
  Beta  occ. eigenvalues --   -1.13720  -1.13569  -1.13469  -1.13380  -1.13307
  Beta  occ. eigenvalues --   -1.13207  -1.13169  -1.13054  -1.13005  -1.12998
  Beta  occ. eigenvalues --   -1.12990  -1.12985  -1.12954  -1.12916  -1.12868
  Beta  occ. eigenvalues --   -0.20465  -0.13215  -0.12636
  Beta virt. eigenvalues --   -0.08246  -0.04961  -0.04312  -0.04125  -0.02747
  Beta virt. eigenvalues --   -0.02469  -0.02094  -0.00793  -0.00479   0.00009
  Beta virt. eigenvalues --    0.00336   0.00752   0.00806   0.01108   0.01128

 Mulliken charges and spin densities:
               1          2
     1  Na  -1.624239   0.385986
     2  Na  -1.673961   0.317190
     3  Na   0.347935  -0.016010
     4  Na   1.034429   0.110736
     5  Na   0.747259   0.096163
     6  Na   0.538901   0.043930
     7  Na   0.629676   0.062005
 Sum of Mulliken charges =  -0.00000   1.00000

 Dipole moment (field-independent basis, Debye):
    X=             -0.1446    Y=              0.0537    Z=              0.1265  Tot=              0.1995
 Quadrupole moment (field-independent basis, Debye-Ang):
   XX=            -63.1948   YY=            -68.5033   ZZ=            -66.8142
   XY=              0.5774   XZ=              0.1897   YZ=              0.5789

 Normal termination of Gaussian 16 at Thu Dec  7 05:53:24 2023.
