 Gaussian 16, Revision B.01,
 Gaussian 16:  ES64L-G16RevB.01 20-Dec-2017

 -------------------------
 #P B3LYP/6-311+g(d) force
 -------------------------

 -----
 DPGEN
 -----
 Symbolic Z-matrix:
 Charge =  0 Multiplicity = 2

                         Standard orientation:
 ---------------------------------------------------------------------
 Center     Atomic      Atomic             Coordinates (Angstroms)
 Number     Number       Type             X           Y           Z
 ---------------------------------------------------------------------
      1         11           0        2.047926   -2.520673    0.049063
      2         11           0       -4.989795   -0.575725   -1.021799
      3         11           0       -3.119120    1.698622    0.155915
      4         11           0        2.924716    2.527495   -0.900814
      5         11           0        4.225036   -0.625090   -0.455654
      6         11           0        0.309222    1.248218    1.690059
      7         11           0       -1.397986   -1.752848    0.483230
 ---------------------------------------------------------------------

 SCF Done:  E(UB3LYP) =  -1136.11240028     A.U. after   24 cycles

 The electronic state is 2-A.
 Alpha  occ. eigenvalues --  -38.45101 -38.45068 -38.44701 -38.44508 -38.44452
 Alpha  occ. eigenvalues --  -38.43852 -38.42940  -2.20923  -2.20870  -2.20494
 Alpha  occ. eigenvalues --   -2.20362  -2.20248  -2.19609  -2.18774  -1.14634
 Alpha  occ. eigenvalues --   -1.14567  -1.14549  -1.14544  -1.14521  -1.14466
 Alpha  occ. eigenvalues --   -1.14163  -1.14140  -1.14111  -1.14071  -1.14010
 Alpha  occ. eigenvalues --   -1.13968  -1.13937  -1.13931  -1.13843  -1.13288
 Alpha  occ. eigenvalues --   -1.13273  -1.13258  -1.12475  -1.12429  -1.12411
 Alpha  occ. eigenvalues --   -0.16792  -0.14572  -0.11761  -0.11266
 Alpha virt. eigenvalues --   -0.06806  -0.05260  -0.04786  -0.03600  -0.03211
 Alpha virt. eigenvalues --   -0.02596  -0.02108  -0.01530  -0.01086  -0.00592
 Alpha virt. eigenvalues --   -0.00240  -0.00163   0.00286   0.00341   0.00588

  Beta  occ. eigenvalues --  -38.45058 -38.45024 -38.44629 -38.44463 -38.44418
  Beta  occ. eigenvalues --  -38.43863 -38.42944  -2.20860  -2.20779  -2.20363
  Beta  occ. eigenvalues --   -2.20279  -2.20188  -2.19631  -2.18786  -1.14568
  Beta  occ. eigenvalues --   -1.14549  -1.14505  -1.14462  -1.14446  -1.14398
  Beta  occ. eigenvalues --   -1.14074  -1.14047  -1.14020  -1.14016  -1.13951
  Beta  occ. eigenvalues --   -1.13915  -1.13900  -1.13868  -1.13805  -1.13304
  Beta  occ. eigenvalues --   -1.13283  -1.13267  -1.12474  -1.12440  -1.12406
  Beta  occ. eigenvalues --   -0.15985  -0.13941  -0.11128
  Beta virt. eigenvalues --   -0.08281  -0.06591  -0.04705  -0.04395  -0.03432
  Beta virt. eigenvalues --   -0.02683  -0.02347  -0.01664  -0.01377  -0.00882
  Beta virt. eigenvalues --   -0.00305  -0.00210   0.00014   0.00402   0.00470

 Mulliken charges and spin densities:
               1          2
     1  Na   0.213627  -0.126911
     2  Na   0.495846   0.368273
     3  Na  -0.035840   0.088181
     4  Na   0.222394  -0.080903
     5  Na  -0.316139   0.321744
     6  Na  -0.232755   0.352503
     7  Na  -0.347133   0.077112
 Sum of Mulliken charges =  -0.00000   1.00000

 Dipole moment (field-independent basis, Debye):
    X=             -1.7333    Y=              0.3639    Z=             -0.2647  Tot=              1.7907
 Quadrupole moment (field-independent basis, Debye-Ang):
   XX=            -56.0965   YY=            -72.6005   ZZ=            -69.2471
   XY=              1.2937   XZ=              1.3282   YZ=             -0.0304

 Normal termination of Gaussian 16 at Sun Dec  3 23:51:08 2023.
