 Gaussian 16, Revision B.01,
 Gaussian 16:  ES64L-G16RevB.01 20-Dec-2017

 -------------------------
 #P B3LYP/6-311+g(d) force
 -------------------------

 -----
 DPGEN
 -----
 Symbolic Z-matrix:
 Charge =  0 Multiplicity = 2

                         Standard orientation:
 ---------------------------------------------------------------------
 Center     Atomic      Atomic             Coordinates (Angstroms)
 Number     Number       Type             X           Y           Z
 ---------------------------------------------------------------------
      1         11           0        0.931662   -1.508098   -0.251110
      2         11           0        5.863175   -0.553530   -0.600762
      3         11           0        3.185808    1.091320    0.282754
      4         11           0       -0.325777    2.092655   -0.272416
      5         11           0       -2.523902   -0.805197   -0.808554
      6         11           0       -1.296232   -0.446676    2.281345
      7         11           0       -5.834734    0.129526   -0.631257
 ---------------------------------------------------------------------

 SCF Done:  E(UB3LYP) =  -1136.10940467     A.U. after   24 cycles

 The electronic state is 2-A.
 Alpha  occ. eigenvalues --  -38.46577 -38.45383 -38.44589 -38.43986 -38.43756
 Alpha  occ. eigenvalues --  -38.43599 -38.43057  -2.22376  -2.21222  -2.20439
 Alpha  occ. eigenvalues --   -2.19761  -2.19593  -2.19470  -2.18812  -1.16044
 Alpha  occ. eigenvalues --   -1.16041  -1.15994  -1.14919  -1.14877  -1.14819
 Alpha  occ. eigenvalues --   -1.14108  -1.14064  -1.14042  -1.13432  -1.13422
 Alpha  occ. eigenvalues --   -1.13408  -1.13280  -1.13275  -1.13195  -1.13176
 Alpha  occ. eigenvalues --   -1.13155  -1.13070  -1.12483  -1.12481  -1.12449
 Alpha  occ. eigenvalues --   -0.17984  -0.13643  -0.11359  -0.10977
 Alpha virt. eigenvalues --   -0.07628  -0.06222  -0.04239  -0.03339  -0.02953
 Alpha virt. eigenvalues --   -0.02514  -0.02130  -0.01890  -0.01551  -0.01077
 Alpha virt. eigenvalues --   -0.00397   0.00109   0.00162   0.00279   0.00426

  Beta  occ. eigenvalues --  -38.46560 -38.45342 -38.44487 -38.43974 -38.43745
  Beta  occ. eigenvalues --  -38.43588 -38.43064  -2.22347  -2.21149  -2.20250
  Beta  occ. eigenvalues --   -2.19738  -2.19576  -2.19453  -2.18826  -1.16023
  Beta  occ. eigenvalues --   -1.15999  -1.15976  -1.14870  -1.14815  -1.14763
  Beta  occ. eigenvalues --   -1.13979  -1.13927  -1.13917  -1.13417  -1.13406
  Beta  occ. eigenvalues --   -1.13391  -1.13273  -1.13263  -1.13165  -1.13158
  Beta  occ. eigenvalues --   -1.13134  -1.13049  -1.12492  -1.12490  -1.12458
  Beta  occ. eigenvalues --   -0.17261  -0.13418  -0.10917
  Beta virt. eigenvalues --   -0.07505  -0.07318  -0.05950  -0.03897  -0.02920
  Beta virt. eigenvalues --   -0.02475  -0.02293  -0.01780  -0.01560  -0.01141
  Beta virt. eigenvalues --   -0.00927  -0.00300   0.00244   0.00355   0.00378

 Mulliken charges and spin densities:
               1          2
     1  Na  -0.146241   0.470564
     2  Na   0.246457   0.079919
     3  Na  -0.275145  -0.072816
     4  Na  -0.099884   0.544149
     5  Na  -0.318704  -0.053904
     6  Na   0.264822   0.076284
     7  Na   0.328694  -0.044195
 Sum of Mulliken charges =  -0.00000   1.00000

 Dipole moment (field-independent basis, Debye):
    X=              0.8621    Y=             -0.3369    Z=              1.7321  Tot=              1.9639
 Quadrupole moment (field-independent basis, Debye-Ang):
   XX=            -77.1556   YY=            -71.6795   ZZ=            -62.6704
   XY=             -5.2893   XZ=             -7.4978   YZ=              3.1279

 Normal termination of Gaussian 16 at Tue Nov 28 21:08:19 2023.
