 Gaussian 16, Revision B.01,
 Gaussian 16:  ES64L-G16RevB.01 20-Dec-2017

 -------------------------
 #P B3LYP/6-311+g(d) force
 -------------------------

 -----
 DPGEN
 -----
 Symbolic Z-matrix:
 Charge =  0 Multiplicity = 2

                         Standard orientation:
 ---------------------------------------------------------------------
 Center     Atomic      Atomic             Coordinates (Angstroms)
 Number     Number       Type             X           Y           Z
 ---------------------------------------------------------------------
      1         11           0        1.233462    2.965039   -0.040820
      2         11           0       -0.051050    0.182621   -1.585936
      3         11           0       -2.662310   -1.892948   -0.155146
      4         11           0       -2.639955    1.793732   -0.035168
      5         11           0        1.403326   -2.718384   -0.267148
      6         11           0        2.875076   -0.062544    0.055659
      7         11           0       -0.158550   -0.267515    2.028559
 ---------------------------------------------------------------------

 SCF Done:  E(UB3LYP) =  -1136.13615680     A.U. after   19 cycles

 The electronic state is 2-A.
 Alpha  occ. eigenvalues --  -38.44341 -38.44205 -38.43578 -38.43562 -38.43554
 Alpha  occ. eigenvalues --  -38.43454 -38.43087  -2.20137  -2.19993  -2.19487
 Alpha  occ. eigenvalues --   -2.19415  -2.19374  -2.19329  -2.19047  -1.13822
 Alpha  occ. eigenvalues --   -1.13802  -1.13764  -1.13670  -1.13651  -1.13630
 Alpha  occ. eigenvalues --   -1.13256  -1.13159  -1.13144  -1.13070  -1.13053
 Alpha  occ. eigenvalues --   -1.13050  -1.13036  -1.13022  -1.13004  -1.12998
 Alpha  occ. eigenvalues --   -1.12949  -1.12946  -1.12738  -1.12682  -1.12666
 Alpha  occ. eigenvalues --   -0.18448  -0.13084  -0.12329  -0.10465
 Alpha virt. eigenvalues --   -0.05820  -0.05332  -0.04816  -0.03168  -0.02730
 Alpha virt. eigenvalues --   -0.02374  -0.01541  -0.01398  -0.00577  -0.00468
 Alpha virt. eigenvalues --   -0.00001   0.00351   0.00763   0.00798   0.00890

  Beta  occ. eigenvalues --  -38.44338 -38.44202 -38.43571 -38.43562 -38.43548
  Beta  occ. eigenvalues --  -38.43358 -38.43027  -2.20134  -2.19991  -2.19479
  Beta  occ. eigenvalues --   -2.19407  -2.19376  -2.19152  -2.18939  -1.13811
  Beta  occ. eigenvalues --   -1.13791  -1.13766  -1.13653  -1.13646  -1.13632
  Beta  occ. eigenvalues --   -1.13255  -1.13157  -1.13106  -1.13055  -1.13045
  Beta  occ. eigenvalues --   -1.13031  -1.13029  -1.13019  -1.13004  -1.12882
  Beta  occ. eigenvalues --   -1.12824  -1.12820  -1.12661  -1.12602  -1.12587
  Beta  occ. eigenvalues --   -0.17724  -0.12860  -0.12124
  Beta virt. eigenvalues --   -0.06557  -0.05838  -0.05245  -0.04803  -0.02364
  Beta virt. eigenvalues --   -0.02016  -0.01460  -0.01335  -0.01308  -0.00625
  Beta virt. eigenvalues --   -0.00515   0.00147   0.00381   0.00767   0.00861

 Mulliken charges and spin densities:
               1          2
     1  Na   0.082398  -0.060015
     2  Na  -0.212826   0.472254
     3  Na   0.070983  -0.101525
     4  Na   0.050219  -0.106473
     5  Na   0.164764  -0.031882
     6  Na   0.288521   0.071643
     7  Na  -0.444058   0.755999
 Sum of Mulliken charges =  -0.00000   1.00000

 Dipole moment (field-independent basis, Debye):
    X=             -0.5800    Y=              0.0342    Z=              0.0850  Tot=              0.5872
 Quadrupole moment (field-independent basis, Debye-Ang):
   XX=            -57.3671   YY=            -59.1821   ZZ=            -76.0982
   XY=              0.1349   XZ=              0.3102   YZ=              1.1973

 Normal termination of Gaussian 16 at Thu Dec  7 12:11:58 2023.
