 Gaussian 16, Revision B.01,
 Gaussian 16:  ES64L-G16RevB.01 20-Dec-2017

 -------------------------
 #P B3LYP/6-311+g(d) force
 -------------------------

 -----
 DPGEN
 -----
 Symbolic Z-matrix:
 Charge =  0 Multiplicity = 2

                         Standard orientation:
 ---------------------------------------------------------------------
 Center     Atomic      Atomic             Coordinates (Angstroms)
 Number     Number       Type             X           Y           Z
 ---------------------------------------------------------------------
      1         11           0        0.077337   -1.968566    0.082053
      2         11           0        2.693589    2.505596    0.346485
      3         11           0       -4.610822    1.233951   -0.598103
      4         11           0        3.360920   -1.285450   -1.550809
      5         11           0        2.553568    0.012729    1.611194
      6         11           0       -3.236368   -1.235481    1.045815
      7         11           0       -0.838224    0.737221   -0.936635
 ---------------------------------------------------------------------

 SCF Done:  E(UB3LYP) =  -1136.10562272     A.U. after   31 cycles

 The electronic state is 2-A.
 Alpha  occ. eigenvalues --  -38.45934 -38.45438 -38.45033 -38.44018 -38.43615
 Alpha  occ. eigenvalues --  -38.43465 -38.42362  -2.21757  -2.21257  -2.20940
 Alpha  occ. eigenvalues --   -2.19848  -2.19439  -2.19323  -2.18273  -1.15457
 Alpha  occ. eigenvalues --   -1.15443  -1.15351  -1.14944  -1.14907  -1.14897
 Alpha  occ. eigenvalues --   -1.14696  -1.14586  -1.14555  -1.13504  -1.13467
 Alpha  occ. eigenvalues --   -1.13456  -1.13099  -1.13087  -1.13062  -1.13038
 Alpha  occ. eigenvalues --   -1.12944  -1.12938  -1.12003  -1.11941  -1.11879
 Alpha  occ. eigenvalues --   -0.17683  -0.14762  -0.11395  -0.10437
 Alpha virt. eigenvalues --   -0.07510  -0.05778  -0.03973  -0.03653  -0.03213
 Alpha virt. eigenvalues --   -0.02362  -0.01926  -0.01673  -0.01212  -0.00633
 Alpha virt. eigenvalues --   -0.00304  -0.00035   0.00246   0.00442   0.00596

  Beta  occ. eigenvalues --  -38.45924 -38.45431 -38.45015 -38.43906 -38.43562
  Beta  occ. eigenvalues --  -38.43451 -38.42354  -2.21741  -2.21248  -2.20913
  Beta  occ. eigenvalues --   -2.19640  -2.19340  -2.19301  -2.18264  -1.15442
  Beta  occ. eigenvalues --   -1.15424  -1.15349  -1.14942  -1.14908  -1.14853
  Beta  occ. eigenvalues --   -1.14684  -1.14547  -1.14525  -1.13361  -1.13326
  Beta  occ. eigenvalues --   -1.13318  -1.13026  -1.13019  -1.13018  -1.13002
  Beta  occ. eigenvalues --   -1.12933  -1.12913  -1.11993  -1.11938  -1.11850
  Beta  occ. eigenvalues --   -0.17196  -0.14156  -0.10920
  Beta virt. eigenvalues --   -0.07444  -0.06914  -0.05641  -0.03717  -0.03308
  Beta virt. eigenvalues --   -0.02854  -0.02017  -0.01738  -0.01128  -0.00728
  Beta virt. eigenvalues --   -0.00583   0.00002   0.00041   0.00332   0.00499

 Mulliken charges and spin densities:
               1          2
     1  Na  -0.167568   0.036580
     2  Na   0.100827  -0.152177
     3  Na   0.260525   0.430222
     4  Na   0.162462   0.501302
     5  Na   0.298364   0.478869
     6  Na   0.226295   0.036839
     7  Na  -0.880905  -0.331636
 Sum of Mulliken charges =  -0.00000   1.00000

 Dipole moment (field-independent basis, Debye):
    X=             -0.7937    Y=             -0.2772    Z=              0.4686  Tot=              0.9625
 Quadrupole moment (field-independent basis, Debye-Ang):
   XX=            -70.7467   YY=            -73.8215   ZZ=            -63.3594
   XY=              3.9991   XZ=             -1.1884   YZ=             -8.4513

 Normal termination of Gaussian 16 at Tue Dec  5 18:18:26 2023.
