 Gaussian 16, Revision B.01,
 Gaussian 16:  ES64L-G16RevB.01 20-Dec-2017

 -------------------------
 #P B3LYP/6-311+g(d) force
 -------------------------

 -----
 DPGEN
 -----
 Symbolic Z-matrix:
 Charge =  0 Multiplicity = 2

                         Standard orientation:
 ---------------------------------------------------------------------
 Center     Atomic      Atomic             Coordinates (Angstroms)
 Number     Number       Type             X           Y           Z
 ---------------------------------------------------------------------
      1         11           0        2.872369    0.645361    1.141857
      2         11           0        2.801014   -2.953166    0.588255
      3         11           0       -2.850702   -0.638756   -0.585722
      4         11           0        2.491803    3.519247   -0.270592
      5         11           0       -5.382019    0.612366    1.093794
      6         11           0        0.255562   -2.477703   -0.915579
      7         11           0       -0.188027    1.292651   -1.052013
 ---------------------------------------------------------------------

 SCF Done:  E(UB3LYP) =  -1136.12341735     A.U. after   19 cycles

 The electronic state is 2-A.
 Alpha  occ. eigenvalues --  -38.44631 -38.44495 -38.44455 -38.44142 -38.44023
 Alpha  occ. eigenvalues --  -38.43469 -38.43201  -2.20447  -2.20308  -2.20283
 Alpha  occ. eigenvalues --   -2.19955  -2.19873  -2.19312  -2.19049  -1.14137
 Alpha  occ. eigenvalues --   -1.14117  -1.14067  -1.13976  -1.13962  -1.13939
 Alpha  occ. eigenvalues --   -1.13936  -1.13929  -1.13881  -1.13620  -1.13614
 Alpha  occ. eigenvalues --   -1.13585  -1.13571  -1.13549  -1.13518  -1.12972
 Alpha  occ. eigenvalues --   -1.12955  -1.12943  -1.12739  -1.12724  -1.12702
 Alpha  occ. eigenvalues --   -0.16814  -0.13908  -0.12802  -0.11206
 Alpha virt. eigenvalues --   -0.06032  -0.05536  -0.04438  -0.03932  -0.02631
 Alpha virt. eigenvalues --   -0.02145  -0.02081  -0.01685  -0.01088  -0.00869
 Alpha virt. eigenvalues --   -0.00321   0.00140   0.00227   0.00328   0.00673

  Beta  occ. eigenvalues --  -38.44605 -38.44416 -38.44384 -38.44141 -38.44009
  Beta  occ. eigenvalues --  -38.43454 -38.43198  -2.20399  -2.20213  -2.20100
  Beta  occ. eigenvalues --   -2.19955  -2.19850  -2.19282  -2.19053  -1.14105
  Beta  occ. eigenvalues --   -1.14086  -1.14027  -1.13931  -1.13916  -1.13824
  Beta  occ. eigenvalues --   -1.13799  -1.13794  -1.13791  -1.13615  -1.13613
  Beta  occ. eigenvalues --   -1.13585  -1.13554  -1.13536  -1.13491  -1.12956
  Beta  occ. eigenvalues --   -1.12935  -1.12917  -1.12750  -1.12737  -1.12633
  Beta  occ. eigenvalues --   -0.16288  -0.13164  -0.12579
  Beta virt. eigenvalues --   -0.07705  -0.05811  -0.05158  -0.03965  -0.03750
  Beta virt. eigenvalues --   -0.02416  -0.01917  -0.01738  -0.01324  -0.00961
  Beta virt. eigenvalues --   -0.00496  -0.00016   0.00285   0.00378   0.00450

 Mulliken charges and spin densities:
               1          2
     1  Na  -0.355656   0.201455
     2  Na   0.511996   0.170315
     3  Na  -0.433513   0.096462
     4  Na   0.839638  -0.013095
     5  Na   0.399319   0.482136
     6  Na  -0.287473  -0.053647
     7  Na  -0.674310   0.116374
 Sum of Mulliken charges =  -0.00000   1.00000

 Dipole moment (field-independent basis, Debye):
    X=              0.8081    Y=              0.9767    Z=              0.0794  Tot=              1.2702
 Quadrupole moment (field-independent basis, Debye-Ang):
   XX=            -66.5562   YY=            -61.0667   ZZ=            -69.3370
   XY=              1.9858   XZ=             -0.3906   YZ=             -0.0945

 Normal termination of Gaussian 16 at Tue Nov 28 21:04:37 2023.
