 Gaussian 16, Revision B.01,
 Gaussian 16:  ES64L-G16RevB.01 20-Dec-2017

 -------------------------
 #P B3LYP/6-311+g(d) force
 -------------------------

 -----
 DPGEN
 -----
 Symbolic Z-matrix:
 Charge =  0 Multiplicity = 2

                         Standard orientation:
 ---------------------------------------------------------------------
 Center     Atomic      Atomic             Coordinates (Angstroms)
 Number     Number       Type             X           Y           Z
 ---------------------------------------------------------------------
      1         11           0        3.551920   -0.855261    0.238363
      2         11           0       -3.133319   -1.491785    0.508370
      3         11           0        0.993625    0.311154   -1.898854
      4         11           0        0.647436    2.891256    0.548678
      5         11           0        0.105750   -0.147666    2.375599
      6         11           0       -0.190824   -2.914786   -0.825637
      7         11           0       -1.974587    2.207089   -0.946519
 ---------------------------------------------------------------------

 SCF Done:  E(UB3LYP) =  -1136.12546277     A.U. after   19 cycles

 The electronic state is 2-A.
 Alpha  occ. eigenvalues --  -38.44775 -38.44260 -38.44216 -38.43969 -38.43885
 Alpha  occ. eigenvalues --  -38.43874 -38.43672  -2.20575  -2.20035  -2.19966
 Alpha  occ. eigenvalues --   -2.19819  -2.19725  -2.19710  -2.19436  -1.14230
 Alpha  occ. eigenvalues --   -1.14209  -1.14188  -1.13730  -1.13698  -1.13651
 Alpha  occ. eigenvalues --   -1.13644  -1.13626  -1.13613  -1.13501  -1.13490
 Alpha  occ. eigenvalues --   -1.13476  -1.13429  -1.13389  -1.13376  -1.13360
 Alpha  occ. eigenvalues --   -1.13341  -1.13287  -1.13108  -1.13094  -1.13084
 Alpha  occ. eigenvalues --   -0.17453  -0.12549  -0.12055  -0.11430
 Alpha virt. eigenvalues --   -0.05938  -0.05120  -0.04886  -0.03478  -0.03305
 Alpha virt. eigenvalues --   -0.03150  -0.01595  -0.01055  -0.00723  -0.00122
 Alpha virt. eigenvalues --   -0.00104   0.00392   0.00536   0.00668   0.00750

  Beta  occ. eigenvalues --  -38.44672 -38.44246 -38.44222 -38.43915 -38.43870
  Beta  occ. eigenvalues --  -38.43867 -38.43673  -2.20385  -2.20011  -2.19978
  Beta  occ. eigenvalues --   -2.19721  -2.19713  -2.19684  -2.19438  -1.14103
  Beta  occ. eigenvalues --   -1.14078  -1.14049  -1.13704  -1.13682  -1.13650
  Beta  occ. eigenvalues --   -1.13636  -1.13627  -1.13621  -1.13481  -1.13431
  Beta  occ. eigenvalues --   -1.13415  -1.13375  -1.13361  -1.13345  -1.13333
  Beta  occ. eigenvalues --   -1.13321  -1.13271  -1.13100  -1.13097  -1.13087
  Beta  occ. eigenvalues --   -0.16686  -0.12369  -0.11972
  Beta virt. eigenvalues --   -0.07512  -0.05807  -0.04825  -0.04765  -0.02823
  Beta virt. eigenvalues --   -0.02720  -0.02275  -0.01485  -0.00989  -0.00634
  Beta virt. eigenvalues --   -0.00124   0.00022   0.00444   0.00638   0.00807

 Mulliken charges and spin densities:
               1          2
     1  Na  -0.110023  -0.085900
     2  Na   0.066242   0.008277
     3  Na   0.660154   0.337862
     4  Na   0.085708   0.063165
     5  Na  -0.144665   0.664562
     6  Na  -0.326533  -0.040447
     7  Na  -0.230883   0.052481
 Sum of Mulliken charges =  -0.00000   1.00000

 Dipole moment (field-independent basis, Debye):
    X=              0.3042    Y=              0.0319    Z=              0.1166  Tot=              0.3274
 Quadrupole moment (field-independent basis, Debye-Ang):
   XX=            -61.2161   YY=            -66.1607   ZZ=            -69.8335
   XY=             -1.3351   XZ=              2.1657   YZ=              0.7252

 Normal termination of Gaussian 16 at Sun Dec  3 16:05:21 2023.
