 Gaussian 16, Revision B.01,
 Gaussian 16:  ES64L-G16RevB.01 20-Dec-2017

 -------------------------
 #P B3LYP/6-311+g(d) force
 -------------------------

 -----
 DPGEN
 -----
 Symbolic Z-matrix:
 Charge =  0 Multiplicity = 2

                         Standard orientation:
 ---------------------------------------------------------------------
 Center     Atomic      Atomic             Coordinates (Angstroms)
 Number     Number       Type             X           Y           Z
 ---------------------------------------------------------------------
      1         11           0       -0.983579   -0.023022    1.978520
      2         11           0       -2.086954    2.579098   -0.468447
      3         11           0       -1.283871   -2.317898   -1.076810
      4         11           0        1.295248    1.582504   -0.289487
      5         11           0       -3.966678   -0.500706   -0.192423
      6         11           0        2.204347   -1.800555    0.396219
      7         11           0        4.821486    0.480579   -0.347571
 ---------------------------------------------------------------------

 SCF Done:  E(UB3LYP) =  -1136.12385869     A.U. after   22 cycles

 The electronic state is 2-A.
 Alpha  occ. eigenvalues --  -38.45254 -38.44220 -38.43991 -38.43991 -38.43780
 Alpha  occ. eigenvalues --  -38.43756 -38.43485  -2.21075  -2.20027  -2.19831
 Alpha  occ. eigenvalues --   -2.19797  -2.19578  -2.19570  -2.19286  -1.14752
 Alpha  occ. eigenvalues --   -1.14727  -1.14686  -1.13678  -1.13675  -1.13638
 Alpha  occ. eigenvalues --   -1.13501  -1.13494  -1.13480  -1.13474  -1.13454
 Alpha  occ. eigenvalues --   -1.13410  -1.13289  -1.13272  -1.13258  -1.13223
 Alpha  occ. eigenvalues --   -1.13209  -1.13177  -1.12972  -1.12935  -1.12928
 Alpha  occ. eigenvalues --   -0.17418  -0.14099  -0.11543  -0.10769
 Alpha virt. eigenvalues --   -0.06919  -0.05634  -0.04351  -0.03375  -0.02964
 Alpha virt. eigenvalues --   -0.02407  -0.01915  -0.01659  -0.01060  -0.00714
 Alpha virt. eigenvalues --   -0.00290  -0.00070   0.00350   0.00563   0.00705

  Beta  occ. eigenvalues --  -38.45205 -38.44145 -38.43984 -38.43929 -38.43777
  Beta  occ. eigenvalues --  -38.43754 -38.43484  -2.20987  -2.19886  -2.19788
  Beta  occ. eigenvalues --   -2.19716  -2.19577  -2.19568  -2.19286  -1.14681
  Beta  occ. eigenvalues --   -1.14665  -1.14621  -1.13581  -1.13578  -1.13551
  Beta  occ. eigenvalues --   -1.13494  -1.13469  -1.13420  -1.13404  -1.13378
  Beta  occ. eigenvalues --   -1.13373  -1.13292  -1.13259  -1.13255  -1.13224
  Beta  occ. eigenvalues --   -1.13180  -1.13171  -1.12974  -1.12938  -1.12911
  Beta  occ. eigenvalues --   -0.16830  -0.13412  -0.11386
  Beta virt. eigenvalues --   -0.07319  -0.06692  -0.05442  -0.03699  -0.03213
  Beta virt. eigenvalues --   -0.02670  -0.02090  -0.01582  -0.01324  -0.00718
  Beta virt. eigenvalues --   -0.00413  -0.00078  -0.00006   0.00450   0.00639

 Mulliken charges and spin densities:
               1          2
     1  Na  -0.055785   0.243295
     2  Na   0.140549   0.078042
     3  Na  -0.095515   0.008260
     4  Na  -0.991957  -0.118193
     5  Na   0.137624   0.379820
     6  Na  -0.075554   0.052413
     7  Na   0.940638   0.356364
 Sum of Mulliken charges =  -0.00000   1.00000

 Dipole moment (field-independent basis, Debye):
    X=              0.0250    Y=             -0.0906    Z=              0.6658  Tot=              0.6724
 Quadrupole moment (field-independent basis, Debye-Ang):
   XX=            -62.2450   YY=            -74.2278   ZZ=            -64.6166
   XY=             -2.7853   XZ=             -1.7052   YZ=             -1.6045

 Normal termination of Gaussian 16 at Mon Dec  4 03:38:33 2023.
