 Gaussian 16, Revision B.01,
 Gaussian 16:  ES64L-G16RevB.01 20-Dec-2017

 -------------------------
 #P B3LYP/6-311+g(d) force
 -------------------------

 -----
 DPGEN
 -----
 Symbolic Z-matrix:
 Charge =  0 Multiplicity = 2

                         Standard orientation:
 ---------------------------------------------------------------------
 Center     Atomic      Atomic             Coordinates (Angstroms)
 Number     Number       Type             X           Y           Z
 ---------------------------------------------------------------------
      1         11           0        2.842704    1.107141   -0.740968
      2         11           0        2.021505   -1.702994    0.753929
      3         11           0       -2.965183    0.530777    0.132318
      4         11           0        0.036090    0.014356    1.852665
      5         11           0       -1.170220   -2.819681   -0.442690
      6         11           0       -0.489322    2.994059    0.181832
      7         11           0       -0.275575   -0.123658   -1.737087
 ---------------------------------------------------------------------

 SCF Done:  E(UB3LYP) =  -1136.13434046     A.U. after   19 cycles

 The electronic state is 2-A.
 Alpha  occ. eigenvalues --  -38.43856 -38.43702 -38.43650 -38.43642 -38.43461
 Alpha  occ. eigenvalues --  -38.43450 -38.43382  -2.19705  -2.19685  -2.19485
 Alpha  occ. eigenvalues --   -2.19467  -2.19394  -2.19357  -2.19302  -1.13515
 Alpha  occ. eigenvalues --   -1.13397  -1.13392  -1.13325  -1.13316  -1.13279
 Alpha  occ. eigenvalues --   -1.13172  -1.13154  -1.13147  -1.13133  -1.13118
 Alpha  occ. eigenvalues --   -1.13101  -1.13092  -1.13036  -1.13018  -1.13009
 Alpha  occ. eigenvalues --   -1.12984  -1.12975  -1.12945  -1.12923  -1.12908
 Alpha  occ. eigenvalues --   -0.18852  -0.12940  -0.12490  -0.11166
 Alpha virt. eigenvalues --   -0.05349  -0.04936  -0.04636  -0.03361  -0.03082
 Alpha virt. eigenvalues --   -0.02695  -0.01313  -0.01202  -0.00251  -0.00044
 Alpha virt. eigenvalues --    0.00111   0.00360   0.00833   0.00918   0.00923

  Beta  occ. eigenvalues --  -38.43852 -38.43640 -38.43632 -38.43617 -38.43442
  Beta  occ. eigenvalues --  -38.43437 -38.43313  -2.19700  -2.19531  -2.19467
  Beta  occ. eigenvalues --   -2.19452  -2.19354  -2.19291  -2.19230  -1.13419
  Beta  occ. eigenvalues --   -1.13390  -1.13369  -1.13318  -1.13219  -1.13184
  Beta  occ. eigenvalues --   -1.13149  -1.13128  -1.13128  -1.13113  -1.13101
  Beta  occ. eigenvalues --   -1.13086  -1.13053  -1.12986  -1.12967  -1.12953
  Beta  occ. eigenvalues --   -1.12942  -1.12925  -1.12912  -1.12889  -1.12845
  Beta  occ. eigenvalues --   -0.18140  -0.12669  -0.12205
  Beta virt. eigenvalues --   -0.07250  -0.05355  -0.04862  -0.04543  -0.02594
  Beta virt. eigenvalues --   -0.02350  -0.01667  -0.01205  -0.01141  -0.00172
  Beta virt. eigenvalues --   -0.00061   0.00161   0.00391   0.00849   0.00929

 Mulliken charges and spin densities:
               1          2
     1  Na  -0.180054   0.040185
     2  Na   0.368215   0.139028
     3  Na  -0.024459  -0.089752
     4  Na   0.028365   0.404488
     5  Na  -0.010081  -0.051575
     6  Na  -0.068296  -0.039788
     7  Na  -0.113691   0.597413
 Sum of Mulliken charges =  -0.00000   1.00000

 Dipole moment (field-independent basis, Debye):
    X=             -0.2975    Y=              0.2122    Z=             -0.0670  Tot=              0.3715
 Quadrupole moment (field-independent basis, Debye-Ang):
   XX=            -59.9684   YY=            -61.2720   ZZ=            -72.6859
   XY=              0.7100   XZ=             -1.2349   YZ=             -0.4566

 Normal termination of Gaussian 16 at Tue Dec  5 12:24:21 2023.
