 Gaussian 16, Revision B.01,
 Gaussian 16:  ES64L-G16RevB.01 20-Dec-2017

 -------------------------
 #P B3LYP/6-311+g(d) force
 -------------------------

 -----
 DPGEN
 -----
 Symbolic Z-matrix:
 Charge =  0 Multiplicity = 2

                         Standard orientation:
 ---------------------------------------------------------------------
 Center     Atomic      Atomic             Coordinates (Angstroms)
 Number     Number       Type             X           Y           Z
 ---------------------------------------------------------------------
      1         11           0        2.544900   -1.570117    0.096560
      2         11           0       -0.633589   -2.791373   -0.168146
      3         11           0       -0.094757   -0.250587    1.891112
      4         11           0        2.518351    2.082435   -0.090325
      5         11           0       -3.056073   -0.122551   -0.092972
      6         11           0       -1.301491    2.624672    0.145495
      7         11           0        0.022659    0.027520   -1.781724
 ---------------------------------------------------------------------

 SCF Done:  E(UB3LYP) =  -1136.14054405     A.U. after   19 cycles

 The electronic state is 2-A.
 Alpha  occ. eigenvalues --  -38.43816 -38.43782 -38.43736 -38.43568 -38.43370
 Alpha  occ. eigenvalues --  -38.43246 -38.43241  -2.19634  -2.19604  -2.19600
 Alpha  occ. eigenvalues --   -2.19418  -2.19302  -2.19192  -2.19138  -1.13318
 Alpha  occ. eigenvalues --   -1.13309  -1.13287  -1.13280  -1.13277  -1.13265
 Alpha  occ. eigenvalues --   -1.13254  -1.13251  -1.13240  -1.13092  -1.13090
 Alpha  occ. eigenvalues --   -1.13041  -1.12989  -1.12937  -1.12919  -1.12890
 Alpha  occ. eigenvalues --   -1.12845  -1.12811  -1.12794  -1.12773  -1.12762
 Alpha  occ. eigenvalues --   -0.18771  -0.13005  -0.12503  -0.10706
 Alpha virt. eigenvalues --   -0.05415  -0.05317  -0.04782  -0.03152  -0.02874
 Alpha virt. eigenvalues --   -0.02497  -0.01422  -0.01188  -0.00397  -0.00313
 Alpha virt. eigenvalues --   -0.00003   0.00367   0.00821   0.00879   0.00900

  Beta  occ. eigenvalues --  -38.43817 -38.43777 -38.43731 -38.43563 -38.43286
  Beta  occ. eigenvalues --  -38.43236 -38.43164  -2.19628  -2.19607  -2.19594
  Beta  occ. eigenvalues --   -2.19412  -2.19147  -2.19127  -2.19052  -1.13314
  Beta  occ. eigenvalues --   -1.13286  -1.13282  -1.13277  -1.13266  -1.13258
  Beta  occ. eigenvalues --   -1.13251  -1.13243  -1.13231  -1.13089  -1.13060
  Beta  occ. eigenvalues --   -1.13041  -1.12900  -1.12838  -1.12820  -1.12806
  Beta  occ. eigenvalues --   -1.12764  -1.12761  -1.12748  -1.12714  -1.12693
  Beta  occ. eigenvalues --   -0.18021  -0.12764  -0.12271
  Beta virt. eigenvalues --   -0.06782  -0.05423  -0.05284  -0.04744  -0.02334
  Beta virt. eigenvalues --   -0.02116  -0.01457  -0.01326  -0.01112  -0.00443
  Beta virt. eigenvalues --   -0.00381   0.00131   0.00387   0.00865   0.00880

 Mulliken charges and spin densities:
               1          2
     1  Na   0.131758  -0.094319
     2  Na   0.304800  -0.061719
     3  Na  -0.323060   0.737976
     4  Na  -0.076589  -0.133191
     5  Na   0.232203  -0.051467
     6  Na  -0.000140  -0.108798
     7  Na  -0.268972   0.711517
 Sum of Mulliken charges =  -0.00000   1.00000

 Dipole moment (field-independent basis, Debye):
    X=              0.0743    Y=              0.0544    Z=              0.0447  Tot=              0.1023
 Quadrupole moment (field-independent basis, Debye-Ang):
   XX=            -57.2998   YY=            -61.3420   ZZ=            -74.6072
   XY=              0.2410   XZ=              0.3470   YZ=              0.6267

 Normal termination of Gaussian 16 at Fri Dec  8 00:29:33 2023.
