 Gaussian 16, Revision B.01,
 Gaussian 16:  ES64L-G16RevB.01 20-Dec-2017

 -------------------------
 #P B3LYP/6-311+g(d) force
 -------------------------

 -----
 DPGEN
 -----
 Symbolic Z-matrix:
 Charge =  0 Multiplicity = 2

                         Standard orientation:
 ---------------------------------------------------------------------
 Center     Atomic      Atomic             Coordinates (Angstroms)
 Number     Number       Type             X           Y           Z
 ---------------------------------------------------------------------
      1         11           0        0.086468    0.258394    1.747238
      2         11           0       -1.456383    2.303306   -0.188953
      3         11           0        2.989822   -0.997292   -0.022572
      4         11           0       -0.187548   -2.611733    0.235074
      5         11           0       -3.276312   -0.594897    0.034792
      6         11           0        1.833825    2.115677   -0.100027
      7         11           0        0.010128   -0.473456   -1.705551
 ---------------------------------------------------------------------

 SCF Done:  E(UB3LYP) =  -1136.13447050     A.U. after   19 cycles

 The electronic state is 2-A.
 Alpha  occ. eigenvalues --  -38.44410 -38.44095 -38.43258 -38.43222 -38.43201
 Alpha  occ. eigenvalues --  -38.43159 -38.43095  -2.20217  -2.19951  -2.19217
 Alpha  occ. eigenvalues --   -2.19178  -2.19143  -2.19106  -2.19066  -1.13887
 Alpha  occ. eigenvalues --   -1.13879  -1.13857  -1.13626  -1.13612  -1.13593
 Alpha  occ. eigenvalues --   -1.13105  -1.12927  -1.12900  -1.12846  -1.12819
 Alpha  occ. eigenvalues --   -1.12810  -1.12790  -1.12782  -1.12754  -1.12745
 Alpha  occ. eigenvalues --   -1.12741  -1.12718  -1.12690  -1.12677  -1.12673
 Alpha  occ. eigenvalues --   -0.19250  -0.13240  -0.12569  -0.10645
 Alpha virt. eigenvalues --   -0.06007  -0.04916  -0.04388  -0.03100  -0.02863
 Alpha virt. eigenvalues --   -0.02247  -0.01881  -0.00969  -0.00173  -0.00068
 Alpha virt. eigenvalues --    0.00003   0.00338   0.00823   0.00908   0.00942

  Beta  occ. eigenvalues --  -38.44410 -38.44090 -38.43246 -38.43214 -38.43151
  Beta  occ. eigenvalues --  -38.43127 -38.43014  -2.20220  -2.19946  -2.19170
  Beta  occ. eigenvalues --   -2.19133  -2.19073  -2.19056  -2.18958  -1.13885
  Beta  occ. eigenvalues --   -1.13870  -1.13861  -1.13623  -1.13594  -1.13584
  Beta  occ. eigenvalues --   -1.13054  -1.12889  -1.12841  -1.12803  -1.12779
  Beta  occ. eigenvalues --   -1.12769  -1.12760  -1.12745  -1.12704  -1.12679
  Beta  occ. eigenvalues --   -1.12673  -1.12667  -1.12661  -1.12600  -1.12587
  Beta  occ. eigenvalues --   -0.18503  -0.13007  -0.12292
  Beta virt. eigenvalues --   -0.06693  -0.05982  -0.04925  -0.04368  -0.02331
  Beta virt. eigenvalues --   -0.02034  -0.01803  -0.01194  -0.00920  -0.00213
  Beta virt. eigenvalues --   -0.00115   0.00138   0.00364   0.00858   0.00907

 Mulliken charges and spin densities:
               1          2
     1  Na  -0.450174   0.693643
     2  Na   0.142810  -0.068026
     3  Na   0.282300  -0.053945
     4  Na   0.258354  -0.139512
     5  Na   0.052659  -0.092222
     6  Na   0.248964  -0.030546
     7  Na  -0.534913   0.690609
 Sum of Mulliken charges =  -0.00000   1.00000

 Dipole moment (field-independent basis, Debye):
    X=             -0.1504    Y=             -0.2010    Z=              0.0102  Tot=              0.2512
 Quadrupole moment (field-independent basis, Debye-Ang):
   XX=            -51.8471   YY=            -65.4671   ZZ=            -74.9052
   XY=              0.0025   XZ=             -0.2231   YZ=             -1.5138

 Normal termination of Gaussian 16 at Thu Dec  7 05:21:02 2023.
