 Gaussian 16, Revision B.01,
 Gaussian 16:  ES64L-G16RevB.01 20-Dec-2017

 -------------------------
 #P B3LYP/6-311+g(d) force
 -------------------------

 -----
 DPGEN
 -----
 Symbolic Z-matrix:
 Charge =  0 Multiplicity = 2

                         Standard orientation:
 ---------------------------------------------------------------------
 Center     Atomic      Atomic             Coordinates (Angstroms)
 Number     Number       Type             X           Y           Z
 ---------------------------------------------------------------------
      1         11           0       -0.847906   -1.812049    0.549277
      2         11           0       -4.398365   -2.879229   -0.240681
      3         11           0       -2.896219    0.466749   -0.430262
      4         11           0       -2.189918    3.571899    0.100570
      5         11           0        0.755180    1.728917   -0.194341
      6         11           0        3.215415   -0.163718    0.903440
      7         11           0        6.361814   -0.912569   -0.688001
 ---------------------------------------------------------------------

 SCF Done:  E(UB3LYP) =  -1136.12066212     A.U. after   20 cycles

 The electronic state is 2-A.
 Alpha  occ. eigenvalues --  -38.45103 -38.44777 -38.44586 -38.44105 -38.44008
 Alpha  occ. eigenvalues --  -38.43407 -38.43396  -2.20900  -2.20538  -2.20373
 Alpha  occ. eigenvalues --   -2.19940  -2.19886  -2.19241  -2.19188  -1.14625
 Alpha  occ. eigenvalues --   -1.14589  -1.14459  -1.14210  -1.14210  -1.14147
 Alpha  occ. eigenvalues --   -1.14009  -1.14008  -1.13979  -1.13638  -1.13618
 Alpha  occ. eigenvalues --   -1.13608  -1.13585  -1.13555  -1.13462  -1.12908
 Alpha  occ. eigenvalues --   -1.12891  -1.12889  -1.12866  -1.12865  -1.12827
 Alpha  occ. eigenvalues --   -0.16719  -0.13662  -0.12572  -0.11079
 Alpha virt. eigenvalues --   -0.06519  -0.05044  -0.04883  -0.03776  -0.02756
 Alpha virt. eigenvalues --   -0.02379  -0.01915  -0.01626  -0.01486  -0.00837
 Alpha virt. eigenvalues --   -0.00412  -0.00170   0.00143   0.00252   0.00610

  Beta  occ. eigenvalues --  -38.45075 -38.44767 -38.44469 -38.44087 -38.43995
  Beta  occ. eigenvalues --  -38.43406 -38.43383  -2.20848  -2.20520  -2.20155
  Beta  occ. eigenvalues --   -2.19909  -2.19863  -2.19214  -2.19198  -1.14594
  Beta  occ. eigenvalues --   -1.14556  -1.14407  -1.14198  -1.14195  -1.14136
  Beta  occ. eigenvalues --   -1.13860  -1.13859  -1.13835  -1.13618  -1.13593
  Beta  occ. eigenvalues --   -1.13579  -1.13570  -1.13531  -1.13446  -1.12910
  Beta  occ. eigenvalues --   -1.12889  -1.12873  -1.12861  -1.12841  -1.12795
  Beta  occ. eigenvalues --   -0.16289  -0.13107  -0.12126
  Beta virt. eigenvalues --   -0.07638  -0.06171  -0.04821  -0.04469  -0.03556
  Beta virt. eigenvalues --   -0.02505  -0.02172  -0.01717  -0.01263  -0.01143
  Beta virt. eigenvalues --   -0.00480  -0.00061  -0.00016   0.00292   0.00394

 Mulliken charges and spin densities:
               1          2
     1  Na  -0.303946   0.178531
     2  Na   0.780429   0.055354
     3  Na  -0.977538   0.219566
     4  Na   1.236413   0.164656
     5  Na  -0.980191  -0.083645
     6  Na   0.091729  -0.138699
     7  Na   0.153104   0.604237
 Sum of Mulliken charges =  -0.00000   1.00000

 Dipole moment (field-independent basis, Debye):
    X=             -1.6232    Y=             -0.7284    Z=             -0.0790  Tot=              1.7809
 Quadrupole moment (field-independent basis, Debye-Ang):
   XX=            -61.6557   YY=            -61.7052   ZZ=            -71.4475
   XY=              5.6943   XZ=             -1.2752   YZ=              0.6734

 Normal termination of Gaussian 16 at Tue Nov 28 19:22:08 2023.
