 Gaussian 16, Revision B.01,
 Gaussian 16:  ES64L-G16RevB.01 20-Dec-2017

 -------------------------
 #P B3LYP/6-311+g(d) force
 -------------------------

 -----
 DPGEN
 -----
 Symbolic Z-matrix:
 Charge =  0 Multiplicity = 2

                         Standard orientation:
 ---------------------------------------------------------------------
 Center     Atomic      Atomic             Coordinates (Angstroms)
 Number     Number       Type             X           Y           Z
 ---------------------------------------------------------------------
      1         11           0       -0.944848    2.089224    1.836670
      2         11           0       -2.723811    0.819613   -0.736148
      3         11           0        1.452104   -0.765635   -1.112945
      4         11           0       -2.809225   -2.518895   -0.750885
      5         11           0        4.435848   -1.147959    0.218992
      6         11           0        0.962152    2.923785   -1.148000
      7         11           0       -0.372219   -1.400133    1.692317
 ---------------------------------------------------------------------

 SCF Done:  E(UB3LYP) =  -1136.11906702     A.U. after   22 cycles

 The electronic state is 2-A.
 Alpha  occ. eigenvalues --  -38.44929 -38.44650 -38.44201 -38.44190 -38.43851
 Alpha  occ. eigenvalues --  -38.43639 -38.43636  -2.20674  -2.20470  -2.20041
 Alpha  occ. eigenvalues --   -2.19963  -2.19679  -2.19481  -2.19442  -1.14344
 Alpha  occ. eigenvalues --   -1.14336  -1.14321  -1.14165  -1.14137  -1.14085
 Alpha  occ. eigenvalues --   -1.13737  -1.13684  -1.13645  -1.13636  -1.13623
 Alpha  occ. eigenvalues --   -1.13578  -1.13375  -1.13328  -1.13303  -1.13160
 Alpha  occ. eigenvalues --   -1.13140  -1.13109  -1.13101  -1.13087  -1.13074
 Alpha  occ. eigenvalues --   -0.17328  -0.12846  -0.12081  -0.10894
 Alpha virt. eigenvalues --   -0.06922  -0.05376  -0.03933  -0.03530  -0.03139
 Alpha virt. eigenvalues --   -0.02633  -0.02181  -0.01358  -0.00713  -0.00379
 Alpha virt. eigenvalues --   -0.00165   0.00063   0.00220   0.00616   0.00696

  Beta  occ. eigenvalues --  -38.44942 -38.44624 -38.44158 -38.44138 -38.43837
  Beta  occ. eigenvalues --  -38.43617 -38.43593  -2.20699  -2.20425  -2.19925
  Beta  occ. eigenvalues --   -2.19902  -2.19655  -2.19408  -2.19398  -1.14361
  Beta  occ. eigenvalues --   -1.14351  -1.14337  -1.14118  -1.14107  -1.14051
  Beta  occ. eigenvalues --   -1.13662  -1.13588  -1.13586  -1.13582  -1.13568
  Beta  occ. eigenvalues --   -1.13540  -1.13350  -1.13306  -1.13289  -1.13107
  Beta  occ. eigenvalues --   -1.13079  -1.13079  -1.13072  -1.13055  -1.13014
  Beta  occ. eigenvalues --   -0.16635  -0.12655  -0.11931
  Beta virt. eigenvalues --   -0.07095  -0.06716  -0.05209  -0.03462  -0.03230
  Beta virt. eigenvalues --   -0.02763  -0.02308  -0.01542  -0.01204  -0.00629
  Beta virt. eigenvalues --   -0.00173   0.00020   0.00141   0.00263   0.00648

 Mulliken charges and spin densities:
               1          2
     1  Na   0.134851   0.141113
     2  Na   0.069818   0.267985
     3  Na  -0.145187   0.159301
     4  Na   0.160263   0.073628
     5  Na   0.162830  -0.107294
     6  Na  -0.084489   0.115377
     7  Na  -0.298087   0.349891
 Sum of Mulliken charges =  -0.00000   1.00000

 Dipole moment (field-independent basis, Debye):
    X=              0.6911    Y=              0.0729    Z=              0.2674  Tot=              0.7446
 Quadrupole moment (field-independent basis, Debye-Ang):
   XX=            -56.5557   YY=            -66.5417   ZZ=            -70.6350
   XY=              0.2863   XZ=              2.9047   YZ=             -0.7261

 Normal termination of Gaussian 16 at Wed Nov 29 01:48:00 2023.
