 Gaussian 16, Revision B.01,
 Gaussian 16:  ES64L-G16RevB.01 20-Dec-2017

 -------------------------
 #P B3LYP/6-311+g(d) force
 -------------------------

 -----
 DPGEN
 -----
 Symbolic Z-matrix:
 Charge =  0 Multiplicity = 2

                         Standard orientation:
 ---------------------------------------------------------------------
 Center     Atomic      Atomic             Coordinates (Angstroms)
 Number     Number       Type             X           Y           Z
 ---------------------------------------------------------------------
      1         11           0        3.000173    1.891214    0.105041
      2         11           0        0.106538   -0.329335    1.995227
      3         11           0       -2.805072    2.025669    0.173385
      4         11           0        3.256741   -1.088793   -0.382001
      5         11           0       -0.354584    0.901078   -1.370401
      6         11           0       -0.095896   -2.210373   -0.299863
      7         11           0       -3.107899   -1.189460   -0.221387
 ---------------------------------------------------------------------

 SCF Done:  E(UB3LYP) =  -1136.11717334     A.U. after   25 cycles

 The electronic state is 2-A.
 Alpha  occ. eigenvalues --  -38.45033 -38.44975 -38.44448 -38.44266 -38.43851
 Alpha  occ. eigenvalues --  -38.43362 -38.42298  -2.20897  -2.20813  -2.20262
 Alpha  occ. eigenvalues --   -2.20174  -2.19700  -2.19276  -2.18266  -1.14577
 Alpha  occ. eigenvalues --   -1.14551  -1.14538  -1.14523  -1.14469  -1.14443
 Alpha  occ. eigenvalues --   -1.13935  -1.13913  -1.13901  -1.13880  -1.13859
 Alpha  occ. eigenvalues --   -1.13790  -1.13371  -1.13357  -1.13333  -1.12990
 Alpha  occ. eigenvalues --   -1.12901  -1.12869  -1.11966  -1.11920  -1.11892
 Alpha  occ. eigenvalues --   -0.18645  -0.14248  -0.11547  -0.10332
 Alpha virt. eigenvalues --   -0.06967  -0.06106  -0.03607  -0.03514  -0.02684
 Alpha virt. eigenvalues --   -0.02410  -0.02111  -0.01571  -0.00785  -0.00134
 Alpha virt. eigenvalues --   -0.00018   0.00179   0.00555   0.00635   0.00689

  Beta  occ. eigenvalues --  -38.45022 -38.44964 -38.44449 -38.44236 -38.43850
  Beta  occ. eigenvalues --  -38.43257 -38.42284  -2.20880  -2.20794  -2.20267
  Beta  occ. eigenvalues --   -2.20122  -2.19701  -2.19083  -2.18244  -1.14560
  Beta  occ. eigenvalues --   -1.14539  -1.14515  -1.14513  -1.14445  -1.14428
  Beta  occ. eigenvalues --   -1.13939  -1.13910  -1.13894  -1.13839  -1.13816
  Beta  occ. eigenvalues --   -1.13748  -1.13371  -1.13359  -1.13316  -1.12863
  Beta  occ. eigenvalues --   -1.12763  -1.12734  -1.11954  -1.11881  -1.11861
  Beta  occ. eigenvalues --   -0.17946  -0.14040  -0.11353
  Beta virt. eigenvalues --   -0.06840  -0.06462  -0.06037  -0.03485  -0.02927
  Beta virt. eigenvalues --   -0.02560  -0.01856  -0.01427  -0.01053  -0.00782
  Beta virt. eigenvalues --   -0.00029   0.00093   0.00232   0.00630   0.00662

 Mulliken charges and spin densities:
               1          2
     1  Na   0.329744  -0.039317
     2  Na  -0.613733   0.638124
     3  Na   0.465882  -0.080339
     4  Na   0.112563   0.061601
     5  Na  -0.689647   0.287393
     6  Na   0.115506   0.094700
     7  Na   0.279684   0.037837
 Sum of Mulliken charges =  -0.00000   1.00000

 Dipole moment (field-independent basis, Debye):
    X=              0.0239    Y=              0.0024    Z=              0.1556  Tot=              0.1574
 Quadrupole moment (field-independent basis, Debye-Ang):
   XX=            -48.6371   YY=            -69.8016   ZZ=            -75.7979
   XY=              0.7261   XZ=             -1.1363   YZ=              2.0985

 Normal termination of Gaussian 16 at Tue Dec  5 22:55:02 2023.
