 Gaussian 16, Revision B.01,
 Gaussian 16:  ES64L-G16RevB.01 20-Dec-2017

 -------------------------
 #P B3LYP/6-311+g(d) force
 -------------------------

 -----
 DPGEN
 -----
 Symbolic Z-matrix:
 Charge =  0 Multiplicity = 2

                         Standard orientation:
 ---------------------------------------------------------------------
 Center     Atomic      Atomic             Coordinates (Angstroms)
 Number     Number       Type             X           Y           Z
 ---------------------------------------------------------------------
      1         11           0        0.262663   -1.554743   -0.349432
      2         11           0        2.045217    0.392910   -1.600990
      3         11           0        3.648797   -1.301806    0.557670
      4         11           0        0.878155    1.356888    1.752781
      5         11           0       -0.837169    2.227090   -1.347788
      6         11           0       -2.173019    0.449742    1.478310
      7         11           0       -3.824644   -1.570081   -0.490551
 ---------------------------------------------------------------------

 SCF Done:  E(UB3LYP) =  -1136.12340399     A.U. after   23 cycles

 The electronic state is 2-A.
 Alpha  occ. eigenvalues --  -38.44594 -38.44363 -38.44050 -38.43592 -38.43534
 Alpha  occ. eigenvalues --  -38.43529 -38.43519  -2.20481  -2.20197  -2.20018
 Alpha  occ. eigenvalues --   -2.19496  -2.19426  -2.19373  -2.19305  -1.14273
 Alpha  occ. eigenvalues --   -1.14171  -1.14065  -1.13893  -1.13844  -1.13833
 Alpha  occ. eigenvalues --   -1.13718  -1.13641  -1.13584  -1.13239  -1.13164
 Alpha  occ. eigenvalues --   -1.13144  -1.13086  -1.13059  -1.13042  -1.13027
 Alpha  occ. eigenvalues --   -1.13020  -1.12986  -1.12967  -1.12966  -1.12928
 Alpha  occ. eigenvalues --   -0.18547  -0.13770  -0.11521  -0.11325
 Alpha virt. eigenvalues --   -0.06479  -0.05025  -0.04651  -0.03270  -0.02839
 Alpha virt. eigenvalues --   -0.02419  -0.02225  -0.01194  -0.00838  -0.00069
 Alpha virt. eigenvalues --    0.00109   0.00328   0.00485   0.00543   0.00760

  Beta  occ. eigenvalues --  -38.44577 -38.44353 -38.44002 -38.43565 -38.43519
  Beta  occ. eigenvalues --  -38.43501 -38.43465  -2.20454  -2.20180  -2.19934
  Beta  occ. eigenvalues --   -2.19449  -2.19315  -2.19308  -2.19305  -1.14239
  Beta  occ. eigenvalues --   -1.14137  -1.14046  -1.13879  -1.13823  -1.13821
  Beta  occ. eigenvalues --   -1.13660  -1.13584  -1.13513  -1.13183  -1.13130
  Beta  occ. eigenvalues --   -1.13107  -1.13018  -1.12993  -1.12986  -1.12976
  Beta  occ. eigenvalues --   -1.12966  -1.12964  -1.12953  -1.12930  -1.12919
  Beta  occ. eigenvalues --   -0.17811  -0.13625  -0.11149
  Beta virt. eigenvalues --   -0.07482  -0.06273  -0.04915  -0.04101  -0.02892
  Beta virt. eigenvalues --   -0.02430  -0.02140  -0.01665  -0.01001  -0.00431
  Beta virt. eigenvalues --    0.00006   0.00155   0.00386   0.00628   0.00674

 Mulliken charges and spin densities:
               1          2
     1  Na  -1.095890   0.424567
     2  Na   0.584446   0.036994
     3  Na   0.655259  -0.027485
     4  Na  -0.340665   0.372222
     5  Na  -0.165331   0.179043
     6  Na   0.320841  -0.003617
     7  Na   0.041341   0.018275
 Sum of Mulliken charges =  -0.00000   1.00000

 Dipole moment (field-independent basis, Debye):
    X=              1.0048    Y=              0.3475    Z=             -0.1000  Tot=              1.0679
 Quadrupole moment (field-independent basis, Debye-Ang):
   XX=            -54.9504   YY=            -72.7141   ZZ=            -68.3292
   XY=             -2.8328   XZ=              3.8374   YZ=             -0.8389

 Normal termination of Gaussian 16 at Tue Dec  5 12:54:58 2023.
