 Gaussian 16, Revision B.01,
 Gaussian 16:  ES64L-G16RevB.01 20-Dec-2017

 -------------------------
 #P B3LYP/6-311+g(d) force
 -------------------------

 -----
 DPGEN
 -----
 Symbolic Z-matrix:
 Charge =  0 Multiplicity = 2

                         Standard orientation:
 ---------------------------------------------------------------------
 Center     Atomic      Atomic             Coordinates (Angstroms)
 Number     Number       Type             X           Y           Z
 ---------------------------------------------------------------------
      1         11           0        5.592159    0.759004   -0.557171
      2         11           0       -2.807546   -2.773611   -0.332475
      3         11           0       -1.495376    3.565890   -0.185131
      4         11           0       -0.759909    0.516328    1.433664
      5         11           0        0.417595   -2.869312   -0.082350
      6         11           0        2.644880   -0.357408    0.326469
      7         11           0       -3.591803    1.159108   -0.603007
 ---------------------------------------------------------------------

 SCF Done:  E(UB3LYP) =  -1136.12035567     A.U. after   20 cycles

 The electronic state is 2-A.
 Alpha  occ. eigenvalues --  -38.45089 -38.44921 -38.44683 -38.44305 -38.43804
 Alpha  occ. eigenvalues --  -38.43563 -38.42809  -2.20911  -2.20729  -2.20508
 Alpha  occ. eigenvalues --   -2.20131  -2.19615  -2.19365  -2.18645  -1.14605
 Alpha  occ. eigenvalues --   -1.14584  -1.14516  -1.14408  -1.14385  -1.14366
 Alpha  occ. eigenvalues --   -1.14185  -1.14168  -1.14108  -1.13807  -1.13789
 Alpha  occ. eigenvalues --   -1.13778  -1.13247  -1.13246  -1.13245  -1.13036
 Alpha  occ. eigenvalues --   -1.13016  -1.13007  -1.12335  -1.12323  -1.12300
 Alpha  occ. eigenvalues --   -0.16900  -0.13823  -0.12613  -0.10739
 Alpha virt. eigenvalues --   -0.06593  -0.05860  -0.04356  -0.03766  -0.02814
 Alpha virt. eigenvalues --   -0.02108  -0.01777  -0.01581  -0.01336  -0.01012
 Alpha virt. eigenvalues --   -0.00540   0.00072   0.00234   0.00456   0.00514

  Beta  occ. eigenvalues --  -38.45050 -38.44916 -38.44651 -38.44301 -38.43706
  Beta  occ. eigenvalues --  -38.43542 -38.42810  -2.20842  -2.20721  -2.20448
  Beta  occ. eigenvalues --   -2.20123  -2.19433  -2.19327  -2.18656  -1.14560
  Beta  occ. eigenvalues --   -1.14529  -1.14462  -1.14399  -1.14379  -1.14355
  Beta  occ. eigenvalues --   -1.14145  -1.14130  -1.14058  -1.13803  -1.13794
  Beta  occ. eigenvalues --   -1.13760  -1.13128  -1.13122  -1.13122  -1.13011
  Beta  occ. eigenvalues --   -1.12993  -1.12974  -1.12351  -1.12339  -1.12243
  Beta  occ. eigenvalues --   -0.16419  -0.13520  -0.11942
  Beta virt. eigenvalues --   -0.07415  -0.06432  -0.05363  -0.04058  -0.03429
  Beta virt. eigenvalues --   -0.02601  -0.01904  -0.01512  -0.01327  -0.01073
  Beta virt. eigenvalues --   -0.00681  -0.00239   0.00274   0.00413   0.00492

 Mulliken charges and spin densities:
               1          2
     1  Na  -0.187603   0.364805
     2  Na  -0.075998   0.301094
     3  Na   0.282223   0.016177
     4  Na  -0.121185  -0.014973
     5  Na   0.393781  -0.236465
     6  Na  -0.239711   0.351131
     7  Na  -0.051507   0.218231
 Sum of Mulliken charges =  -0.00000   1.00000

 Dipole moment (field-independent basis, Debye):
    X=             -1.5554    Y=              1.2817    Z=             -0.1241  Tot=              2.0192
 Quadrupole moment (field-independent basis, Debye-Ang):
   XX=            -71.3629   YY=            -58.5788   ZZ=            -70.3652
   XY=             -2.9106   XZ=             -0.9206   YZ=             -1.3906

 Normal termination of Gaussian 16 at Sun Dec  3 16:49:06 2023.
