 Gaussian 16, Revision B.01,
 Gaussian 16:  ES64L-G16RevB.01 20-Dec-2017

 -------------------------
 #P B3LYP/6-311+g(d) force
 -------------------------

 -----
 DPGEN
 -----
 Symbolic Z-matrix:
 Charge =  0 Multiplicity = 2

                         Standard orientation:
 ---------------------------------------------------------------------
 Center     Atomic      Atomic             Coordinates (Angstroms)
 Number     Number       Type             X           Y           Z
 ---------------------------------------------------------------------
      1         11           0        1.396370   -2.455371   -0.062312
      2         11           0       -2.496803   -2.647220    0.345330
      3         11           0       -3.502655    0.353683    0.101727
      4         11           0        4.074953   -0.676463   -0.196459
      5         11           0       -0.615343    3.585774   -0.184330
      6         11           0       -0.678338    0.132201   -0.799907
      7         11           0        1.821816    1.707396    0.795951
 ---------------------------------------------------------------------

 SCF Done:  E(UB3LYP) =  -1136.12359659     A.U. after   21 cycles

 The electronic state is 2-A.
 Alpha  occ. eigenvalues --  -38.44498 -38.44430 -38.43997 -38.43967 -38.43475
 Alpha  occ. eigenvalues --  -38.43443 -38.43105  -2.20326  -2.20289  -2.19938
 Alpha  occ. eigenvalues --   -2.19822  -2.19349  -2.19332  -2.18964  -1.14011
 Alpha  occ. eigenvalues --   -1.14000  -1.13993  -1.13976  -1.13963  -1.13910
 Alpha  occ. eigenvalues --   -1.13694  -1.13639  -1.13527  -1.13487  -1.13476
 Alpha  occ. eigenvalues --   -1.13445  -1.13019  -1.13011  -1.13002  -1.12979
 Alpha  occ. eigenvalues --   -1.12966  -1.12948  -1.12617  -1.12604  -1.12582
 Alpha  occ. eigenvalues --   -0.17662  -0.14013  -0.13157  -0.09631
 Alpha virt. eigenvalues --   -0.06401  -0.05726  -0.04685  -0.02977  -0.02710
 Alpha virt. eigenvalues --   -0.02223  -0.01870  -0.01650  -0.01168  -0.00313
 Alpha virt. eigenvalues --    0.00083   0.00295   0.00523   0.00559   0.00713

  Beta  occ. eigenvalues --  -38.44490 -38.44420 -38.43993 -38.43952 -38.43443
  Beta  occ. eigenvalues --  -38.43377 -38.43042  -2.20318  -2.20275  -2.19913
  Beta  occ. eigenvalues --   -2.19816  -2.19279  -2.19227  -2.18847  -1.14010
  Beta  occ. eigenvalues --   -1.13998  -1.13979  -1.13970  -1.13909  -1.13879
  Beta  occ. eigenvalues --   -1.13663  -1.13622  -1.13510  -1.13482  -1.13468
  Beta  occ. eigenvalues --   -1.13438  -1.12983  -1.12968  -1.12936  -1.12900
  Beta  occ. eigenvalues --   -1.12896  -1.12863  -1.12535  -1.12522  -1.12510
  Beta  occ. eigenvalues --   -0.17245  -0.13357  -0.12758
  Beta virt. eigenvalues --   -0.06338  -0.06126  -0.05596  -0.04492  -0.02487
  Beta virt. eigenvalues --   -0.02202  -0.02063  -0.01749  -0.01178  -0.01019
  Beta virt. eigenvalues --   -0.00176   0.00345   0.00435   0.00580   0.00783

 Mulliken charges and spin densities:
               1          2
     1  Na   0.106560   0.005043
     2  Na   0.300908  -0.029859
     3  Na   0.474123   0.366285
     4  Na   0.244981   0.549422
     5  Na   0.365317  -0.003120
     6  Na  -1.593694   0.117243
     7  Na   0.101805  -0.005013
 Sum of Mulliken charges =  -0.00000   1.00000

 Dipole moment (field-independent basis, Debye):
    X=             -0.6687    Y=              0.3199    Z=              0.2520  Tot=              0.7830
 Quadrupole moment (field-independent basis, Debye-Ang):
   XX=            -75.0758   YY=            -55.8435   ZZ=            -69.3678
   XY=              0.4585   XZ=             -0.9990   YZ=             -1.1261

 Normal termination of Gaussian 16 at Tue Nov 28 23:00:55 2023.
