 Gaussian 16, Revision B.01,
 Gaussian 16:  ES64L-G16RevB.01 20-Dec-2017

 -------------------------
 #P B3LYP/6-311+g(d) force
 -------------------------

 -----
 DPGEN
 -----
 Symbolic Z-matrix:
 Charge =  0 Multiplicity = 2

                         Standard orientation:
 ---------------------------------------------------------------------
 Center     Atomic      Atomic             Coordinates (Angstroms)
 Number     Number       Type             X           Y           Z
 ---------------------------------------------------------------------
      1         11           0        2.066780    2.473504   -0.060348
      2         11           0        0.314008    0.092089   -1.475684
      3         11           0        2.593933   -0.940512    0.271359
      4         11           0       -2.596134   -0.598145    0.153633
      5         11           0       -0.124888   -2.933699   -0.762578
      6         11           0       -2.042276    2.303624   -0.318954
      7         11           0       -0.211423   -0.396862    2.192573
 ---------------------------------------------------------------------

 SCF Done:  E(UB3LYP) =  -1136.13249800     A.U. after   18 cycles

 The electronic state is 2-A.
 Alpha  occ. eigenvalues --  -38.44018 -38.43735 -38.43731 -38.43673 -38.43387
 Alpha  occ. eigenvalues --  -38.43331 -38.43041  -2.19917  -2.19590  -2.19578
 Alpha  occ. eigenvalues --   -2.19546  -2.19282  -2.19266  -2.19099  -1.13594
 Alpha  occ. eigenvalues --   -1.13559  -1.13520  -1.13337  -1.13321  -1.13247
 Alpha  occ. eigenvalues --   -1.13245  -1.13237  -1.13221  -1.13210  -1.13192
 Alpha  occ. eigenvalues --   -1.13154  -1.13000  -1.12960  -1.12937  -1.12914
 Alpha  occ. eigenvalues --   -1.12896  -1.12870  -1.12770  -1.12730  -1.12703
 Alpha  occ. eigenvalues --   -0.18984  -0.13085  -0.12501  -0.11181
 Alpha virt. eigenvalues --   -0.05370  -0.04942  -0.04674  -0.03356  -0.02933
 Alpha virt. eigenvalues --   -0.02765  -0.01277  -0.01140  -0.00163  -0.00154
 Alpha virt. eigenvalues --    0.00068   0.00359   0.00871   0.00911   0.00946

  Beta  occ. eigenvalues --  -38.43914 -38.43733 -38.43732 -38.43663 -38.43365
  Beta  occ. eigenvalues --  -38.43321 -38.42988  -2.19725  -2.19587  -2.19564
  Beta  occ. eigenvalues --   -2.19551  -2.19269  -2.19228  -2.19004  -1.13465
  Beta  occ. eigenvalues --   -1.13423  -1.13389  -1.13337  -1.13309  -1.13237
  Beta  occ. eigenvalues --   -1.13227  -1.13220  -1.13207  -1.13203  -1.13196
  Beta  occ. eigenvalues --   -1.13152  -1.12969  -1.12939  -1.12902  -1.12892
  Beta  occ. eigenvalues --   -1.12864  -1.12852  -1.12705  -1.12666  -1.12628
  Beta  occ. eigenvalues --   -0.18246  -0.12851  -0.12258
  Beta virt. eigenvalues --   -0.07174  -0.05341  -0.04861  -0.04629  -0.02515
  Beta virt. eigenvalues --   -0.02252  -0.01710  -0.01171  -0.01073  -0.00177
  Beta virt. eigenvalues --   -0.00097   0.00146   0.00394   0.00877   0.00949

 Mulliken charges and spin densities:
               1          2
     1  Na  -0.038836  -0.042451
     2  Na  -0.350003   0.214432
     3  Na   0.250115   0.111272
     4  Na   0.449715   0.170357
     5  Na   0.214270   0.062841
     6  Na  -0.091827  -0.075956
     7  Na  -0.433435   0.559505
 Sum of Mulliken charges =  -0.00000   1.00000

 Dipole moment (field-independent basis, Debye):
    X=              0.2044    Y=              0.1469    Z=              0.3005  Tot=              0.3920
 Quadrupole moment (field-independent basis, Debye-Ang):
   XX=            -62.2275   YY=            -59.7256   ZZ=            -72.4200
   XY=              0.0481   XZ=              1.3082   YZ=              0.9826

 Normal termination of Gaussian 16 at Thu Dec  7 05:32:17 2023.
