 Gaussian 16, Revision B.01,
 Gaussian 16:  ES64L-G16RevB.01 20-Dec-2017

 -------------------------
 #P B3LYP/6-311+g(d) force
 -------------------------

 -----
 DPGEN
 -----
 Symbolic Z-matrix:
 Charge =  0 Multiplicity = 2

                         Standard orientation:
 ---------------------------------------------------------------------
 Center     Atomic      Atomic             Coordinates (Angstroms)
 Number     Number       Type             X           Y           Z
 ---------------------------------------------------------------------
      1         11           0       -1.031121    1.969929   -0.246766
      2         11           0       -0.469713   -1.328838   -1.579252
      3         11           0       -3.304410   -0.433461   -0.032504
      4         11           0       -0.737827   -0.656851    1.804993
      5         11           0        2.283350   -1.891598    0.312125
      6         11           0        1.609507    1.316265    1.420651
      7         11           0        1.650214    1.024552   -1.679246
 ---------------------------------------------------------------------

 SCF Done:  E(UB3LYP) =  -1136.12937961     A.U. after   21 cycles

 The electronic state is 2-A.
 Alpha  occ. eigenvalues --  -38.44123 -38.43976 -38.43906 -38.43414 -38.43414
 Alpha  occ. eigenvalues --  -38.43095 -38.42552  -2.20115  -2.19946  -2.19789
 Alpha  occ. eigenvalues --   -2.19398  -2.19366  -2.18959  -2.18532  -1.13831
 Alpha  occ. eigenvalues --   -1.13783  -1.13716  -1.13662  -1.13612  -1.13537
 Alpha  occ. eigenvalues --   -1.13456  -1.13440  -1.13426  -1.13098  -1.13060
 Alpha  occ. eigenvalues --   -1.13041  -1.13016  -1.12997  -1.12970  -1.12628
 Alpha  occ. eigenvalues --   -1.12610  -1.12608  -1.12235  -1.12208  -1.12134
 Alpha  occ. eigenvalues --   -0.19677  -0.13473  -0.12523  -0.11563
 Alpha virt. eigenvalues --   -0.05537  -0.04434  -0.04243  -0.03640  -0.03194
 Alpha virt. eigenvalues --   -0.03023  -0.01421  -0.00559  -0.00436   0.00326
 Alpha virt. eigenvalues --    0.00431   0.00588   0.00675   0.00966   0.01015

  Beta  occ. eigenvalues --  -38.44053 -38.43918 -38.43906 -38.43375 -38.43367
  Beta  occ. eigenvalues --  -38.43090 -38.42538  -2.19989  -2.19842  -2.19789
  Beta  occ. eigenvalues --   -2.19331  -2.19282  -2.18953  -2.18512  -1.13740
  Beta  occ. eigenvalues --   -1.13692  -1.13628  -1.13580  -1.13539  -1.13465
  Beta  occ. eigenvalues --   -1.13445  -1.13432  -1.13427  -1.13044  -1.13003
  Beta  occ. eigenvalues --   -1.12989  -1.12943  -1.12938  -1.12916  -1.12619
  Beta  occ. eigenvalues --   -1.12608  -1.12588  -1.12227  -1.12155  -1.12127
  Beta  occ. eigenvalues --   -0.18807  -0.13296  -0.11372
  Beta virt. eigenvalues --   -0.08256  -0.05390  -0.04300  -0.03683  -0.03210
  Beta virt. eigenvalues --   -0.02483  -0.02242  -0.01358  -0.00469  -0.00170
  Beta virt. eigenvalues --    0.00355   0.00504   0.00632   0.00846   0.00982

 Mulliken charges and spin densities:
               1          2
     1  Na  -0.401939   0.185593
     2  Na  -0.381238   0.356458
     3  Na   0.523335  -0.046719
     4  Na  -0.240746   0.284465
     5  Na  -0.216549  -0.085424
     6  Na   0.375391   0.153556
     7  Na   0.341748   0.152072
 Sum of Mulliken charges =  -0.00000   1.00000

 Dipole moment (field-independent basis, Debye):
    X=             -0.2576    Y=             -0.1442    Z=             -0.0034  Tot=              0.2952
 Quadrupole moment (field-independent basis, Debye-Ang):
   XX=            -56.4683   YY=            -75.0897   ZZ=            -64.0499
   XY=              0.3695   XZ=              0.7544   YZ=             -1.7522

 Normal termination of Gaussian 16 at Mon Dec  4 01:44:49 2023.
