 Gaussian 16, Revision B.01,
 Gaussian 16:  ES64L-G16RevB.01 20-Dec-2017

 -------------------------
 #P B3LYP/6-311+g(d) force
 -------------------------

 -----
 DPGEN
 -----
 Symbolic Z-matrix:
 Charge =  0 Multiplicity = 2

                         Standard orientation:
 ---------------------------------------------------------------------
 Center     Atomic      Atomic             Coordinates (Angstroms)
 Number     Number       Type             X           Y           Z
 ---------------------------------------------------------------------
      1         11           0       -1.095466   -1.897694    0.468470
      2         11           0       -3.998283   -2.726715   -0.357771
      3         11           0       -2.564496    0.855072   -0.663810
      4         11           0       -1.216794    3.942183   -0.347492
      5         11           0        0.375708    1.264541    1.174288
      6         11           0        2.683272   -0.604396    0.603890
      7         11           0        5.816060   -0.832991   -0.877575
 ---------------------------------------------------------------------

 SCF Done:  E(UB3LYP) =  -1136.12346023     A.U. after   19 cycles

 The electronic state is 2-A.
 Alpha  occ. eigenvalues --  -38.44467 -38.44456 -38.44360 -38.44026 -38.43793
 Alpha  occ. eigenvalues --  -38.43788 -38.43016  -2.20318  -2.20255  -2.20174
 Alpha  occ. eigenvalues --   -2.19912  -2.19709  -2.19609  -2.18860  -1.14049
 Alpha  occ. eigenvalues --   -1.14018  -1.13894  -1.13886  -1.13886  -1.13867
 Alpha  occ. eigenvalues --   -1.13865  -1.13828  -1.13803  -1.13615  -1.13593
 Alpha  occ. eigenvalues --   -1.13492  -1.13411  -1.13382  -1.13336  -1.13268
 Alpha  occ. eigenvalues --   -1.13265  -1.13226  -1.12568  -1.12528  -1.12493
 Alpha  occ. eigenvalues --   -0.17260  -0.13639  -0.12897  -0.11155
 Alpha virt. eigenvalues --   -0.06123  -0.04997  -0.04788  -0.03836  -0.02369
 Alpha virt. eigenvalues --   -0.02184  -0.02027  -0.01876  -0.01359  -0.00851
 Alpha virt. eigenvalues --   -0.00129  -0.00030   0.00185   0.00436   0.00630

  Beta  occ. eigenvalues --  -38.44457 -38.44346 -38.44340 -38.44007 -38.43774
  Beta  occ. eigenvalues --  -38.43754 -38.43016  -2.20300  -2.20148  -2.20038
  Beta  occ. eigenvalues --   -2.19879  -2.19651  -2.19575  -2.18870  -1.14028
  Beta  occ. eigenvalues --   -1.14007  -1.13879  -1.13848  -1.13810  -1.13783
  Beta  occ. eigenvalues --   -1.13738  -1.13738  -1.13723  -1.13596  -1.13574
  Beta  occ. eigenvalues --   -1.13444  -1.13383  -1.13340  -1.13285  -1.13243
  Beta  occ. eigenvalues --   -1.13236  -1.13202  -1.12573  -1.12544  -1.12440
  Beta  occ. eigenvalues --   -0.16786  -0.13111  -0.12318
  Beta virt. eigenvalues --   -0.07660  -0.05955  -0.04730  -0.04370  -0.03611
  Beta virt. eigenvalues --   -0.02228  -0.02004  -0.01665  -0.01390  -0.01005
  Beta virt. eigenvalues --   -0.00494   0.00061   0.00173   0.00351   0.00537

 Mulliken charges and spin densities:
               1          2
     1  Na  -0.927853   0.023729
     2  Na   1.380027   0.086054
     3  Na  -0.546670   0.176472
     4  Na   1.000233   0.054489
     5  Na  -1.054111   0.074256
     6  Na   0.192783  -0.025161
     7  Na  -0.044409   0.610162
 Sum of Mulliken charges =  -0.00000   1.00000

 Dipole moment (field-independent basis, Debye):
    X=             -1.5423    Y=              0.0606    Z=             -0.3377  Tot=              1.5800
 Quadrupole moment (field-independent basis, Debye-Ang):
   XX=            -62.4904   YY=            -60.4723   ZZ=            -70.8501
   XY=              5.9625   XZ=             -0.2699   YZ=              0.5096

 Normal termination of Gaussian 16 at Tue Nov 28 23:59:52 2023.
