 Gaussian 16, Revision B.01,
 Gaussian 16:  ES64L-G16RevB.01 20-Dec-2017

 -------------------------
 #P B3LYP/6-311+g(d) force
 -------------------------

 -----
 DPGEN
 -----
 Symbolic Z-matrix:
 Charge =  0 Multiplicity = 2

                         Standard orientation:
 ---------------------------------------------------------------------
 Center     Atomic      Atomic             Coordinates (Angstroms)
 Number     Number       Type             X           Y           Z
 ---------------------------------------------------------------------
      1         11           0       -4.634773   -1.010712   -0.991946
      2         11           0        5.270834   -0.389515   -1.354524
      3         11           0        1.649728   -0.907846    1.739657
      4         11           0       -1.203083    0.825467    0.315422
      5         11           0       -3.571555    2.413285    0.027831
      6         11           0        3.584826    1.593451    0.093959
      7         11           0       -1.095976   -2.524130    0.169601
 ---------------------------------------------------------------------

 SCF Done:  E(UB3LYP) =  -1136.11328143     A.U. after   22 cycles

 The electronic state is 2-A.
 Alpha  occ. eigenvalues --  -38.44655 -38.44440 -38.44372 -38.43927 -38.43925
 Alpha  occ. eigenvalues --  -38.43717 -38.43531  -2.20427  -2.20254  -2.20201
 Alpha  occ. eigenvalues --   -2.19740  -2.19735  -2.19643  -2.19393  -1.14101
 Alpha  occ. eigenvalues --   -1.14073  -1.14044  -1.14037  -1.13901  -1.13896
 Alpha  occ. eigenvalues --   -1.13856  -1.13840  -1.13766  -1.13465  -1.13426
 Alpha  occ. eigenvalues --   -1.13417  -1.13414  -1.13400  -1.13364  -1.13318
 Alpha  occ. eigenvalues --   -1.13310  -1.13288  -1.13023  -1.13009  -1.12973
 Alpha  occ. eigenvalues --   -0.16537  -0.14340  -0.11695  -0.11020
 Alpha virt. eigenvalues --   -0.06498  -0.05461  -0.04046  -0.03803  -0.02822
 Alpha virt. eigenvalues --   -0.02764  -0.02198  -0.01109  -0.00876  -0.00728
 Alpha virt. eigenvalues --   -0.00420  -0.00058   0.00199   0.00266   0.00604

  Beta  occ. eigenvalues --  -38.44594 -38.44416 -38.44377 -38.43918 -38.43899
  Beta  occ. eigenvalues --  -38.43675 -38.43492  -2.20313  -2.20220  -2.20202
  Beta  occ. eigenvalues --   -2.19723  -2.19686  -2.19569  -2.19324  -1.14027
  Beta  occ. eigenvalues --   -1.14024  -1.13988  -1.13960  -1.13886  -1.13873
  Beta  occ. eigenvalues --   -1.13851  -1.13837  -1.13750  -1.13419  -1.13406
  Beta  occ. eigenvalues --   -1.13393  -1.13383  -1.13365  -1.13346  -1.13277
  Beta  occ. eigenvalues --   -1.13264  -1.13220  -1.12978  -1.12947  -1.12928
  Beta  occ. eigenvalues --   -0.15981  -0.13982  -0.11477
  Beta virt. eigenvalues --   -0.07478  -0.05861  -0.05312  -0.03720  -0.03591
  Beta virt. eigenvalues --   -0.02620  -0.02135  -0.01991  -0.01029  -0.00648
  Beta virt. eigenvalues --   -0.00447  -0.00048   0.00089   0.00280   0.00336

 Mulliken charges and spin densities:
               1          2
     1  Na   0.131588   0.310999
     2  Na   0.222327   0.091599
     3  Na   0.984806   0.036601
     4  Na  -1.678299   0.478343
     5  Na  -0.275283  -0.122629
     6  Na  -0.037422  -0.023778
     7  Na   0.652283   0.228865
 Sum of Mulliken charges =  -0.00000   1.00000

 Dipole moment (field-independent basis, Debye):
    X=              0.6512    Y=             -0.6018    Z=             -0.1876  Tot=              0.9063
 Quadrupole moment (field-independent basis, Debye-Ang):
   XX=            -62.2354   YY=            -65.3321   ZZ=            -69.5279
   XY=             -3.5578   XZ=              1.4150   YZ=              3.0718

 Normal termination of Gaussian 16 at Sun Dec  3 15:05:37 2023.
