 Gaussian 16, Revision B.01,
 Gaussian 16:  ES64L-G16RevB.01 20-Dec-2017

 -------------------------
 #P B3LYP/6-311+g(d) force
 -------------------------

 -----
 DPGEN
 -----
 Symbolic Z-matrix:
 Charge =  0 Multiplicity = 2

                         Standard orientation:
 ---------------------------------------------------------------------
 Center     Atomic      Atomic             Coordinates (Angstroms)
 Number     Number       Type             X           Y           Z
 ---------------------------------------------------------------------
      1         11           0       -0.059981    0.132211   -1.798132
      2         11           0        3.613232   -0.495923   -0.073352
      3         11           0       -0.548801   -0.099969    2.024924
      4         11           0       -2.014768    2.046421   -0.229237
      5         11           0        0.632012   -2.486332   -0.017098
      6         11           0        1.340125    2.351421    0.253967
      7         11           0       -2.961818   -1.447830   -0.161072
 ---------------------------------------------------------------------

 SCF Done:  E(UB3LYP) =  -1136.13515470     A.U. after   21 cycles

 The electronic state is 2-A.
 Alpha  occ. eigenvalues --  -38.44594 -38.44160 -38.43603 -38.43554 -38.43355
 Alpha  occ. eigenvalues --  -38.43195 -38.43153  -2.20360  -2.19977  -2.19520
 Alpha  occ. eigenvalues --   -2.19515  -2.19255  -2.19062  -2.19018  -1.14033
 Alpha  occ. eigenvalues --   -1.14022  -1.13997  -1.13650  -1.13636  -1.13619
 Alpha  occ. eigenvalues --   -1.13221  -1.13195  -1.13182  -1.13159  -1.13131
 Alpha  occ. eigenvalues --   -1.13128  -1.12927  -1.12913  -1.12877  -1.12763
 Alpha  occ. eigenvalues --   -1.12746  -1.12703  -1.12691  -1.12652  -1.12632
 Alpha  occ. eigenvalues --   -0.18703  -0.13013  -0.12223  -0.10907
 Alpha virt. eigenvalues --   -0.06224  -0.05078  -0.04109  -0.03176  -0.02905
 Alpha virt. eigenvalues --   -0.02683  -0.01975  -0.01136  -0.00251  -0.00086
 Alpha virt. eigenvalues --   -0.00041   0.00295   0.00740   0.00808   0.00883

  Beta  occ. eigenvalues --  -38.44599 -38.44156 -38.43511 -38.43479 -38.43345
  Beta  occ. eigenvalues --  -38.43186 -38.43146  -2.20371  -2.19973  -2.19381
  Beta  occ. eigenvalues --   -2.19349  -2.19241  -2.19050  -2.19009  -1.14033
  Beta  occ. eigenvalues --   -1.14031  -1.14005  -1.13640  -1.13621  -1.13616
  Beta  occ. eigenvalues --   -1.13136  -1.13097  -1.13073  -1.13043  -1.13031
  Beta  occ. eigenvalues --   -1.13007  -1.12906  -1.12874  -1.12865  -1.12754
  Beta  occ. eigenvalues --   -1.12706  -1.12697  -1.12657  -1.12649  -1.12631
  Beta  occ. eigenvalues --   -0.17936  -0.12840  -0.11961
  Beta virt. eigenvalues --   -0.06940  -0.06155  -0.05086  -0.04084  -0.02476
  Beta virt. eigenvalues --   -0.02064  -0.01908  -0.01605  -0.01096  -0.00268
  Beta virt. eigenvalues --   -0.00086   0.00068   0.00315   0.00814   0.00871

 Mulliken charges and spin densities:
               1          2
     1  Na  -0.328947   0.664168
     2  Na  -0.076510  -0.092459
     3  Na  -0.407010   0.722169
     4  Na   0.364744  -0.020244
     5  Na   0.112231  -0.128187
     6  Na   0.085329  -0.052249
     7  Na   0.250163  -0.093198
 Sum of Mulliken charges =  -0.00000   1.00000

 Dipole moment (field-independent basis, Debye):
    X=              0.0554    Y=             -0.1450    Z=              0.0488  Tot=              0.1627
 Quadrupole moment (field-independent basis, Debye-Ang):
   XX=            -51.4167   YY=            -67.9982   ZZ=            -73.4178
   XY=              0.6518   XZ=              0.8872   YZ=              0.6111

 Normal termination of Gaussian 16 at Mon Dec  4 01:59:47 2023.
