 Gaussian 16, Revision B.01,
 Gaussian 16:  ES64L-G16RevB.01 20-Dec-2017

 -------------------------
 #P B3LYP/6-311+g(d) force
 -------------------------

 -----
 DPGEN
 -----
 Symbolic Z-matrix:
 Charge =  0 Multiplicity = 2

                         Standard orientation:
 ---------------------------------------------------------------------
 Center     Atomic      Atomic             Coordinates (Angstroms)
 Number     Number       Type             X           Y           Z
 ---------------------------------------------------------------------
      1         11           0        3.982184   -2.388551    0.718960
      2         11           0       -8.363326    1.188804    0.996505
      3         11           0       -2.108202   -0.089580   -0.763218
      4         11           0       -5.814698   -0.628405   -0.211079
      5         11           0        0.809043   -1.032245   -1.299592
      6         11           0        6.004615    0.485768    1.205979
      7         11           0        5.490384    2.464209   -0.647555
 ---------------------------------------------------------------------

 SCF Done:  E(UB3LYP) =  -1136.10042922     A.U. after   20 cycles

 The electronic state is 2-A.
 Alpha  occ. eigenvalues --  -38.45192 -38.45152 -38.44779 -38.44557 -38.44180
 Alpha  occ. eigenvalues --  -38.44162 -38.43922  -2.21012  -2.20987  -2.20540
 Alpha  occ. eigenvalues --   -2.20418  -2.19943  -2.19937  -2.19732  -1.14833
 Alpha  occ. eigenvalues --   -1.14631  -1.14619  -1.14613  -1.14609  -1.14606
 Alpha  occ. eigenvalues --   -1.14198  -1.14197  -1.14169  -1.14074  -1.14053
 Alpha  occ. eigenvalues --   -1.14036  -1.13648  -1.13620  -1.13617  -1.13612
 Alpha  occ. eigenvalues --   -1.13601  -1.13577  -1.13386  -1.13386  -1.13341
 Alpha  occ. eigenvalues --   -0.15597  -0.14085  -0.12671  -0.11489
 Alpha virt. eigenvalues --   -0.07245  -0.05359  -0.03854  -0.03600  -0.03481
 Alpha virt. eigenvalues --   -0.02738  -0.02355  -0.01988  -0.01681  -0.01144
 Alpha virt. eigenvalues --   -0.00527  -0.00515  -0.00243   0.00204   0.00333

  Beta  occ. eigenvalues --  -38.45081 -38.45078 -38.44749 -38.44558 -38.44191
  Beta  occ. eigenvalues --  -38.44180 -38.43889  -2.20882  -2.20775  -2.20484
  Beta  occ. eigenvalues --   -2.20427  -2.19976  -2.19963  -2.19669  -1.14754
  Beta  occ. eigenvalues --   -1.14530  -1.14522  -1.14486  -1.14468  -1.14465
  Beta  occ. eigenvalues --   -1.14160  -1.14159  -1.14134  -1.14067  -1.14061
  Beta  occ. eigenvalues --   -1.14005  -1.13660  -1.13640  -1.13637  -1.13633
  Beta  occ. eigenvalues --   -1.13613  -1.13577  -1.13342  -1.13341  -1.13311
  Beta  occ. eigenvalues --   -0.14812  -0.13772  -0.12219
  Beta virt. eigenvalues --   -0.08173  -0.06836  -0.04978  -0.03490  -0.03353
  Beta virt. eigenvalues --   -0.03141  -0.02564  -0.02075  -0.01848  -0.01552
  Beta virt. eigenvalues --   -0.00666  -0.00369  -0.00146   0.00033   0.00256

 Mulliken charges and spin densities:
               1          2
     1  Na   0.255093   0.558779
     2  Na   0.086462   0.137341
     3  Na   0.035096   0.113566
     4  Na   0.098000  -0.041923
     5  Na  -0.544412  -0.055008
     6  Na   0.048398  -0.005293
     7  Na   0.021364   0.292538
 Sum of Mulliken charges =  -0.00000   1.00000

 Dipole moment (field-independent basis, Debye):
    X=              0.8069    Y=              0.6397    Z=              0.2321  Tot=              1.0555
 Quadrupole moment (field-independent basis, Debye-Ang):
   XX=            -54.9769   YY=            -66.5437   ZZ=            -69.7698
   XY=             -6.2584   XZ=             -3.7109   YZ=             -1.6527

 Normal termination of Gaussian 16 at Sun Dec  3 19:41:25 2023.
