 Gaussian 16, Revision B.01,
 Gaussian 16:  ES64L-G16RevB.01 20-Dec-2017

 -------------------------
 #P B3LYP/6-311+g(d) force
 -------------------------

 -----
 DPGEN
 -----
 Symbolic Z-matrix:
 Charge =  0 Multiplicity = 2

                         Standard orientation:
 ---------------------------------------------------------------------
 Center     Atomic      Atomic             Coordinates (Angstroms)
 Number     Number       Type             X           Y           Z
 ---------------------------------------------------------------------
      1         11           0        2.671562    1.957357    0.804397
      2         11           0       -2.806491    1.872049    0.151134
      3         11           0       -3.394528   -1.732275   -0.242811
      4         11           0       -0.202756    2.954061   -1.117052
      5         11           0       -0.048428   -0.827539    1.600313
      6         11           0        3.699117   -1.368966   -0.718864
      7         11           0        0.081524   -2.854687   -0.477117
 ---------------------------------------------------------------------

 SCF Done:  E(UB3LYP) =  -1136.11233172     A.U. after   23 cycles

 The electronic state is 2-A.
 Alpha  occ. eigenvalues --  -38.45374 -38.44730 -38.44462 -38.44450 -38.44369
 Alpha  occ. eigenvalues --  -38.43808 -38.43701  -2.21134  -2.20564  -2.20251
 Alpha  occ. eigenvalues --   -2.20235  -2.20228  -2.19630  -2.19490  -1.14822
 Alpha  occ. eigenvalues --   -1.14790  -1.14765  -1.14384  -1.14229  -1.14147
 Alpha  occ. eigenvalues --   -1.13956  -1.13916  -1.13913  -1.13899  -1.13897
 Alpha  occ. eigenvalues --   -1.13877  -1.13871  -1.13862  -1.13801  -1.13302
 Alpha  occ. eigenvalues --   -1.13286  -1.13258  -1.13148  -1.13128  -1.13108
 Alpha  occ. eigenvalues --   -0.17006  -0.13266  -0.13121  -0.09711
 Alpha virt. eigenvalues --   -0.07049  -0.06574  -0.03967  -0.03619  -0.03021
 Alpha virt. eigenvalues --   -0.02543  -0.02187  -0.01477  -0.01229  -0.00720
 Alpha virt. eigenvalues --   -0.00063   0.00271   0.00284   0.00385   0.00449

  Beta  occ. eigenvalues --  -38.45376 -38.44728 -38.44446 -38.44441 -38.44315
  Beta  occ. eigenvalues --  -38.43788 -38.43618  -2.21139  -2.20564  -2.20246
  Beta  occ. eigenvalues --   -2.20195  -2.20129  -2.19594  -2.19335  -1.14827
  Beta  occ. eigenvalues --   -1.14794  -1.14759  -1.14367  -1.14231  -1.14131
  Beta  occ. eigenvalues --   -1.13952  -1.13915  -1.13891  -1.13861  -1.13853
  Beta  occ. eigenvalues --   -1.13839  -1.13835  -1.13806  -1.13728  -1.13279
  Beta  occ. eigenvalues --   -1.13253  -1.13236  -1.13042  -1.13018  -1.13004
  Beta  occ. eigenvalues --   -0.16599  -0.13017  -0.12572
  Beta virt. eigenvalues --   -0.06950  -0.06368  -0.06299  -0.03853  -0.03116
  Beta virt. eigenvalues --   -0.02664  -0.02205  -0.01901  -0.01179  -0.00861
  Beta virt. eigenvalues --   -0.00695   0.00117   0.00314   0.00455   0.00568

 Mulliken charges and spin densities:
               1          2
     1  Na  -0.087165   0.217033
     2  Na  -0.231050   0.234763
     3  Na   0.206997  -0.071921
     4  Na  -0.005770  -0.033696
     5  Na   0.666044  -0.047078
     6  Na  -0.124010   0.450842
     7  Na  -0.425046   0.250057
 Sum of Mulliken charges =  -0.00000   1.00000

 Dipole moment (field-independent basis, Debye):
    X=             -1.2248    Y=             -0.2303    Z=              0.1120  Tot=              1.2513
 Quadrupole moment (field-independent basis, Debye-Ang):
   XX=            -63.5471   YY=            -67.0066   ZZ=            -71.6085
   XY=             11.5194   XZ=              1.3353   YZ=              0.8100

 Normal termination of Gaussian 16 at Sun Dec  3 13:28:31 2023.
