 Gaussian 16, Revision B.01,
 Gaussian 16:  ES64L-G16RevB.01 20-Dec-2017

 -------------------------
 #P B3LYP/6-311+g(d) force
 -------------------------

 -----
 DPGEN
 -----
 Symbolic Z-matrix:
 Charge =  0 Multiplicity = 2

                         Standard orientation:
 ---------------------------------------------------------------------
 Center     Atomic      Atomic             Coordinates (Angstroms)
 Number     Number       Type             X           Y           Z
 ---------------------------------------------------------------------
      1         11           0        3.203292   -0.772256    0.271902
      2         11           0        0.553314   -2.523909   -0.276684
      3         11           0       -2.716729   -1.572208   -0.303480
      4         11           0        1.672681    2.644823   -0.557337
      5         11           0        0.122775    0.141989    2.071816
      6         11           0       -0.130625    0.305993   -1.603269
      7         11           0       -2.704708    1.775568    0.397052
 ---------------------------------------------------------------------

 SCF Done:  E(UB3LYP) =  -1136.13335581     A.U. after   19 cycles

 The electronic state is 2-A.
 Alpha  occ. eigenvalues --  -38.44439 -38.44211 -38.44027 -38.43810 -38.43522
 Alpha  occ. eigenvalues --  -38.43222 -38.42764  -2.20259  -2.20020  -2.19888
 Alpha  occ. eigenvalues --   -2.19657  -2.19342  -2.19203  -2.18678  -1.13937
 Alpha  occ. eigenvalues --   -1.13924  -1.13889  -1.13689  -1.13683  -1.13662
 Alpha  occ. eigenvalues --   -1.13562  -1.13520  -1.13497  -1.13333  -1.13318
 Alpha  occ. eigenvalues --   -1.13296  -1.13079  -1.12985  -1.12967  -1.12893
 Alpha  occ. eigenvalues --   -1.12838  -1.12807  -1.12372  -1.12335  -1.12306
 Alpha  occ. eigenvalues --   -0.18523  -0.13237  -0.12090  -0.10885
 Alpha virt. eigenvalues --   -0.06040  -0.05356  -0.04202  -0.03309  -0.02800
 Alpha virt. eigenvalues --   -0.02604  -0.01853  -0.01240  -0.00485  -0.00094
 Alpha virt. eigenvalues --   -0.00044   0.00322   0.00718   0.00795   0.00830

  Beta  occ. eigenvalues --  -38.44435 -38.44202 -38.43939 -38.43805 -38.43506
  Beta  occ. eigenvalues --  -38.43159 -38.42756  -2.20254  -2.20005  -2.19726
  Beta  occ. eigenvalues --   -2.19650  -2.19315  -2.19088  -2.18667  -1.13937
  Beta  occ. eigenvalues --   -1.13905  -1.13885  -1.13676  -1.13659  -1.13653
  Beta  occ. eigenvalues --   -1.13454  -1.13411  -1.13376  -1.13321  -1.13314
  Beta  occ. eigenvalues --   -1.13283  -1.13043  -1.12959  -1.12952  -1.12815
  Beta  occ. eigenvalues --   -1.12758  -1.12725  -1.12363  -1.12321  -1.12279
  Beta  occ. eigenvalues --   -0.17819  -0.13018  -0.11776
  Beta virt. eigenvalues --   -0.07041  -0.05921  -0.05322  -0.04134  -0.02628
  Beta virt. eigenvalues --   -0.02080  -0.01710  -0.01587  -0.01135  -0.00508
  Beta virt. eigenvalues --   -0.00120   0.00098   0.00357   0.00780   0.00822

 Mulliken charges and spin densities:
               1          2
     1  Na   0.209476   0.043090
     2  Na   0.089328   0.031914
     3  Na   0.134121  -0.016759
     4  Na   0.033625  -0.026437
     5  Na  -0.453108   0.619090
     6  Na  -0.158317   0.298710
     7  Na   0.144875   0.050394
 Sum of Mulliken charges =  -0.00000   1.00000

 Dipole moment (field-independent basis, Debye):
    X=             -0.0261    Y=              0.2208    Z=              0.3466  Tot=              0.4118
 Quadrupole moment (field-independent basis, Debye-Ang):
   XX=            -52.9386   YY=            -66.4713   ZZ=            -73.9193
   XY=             -0.3714   XZ=              0.1930   YZ=              0.6427

 Normal termination of Gaussian 16 at Thu Dec  7 19:38:57 2023.
