 Gaussian 16, Revision B.01,
 Gaussian 16:  ES64L-G16RevB.01 20-Dec-2017

 -------------------------
 #P B3LYP/6-311+g(d) force
 -------------------------

 -----
 DPGEN
 -----
 Symbolic Z-matrix:
 Charge =  0 Multiplicity = 2

                         Standard orientation:
 ---------------------------------------------------------------------
 Center     Atomic      Atomic             Coordinates (Angstroms)
 Number     Number       Type             X           Y           Z
 ---------------------------------------------------------------------
      1         11           0        3.434958   -1.793025   -0.098354
      2         11           0       -3.091433   -1.690570    0.425019
      3         11           0        0.168817    3.690800   -0.463849
      4         11           0       -3.292206    1.433861    0.036009
      5         11           0       -0.148691   -3.305083   -0.394374
      6         11           0        2.980269    1.525338    0.598817
      7         11           0       -0.051713    0.138679   -0.103267
 ---------------------------------------------------------------------

 SCF Done:  E(UB3LYP) =  -1136.12870435     A.U. after   22 cycles

 The electronic state is 2-A.
 Alpha  occ. eigenvalues --  -38.44414 -38.44173 -38.43918 -38.43879 -38.43764
 Alpha  occ. eigenvalues --  -38.43730 -38.43343  -2.20235  -2.20032  -2.19772
 Alpha  occ. eigenvalues --   -2.19720  -2.19583  -2.19565  -2.19182  -1.13931
 Alpha  occ. eigenvalues --   -1.13913  -1.13851  -1.13722  -1.13707  -1.13676
 Alpha  occ. eigenvalues --   -1.13512  -1.13424  -1.13401  -1.13391  -1.13366
 Alpha  occ. eigenvalues --   -1.13349  -1.13236  -1.13234  -1.13231  -1.13209
 Alpha  occ. eigenvalues --   -1.13199  -1.13192  -1.12840  -1.12830  -1.12807
 Alpha  occ. eigenvalues --   -0.17145  -0.13973  -0.13101  -0.09888
 Alpha virt. eigenvalues --   -0.06457  -0.05724  -0.04156  -0.03322  -0.02856
 Alpha virt. eigenvalues --   -0.02125  -0.02047  -0.01694  -0.01383  -0.00158
 Alpha virt. eigenvalues --   -0.00024   0.00324   0.00431   0.00548   0.00731

  Beta  occ. eigenvalues --  -38.44397 -38.44155 -38.43888 -38.43878 -38.43721
  Beta  occ. eigenvalues --  -38.43677 -38.43291  -2.20210  -2.20007  -2.19786
  Beta  occ. eigenvalues --   -2.19648  -2.19490  -2.19485  -2.19085  -1.13921
  Beta  occ. eigenvalues --   -1.13902  -1.13790  -1.13702  -1.13697  -1.13610
  Beta  occ. eigenvalues --   -1.13519  -1.13447  -1.13411  -1.13344  -1.13315
  Beta  occ. eigenvalues --   -1.13289  -1.13176  -1.13175  -1.13173  -1.13155
  Beta  occ. eigenvalues --   -1.13140  -1.13120  -1.12774  -1.12765  -1.12743
  Beta  occ. eigenvalues --   -0.16859  -0.13153  -0.12507
  Beta virt. eigenvalues --   -0.06662  -0.06534  -0.05399  -0.04037  -0.02806
  Beta virt. eigenvalues --   -0.02270  -0.01962  -0.01840  -0.01396  -0.01187
  Beta virt. eigenvalues --   -0.00026   0.00308   0.00370   0.00540   0.00669

 Mulliken charges and spin densities:
               1          2
     1  Na   0.587459   0.286215
     2  Na   0.475567   0.068840
     3  Na   0.856806   0.228000
     4  Na   0.834343   0.379988
     5  Na   0.833489   0.180133
     6  Na   0.679202   0.169811
     7  Na  -4.266867  -0.312986
 Sum of Mulliken charges =  -0.00000   1.00000

 Dipole moment (field-independent basis, Debye):
    X=              0.0368    Y=              0.2176    Z=              0.0171  Tot=              0.2214
 Quadrupole moment (field-independent basis, Debye-Ang):
   XX=            -66.2617   YY=            -58.3443   ZZ=            -71.8250
   XY=              0.8321   XZ=              0.1061   YZ=             -0.0990

 Normal termination of Gaussian 16 at Wed Nov 29 16:17:42 2023.
