 Gaussian 16, Revision B.01,
 Gaussian 16:  ES64L-G16RevB.01 20-Dec-2017

 -------------------------
 #P B3LYP/6-311+g(d) force
 -------------------------

 -----
 DPGEN
 -----
 Symbolic Z-matrix:
 Charge =  0 Multiplicity = 2

                         Standard orientation:
 ---------------------------------------------------------------------
 Center     Atomic      Atomic             Coordinates (Angstroms)
 Number     Number       Type             X           Y           Z
 ---------------------------------------------------------------------
      1         11           0        0.167028    3.373427    0.530520
      2         11           0       -2.520588    1.231012   -1.260328
      3         11           0       -3.323927   -1.450480    0.487354
      4         11           0        0.527546   -0.621083    2.550202
      5         11           0       -0.270413   -1.637309   -1.095343
      6         11           0        2.702324   -2.368859   -0.532359
      7         11           0        2.718030    1.473293   -0.680046
 ---------------------------------------------------------------------

 SCF Done:  E(UB3LYP) =  -1136.12316837     A.U. after   19 cycles

 The electronic state is 2-A.
 Alpha  occ. eigenvalues --  -38.44682 -38.44633 -38.44461 -38.44420 -38.43714
 Alpha  occ. eigenvalues --  -38.43663 -38.43411  -2.20483  -2.20396  -2.20248
 Alpha  occ. eigenvalues --   -2.20223  -2.19584  -2.19484  -2.19184  -1.14159
 Alpha  occ. eigenvalues --   -1.14141  -1.14132  -1.14083  -1.14064  -1.14018
 Alpha  occ. eigenvalues --   -1.13909  -1.13891  -1.13882  -1.13870  -1.13865
 Alpha  occ. eigenvalues --   -1.13830  -1.13296  -1.13267  -1.13262  -1.13127
 Alpha  occ. eigenvalues --   -1.13122  -1.13092  -1.12849  -1.12843  -1.12840
 Alpha  occ. eigenvalues --   -0.17116  -0.13192  -0.12140  -0.10837
 Alpha virt. eigenvalues --   -0.06220  -0.05439  -0.04996  -0.03458  -0.03063
 Alpha virt. eigenvalues --   -0.02760  -0.01782  -0.01234  -0.00898  -0.00401
 Alpha virt. eigenvalues --   -0.00144   0.00218   0.00338   0.00514   0.00703

  Beta  occ. eigenvalues --  -38.44683 -38.44626 -38.44401 -38.44339 -38.43698
  Beta  occ. eigenvalues --  -38.43652 -38.43413  -2.20486  -2.20384  -2.20188
  Beta  occ. eigenvalues --   -2.20020  -2.19557  -2.19464  -2.19187  -1.14163
  Beta  occ. eigenvalues --   -1.14144  -1.14118  -1.14070  -1.14056  -1.14009
  Beta  occ. eigenvalues --   -1.13881  -1.13859  -1.13806  -1.13736  -1.13712
  Beta  occ. eigenvalues --   -1.13709  -1.13279  -1.13251  -1.13224  -1.13110
  Beta  occ. eigenvalues --   -1.13101  -1.13080  -1.12848  -1.12846  -1.12839
  Beta  occ. eigenvalues --   -0.16537  -0.13002  -0.12033
  Beta virt. eigenvalues --   -0.06905  -0.06076  -0.05307  -0.04747  -0.02963
  Beta virt. eigenvalues --   -0.02456  -0.01832  -0.01689  -0.01175  -0.00874
  Beta virt. eigenvalues --   -0.00315   0.00083   0.00374   0.00478   0.00630

 Mulliken charges and spin densities:
               1          2
     1  Na   0.018715   0.065392
     2  Na   0.013741  -0.031946
     3  Na   0.577058   0.023913
     4  Na  -0.391839   0.685230
     5  Na  -0.659668   0.212772
     6  Na   0.537184   0.080171
     7  Na  -0.095192  -0.035532
 Sum of Mulliken charges =  -0.00000   1.00000

 Dipole moment (field-independent basis, Debye):
    X=             -0.5192    Y=             -0.3375    Z=             -0.0467  Tot=              0.6211
 Quadrupole moment (field-independent basis, Debye-Ang):
   XX=            -56.1900   YY=            -68.2258   ZZ=            -72.7109
   XY=             -0.2312   XZ=             -1.7803   YZ=             -1.3020

 Normal termination of Gaussian 16 at Sun Dec  3 17:14:45 2023.
