 Gaussian 16, Revision B.01,
 Gaussian 16:  ES64L-G16RevB.01 20-Dec-2017

 -------------------------
 #P B3LYP/6-311+g(d) force
 -------------------------

 -----
 DPGEN
 -----
 Symbolic Z-matrix:
 Charge =  0 Multiplicity = 2

                         Standard orientation:
 ---------------------------------------------------------------------
 Center     Atomic      Atomic             Coordinates (Angstroms)
 Number     Number       Type             X           Y           Z
 ---------------------------------------------------------------------
      1         11           0       -0.236780   -3.074298   -0.096248
      2         11           0        0.277626    0.320004   -1.667129
      3         11           0        0.161279   -0.092823    2.020418
      4         11           0        2.925482   -1.176174   -0.365083
      5         11           0       -2.863591   -0.988552    0.101129
      6         11           0       -2.233058    2.394105   -0.347022
      7         11           0        1.969042    2.617739    0.353935
 ---------------------------------------------------------------------

 SCF Done:  E(UB3LYP) =  -1136.13713500     A.U. after   19 cycles

 The electronic state is 2-A.
 Alpha  occ. eigenvalues --  -38.44199 -38.44035 -38.43854 -38.43671 -38.43597
 Alpha  occ. eigenvalues --  -38.43537 -38.43316  -2.19986  -2.19853  -2.19651
 Alpha  occ. eigenvalues --   -2.19536  -2.19433  -2.19364  -2.19235  -1.13660
 Alpha  occ. eigenvalues --   -1.13647  -1.13623  -1.13545  -1.13511  -1.13477
 Alpha  occ. eigenvalues --   -1.13327  -1.13312  -1.13291  -1.13209  -1.13170
 Alpha  occ. eigenvalues --   -1.13154  -1.13120  -1.13101  -1.13078  -1.13034
 Alpha  occ. eigenvalues --   -1.13018  -1.12994  -1.12920  -1.12867  -1.12862
 Alpha  occ. eigenvalues --   -0.18170  -0.12791  -0.12454  -0.10582
 Alpha virt. eigenvalues --   -0.05807  -0.05218  -0.04982  -0.03092  -0.02881
 Alpha virt. eigenvalues --   -0.02482  -0.01511  -0.01442  -0.00636  -0.00492
 Alpha virt. eigenvalues --   -0.00026   0.00343   0.00765   0.00813   0.00844

  Beta  occ. eigenvalues --  -38.44190 -38.44023 -38.43848 -38.43595 -38.43580
  Beta  occ. eigenvalues --  -38.43535 -38.43257  -2.19972  -2.19834  -2.19641
  Beta  occ. eigenvalues --   -2.19432  -2.19370  -2.19363  -2.19128  -1.13640
  Beta  occ. eigenvalues --   -1.13628  -1.13617  -1.13522  -1.13490  -1.13464
  Beta  occ. eigenvalues --   -1.13311  -1.13304  -1.13285  -1.13128  -1.13104
  Beta  occ. eigenvalues --   -1.13088  -1.13070  -1.13056  -1.13029  -1.13022
  Beta  occ. eigenvalues --   -1.13009  -1.12987  -1.12845  -1.12794  -1.12778
  Beta  occ. eigenvalues --   -0.17474  -0.12556  -0.12218
  Beta virt. eigenvalues --   -0.06760  -0.05759  -0.05098  -0.04959  -0.02353
  Beta virt. eigenvalues --   -0.02197  -0.01477  -0.01389  -0.01320  -0.00682
  Beta virt. eigenvalues --   -0.00539   0.00118   0.00382   0.00776   0.00854

 Mulliken charges and spin densities:
               1          2
     1  Na   0.025433  -0.050157
     2  Na  -0.107252   0.485287
     3  Na  -0.267845   0.719459
     4  Na   0.227110  -0.027131
     5  Na   0.033821  -0.033467
     6  Na   0.084792  -0.046584
     7  Na   0.003941  -0.047407
 Sum of Mulliken charges =  -0.00000   1.00000

 Dipole moment (field-independent basis, Debye):
    X=              0.3301    Y=              0.2308    Z=              0.0950  Tot=              0.4139
 Quadrupole moment (field-independent basis, Debye-Ang):
   XX=            -58.6826   YY=            -59.2537   ZZ=            -75.2723
   XY=              0.1112   XZ=              0.1392   YZ=              0.8149

 Normal termination of Gaussian 16 at Thu Dec  7 21:09:44 2023.
