 Gaussian 16, Revision B.01,
 Gaussian 16:  ES64L-G16RevB.01 20-Dec-2017

 -------------------------
 #P B3LYP/6-311+g(d) force
 -------------------------

 -----
 DPGEN
 -----
 Symbolic Z-matrix:
 Charge =  0 Multiplicity = 2

                         Standard orientation:
 ---------------------------------------------------------------------
 Center     Atomic      Atomic             Coordinates (Angstroms)
 Number     Number       Type             X           Y           Z
 ---------------------------------------------------------------------
      1         11           0        0.084861    0.060047   -1.768230
      2         11           0        1.968641    1.843626    0.116074
      3         11           0       -0.385920   -2.544966    0.319290
      4         11           0        0.011774    0.329257    1.972510
      5         11           0        2.896404   -1.359671   -0.276245
      6         11           0       -3.249911   -0.797287   -0.176631
      7         11           0       -1.325851    2.468994   -0.186768
 ---------------------------------------------------------------------

 SCF Done:  E(UB3LYP) =  -1136.13652900     A.U. after   19 cycles

 The electronic state is 2-A.
 Alpha  occ. eigenvalues --  -38.44168 -38.43703 -38.43608 -38.43432 -38.43366
 Alpha  occ. eigenvalues --  -38.43222 -38.43104  -2.19967  -2.19567  -2.19544
 Alpha  occ. eigenvalues --   -2.19420  -2.19315  -2.19118  -2.18991  -1.13637
 Alpha  occ. eigenvalues --   -1.13627  -1.13610  -1.13283  -1.13224  -1.13213
 Alpha  occ. eigenvalues --   -1.13210  -1.13193  -1.13181  -1.13134  -1.13075
 Alpha  occ. eigenvalues --   -1.13046  -1.12977  -1.12953  -1.12920  -1.12792
 Alpha  occ. eigenvalues --   -1.12783  -1.12727  -1.12683  -1.12664  -1.12598
 Alpha  occ. eigenvalues --   -0.19080  -0.13007  -0.12514  -0.11061
 Alpha virt. eigenvalues --   -0.05698  -0.04996  -0.04301  -0.03186  -0.03008
 Alpha virt. eigenvalues --   -0.02713  -0.01640  -0.01026  -0.00101  -0.00054
 Alpha virt. eigenvalues --    0.00041   0.00341   0.00813   0.00903   0.00959

  Beta  occ. eigenvalues --  -38.44169 -38.43699 -38.43514 -38.43359 -38.43354
  Beta  occ. eigenvalues --  -38.43214 -38.43094  -2.19971  -2.19541  -2.19395
  Beta  occ. eigenvalues --   -2.19299  -2.19285  -2.19108  -2.18975  -1.13636
  Beta  occ. eigenvalues --   -1.13622  -1.13614  -1.13223  -1.13201  -1.13185
  Beta  occ. eigenvalues --   -1.13174  -1.13092  -1.13067  -1.13057  -1.12985
  Beta  occ. eigenvalues --   -1.12963  -1.12929  -1.12917  -1.12889  -1.12780
  Beta  occ. eigenvalues --   -1.12748  -1.12720  -1.12672  -1.12625  -1.12594
  Beta  occ. eigenvalues --   -0.18315  -0.12774  -0.12244
  Beta virt. eigenvalues --   -0.07092  -0.05653  -0.04991  -0.04278  -0.02422
  Beta virt. eigenvalues --   -0.02186  -0.01636  -0.01554  -0.00981  -0.00107
  Beta virt. eigenvalues --   -0.00049   0.00106   0.00356   0.00865   0.00891

 Mulliken charges and spin densities:
               1          2
     1  Na  -0.504294   0.676022
     2  Na   0.582443   0.019191
     3  Na   0.160362  -0.030878
     4  Na  -0.425022   0.619488
     5  Na   0.048959  -0.054929
     6  Na  -0.064086  -0.113123
     7  Na   0.201639  -0.115769
 Sum of Mulliken charges =  -0.00000   1.00000

 Dipole moment (field-independent basis, Debye):
    X=             -0.2179    Y=             -0.0356    Z=              0.0019  Tot=              0.2208
 Quadrupole moment (field-independent basis, Debye-Ang):
   XX=            -54.9739   YY=            -65.9298   ZZ=            -72.7531
   XY=             -0.9127   XZ=              0.2118   YZ=             -0.3011

 Normal termination of Gaussian 16 at Thu Dec  7 21:54:41 2023.
