 Gaussian 16, Revision B.01,
 Gaussian 16:  ES64L-G16RevB.01 20-Dec-2017

 -------------------------
 #P B3LYP/6-311+g(d) force
 -------------------------

 -----
 DPGEN
 -----
 Symbolic Z-matrix:
 Charge =  0 Multiplicity = 2

                         Standard orientation:
 ---------------------------------------------------------------------
 Center     Atomic      Atomic             Coordinates (Angstroms)
 Number     Number       Type             X           Y           Z
 ---------------------------------------------------------------------
      1         11           0       -3.876064   -1.614080   -0.600263
      2         11           0        1.126055   -1.161058    1.785205
      3         11           0        2.984784   -2.072649   -0.981992
      4         11           0       -0.093122   -0.368120   -1.517949
      5         11           0       -0.953339    3.301884   -0.725508
      6         11           0        2.693329    1.738282    0.349867
      7         11           0       -1.881643    0.175741    1.690640
 ---------------------------------------------------------------------

 SCF Done:  E(UB3LYP) =  -1136.11936378     A.U. after   23 cycles

 The electronic state is 2-A.
 Alpha  occ. eigenvalues --  -38.45240 -38.44654 -38.44374 -38.43973 -38.43907
 Alpha  occ. eigenvalues --  -38.43784 -38.43411  -2.20987  -2.20401  -2.20206
 Alpha  occ. eigenvalues --   -2.19784  -2.19750  -2.19676  -2.19160  -1.14683
 Alpha  occ. eigenvalues --   -1.14649  -1.14601  -1.14071  -1.14067  -1.14030
 Alpha  occ. eigenvalues --   -1.13919  -1.13842  -1.13828  -1.13481  -1.13450
 Alpha  occ. eigenvalues --   -1.13445  -1.13416  -1.13392  -1.13364  -1.13340
 Alpha  occ. eigenvalues --   -1.13319  -1.13270  -1.12840  -1.12821  -1.12792
 Alpha  occ. eigenvalues --   -0.17582  -0.13087  -0.11332  -0.11095
 Alpha virt. eigenvalues --   -0.06819  -0.05575  -0.04516  -0.03322  -0.02656
 Alpha virt. eigenvalues --   -0.02505  -0.02339  -0.01474  -0.00841  -0.00345
 Alpha virt. eigenvalues --    0.00017   0.00124   0.00196   0.00503   0.00598

  Beta  occ. eigenvalues --  -38.45237 -38.44648 -38.44329 -38.43951 -38.43864
  Beta  occ. eigenvalues --  -38.43714 -38.43406  -2.20982  -2.20391  -2.20125
  Beta  occ. eigenvalues --   -2.19743  -2.19674  -2.19549  -2.19153  -1.14666
  Beta  occ. eigenvalues --   -1.14647  -1.14602  -1.14063  -1.14057  -1.14024
  Beta  occ. eigenvalues --   -1.13857  -1.13781  -1.13766  -1.13420  -1.13413
  Beta  occ. eigenvalues --   -1.13409  -1.13391  -1.13331  -1.13308  -1.13261
  Beta  occ. eigenvalues --   -1.13232  -1.13166  -1.12830  -1.12816  -1.12788
  Beta  occ. eigenvalues --   -0.16839  -0.12946  -0.11161
  Beta virt. eigenvalues --   -0.07236  -0.06602  -0.05391  -0.04088  -0.03053
  Beta virt. eigenvalues --   -0.02253  -0.02107  -0.01739  -0.01285  -0.00649
  Beta virt. eigenvalues --   -0.00202   0.00110   0.00212   0.00253   0.00614

 Mulliken charges and spin densities:
               1          2
     1  Na  -0.005048   0.058829
     2  Na  -0.076979   0.344795
     3  Na   0.448904   0.065610
     4  Na  -0.539990   0.478301
     5  Na  -0.033777  -0.012331
     6  Na  -0.127409   0.025007
     7  Na   0.334299   0.039788
 Sum of Mulliken charges =  -0.00000   1.00000

 Dipole moment (field-independent basis, Debye):
    X=              0.4292    Y=             -0.3422    Z=             -0.1663  Tot=              0.5735
 Quadrupole moment (field-independent basis, Debye-Ang):
   XX=            -52.5428   YY=            -70.1751   ZZ=            -70.9591
   XY=              0.3556   XZ=              1.2322   YZ=              2.8523

 Normal termination of Gaussian 16 at Thu Dec  7 22:39:19 2023.
