 Gaussian 16, Revision B.01,
 Gaussian 16:  ES64L-G16RevB.01 20-Dec-2017

 -------------------------
 #P B3LYP/6-311+g(d) force
 -------------------------

 -----
 DPGEN
 -----
 Symbolic Z-matrix:
 Charge =  0 Multiplicity = 2

                         Standard orientation:
 ---------------------------------------------------------------------
 Center     Atomic      Atomic             Coordinates (Angstroms)
 Number     Number       Type             X           Y           Z
 ---------------------------------------------------------------------
      1         11           0       -0.667960   -1.255327   -1.450160
      2         11           0        2.017086    0.449453   -1.151130
      3         11           0       -3.463953   -1.109884    0.721512
      4         11           0       -0.019599   -0.154081    2.092011
      5         11           0        2.711911   -2.427951    0.253247
      6         11           0        1.252197    2.992074    0.764177
      7         11           0       -1.829682    1.505717   -1.229657
 ---------------------------------------------------------------------

 SCF Done:  E(UB3LYP) =  -1136.12901221     A.U. after   21 cycles

 The electronic state is 2-A.
 Alpha  occ. eigenvalues --  -38.44609 -38.44314 -38.44242 -38.43763 -38.43502
 Alpha  occ. eigenvalues --  -38.43461 -38.42887  -2.20435  -2.20110  -2.20103
 Alpha  occ. eigenvalues --   -2.19702  -2.19385  -2.19298  -2.18707  -1.14106
 Alpha  occ. eigenvalues --   -1.14065  -1.14056  -1.13879  -1.13781  -1.13768
 Alpha  occ. eigenvalues --   -1.13757  -1.13734  -1.13680  -1.13424  -1.13346
 Alpha  occ. eigenvalues --   -1.13294  -1.13087  -1.13060  -1.13025  -1.12957
 Alpha  occ. eigenvalues --   -1.12953  -1.12910  -1.12384  -1.12366  -1.12339
 Alpha  occ. eigenvalues --   -0.18274  -0.13066  -0.11681  -0.11582
 Alpha virt. eigenvalues --   -0.05816  -0.05262  -0.04194  -0.03411  -0.03147
 Alpha virt. eigenvalues --   -0.02886  -0.01687  -0.01254  -0.00538   0.00012
 Alpha virt. eigenvalues --    0.00256   0.00319   0.00557   0.00677   0.00781

  Beta  occ. eigenvalues --  -38.44524 -38.44301 -38.44206 -38.43716 -38.43504
  Beta  occ. eigenvalues --  -38.43441 -38.42883  -2.20278  -2.20086  -2.20041
  Beta  occ. eigenvalues --   -2.19622  -2.19352  -2.19304  -2.18701  -1.14003
  Beta  occ. eigenvalues --   -1.13953  -1.13937  -1.13822  -1.13766  -1.13739
  Beta  occ. eigenvalues --   -1.13731  -1.13691  -1.13644  -1.13366  -1.13265
  Beta  occ. eigenvalues --   -1.13242  -1.13056  -1.13033  -1.13007  -1.12955
  Beta  occ. eigenvalues --   -1.12952  -1.12907  -1.12382  -1.12350  -1.12336
  Beta  occ. eigenvalues --   -0.17460  -0.12908  -0.11545
  Beta virt. eigenvalues --   -0.07592  -0.05555  -0.05087  -0.03985  -0.02988
  Beta virt. eigenvalues --   -0.02362  -0.02174  -0.01553  -0.01072  -0.00273
  Beta virt. eigenvalues --   -0.00018   0.00330   0.00378   0.00698   0.00755

 Mulliken charges and spin densities:
               1          2
     1  Na   0.014936   0.286811
     2  Na   0.183865   0.255647
     3  Na   0.119057  -0.060425
     4  Na  -0.484952   0.800965
     5  Na   0.037221  -0.184300
     6  Na   0.179041  -0.175332
     7  Na  -0.049168   0.076633
 Sum of Mulliken charges =  -0.00000   1.00000

 Dipole moment (field-independent basis, Debye):
    X=             -0.8073    Y=             -0.2840    Z=              0.3760  Tot=              0.9348
 Quadrupole moment (field-independent basis, Debye-Ang):
   XX=            -58.4779   YY=            -67.4723   ZZ=            -68.6120
   XY=             -0.3182   XZ=             -0.3444   YZ=             -2.2774

 Normal termination of Gaussian 16 at Thu Dec  7 06:59:09 2023.
