 Gaussian 16, Revision B.01,
 Gaussian 16:  ES64L-G16RevB.01 20-Dec-2017

 -------------------------
 #P B3LYP/6-311+g(d) force
 -------------------------

 -----
 DPGEN
 -----
 Symbolic Z-matrix:
 Charge =  0 Multiplicity = 2

                         Standard orientation:
 ---------------------------------------------------------------------
 Center     Atomic      Atomic             Coordinates (Angstroms)
 Number     Number       Type             X           Y           Z
 ---------------------------------------------------------------------
      1         11           0        2.956669   -1.461522   -0.654147
      2         11           0        6.073605   -0.443745   -0.412430
      3         11           0        3.259004    1.960632   -0.423294
      4         11           0       -0.430276    1.529703    0.864162
      5         11           0       -0.390609   -1.597188    1.459482
      6         11           0       -4.721580    0.366749    0.560502
      7         11           0       -6.746813   -0.354629   -1.394276
 ---------------------------------------------------------------------

 SCF Done:  E(UB3LYP) =  -1136.11229676     A.U. after   19 cycles

 The electronic state is 2-A.
 Alpha  occ. eigenvalues --  -38.44984 -38.44926 -38.44593 -38.44286 -38.44123
 Alpha  occ. eigenvalues --  -38.43637 -38.43625  -2.20776  -2.20749  -2.20412
 Alpha  occ. eigenvalues --   -2.20082  -2.19929  -2.19458  -2.19433  -1.14469
 Alpha  occ. eigenvalues --   -1.14443  -1.14436  -1.14425  -1.14407  -1.14321
 Alpha  occ. eigenvalues --   -1.14092  -1.14073  -1.13993  -1.13779  -1.13758
 Alpha  occ. eigenvalues --   -1.13721  -1.13586  -1.13566  -1.13553  -1.13305
 Alpha  occ. eigenvalues --   -1.13115  -1.13108  -1.13072  -1.13066  -1.12962
 Alpha  occ. eigenvalues --   -0.16468  -0.13778  -0.12188  -0.10955
 Alpha virt. eigenvalues --   -0.06948  -0.05389  -0.04661  -0.03601  -0.02951
 Alpha virt. eigenvalues --   -0.02602  -0.02151  -0.01930  -0.01162  -0.00827
 Alpha virt. eigenvalues --   -0.00302  -0.00175  -0.00104   0.00243   0.00454

  Beta  occ. eigenvalues --  -38.44975 -38.44889 -38.44513 -38.44271 -38.44087
  Beta  occ. eigenvalues --  -38.43643 -38.43623  -2.20760  -2.20681  -2.20265
  Beta  occ. eigenvalues --   -2.20056  -2.19861  -2.19466  -2.19432  -1.14444
  Beta  occ. eigenvalues --   -1.14431  -1.14403  -1.14381  -1.14371  -1.14275
  Beta  occ. eigenvalues --   -1.13993  -1.13976  -1.13878  -1.13757  -1.13742
  Beta  occ. eigenvalues --   -1.13687  -1.13539  -1.13519  -1.13507  -1.13311
  Beta  occ. eigenvalues --   -1.13118  -1.13113  -1.13074  -1.13067  -1.12967
  Beta  occ. eigenvalues --   -0.15768  -0.13776  -0.12085
  Beta virt. eigenvalues --   -0.07092  -0.06707  -0.04879  -0.04331  -0.03455
  Beta virt. eigenvalues --   -0.02559  -0.02191  -0.01971  -0.01803  -0.00863
  Beta virt. eigenvalues --   -0.00605  -0.00093  -0.00069   0.00276   0.00418

 Mulliken charges and spin densities:
               1          2
     1  Na  -0.490467   0.321966
     2  Na   0.551052  -0.006572
     3  Na  -0.023297   0.273288
     4  Na  -0.103131   0.193060
     5  Na   0.123445   0.198396
     6  Na  -0.638674   0.026605
     7  Na   0.581072  -0.006743
 Sum of Mulliken charges =  -0.00000   1.00000

 Dipole moment (field-independent basis, Debye):
    X=              2.6045    Y=             -0.3893    Z=             -0.1733  Tot=              2.6391
 Quadrupole moment (field-independent basis, Debye-Ang):
   XX=            -54.9438   YY=            -70.8304   ZZ=            -69.0313
   XY=              1.5356   XZ=              2.2156   YZ=              1.2883

 Normal termination of Gaussian 16 at Wed Nov 29 03:28:19 2023.
