 Gaussian 16, Revision B.01,
 Gaussian 16:  ES64L-G16RevB.01 20-Dec-2017

 -------------------------
 #P B3LYP/6-311+g(d) force
 -------------------------

 -----
 DPGEN
 -----
 Symbolic Z-matrix:
 Charge =  0 Multiplicity = 2

                         Standard orientation:
 ---------------------------------------------------------------------
 Center     Atomic      Atomic             Coordinates (Angstroms)
 Number     Number       Type             X           Y           Z
 ---------------------------------------------------------------------
      1         11           0       -0.249903   -0.110109    1.756491
      2         11           0       -1.124541   -0.948462   -1.312780
      3         11           0        1.459407    1.325262   -1.223840
      4         11           0       -3.988632   -0.769198    0.540468
      5         11           0       -1.865927    1.996902   -0.220129
      6         11           0        3.685020    0.465505    0.959279
      7         11           0        2.084578   -1.959901   -0.499488
 ---------------------------------------------------------------------

 SCF Done:  E(UB3LYP) =  -1136.11823303     A.U. after   31 cycles

 The electronic state is 2-A.
 Alpha  occ. eigenvalues --  -38.45838 -38.44852 -38.44665 -38.43499 -38.43355
 Alpha  occ. eigenvalues --  -38.42850 -38.42680  -2.21682  -2.20707  -2.20469
 Alpha  occ. eigenvalues --   -2.19479  -2.19243  -2.18756  -2.18607  -1.15407
 Alpha  occ. eigenvalues --   -1.15333  -1.15284  -1.14376  -1.14345  -1.14335
 Alpha  occ. eigenvalues --   -1.14145  -1.14126  -1.14092  -1.13194  -1.13124
 Alpha  occ. eigenvalues --   -1.13089  -1.12918  -1.12899  -1.12885  -1.12451
 Alpha  occ. eigenvalues --   -1.12439  -1.12360  -1.12300  -1.12279  -1.12222
 Alpha  occ. eigenvalues --   -0.18895  -0.14590  -0.11251  -0.10558
 Alpha virt. eigenvalues --   -0.07476  -0.05021  -0.04704  -0.03165  -0.02954
 Alpha virt. eigenvalues --   -0.02112  -0.02108  -0.01211  -0.01010  -0.00225
 Alpha virt. eigenvalues --   -0.00047   0.00219   0.00276   0.00651   0.00758

  Beta  occ. eigenvalues --  -38.45816 -38.44805 -38.44646 -38.43434 -38.43329
  Beta  occ. eigenvalues --  -38.42847 -38.42663  -2.21642  -2.20617  -2.20434
  Beta  occ. eigenvalues --   -2.19366  -2.19200  -2.18753  -2.18582  -1.15368
  Beta  occ. eigenvalues --   -1.15306  -1.15254  -1.14319  -1.14281  -1.14273
  Beta  occ. eigenvalues --   -1.14120  -1.14100  -1.14068  -1.13122  -1.13036
  Beta  occ. eigenvalues --   -1.12992  -1.12888  -1.12877  -1.12819  -1.12449
  Beta  occ. eigenvalues --   -1.12429  -1.12348  -1.12274  -1.12231  -1.12210
  Beta  occ. eigenvalues --   -0.18183  -0.14248  -0.10381
  Beta virt. eigenvalues --   -0.07440  -0.07190  -0.04934  -0.04102  -0.02916
  Beta virt. eigenvalues --   -0.02688  -0.01604  -0.01458  -0.00980  -0.00754
  Beta virt. eigenvalues --   -0.00152   0.00015   0.00272   0.00401   0.00717

 Mulliken charges and spin densities:
               1          2
     1  Na  -0.551678   0.218310
     2  Na  -0.192191   0.188031
     3  Na  -0.265434   0.067022
     4  Na   0.388790   0.152534
     5  Na   0.159308   0.030379
     6  Na   0.494383   0.261655
     7  Na  -0.033178   0.082070
 Sum of Mulliken charges =  -0.00000   1.00000

 Dipole moment (field-independent basis, Debye):
    X=             -0.1629    Y=              0.2836    Z=              0.5829  Tot=              0.6684
 Quadrupole moment (field-independent basis, Debye-Ang):
   XX=            -49.5204   YY=            -78.4957   ZZ=            -67.6748
   XY=             -0.1137   XZ=              0.4879   YZ=              2.5241

 Normal termination of Gaussian 16 at Tue Dec  5 11:53:55 2023.
