 Gaussian 16, Revision B.01,
 Gaussian 16:  ES64L-G16RevB.01 20-Dec-2017

 -------------------------
 #P B3LYP/6-311+g(d) force
 -------------------------

 -----
 DPGEN
 -----
 Symbolic Z-matrix:
 Charge =  0 Multiplicity = 2

                         Standard orientation:
 ---------------------------------------------------------------------
 Center     Atomic      Atomic             Coordinates (Angstroms)
 Number     Number       Type             X           Y           Z
 ---------------------------------------------------------------------
      1         11           0       -3.662376   -2.434570   -0.869532
      2         11           0       -2.123073    3.108562    0.349309
      3         11           0       -2.751818   -0.267538    0.854092
      4         11           0        3.134124   -1.973709    1.803239
      5         11           0        3.633439    0.034249   -1.449101
      6         11           0        0.581066   -1.952680   -0.557630
      7         11           0        1.188638    3.485687   -0.130377
 ---------------------------------------------------------------------

 SCF Done:  E(UB3LYP) =  -1136.11049860     A.U. after   21 cycles

 The electronic state is 2-A.
 Alpha  occ. eigenvalues --  -38.45410 -38.44627 -38.44496 -38.44386 -38.44374
 Alpha  occ. eigenvalues --  -38.44365 -38.43306  -2.21165  -2.20365  -2.20272
 Alpha  occ. eigenvalues --   -2.20234  -2.20194  -2.20185  -2.19115  -1.14876
 Alpha  occ. eigenvalues --   -1.14863  -1.14750  -1.14074  -1.14053  -1.14035
 Alpha  occ. eigenvalues --   -1.13997  -1.13952  -1.13921  -1.13893  -1.13892
 Alpha  occ. eigenvalues --   -1.13881  -1.13842  -1.13838  -1.13827  -1.13816
 Alpha  occ. eigenvalues --   -1.13786  -1.13734  -1.12776  -1.12773  -1.12750
 Alpha  occ. eigenvalues --   -0.16100  -0.13966  -0.12621  -0.10138
 Alpha virt. eigenvalues --   -0.06571  -0.06399  -0.04946  -0.03265  -0.02724
 Alpha virt. eigenvalues --   -0.02483  -0.01973  -0.01554  -0.01535  -0.00975
 Alpha virt. eigenvalues --   -0.00698  -0.00071   0.00158   0.00425   0.00479

  Beta  occ. eigenvalues --  -38.45411 -38.44630 -38.44440 -38.44368 -38.44341
  Beta  occ. eigenvalues --  -38.44316 -38.43281  -2.21169  -2.20372  -2.20225
  Beta  occ. eigenvalues --   -2.20167  -2.20150  -2.20055  -2.19068  -1.14877
  Beta  occ. eigenvalues --   -1.14849  -1.14757  -1.14060  -1.14050  -1.14041
  Beta  occ. eigenvalues --   -1.13990  -1.13890  -1.13885  -1.13880  -1.13848
  Beta  occ. eigenvalues --   -1.13803  -1.13797  -1.13786  -1.13751  -1.13744
  Beta  occ. eigenvalues --   -1.13706  -1.13703  -1.12742  -1.12738  -1.12725
  Beta  occ. eigenvalues --   -0.15768  -0.13437  -0.12442
  Beta virt. eigenvalues --   -0.06902  -0.06248  -0.05795  -0.04678  -0.03155
  Beta virt. eigenvalues --   -0.02424  -0.02254  -0.01571  -0.01407  -0.01297
  Beta virt. eigenvalues --   -0.00612  -0.00276   0.00125   0.00270   0.00557

 Mulliken charges and spin densities:
               1          2
     1  Na   0.179976   0.123972
     2  Na   0.294789   0.058495
     3  Na  -0.160222   0.045218
     4  Na   0.404414   0.252502
     5  Na   0.233144   0.345061
     6  Na  -0.771830   0.142218
     7  Na  -0.180271   0.032534
 Sum of Mulliken charges =  -0.00000   1.00000

 Dipole moment (field-independent basis, Debye):
    X=              0.0551    Y=             -0.9901    Z=             -0.0492  Tot=              0.9928
 Quadrupole moment (field-independent basis, Debye-Ang):
   XX=            -59.3233   YY=            -70.7457   ZZ=            -70.0710
   XY=              3.1095   XZ=              3.3388   YZ=              3.6070

 Normal termination of Gaussian 16 at Mon Dec  4 02:54:28 2023.
