 Gaussian 16, Revision B.01,
 Gaussian 16:  ES64L-G16RevB.01 20-Dec-2017

 -------------------------
 #P B3LYP/6-311+g(d) force
 -------------------------

 -----
 DPGEN
 -----
 Symbolic Z-matrix:
 Charge =  0 Multiplicity = 2

                         Standard orientation:
 ---------------------------------------------------------------------
 Center     Atomic      Atomic             Coordinates (Angstroms)
 Number     Number       Type             X           Y           Z
 ---------------------------------------------------------------------
      1         11           0       -3.180936    1.843725   -0.865167
      2         11           0       -2.619854   -0.805602    1.671053
      3         11           0        1.431300   -1.218807    1.656750
      4         11           0        3.294157    1.888491    0.149761
      5         11           0        2.213466   -1.217592   -1.461849
      6         11           0        0.090156    1.039616    0.442778
      7         11           0       -1.228288   -1.529831   -1.593325
 ---------------------------------------------------------------------

 SCF Done:  E(UB3LYP) =  -1136.12144152     A.U. after   26 cycles

 The electronic state is 2-A.
 Alpha  occ. eigenvalues --  -38.44951 -38.44664 -38.44144 -38.43650 -38.43463
 Alpha  occ. eigenvalues --  -38.43327 -38.43309  -2.20766  -2.20571  -2.19936
 Alpha  occ. eigenvalues --   -2.19529  -2.19298  -2.19271  -2.19172  -1.14443
 Alpha  occ. eigenvalues --   -1.14419  -1.14379  -1.14353  -1.14210  -1.14133
 Alpha  occ. eigenvalues --   -1.13603  -1.13591  -1.13556  -1.13217  -1.13200
 Alpha  occ. eigenvalues --   -1.13132  -1.13047  -1.12968  -1.12965  -1.12939
 Alpha  occ. eigenvalues --   -1.12915  -1.12871  -1.12850  -1.12824  -1.12773
 Alpha  occ. eigenvalues --   -0.18377  -0.13894  -0.11383  -0.10862
 Alpha virt. eigenvalues --   -0.06067  -0.05751  -0.04776  -0.03229  -0.02507
 Alpha virt. eigenvalues --   -0.02273  -0.02098  -0.01230  -0.00735  -0.00150
 Alpha virt. eigenvalues --    0.00131   0.00207   0.00325   0.00440   0.00598

  Beta  occ. eigenvalues --  -38.44913 -38.44615 -38.44112 -38.43626 -38.43468
  Beta  occ. eigenvalues --  -38.43294 -38.43290  -2.20697  -2.20482  -2.19877
  Beta  occ. eigenvalues --   -2.19484  -2.19282  -2.19270  -2.19112  -1.14389
  Beta  occ. eigenvalues --   -1.14377  -1.14318  -1.14290  -1.14138  -1.14068
  Beta  occ. eigenvalues --   -1.13560  -1.13547  -1.13521  -1.13180  -1.13172
  Beta  occ. eigenvalues --   -1.13098  -1.12986  -1.12972  -1.12946  -1.12934
  Beta  occ. eigenvalues --   -1.12921  -1.12849  -1.12819  -1.12778  -1.12732
  Beta  occ. eigenvalues --   -0.17679  -0.13691  -0.10651
  Beta virt. eigenvalues --   -0.07527  -0.05789  -0.05587  -0.04258  -0.02838
  Beta virt. eigenvalues --   -0.02109  -0.02014  -0.01641  -0.00928  -0.00395
  Beta virt. eigenvalues --   -0.00025   0.00216   0.00250   0.00394   0.00515

 Mulliken charges and spin densities:
               1          2
     1  Na   0.476696   0.036461
     2  Na   0.509245   0.134215
     3  Na   0.539084   0.226352
     4  Na   0.460966  -0.053439
     5  Na   0.182601   0.099933
     6  Na  -1.917653   0.329169
     7  Na  -0.250940   0.227310
 Sum of Mulliken charges =  -0.00000   1.00000

 Dipole moment (field-independent basis, Debye):
    X=             -0.4469    Y=             -0.6199    Z=              0.2440  Tot=              0.8022
 Quadrupole moment (field-independent basis, Debye-Ang):
   XX=            -51.9224   YY=            -74.3005   ZZ=            -67.0777
   XY=             -0.0853   XZ=             -1.4691   YZ=             -5.1917

 Normal termination of Gaussian 16 at Tue Dec  5 14:44:46 2023.
