 Gaussian 16, Revision B.01,
 Gaussian 16:  ES64L-G16RevB.01 20-Dec-2017

 -------------------------
 #P B3LYP/6-311+g(d) force
 -------------------------

 -----
 DPGEN
 -----
 Symbolic Z-matrix:
 Charge =  0 Multiplicity = 2

                         Standard orientation:
 ---------------------------------------------------------------------
 Center     Atomic      Atomic             Coordinates (Angstroms)
 Number     Number       Type             X           Y           Z
 ---------------------------------------------------------------------
      1         11           0       -0.214529   -2.507951    0.666713
      2         11           0        0.086140    0.208555    1.979526
      3         11           0       -2.362645    1.990805    0.292568
      4         11           0        3.477249   -1.286106   -0.453634
      5         11           0        2.267038    2.281250   -0.016571
      6         11           0        0.054587    0.350042   -1.750826
      7         11           0       -3.307840   -1.036595   -0.717775
 ---------------------------------------------------------------------

 SCF Done:  E(UB3LYP) =  -1136.12550578     A.U. after   22 cycles

 The electronic state is 2-A.
 Alpha  occ. eigenvalues --  -38.45074 -38.44399 -38.44330 -38.43935 -38.43832
 Alpha  occ. eigenvalues --  -38.43640 -38.42735  -2.20817  -2.20211  -2.20190
 Alpha  occ. eigenvalues --   -2.19764  -2.19632  -2.19568  -2.18592  -1.14499
 Alpha  occ. eigenvalues --   -1.14462  -1.14450  -1.13891  -1.13884  -1.13868
 Alpha  occ. eigenvalues --   -1.13846  -1.13836  -1.13805  -1.13446  -1.13423
 Alpha  occ. eigenvalues --   -1.13400  -1.13317  -1.13303  -1.13264  -1.13259
 Alpha  occ. eigenvalues --   -1.13185  -1.13178  -1.12313  -1.12243  -1.12191
 Alpha  occ. eigenvalues --   -0.18105  -0.13345  -0.11519  -0.10947
 Alpha virt. eigenvalues --   -0.06511  -0.05707  -0.03738  -0.03436  -0.02797
 Alpha virt. eigenvalues --   -0.02691  -0.02263  -0.01424  -0.00510  -0.00230
 Alpha virt. eigenvalues --   -0.00010   0.00234   0.00586   0.00627   0.00712

  Beta  occ. eigenvalues --  -38.45062 -38.44378 -38.44289 -38.43930 -38.43833
  Beta  occ. eigenvalues --  -38.43538 -38.42718  -2.20797  -2.20172  -2.20113
  Beta  occ. eigenvalues --   -2.19757  -2.19636  -2.19381  -2.18564  -1.14481
  Beta  occ. eigenvalues --   -1.14446  -1.14438  -1.13857  -1.13840  -1.13830
  Beta  occ. eigenvalues --   -1.13818  -1.13786  -1.13746  -1.13434  -1.13414
  Beta  occ. eigenvalues --   -1.13384  -1.13310  -1.13305  -1.13255  -1.13135
  Beta  occ. eigenvalues --   -1.13054  -1.13048  -1.12281  -1.12208  -1.12178
  Beta  occ. eigenvalues --   -0.17402  -0.13048  -0.11276
  Beta virt. eigenvalues --   -0.07218  -0.06304  -0.05624  -0.03649  -0.02865
  Beta virt. eigenvalues --   -0.02175  -0.01998  -0.01766  -0.01324  -0.00511
  Beta virt. eigenvalues --   -0.00113   0.00032   0.00295   0.00697   0.00705

 Mulliken charges and spin densities:
               1          2
     1  Na  -0.137919   0.062668
     2  Na   0.275393   0.400713
     3  Na   0.075847   0.041472
     4  Na  -0.096081   0.028109
     5  Na   0.007952  -0.032941
     6  Na  -0.116018   0.369484
     7  Na  -0.009174   0.130496
 Sum of Mulliken charges =  -0.00000   1.00000

 Dipole moment (field-independent basis, Debye):
    X=              0.3188    Y=              0.1720    Z=             -0.3408  Tot=              0.4974
 Quadrupole moment (field-independent basis, Debye-Ang):
   XX=            -50.9140   YY=            -69.6824   ZZ=            -72.7598
   XY=             -0.3558   XZ=              0.2029   YZ=              2.3416

 Normal termination of Gaussian 16 at Tue Dec  5 20:46:37 2023.
