 Gaussian 16, Revision B.01,
 Gaussian 16:  ES64L-G16RevB.01 20-Dec-2017

 -------------------------
 #P B3LYP/6-311+g(d) force
 -------------------------

 -----
 DPGEN
 -----
 Symbolic Z-matrix:
 Charge =  0 Multiplicity = 2

                         Standard orientation:
 ---------------------------------------------------------------------
 Center     Atomic      Atomic             Coordinates (Angstroms)
 Number     Number       Type             X           Y           Z
 ---------------------------------------------------------------------
      1         11           0        1.437879    2.577518   -0.208765
      2         11           0        0.610310   -2.667603    0.180799
      3         11           0       -2.236474    1.875444    0.311890
      4         11           0        3.117072   -0.446427    0.115944
      5         11           0        0.080816    0.024654   -1.902930
      6         11           0       -2.676003   -1.302486   -0.504255
      7         11           0       -0.333599   -0.061100    2.007317
 ---------------------------------------------------------------------

 SCF Done:  E(UB3LYP) =  -1136.13933037     A.U. after   19 cycles

 The electronic state is 2-A.
 Alpha  occ. eigenvalues --  -38.44007 -38.43804 -38.43722 -38.43644 -38.43544
 Alpha  occ. eigenvalues --  -38.43262 -38.42966  -2.19838  -2.19725  -2.19592
 Alpha  occ. eigenvalues --   -2.19580  -2.19417  -2.19097  -2.18851  -1.13510
 Alpha  occ. eigenvalues --   -1.13501  -1.13485  -1.13405  -1.13380  -1.13341
 Alpha  occ. eigenvalues --   -1.13304  -1.13252  -1.13248  -1.13232  -1.13212
 Alpha  occ. eigenvalues --   -1.13188  -1.13094  -1.13064  -1.13036  -1.12781
 Alpha  occ. eigenvalues --   -1.12760  -1.12726  -1.12537  -1.12519  -1.12475
 Alpha  occ. eigenvalues --   -0.18809  -0.13133  -0.12285  -0.11208
 Alpha virt. eigenvalues --   -0.05543  -0.05051  -0.04389  -0.03433  -0.03001
 Alpha virt. eigenvalues --   -0.02901  -0.01444  -0.00953  -0.00211  -0.00117
 Alpha virt. eigenvalues --   -0.00007   0.00377   0.00813   0.00922   0.00941

  Beta  occ. eigenvalues --  -38.44007 -38.43717 -38.43709 -38.43566 -38.43535
  Beta  occ. eigenvalues --  -38.43259 -38.42959  -2.19839  -2.19571  -2.19564
  Beta  occ. eigenvalues --   -2.19437  -2.19403  -2.19095  -2.18842  -1.13508
  Beta  occ. eigenvalues --   -1.13499  -1.13480  -1.13310  -1.13266  -1.13263
  Beta  occ. eigenvalues --   -1.13234  -1.13228  -1.13203  -1.13156  -1.13116
  Beta  occ. eigenvalues --   -1.13091  -1.13068  -1.13037  -1.13031  -1.12770
  Beta  occ. eigenvalues --   -1.12751  -1.12724  -1.12531  -1.12492  -1.12466
  Beta  occ. eigenvalues --   -0.18051  -0.12899  -0.12022
  Beta virt. eigenvalues --   -0.07268  -0.05485  -0.05041  -0.04354  -0.02639
  Beta virt. eigenvalues --   -0.02210  -0.01846  -0.01349  -0.00874  -0.00234
  Beta virt. eigenvalues --   -0.00152   0.00095   0.00397   0.00891   0.00913

 Mulliken charges and spin densities:
               1          2
     1  Na   0.057421  -0.103277
     2  Na   0.173181  -0.040921
     3  Na   0.174201  -0.029182
     4  Na  -0.017402  -0.093946
     5  Na  -0.294750   0.616900
     6  Na   0.245174   0.015806
     7  Na  -0.337825   0.634621
 Sum of Mulliken charges =  -0.00000   1.00000

 Dipole moment (field-independent basis, Debye):
    X=              0.0288    Y=              0.0166    Z=              0.0277  Tot=              0.0433
 Quadrupole moment (field-independent basis, Debye-Ang):
   XX=            -57.3908   YY=            -65.6696   ZZ=            -71.7674
   XY=              0.1099   XZ=              1.1025   YZ=              0.4673

 Normal termination of Gaussian 16 at Tue Dec  5 19:13:19 2023.
