 Gaussian 16, Revision B.01,
 Gaussian 16:  ES64L-G16RevB.01 20-Dec-2017

 -------------------------
 #P B3LYP/6-311+g(d) force
 -------------------------

 -----
 DPGEN
 -----
 Symbolic Z-matrix:
 Charge =  0 Multiplicity = 2

                         Standard orientation:
 ---------------------------------------------------------------------
 Center     Atomic      Atomic             Coordinates (Angstroms)
 Number     Number       Type             X           Y           Z
 ---------------------------------------------------------------------
      1         11           0        0.737881   -1.768938    0.761102
      2         11           0        4.545430   -2.203966    0.097783
      3         11           0        2.402512    0.213377   -1.076417
      4         11           0        1.300627    3.786769    0.370367
      5         11           0       -1.087358    1.500231   -0.578924
      6         11           0       -2.945305   -0.024923    1.284342
      7         11           0       -4.953787   -1.502549   -0.858254
 ---------------------------------------------------------------------

 SCF Done:  E(UB3LYP) =  -1136.11570752     A.U. after   22 cycles

 The electronic state is 2-A.
 Alpha  occ. eigenvalues --  -38.44470 -38.44442 -38.44416 -38.44099 -38.44050
 Alpha  occ. eigenvalues --  -38.43959 -38.43722  -2.20284  -2.20252  -2.20243
 Alpha  occ. eigenvalues --   -2.19913  -2.19901  -2.19808  -2.19502  -1.14061
 Alpha  occ. eigenvalues --   -1.13987  -1.13928  -1.13919  -1.13916  -1.13904
 Alpha  occ. eigenvalues --   -1.13883  -1.13828  -1.13799  -1.13697  -1.13588
 Alpha  occ. eigenvalues --   -1.13559  -1.13554  -1.13542  -1.13536  -1.13454
 Alpha  occ. eigenvalues --   -1.13426  -1.13414  -1.13166  -1.13163  -1.13120
 Alpha  occ. eigenvalues --   -0.16918  -0.13899  -0.12219  -0.10224
 Alpha virt. eigenvalues --   -0.06552  -0.05877  -0.04608  -0.03334  -0.03005
 Alpha virt. eigenvalues --   -0.02310  -0.02178  -0.01412  -0.01012  -0.00596
 Alpha virt. eigenvalues --   -0.00408   0.00049   0.00157   0.00362   0.00579

  Beta  occ. eigenvalues --  -38.44443 -38.44438 -38.44361 -38.44049 -38.44017
  Beta  occ. eigenvalues --  -38.43964 -38.43698  -2.20279  -2.20202  -2.20142
  Beta  occ. eigenvalues --   -2.19913  -2.19823  -2.19747  -2.19456  -1.14029
  Beta  occ. eigenvalues --   -1.13980  -1.13896  -1.13882  -1.13864  -1.13854
  Beta  occ. eigenvalues --   -1.13842  -1.13810  -1.13720  -1.13701  -1.13578
  Beta  occ. eigenvalues --   -1.13555  -1.13498  -1.13462  -1.13439  -1.13435
  Beta  occ. eigenvalues --   -1.13416  -1.13364  -1.13134  -1.13131  -1.13092
  Beta  occ. eigenvalues --   -0.16405  -0.13558  -0.11775
  Beta virt. eigenvalues --   -0.06973  -0.06160  -0.05469  -0.04403  -0.03052
  Beta virt. eigenvalues --   -0.02747  -0.02158  -0.01896  -0.01030  -0.00771
  Beta virt. eigenvalues --   -0.00362  -0.00165   0.00206   0.00332   0.00500

 Mulliken charges and spin densities:
               1          2
     1  Na  -0.381143   0.238551
     2  Na   0.599843   0.162647
     3  Na  -0.359169   0.155892
     4  Na   0.549528   0.199682
     5  Na  -0.976949  -0.075210
     6  Na   0.651055  -0.117804
     7  Na  -0.083165   0.436241
 Sum of Mulliken charges =  -0.00000   1.00000

 Dipole moment (field-independent basis, Debye):
    X=              1.2641    Y=             -0.7389    Z=              0.4859  Tot=              1.5428
 Quadrupole moment (field-independent basis, Debye-Ang):
   XX=            -67.6157   YY=            -67.0726   ZZ=            -66.0342
   XY=             -3.2817   XZ=              2.1854   YZ=              2.3399

 Normal termination of Gaussian 16 at Wed Nov 29 00:46:47 2023.
