 Gaussian 16, Revision B.01,
 Gaussian 16:  ES64L-G16RevB.01 20-Dec-2017

 -------------------------
 #P B3LYP/6-311+g(d) force
 -------------------------

 -----
 DPGEN
 -----
 Symbolic Z-matrix:
 Charge =  0 Multiplicity = 2

                         Standard orientation:
 ---------------------------------------------------------------------
 Center     Atomic      Atomic             Coordinates (Angstroms)
 Number     Number       Type             X           Y           Z
 ---------------------------------------------------------------------
      1         11           0        0.167288   -0.316196    1.985702
      2         11           0       -3.093740    0.283193   -0.353612
      3         11           0        2.823481   -1.919273   -0.164675
      4         11           0        2.516993    1.894946   -0.348249
      5         11           0       -0.896834    2.923223    0.305456
      6         11           0       -0.062262    0.021878   -1.352407
      7         11           0       -1.454926   -2.887771   -0.072215
 ---------------------------------------------------------------------

 SCF Done:  E(UB3LYP) =  -1136.13540813     A.U. after   21 cycles

 The electronic state is 2-A.
 Alpha  occ. eigenvalues --  -38.44383 -38.44019 -38.44014 -38.43843 -38.43438
 Alpha  occ. eigenvalues --  -38.43231 -38.42930  -2.20151  -2.19829  -2.19823
 Alpha  occ. eigenvalues --   -2.19693  -2.19275  -2.19114  -2.18932  -1.13831
 Alpha  occ. eigenvalues --   -1.13802  -1.13794  -1.13520  -1.13500  -1.13489
 Alpha  occ. eigenvalues --   -1.13487  -1.13461  -1.13452  -1.13396  -1.13346
 Alpha  occ. eigenvalues --   -1.13315  -1.12949  -1.12937  -1.12918  -1.12810
 Alpha  occ. eigenvalues --   -1.12732  -1.12720  -1.12631  -1.12567  -1.12553
 Alpha  occ. eigenvalues --   -0.18313  -0.12900  -0.12454  -0.10183
 Alpha virt. eigenvalues --   -0.05953  -0.05287  -0.04989  -0.02871  -0.02783
 Alpha virt. eigenvalues --   -0.02108  -0.01672  -0.01493  -0.00724  -0.00587
 Alpha virt. eigenvalues --    0.00012   0.00319   0.00734   0.00801   0.00826

  Beta  occ. eigenvalues --  -38.44382 -38.44016 -38.44005 -38.43833 -38.43431
  Beta  occ. eigenvalues --  -38.43133 -38.42885  -2.20151  -2.19821  -2.19814
  Beta  occ. eigenvalues --   -2.19677  -2.19266  -2.18933  -2.18852  -1.13819
  Beta  occ. eigenvalues --   -1.13803  -1.13791  -1.13505  -1.13493  -1.13481
  Beta  occ. eigenvalues --   -1.13467  -1.13454  -1.13444  -1.13380  -1.13320
  Beta  occ. eigenvalues --   -1.13308  -1.12944  -1.12916  -1.12907  -1.12693
  Beta  occ. eigenvalues --   -1.12608  -1.12588  -1.12557  -1.12505  -1.12499
  Beta  occ. eigenvalues --   -0.17629  -0.12629  -0.12258
  Beta virt. eigenvalues --   -0.06346  -0.05963  -0.05185  -0.04944  -0.02172
  Beta virt. eigenvalues --   -0.02051  -0.01591  -0.01427  -0.01091  -0.00754
  Beta virt. eigenvalues --   -0.00607   0.00164   0.00373   0.00748   0.00839

 Mulliken charges and spin densities:
               1          2
     1  Na  -0.357458   0.759812
     2  Na   0.295991   0.063966
     3  Na   0.020179  -0.071504
     4  Na   0.133593   0.023418
     5  Na   0.150219   0.073945
     6  Na  -0.366910   0.209876
     7  Na   0.124385  -0.059512
 Sum of Mulliken charges =  -0.00000   1.00000

 Dipole moment (field-independent basis, Debye):
    X=              0.2169    Y=             -0.3054    Z=              0.0920  Tot=              0.3857
 Quadrupole moment (field-independent basis, Debye-Ang):
   XX=            -55.9552   YY=            -57.6241   ZZ=            -77.3855
   XY=             -0.3802   XZ=             -0.4770   YZ=              0.8403

 Normal termination of Gaussian 16 at Thu Dec  7 14:13:53 2023.
