 Gaussian 16, Revision B.01,
 Gaussian 16:  ES64L-G16RevB.01 20-Dec-2017

 -------------------------
 #P B3LYP/6-311+g(d) force
 -------------------------

 -----
 DPGEN
 -----
 Symbolic Z-matrix:
 Charge =  0 Multiplicity = 2

                         Standard orientation:
 ---------------------------------------------------------------------
 Center     Atomic      Atomic             Coordinates (Angstroms)
 Number     Number       Type             X           Y           Z
 ---------------------------------------------------------------------
      1         11           0       -1.072178    1.716030   -1.077113
      2         11           0       -2.249155   -1.822675    0.642639
      3         11           0       -4.567610    0.056046   -0.991332
      4         11           0        2.080130    2.025239    0.523537
      5         11           0        4.323028   -0.901749   -1.385215
      6         11           0        0.113665    0.672201    1.968196
      7         11           0        1.372119   -1.745093    0.319288
 ---------------------------------------------------------------------

 SCF Done:  E(UB3LYP) =  -1136.11623490     A.U. after   24 cycles

 The electronic state is 2-A.
 Alpha  occ. eigenvalues --  -38.44746 -38.44640 -38.44370 -38.44125 -38.43914
 Alpha  occ. eigenvalues --  -38.43798 -38.43295  -2.20548  -2.20428  -2.20358
 Alpha  occ. eigenvalues --   -2.20022  -2.19738  -2.19585  -2.19148  -1.14246
 Alpha  occ. eigenvalues --   -1.14237  -1.14206  -1.14139  -1.14087  -1.14079
 Alpha  occ. eigenvalues --   -1.14053  -1.14001  -1.13966  -1.13679  -1.13643
 Alpha  occ. eigenvalues --   -1.13583  -1.13424  -1.13411  -1.13359  -1.13239
 Alpha  occ. eigenvalues --   -1.13232  -1.13206  -1.12852  -1.12836  -1.12761
 Alpha  occ. eigenvalues --   -0.17981  -0.13813  -0.11721  -0.11421
 Alpha virt. eigenvalues --   -0.06594  -0.05167  -0.04993  -0.03290  -0.02761
 Alpha virt. eigenvalues --   -0.02558  -0.02149  -0.01373  -0.01144  -0.00196
 Alpha virt. eigenvalues --    0.00004   0.00070   0.00207   0.00457   0.00582

  Beta  occ. eigenvalues --  -38.44727 -38.44600 -38.44328 -38.44117 -38.43892
  Beta  occ. eigenvalues --  -38.43735 -38.43286  -2.20512  -2.20353  -2.20284
  Beta  occ. eigenvalues --   -2.20008  -2.19702  -2.19467  -2.19139  -1.14221
  Beta  occ. eigenvalues --   -1.14212  -1.14166  -1.14109  -1.14036  -1.14030
  Beta  occ. eigenvalues --   -1.14003  -1.13944  -1.13913  -1.13658  -1.13630
  Beta  occ. eigenvalues --   -1.13566  -1.13405  -1.13385  -1.13306  -1.13159
  Beta  occ. eigenvalues --   -1.13150  -1.13131  -1.12846  -1.12838  -1.12710
  Beta  occ. eigenvalues --   -0.17364  -0.13326  -0.11236
  Beta virt. eigenvalues --   -0.08067  -0.06360  -0.04720  -0.04523  -0.03091
  Beta virt. eigenvalues --   -0.02413  -0.02249  -0.01767  -0.01123  -0.00894
  Beta virt. eigenvalues --   -0.00030   0.00086   0.00173   0.00339   0.00593

 Mulliken charges and spin densities:
               1          2
     1  Na  -0.279478   0.145379
     2  Na  -0.099395   0.021478
     3  Na   0.268535   0.166446
     4  Na   0.153367   0.299187
     5  Na   0.349906   0.399634
     6  Na   0.255007   0.111491
     7  Na  -0.647941  -0.143616
 Sum of Mulliken charges =  -0.00000   1.00000

 Dipole moment (field-independent basis, Debye):
    X=             -1.0301    Y=              0.9470    Z=              0.0008  Tot=              1.3993
 Quadrupole moment (field-independent basis, Debye-Ang):
   XX=            -58.5607   YY=            -74.6027   ZZ=            -65.8333
   XY=              4.7795   XZ=              0.6000   YZ=             -1.7772

 Normal termination of Gaussian 16 at Tue Dec  5 17:41:13 2023.
