 Gaussian 16, Revision B.01,
 Gaussian 16:  ES64L-G16RevB.01 20-Dec-2017

 -------------------------
 #P B3LYP/6-311+g(d) force
 -------------------------

 -----
 DPGEN
 -----
 Symbolic Z-matrix:
 Charge =  0 Multiplicity = 2

                         Standard orientation:
 ---------------------------------------------------------------------
 Center     Atomic      Atomic             Coordinates (Angstroms)
 Number     Number       Type             X           Y           Z
 ---------------------------------------------------------------------
      1         11           0        2.849646   -2.656974   -0.248588
      2         11           0        0.313928    0.014665    0.039100
      3         11           0        3.618054    1.754085    0.138789
      4         11           0       -0.290668    3.508001   -0.308335
      5         11           0       -3.265977    1.246474    0.011483
      6         11           0       -1.792182   -2.146774   -1.860072
      7         11           0       -1.432801   -1.719477    2.227623
 ---------------------------------------------------------------------

 SCF Done:  E(UB3LYP) =  -1136.11317740     A.U. after   22 cycles

 The electronic state is 2-A.
 Alpha  occ. eigenvalues --  -38.45443 -38.45084 -38.44952 -38.44089 -38.44056
 Alpha  occ. eigenvalues --  -38.43744 -38.43099  -2.21152  -2.20800  -2.20701
 Alpha  occ. eigenvalues --   -2.19878  -2.19815  -2.19567  -2.19006  -1.14831
 Alpha  occ. eigenvalues --   -1.14803  -1.14795  -1.14488  -1.14454  -1.14435
 Alpha  occ. eigenvalues --   -1.14380  -1.14359  -1.14339  -1.13545  -1.13505
 Alpha  occ. eigenvalues --   -1.13497  -1.13497  -1.13489  -1.13437  -1.13242
 Alpha  occ. eigenvalues --   -1.13185  -1.13177  -1.12745  -1.12653  -1.12635
 Alpha  occ. eigenvalues --   -0.16772  -0.12568  -0.12167  -0.10217
 Alpha virt. eigenvalues --   -0.06944  -0.06049  -0.04956  -0.02763  -0.02515
 Alpha virt. eigenvalues --   -0.02286  -0.02156  -0.01824  -0.01301  -0.00982
 Alpha virt. eigenvalues --   -0.00364   0.00197   0.00277   0.00480   0.00538

  Beta  occ. eigenvalues --  -38.45449 -38.45091 -38.44951 -38.44055 -38.44009
  Beta  occ. eigenvalues --  -38.43644 -38.43088  -2.21162  -2.20815  -2.20700
  Beta  occ. eigenvalues --   -2.19813  -2.19728  -2.19382  -2.18991  -1.14834
  Beta  occ. eigenvalues --   -1.14812  -1.14802  -1.14497  -1.14463  -1.14446
  Beta  occ. eigenvalues --   -1.14364  -1.14360  -1.14340  -1.13494  -1.13487
  Beta  occ. eigenvalues --   -1.13440  -1.13436  -1.13401  -1.13395  -1.13114
  Beta  occ. eigenvalues --   -1.13057  -1.13052  -1.12692  -1.12651  -1.12631
  Beta  occ. eigenvalues --   -0.16250  -0.12436  -0.11958
  Beta virt. eigenvalues --   -0.06875  -0.06187  -0.06005  -0.04656  -0.02428
  Beta virt. eigenvalues --   -0.02201  -0.01987  -0.01847  -0.01553  -0.01171
  Beta virt. eigenvalues --   -0.00673   0.00050   0.00267   0.00336   0.00512

 Mulliken charges and spin densities:
               1          2
     1  Na   0.417147   0.005386
     2  Na  -2.148647   0.470923
     3  Na   0.095307  -0.139751
     4  Na   0.498117  -0.159821
     5  Na   0.755526   0.147072
     6  Na   0.157786   0.413076
     7  Na   0.224765   0.263115
 Sum of Mulliken charges =  -0.00000   1.00000

 Dipole moment (field-independent basis, Debye):
    X=              0.6358    Y=              0.1087    Z=              0.0379  Tot=              0.6461
 Quadrupole moment (field-independent basis, Debye-Ang):
   XX=            -52.2814   YY=            -60.3011   ZZ=            -77.8364
   XY=             -2.9551   XZ=             -0.2083   YZ=             -0.0331

 Normal termination of Gaussian 16 at Fri Dec  8 17:51:55 2023.
