 Gaussian 16, Revision B.01,
 Gaussian 16:  ES64L-G16RevB.01 20-Dec-2017

 -------------------------
 #P B3LYP/6-311+g(d) force
 -------------------------

 -----
 DPGEN
 -----
 Symbolic Z-matrix:
 Charge =  0 Multiplicity = 2

                         Standard orientation:
 ---------------------------------------------------------------------
 Center     Atomic      Atomic             Coordinates (Angstroms)
 Number     Number       Type             X           Y           Z
 ---------------------------------------------------------------------
      1         11           0       -0.245575   -0.090427    2.116139
      2         11           0       -2.865587   -2.158950   -0.226221
      3         11           0       -2.811150    1.193626   -0.273870
      4         11           0        0.272461    3.278342   -0.097949
      5         11           0        1.851001   -2.379803   -0.137641
      6         11           0        0.245889   -0.030186   -1.296526
      7         11           0        3.552962    0.187398   -0.083933
 ---------------------------------------------------------------------

 SCF Done:  E(UB3LYP) =  -1136.12699913     A.U. after   20 cycles

 The electronic state is 2-A.
 Alpha  occ. eigenvalues --  -38.45090 -38.44126 -38.43996 -38.43923 -38.43565
 Alpha  occ. eigenvalues --  -38.43365 -38.43171  -2.20907  -2.19969  -2.19880
 Alpha  occ. eigenvalues --   -2.19709  -2.19527  -2.19225  -2.18958  -1.14590
 Alpha  occ. eigenvalues --   -1.14566  -1.14543  -1.13661  -1.13643  -1.13616
 Alpha  occ. eigenvalues --   -1.13590  -1.13525  -1.13501  -1.13375  -1.13371
 Alpha  occ. eigenvalues --   -1.13345  -1.13240  -1.13172  -1.13138  -1.12893
 Alpha  occ. eigenvalues --   -1.12845  -1.12829  -1.12631  -1.12616  -1.12603
 Alpha  occ. eigenvalues --   -0.18126  -0.13631  -0.11786  -0.10203
 Alpha virt. eigenvalues --   -0.06366  -0.05376  -0.04816  -0.03251  -0.02351
 Alpha virt. eigenvalues --   -0.02237  -0.02165  -0.01404  -0.00776  -0.00598
 Alpha virt. eigenvalues --   -0.00061   0.00245   0.00641   0.00746   0.00789

  Beta  occ. eigenvalues --  -38.45088 -38.44115 -38.43990 -38.43919 -38.43532
  Beta  occ. eigenvalues --  -38.43251 -38.43172  -2.20904  -2.19952  -2.19871
  Beta  occ. eigenvalues --   -2.19704  -2.19470  -2.19015  -2.18961  -1.14591
  Beta  occ. eigenvalues --   -1.14552  -1.14538  -1.13647  -1.13617  -1.13608
  Beta  occ. eigenvalues --   -1.13578  -1.13519  -1.13472  -1.13372  -1.13354
  Beta  occ. eigenvalues --   -1.13341  -1.13182  -1.13132  -1.13097  -1.12751
  Beta  occ. eigenvalues --   -1.12699  -1.12680  -1.12627  -1.12613  -1.12605
  Beta  occ. eigenvalues --   -0.17451  -0.13390  -0.11628
  Beta virt. eigenvalues --   -0.06364  -0.06189  -0.05355  -0.04790  -0.02536
  Beta virt. eigenvalues --   -0.02085  -0.01693  -0.01349  -0.01213  -0.00781
  Beta virt. eigenvalues --   -0.00586   0.00132   0.00312   0.00712   0.00766

 Mulliken charges and spin densities:
               1          2
     1  Na  -0.455386   0.703567
     2  Na   0.112276   0.032386
     3  Na   0.209725   0.091372
     4  Na  -0.058139  -0.022033
     5  Na   0.379212   0.072313
     6  Na  -0.354372   0.113235
     7  Na   0.166682   0.009160
 Sum of Mulliken charges =  -0.00000   1.00000

 Dipole moment (field-independent basis, Debye):
    X=              0.6845    Y=             -0.1639    Z=              0.1510  Tot=              0.7199
 Quadrupole moment (field-independent basis, Debye-Ang):
   XX=            -52.4740   YY=            -62.7215   ZZ=            -77.5052
   XY=              1.2616   XZ=              0.8073   YZ=              0.6508

 Normal termination of Gaussian 16 at Thu Dec  7 19:42:04 2023.
