 Gaussian 16, Revision B.01,
 Gaussian 16:  ES64L-G16RevB.01 20-Dec-2017

 -------------------------
 #P B3LYP/6-311+g(d) force
 -------------------------

 -----
 DPGEN
 -----
 Symbolic Z-matrix:
 Charge =  0 Multiplicity = 2

                         Standard orientation:
 ---------------------------------------------------------------------
 Center     Atomic      Atomic             Coordinates (Angstroms)
 Number     Number       Type             X           Y           Z
 ---------------------------------------------------------------------
      1         11           0        0.164603   -0.048311    2.011355
      2         11           0       -3.531566   -0.839089    0.144333
      3         11           0        3.485571   -0.416605    0.000163
      4         11           0        0.636200   -2.432845    0.010446
      5         11           0        1.661843    2.243627   -0.417769
      6         11           0       -1.894892    2.115539    0.033946
      7         11           0       -0.521760   -0.622318   -1.782474
 ---------------------------------------------------------------------

 SCF Done:  E(UB3LYP) =  -1136.12471087     A.U. after   21 cycles

 The electronic state is 2-A.
 Alpha  occ. eigenvalues --  -38.45345 -38.45144 -38.43794 -38.43754 -38.43327
 Alpha  occ. eigenvalues --  -38.43012 -38.42965  -2.21122  -2.20950  -2.19702
 Alpha  occ. eigenvalues --   -2.19695  -2.19178  -2.18951  -2.18810  -1.14793
 Alpha  occ. eigenvalues --   -1.14786  -1.14757  -1.14626  -1.14612  -1.14585
 Alpha  occ. eigenvalues --   -1.13509  -1.13389  -1.13332  -1.13327  -1.13298
 Alpha  occ. eigenvalues --   -1.13282  -1.12858  -1.12851  -1.12810  -1.12644
 Alpha  occ. eigenvalues --   -1.12608  -1.12522  -1.12482  -1.12472  -1.12457
 Alpha  occ. eigenvalues --   -0.18568  -0.13533  -0.11814  -0.10765
 Alpha virt. eigenvalues --   -0.06943  -0.05006  -0.03819  -0.03459  -0.02821
 Alpha virt. eigenvalues --   -0.02507  -0.02477  -0.01117  -0.00235  -0.00148
 Alpha virt. eigenvalues --   -0.00043   0.00240   0.00557   0.00760   0.00836

  Beta  occ. eigenvalues --  -38.45347 -38.45144 -38.43700 -38.43685 -38.43322
  Beta  occ. eigenvalues --  -38.42997 -38.42956  -2.21128  -2.20953  -2.19574
  Beta  occ. eigenvalues --   -2.19524  -2.19172  -2.18931  -2.18795  -1.14794
  Beta  occ. eigenvalues --   -1.14779  -1.14763  -1.14627  -1.14601  -1.14588
  Beta  occ. eigenvalues --   -1.13426  -1.13276  -1.13238  -1.13206  -1.13191
  Beta  occ. eigenvalues --   -1.13176  -1.12856  -1.12820  -1.12812  -1.12628
  Beta  occ. eigenvalues --   -1.12549  -1.12516  -1.12475  -1.12453  -1.12440
  Beta  occ. eigenvalues --   -0.17829  -0.13361  -0.11550
  Beta virt. eigenvalues --   -0.06872  -0.06843  -0.05023  -0.03752  -0.02765
  Beta virt. eigenvalues --   -0.02447  -0.01917  -0.01471  -0.01088  -0.00258
  Beta virt. eigenvalues --   -0.00061   0.00032   0.00260   0.00729   0.00808

 Mulliken charges and spin densities:
               1          2
     1  Na  -0.414140   0.704148
     2  Na   0.259271  -0.112489
     3  Na   0.100860  -0.026368
     4  Na   0.457115  -0.148566
     5  Na  -0.084314  -0.009704
     6  Na  -0.061225   0.002023
     7  Na  -0.257567   0.590956
 Sum of Mulliken charges =  -0.00000   1.00000

 Dipole moment (field-independent basis, Debye):
    X=             -0.3340    Y=             -0.3443    Z=              0.2038  Tot=              0.5212
 Quadrupole moment (field-independent basis, Debye-Ang):
   XX=            -46.3186   YY=            -72.1014   ZZ=            -74.0580
   XY=              0.2432   XZ=             -1.1387   YZ=             -1.2293

 Normal termination of Gaussian 16 at Tue Dec  5 16:04:04 2023.
