 Gaussian 16, Revision B.01,
 Gaussian 16:  ES64L-G16RevB.01 20-Dec-2017

 -------------------------
 #P B3LYP/6-311+g(d) force
 -------------------------

 -----
 DPGEN
 -----
 Symbolic Z-matrix:
 Charge =  0 Multiplicity = 2

                         Standard orientation:
 ---------------------------------------------------------------------
 Center     Atomic      Atomic             Coordinates (Angstroms)
 Number     Number       Type             X           Y           Z
 ---------------------------------------------------------------------
      1         11           0        0.855723    1.537646    1.034644
      2         11           0       -3.676202   -1.322897   -0.598260
      3         11           0       -0.417110   -0.476339   -1.470827
      4         11           0       -2.292484    2.062801   -0.299248
      5         11           0        4.441702    0.313193   -1.028533
      6         11           0        2.258917   -1.608095    0.859994
      7         11           0       -1.170546   -0.506310    1.502230
 ---------------------------------------------------------------------

 SCF Done:  E(UB3LYP) =  -1136.11576383     A.U. after   28 cycles

 The electronic state is 2-A.
 Alpha  occ. eigenvalues --  -38.45312 -38.44483 -38.44005 -38.43856 -38.43779
 Alpha  occ. eigenvalues --  -38.43184 -38.42635  -2.21209  -2.20276  -2.19855
 Alpha  occ. eigenvalues --   -2.19835  -2.19755  -2.19032  -2.18593  -1.14960
 Alpha  occ. eigenvalues --   -1.14880  -1.14806  -1.13925  -1.13921  -1.13887
 Alpha  occ. eigenvalues --   -1.13587  -1.13533  -1.13522  -1.13495  -1.13475
 Alpha  occ. eigenvalues --   -1.13465  -1.13443  -1.13383  -1.13344  -1.12708
 Alpha  occ. eigenvalues --   -1.12679  -1.12661  -1.12319  -1.12263  -1.12172
 Alpha  occ. eigenvalues --   -0.18866  -0.14249  -0.11193  -0.10972
 Alpha virt. eigenvalues --   -0.07048  -0.05258  -0.04531  -0.02946  -0.02835
 Alpha virt. eigenvalues --   -0.02223  -0.01958  -0.01317  -0.01169  -0.00336
 Alpha virt. eigenvalues --   -0.00141   0.00160   0.00356   0.00574   0.00686

  Beta  occ. eigenvalues --  -38.45321 -38.44402 -38.43987 -38.43818 -38.43732
  Beta  occ. eigenvalues --  -38.43163 -38.42633  -2.21231  -2.20123  -2.19826
  Beta  occ. eigenvalues --   -2.19754  -2.19684  -2.18993  -2.18593  -1.14964
  Beta  occ. eigenvalues --   -1.14870  -1.14830  -1.13821  -1.13816  -1.13790
  Beta  occ. eigenvalues --   -1.13528  -1.13521  -1.13504  -1.13429  -1.13426
  Beta  occ. eigenvalues --   -1.13404  -1.13385  -1.13323  -1.13293  -1.12680
  Beta  occ. eigenvalues --   -1.12648  -1.12638  -1.12302  -1.12252  -1.12175
  Beta  occ. eigenvalues --   -0.18280  -0.13663  -0.10879
  Beta virt. eigenvalues --   -0.07430  -0.06817  -0.04731  -0.04265  -0.02793
  Beta virt. eigenvalues --   -0.02608  -0.01687  -0.01643  -0.00986  -0.00808
  Beta virt. eigenvalues --   -0.00080  -0.00009   0.00325   0.00433   0.00611

 Mulliken charges and spin densities:
               1          2
     1  Na  -0.165464   0.086916
     2  Na   0.195287   0.108983
     3  Na  -0.455087  -0.096102
     4  Na  -0.000179   0.199424
     5  Na  -0.109385   0.443779
     6  Na   0.237544   0.008483
     7  Na   0.297285   0.248516
 Sum of Mulliken charges =  -0.00000   1.00000

 Dipole moment (field-independent basis, Debye):
    X=             -0.2236    Y=              0.3975    Z=              0.0682  Tot=              0.4612
 Quadrupole moment (field-independent basis, Debye-Ang):
   XX=            -60.0220   YY=            -71.8861   ZZ=            -67.9547
   XY=             -1.6391   XZ=             -0.7231   YZ=             -4.2767

 Normal termination of Gaussian 16 at Tue Dec  5 12:15:27 2023.
