 Gaussian 16, Revision B.01,
 Gaussian 16:  ES64L-G16RevB.01 20-Dec-2017

 -------------------------
 #P B3LYP/6-311+g(d) force
 -------------------------

 -----
 DPGEN
 -----
 Symbolic Z-matrix:
 Charge =  0 Multiplicity = 2

                         Standard orientation:
 ---------------------------------------------------------------------
 Center     Atomic      Atomic             Coordinates (Angstroms)
 Number     Number       Type             X           Y           Z
 ---------------------------------------------------------------------
      1         11           0        2.940790    1.198628   -0.288314
      2         11           0        1.977459   -2.175569   -0.259069
      3         11           0       -0.007870   -0.077610   -1.407404
      4         11           0       -1.540368   -2.545844   -0.088563
      5         11           0        0.442159    0.118960    2.336098
      6         11           0       -3.329289    0.532758   -0.013485
      7         11           0       -0.482880    2.948676   -0.279263
 ---------------------------------------------------------------------

 SCF Done:  E(UB3LYP) =  -1136.13554356     A.U. after   19 cycles

 The electronic state is 2-A.
 Alpha  occ. eigenvalues --  -38.44249 -38.44058 -38.43871 -38.43573 -38.43536
 Alpha  occ. eigenvalues --  -38.43447 -38.42995  -2.20033  -2.19883  -2.19707
 Alpha  occ. eigenvalues --   -2.19411  -2.19389  -2.19294  -2.19023  -1.13709
 Alpha  occ. eigenvalues --   -1.13690  -1.13676  -1.13563  -1.13543  -1.13521
 Alpha  occ. eigenvalues --   -1.13354  -1.13330  -1.13326  -1.13145  -1.13096
 Alpha  occ. eigenvalues --   -1.13064  -1.13051  -1.13038  -1.13007  -1.13004
 Alpha  occ. eigenvalues --   -1.12951  -1.12913  -1.12703  -1.12660  -1.12639
 Alpha  occ. eigenvalues --   -0.18391  -0.12903  -0.12399  -0.10732
 Alpha virt. eigenvalues --   -0.05830  -0.05202  -0.04704  -0.03038  -0.02836
 Alpha virt. eigenvalues --   -0.02674  -0.01644  -0.01153  -0.00571  -0.00421
 Alpha virt. eigenvalues --   -0.00040   0.00321   0.00764   0.00840   0.00870

  Beta  occ. eigenvalues --  -38.44250 -38.44052 -38.43756 -38.43568 -38.43528
  Beta  occ. eigenvalues --  -38.43444 -38.42948  -2.20038  -2.19875  -2.19494
  Beta  occ. eigenvalues --   -2.19400  -2.19383  -2.19292  -2.18940  -1.13701
  Beta  occ. eigenvalues --   -1.13694  -1.13682  -1.13551  -1.13522  -1.13517
  Beta  occ. eigenvalues --   -1.13211  -1.13181  -1.13177  -1.13130  -1.13086
  Beta  occ. eigenvalues --   -1.13036  -1.13034  -1.13031  -1.13006  -1.12998
  Beta  occ. eigenvalues --   -1.12935  -1.12915  -1.12643  -1.12601  -1.12578
  Beta  occ. eigenvalues --   -0.17696  -0.12724  -0.12188
  Beta virt. eigenvalues --   -0.06694  -0.05797  -0.05212  -0.04646  -0.02318
  Beta virt. eigenvalues --   -0.02037  -0.01585  -0.01550  -0.01092  -0.00608
  Beta virt. eigenvalues --   -0.00471   0.00150   0.00368   0.00834   0.00837

 Mulliken charges and spin densities:
               1          2
     1  Na   0.307142   0.025171
     2  Na   0.406207   0.083573
     3  Na  -0.368104   0.087247
     4  Na   0.192936   0.028382
     5  Na  -0.718828   0.798347
     6  Na   0.056304  -0.006066
     7  Na   0.124343  -0.016654
 Sum of Mulliken charges =  -0.00000   1.00000

 Dipole moment (field-independent basis, Debye):
    X=             -0.0354    Y=              0.1514    Z=              0.1930  Tot=              0.2478
 Quadrupole moment (field-independent basis, Debye-Ang):
   XX=            -55.1452   YY=            -62.7431   ZZ=            -75.2129
   XY=              0.1836   XZ=             -1.2214   YZ=             -0.3893

 Normal termination of Gaussian 16 at Sat Dec  9 05:56:22 2023.
