 Gaussian 16, Revision B.01,
 Gaussian 16:  ES64L-G16RevB.01 20-Dec-2017

 -------------------------
 #P B3LYP/6-311+g(d) force
 -------------------------

 -----
 DPGEN
 -----
 Symbolic Z-matrix:
 Charge =  0 Multiplicity = 2

                         Standard orientation:
 ---------------------------------------------------------------------
 Center     Atomic      Atomic             Coordinates (Angstroms)
 Number     Number       Type             X           Y           Z
 ---------------------------------------------------------------------
      1         11           0        1.225416    2.671986    0.004639
      2         11           0        1.922018   -2.465028    0.943903
      3         11           0        3.605511    0.201905   -1.053434
      4         11           0       -3.005254    1.492578    0.656952
      5         11           0       -3.937544   -1.339748   -0.996405
      6         11           0        0.098986   -0.386089   -1.375814
      7         11           0        0.090867   -0.175603    1.820158
 ---------------------------------------------------------------------

 SCF Done:  E(UB3LYP) =  -1136.11943176     A.U. after   24 cycles

 The electronic state is 2-A.
 Alpha  occ. eigenvalues --  -38.45179 -38.44836 -38.44722 -38.44468 -38.43804
 Alpha  occ. eigenvalues --  -38.42758 -38.42704  -2.21034  -2.20648  -2.20501
 Alpha  occ. eigenvalues --   -2.20253  -2.19749  -2.18574  -2.18568  -1.14781
 Alpha  occ. eigenvalues --   -1.14669  -1.14648  -1.14324  -1.14277  -1.14263
 Alpha  occ. eigenvalues --   -1.14192  -1.14160  -1.14140  -1.13908  -1.13900
 Alpha  occ. eigenvalues --   -1.13870  -1.13443  -1.13385  -1.13358  -1.12265
 Alpha  occ. eigenvalues --   -1.12263  -1.12253  -1.12214  -1.12204  -1.12194
 Alpha  occ. eigenvalues --   -0.17911  -0.13767  -0.11283  -0.11085
 Alpha virt. eigenvalues --   -0.06705  -0.05661  -0.04255  -0.03183  -0.02782
 Alpha virt. eigenvalues --   -0.02652  -0.02303  -0.01360  -0.00763  -0.00379
 Alpha virt. eigenvalues --   -0.00061   0.00050   0.00401   0.00508   0.00674

  Beta  occ. eigenvalues --  -38.45168 -38.44784 -38.44721 -38.44416 -38.43721
  Beta  occ. eigenvalues --  -38.42766 -38.42692  -2.21015  -2.20552  -2.20503
  Beta  occ. eigenvalues --   -2.20155  -2.19597  -2.18592  -2.18550  -1.14748
  Beta  occ. eigenvalues --   -1.14663  -1.14631  -1.14252  -1.14215  -1.14201
  Beta  occ. eigenvalues --   -1.14192  -1.14165  -1.14119  -1.13840  -1.13832
  Beta  occ. eigenvalues --   -1.13808  -1.13346  -1.13285  -1.13236  -1.12276
  Beta  occ. eigenvalues --   -1.12269  -1.12236  -1.12206  -1.12196  -1.12176
  Beta  occ. eigenvalues --   -0.17321  -0.13274  -0.11013
  Beta virt. eigenvalues --   -0.07631  -0.06463  -0.05165  -0.03985  -0.02960
  Beta virt. eigenvalues --   -0.02448  -0.02130  -0.01719  -0.01254  -0.00553
  Beta virt. eigenvalues --   -0.00193  -0.00001   0.00141   0.00506   0.00649

 Mulliken charges and spin densities:
               1          2
     1  Na  -0.445139   0.037834
     2  Na  -0.230959   0.095512
     3  Na   0.507635   0.189604
     4  Na   0.054297   0.011178
     5  Na   0.054536   0.319097
     6  Na  -0.404931   0.153469
     7  Na   0.464560   0.193306
 Sum of Mulliken charges =  -0.00000   1.00000

 Dipole moment (field-independent basis, Debye):
    X=             -0.1800    Y=              0.0373    Z=             -0.1530  Tot=              0.2391
 Quadrupole moment (field-independent basis, Debye-Ang):
   XX=            -54.4619   YY=            -71.7591   ZZ=            -70.0547
   XY=             -1.9211   XZ=             -1.4077   YZ=              4.2211

 Normal termination of Gaussian 16 at Thu Dec  7 18:30:08 2023.
