 Gaussian 16, Revision B.01,
 Gaussian 16:  ES64L-G16RevB.01 20-Dec-2017

 -------------------------
 #P B3LYP/6-311+g(d) force
 -------------------------

 -----
 DPGEN
 -----
 Symbolic Z-matrix:
 Charge =  0 Multiplicity = 2

                         Standard orientation:
 ---------------------------------------------------------------------
 Center     Atomic      Atomic             Coordinates (Angstroms)
 Number     Number       Type             X           Y           Z
 ---------------------------------------------------------------------
      1         11           0       -1.222819   -1.992748    0.565246
      2         11           0       -2.194239    2.199009   -0.247396
      3         11           0        0.915578    1.116815    2.143051
      4         11           0        0.750609   -0.782511   -1.916429
      5         11           0        2.926859   -2.036747    0.411118
      6         11           0        3.158929    1.921617   -0.763424
      7         11           0       -4.334917   -0.425436   -0.192166
 ---------------------------------------------------------------------

 SCF Done:  E(UB3LYP) =  -1136.11373446     A.U. after   24 cycles

 The electronic state is 2-A.
 Alpha  occ. eigenvalues --  -38.45253 -38.45069 -38.44617 -38.44357 -38.44145
 Alpha  occ. eigenvalues --  -38.43688 -38.43542  -2.21010  -2.20849  -2.20369
 Alpha  occ. eigenvalues --   -2.20187  -2.19908  -2.19492  -2.19339  -1.14689
 Alpha  occ. eigenvalues --   -1.14663  -1.14649  -1.14518  -1.14505  -1.14489
 Alpha  occ. eigenvalues --   -1.14056  -1.14037  -1.14000  -1.13870  -1.13829
 Alpha  occ. eigenvalues --   -1.13808  -1.13580  -1.13557  -1.13549  -1.13200
 Alpha  occ. eigenvalues --   -1.13166  -1.13094  -1.13001  -1.12975  -1.12962
 Alpha  occ. eigenvalues --   -0.17102  -0.13669  -0.11153  -0.10528
 Alpha virt. eigenvalues --   -0.07019  -0.06338  -0.03972  -0.03401  -0.03067
 Alpha virt. eigenvalues --   -0.02446  -0.02292  -0.01862  -0.00963  -0.00528
 Alpha virt. eigenvalues --   -0.00107   0.00002   0.00206   0.00520   0.00555

  Beta  occ. eigenvalues --  -38.45251 -38.45064 -38.44618 -38.44312 -38.44120
  Beta  occ. eigenvalues --  -38.43674 -38.43461  -2.21010  -2.20840  -2.20373
  Beta  occ. eigenvalues --   -2.20103  -2.19865  -2.19468  -2.19189  -1.14671
  Beta  occ. eigenvalues --   -1.14667  -1.14646  -1.14508  -1.14500  -1.14484
  Beta  occ. eigenvalues --   -1.14056  -1.14035  -1.13999  -1.13810  -1.13775
  Beta  occ. eigenvalues --   -1.13741  -1.13549  -1.13526  -1.13511  -1.13185
  Beta  occ. eigenvalues --   -1.13134  -1.13077  -1.12899  -1.12874  -1.12852
  Beta  occ. eigenvalues --   -0.16485  -0.13446  -0.10963
  Beta virt. eigenvalues --   -0.06884  -0.06750  -0.06311  -0.03545  -0.02963
  Beta virt. eigenvalues --   -0.02764  -0.02180  -0.01766  -0.01476  -0.00923
  Beta virt. eigenvalues --   -0.00227  -0.00076   0.00043   0.00416   0.00572

 Mulliken charges and spin densities:
               1          2
     1  Na  -0.013624   0.141727
     2  Na  -0.048509  -0.030299
     3  Na  -0.296701   0.506012
     4  Na   0.043373   0.410354
     5  Na   0.285124   0.038608
     6  Na  -0.091424  -0.055824
     7  Na   0.121760  -0.010578
 Sum of Mulliken charges =  -0.00000   1.00000

 Dipole moment (field-independent basis, Debye):
    X=             -0.3682    Y=             -0.6239    Z=             -0.1573  Tot=              0.7413
 Quadrupole moment (field-independent basis, Debye-Ang):
   XX=            -47.9681   YY=            -73.0223   ZZ=            -73.5364
   XY=             -1.7362   XZ=              2.1056   YZ=             -3.8056

 Normal termination of Gaussian 16 at Sun Dec  3 14:16:33 2023.
