 Gaussian 16, Revision B.01,
 Gaussian 16:  ES64L-G16RevB.01 20-Dec-2017

 -------------------------
 #P B3LYP/6-311+g(d) force
 -------------------------

 -----
 DPGEN
 -----
 Symbolic Z-matrix:
 Charge =  0 Multiplicity = 2

                         Standard orientation:
 ---------------------------------------------------------------------
 Center     Atomic      Atomic             Coordinates (Angstroms)
 Number     Number       Type             X           Y           Z
 ---------------------------------------------------------------------
      1         11           0        3.304557    0.076411    0.462999
      2         11           0       -0.162145   -0.201882   -1.450405
      3         11           0        1.024108   -2.792814   -0.485739
      4         11           0       -2.315740    2.333095    0.085042
      5         11           0       -3.003480   -1.561851    0.056127
      6         11           0        1.304703    2.480333   -0.480369
      7         11           0       -0.152003   -0.333292    1.812346
 ---------------------------------------------------------------------

 SCF Done:  E(UB3LYP) =  -1136.13189764     A.U. after   21 cycles

 The electronic state is 2-A.
 Alpha  occ. eigenvalues --  -38.44640 -38.44151 -38.44047 -38.43677 -38.43446
 Alpha  occ. eigenvalues --  -38.43236 -38.42844  -2.20426  -2.19971  -2.19833
 Alpha  occ. eigenvalues --   -2.19534  -2.19352  -2.19105  -2.18871  -1.14108
 Alpha  occ. eigenvalues --   -1.14082  -1.14058  -1.13647  -1.13633  -1.13604
 Alpha  occ. eigenvalues --   -1.13514  -1.13490  -1.13472  -1.13280  -1.13183
 Alpha  occ. eigenvalues --   -1.13139  -1.13064  -1.12976  -1.12954  -1.12824
 Alpha  occ. eigenvalues --   -1.12757  -1.12730  -1.12558  -1.12498  -1.12477
 Alpha  occ. eigenvalues --   -0.18471  -0.13008  -0.12382  -0.10275
 Alpha virt. eigenvalues --   -0.06108  -0.05500  -0.04448  -0.03057  -0.02682
 Alpha virt. eigenvalues --   -0.02097  -0.01932  -0.01436  -0.00611  -0.00294
 Alpha virt. eigenvalues --    0.00014   0.00314   0.00710   0.00779   0.00833

  Beta  occ. eigenvalues --  -38.44637 -38.44140 -38.44048 -38.43658 -38.43372
  Beta  occ. eigenvalues --  -38.43225 -38.42778  -2.20423  -2.19952  -2.19837
  Beta  occ. eigenvalues --   -2.19503  -2.19217  -2.19088  -2.18754  -1.14092
  Beta  occ. eigenvalues --   -1.14080  -1.14055  -1.13638  -1.13601  -1.13594
  Beta  occ. eigenvalues --   -1.13508  -1.13493  -1.13470  -1.13249  -1.13143
  Beta  occ. eigenvalues --   -1.13120  -1.12971  -1.12885  -1.12851  -1.12804
  Beta  occ. eigenvalues --   -1.12731  -1.12720  -1.12473  -1.12408  -1.12396
  Beta  occ. eigenvalues --   -0.17795  -0.12780  -0.12096
  Beta virt. eigenvalues --   -0.06488  -0.06035  -0.05447  -0.04394  -0.02374
  Beta virt. eigenvalues --   -0.01982  -0.01798  -0.01380  -0.01088  -0.00635
  Beta virt. eigenvalues --   -0.00301   0.00147   0.00352   0.00735   0.00816

 Mulliken charges and spin densities:
               1          2
     1  Na   0.073074   0.114007
     2  Na  -0.018981   0.272404
     3  Na   0.165586  -0.005294
     4  Na  -0.048648  -0.049516
     5  Na   0.039205  -0.075973
     6  Na   0.091432   0.014230
     7  Na  -0.301668   0.730142
 Sum of Mulliken charges =  -0.00000   1.00000

 Dipole moment (field-independent basis, Debye):
    X=             -0.4720    Y=             -0.2748    Z=              0.2243  Tot=              0.5904
 Quadrupole moment (field-independent basis, Debye-Ang):
   XX=            -51.9558   YY=            -62.0165   ZZ=            -76.8084
   XY=             -0.1993   XZ=              0.3537   YZ=              0.3090

 Normal termination of Gaussian 16 at Thu Dec  7 21:40:19 2023.
