 Gaussian 16, Revision B.01,
 Gaussian 16:  ES64L-G16RevB.01 20-Dec-2017

 -------------------------
 #P B3LYP/6-311+g(d) force
 -------------------------

 -----
 DPGEN
 -----
 Symbolic Z-matrix:
 Charge =  0 Multiplicity = 2

                         Standard orientation:
 ---------------------------------------------------------------------
 Center     Atomic      Atomic             Coordinates (Angstroms)
 Number     Number       Type             X           Y           Z
 ---------------------------------------------------------------------
      1         11           0       -1.766984    1.830387   -0.280138
      2         11           0       -0.850621   -0.833935    2.249158
      3         11           0        2.411946    0.493821   -1.884203
      4         11           0        2.807591   -1.879626    0.377679
      5         11           0       -4.026654   -0.086942   -0.641837
      6         11           0       -0.572153   -2.066878   -0.762870
      7         11           0        1.996875    2.543173    0.942211
 ---------------------------------------------------------------------

 SCF Done:  E(UB3LYP) =  -1136.12095050     A.U. after   21 cycles

 The electronic state is 2-A.
 Alpha  occ. eigenvalues --  -38.44556 -38.44555 -38.44295 -38.44176 -38.43885
 Alpha  occ. eigenvalues --  -38.43860 -38.43495  -2.20388  -2.20347  -2.20124
 Alpha  occ. eigenvalues --   -2.19995  -2.19705  -2.19692  -2.19264  -1.14107
 Alpha  occ. eigenvalues --   -1.14031  -1.14030  -1.14011  -1.13998  -1.13983
 Alpha  occ. eigenvalues --   -1.13794  -1.13757  -1.13735  -1.13668  -1.13648
 Alpha  occ. eigenvalues --   -1.13608  -1.13402  -1.13390  -1.13369  -1.13357
 Alpha  occ. eigenvalues --   -1.13328  -1.13304  -1.12931  -1.12914  -1.12913
 Alpha  occ. eigenvalues --   -0.17373  -0.13755  -0.11508  -0.10855
 Alpha virt. eigenvalues --   -0.06284  -0.05334  -0.05022  -0.03271  -0.03009
 Alpha virt. eigenvalues --   -0.02661  -0.02164  -0.01261  -0.00478  -0.00383
 Alpha virt. eigenvalues --   -0.00094   0.00091   0.00322   0.00497   0.00664

  Beta  occ. eigenvalues --  -38.44556 -38.44522 -38.44202 -38.44142 -38.43883
  Beta  occ. eigenvalues --  -38.43853 -38.43479  -2.20352  -2.20326  -2.19953
  Beta  occ. eigenvalues --   -2.19932  -2.19702  -2.19684  -2.19235  -1.14066
  Beta  occ. eigenvalues --   -1.14025  -1.14008  -1.13985  -1.13983  -1.13956
  Beta  occ. eigenvalues --   -1.13683  -1.13633  -1.13626  -1.13619  -1.13609
  Beta  occ. eigenvalues --   -1.13559  -1.13400  -1.13364  -1.13363  -1.13348
  Beta  occ. eigenvalues --   -1.13307  -1.13302  -1.12910  -1.12897  -1.12886
  Beta  occ. eigenvalues --   -0.16769  -0.13355  -0.11315
  Beta virt. eigenvalues --   -0.07311  -0.06085  -0.05233  -0.04399  -0.03108
  Beta virt. eigenvalues --   -0.02449  -0.02150  -0.01746  -0.01106  -0.00368
  Beta virt. eigenvalues --   -0.00143  -0.00012   0.00244   0.00424   0.00620

 Mulliken charges and spin densities:
               1          2
     1  Na  -0.566579   0.246059
     2  Na  -0.134012   0.425175
     3  Na   0.047899   0.062283
     4  Na   0.345191   0.051389
     5  Na   0.712274  -0.095119
     6  Na  -0.171420   0.161610
     7  Na  -0.233352   0.148603
 Sum of Mulliken charges =  -0.00000   1.00000

 Dipole moment (field-independent basis, Debye):
    X=             -0.2289    Y=             -0.7852    Z=              0.1132  Tot=              0.8257
 Quadrupole moment (field-independent basis, Debye-Ang):
   XX=            -56.0593   YY=            -74.7869   ZZ=            -66.8245
   XY=              0.1649   XZ=              2.2116   YZ=              0.5547

 Normal termination of Gaussian 16 at Sun Dec  3 22:52:29 2023.
