 Gaussian 16, Revision B.01,
 Gaussian 16:  ES64L-G16RevB.01 20-Dec-2017

 -------------------------
 #P B3LYP/6-311+g(d) force
 -------------------------

 -----
 DPGEN
 -----
 Symbolic Z-matrix:
 Charge =  0 Multiplicity = 2

                         Standard orientation:
 ---------------------------------------------------------------------
 Center     Atomic      Atomic             Coordinates (Angstroms)
 Number     Number       Type             X           Y           Z
 ---------------------------------------------------------------------
      1         11           0       -3.036885   -2.900820   -0.563465
      2         11           0        0.472785    3.398788   -0.777319
      3         11           0        1.117868   -2.835715    0.440991
      4         11           0       -4.418483   -0.136856   -0.051772
      5         11           0       -2.241533    2.691825    0.946514
      6         11           0        4.290873   -2.078872    0.077752
      7         11           0        3.815375    1.861650   -0.072700
 ---------------------------------------------------------------------

 SCF Done:  E(UB3LYP) =  -1136.10594840     A.U. after   22 cycles

 The electronic state is 2-A.
 Alpha  occ. eigenvalues --  -38.45167 -38.45020 -38.44678 -38.44643 -38.44458
 Alpha  occ. eigenvalues --  -38.44240 -38.43850  -2.20930  -2.20808  -2.20452
 Alpha  occ. eigenvalues --   -2.20416  -2.20218  -2.20043  -2.19659  -1.14598
 Alpha  occ. eigenvalues --   -1.14589  -1.14559  -1.14490  -1.14478  -1.14457
 Alpha  occ. eigenvalues --   -1.14121  -1.14104  -1.14100  -1.14073  -1.14055
 Alpha  occ. eigenvalues --   -1.14029  -1.13905  -1.13903  -1.13867  -1.13695
 Alpha  occ. eigenvalues --   -1.13691  -1.13681  -1.13309  -1.13303  -1.13289
 Alpha  occ. eigenvalues --   -0.15375  -0.13959  -0.13231  -0.10774
 Alpha virt. eigenvalues --   -0.07704  -0.05067  -0.04486  -0.03572  -0.03306
 Alpha virt. eigenvalues --   -0.02609  -0.02382  -0.01963  -0.01209  -0.00760
 Alpha virt. eigenvalues --   -0.00573  -0.00345  -0.00007   0.00359   0.00570

  Beta  occ. eigenvalues --  -38.45130 -38.45015 -38.44674 -38.44552 -38.44474
  Beta  occ. eigenvalues --  -38.44203 -38.43792  -2.20863  -2.20803  -2.20448
  Beta  occ. eigenvalues --   -2.20254  -2.20246  -2.19974  -2.19550  -1.14555
  Beta  occ. eigenvalues --   -1.14546  -1.14504  -1.14481  -1.14479  -1.14429
  Beta  occ. eigenvalues --   -1.14122  -1.14103  -1.14076  -1.13958  -1.13944
  Beta  occ. eigenvalues --   -1.13933  -1.13930  -1.13915  -1.13852  -1.13648
  Beta  occ. eigenvalues --   -1.13644  -1.13632  -1.13234  -1.13232  -1.13221
  Beta  occ. eigenvalues --   -0.14864  -0.13295  -0.12596
  Beta virt. eigenvalues --   -0.07736  -0.07590  -0.04655  -0.04061  -0.03364
  Beta virt. eigenvalues --   -0.02918  -0.02416  -0.02222  -0.01721  -0.01086
  Beta virt. eigenvalues --   -0.00490  -0.00249  -0.00194   0.00199   0.00452

 Mulliken charges and spin densities:
               1          2
     1  Na   0.294932   0.176651
     2  Na  -0.126123  -0.074423
     3  Na  -0.417364   0.195062
     4  Na  -0.015323   0.036006
     5  Na  -0.091113   0.272290
     6  Na   0.405998  -0.055793
     7  Na  -0.051007   0.450207
 Sum of Mulliken charges =  -0.00000   1.00000

 Dipole moment (field-independent basis, Debye):
    X=              0.1891    Y=             -0.7098    Z=             -0.0198  Tot=              0.7348
 Quadrupole moment (field-independent basis, Debye-Ang):
   XX=            -57.3218   YY=            -71.2245   ZZ=            -72.3977
   XY=             -3.2472   XZ=             -0.8541   YZ=             -0.1006

 Normal termination of Gaussian 16 at Sun Dec  3 12:38:48 2023.
