 Gaussian 16, Revision B.01,
 Gaussian 16:  ES64L-G16RevB.01 20-Dec-2017

 -------------------------
 #P B3LYP/6-311+g(d) force
 -------------------------

 -----
 DPGEN
 -----
 Symbolic Z-matrix:
 Charge =  0 Multiplicity = 2

                         Standard orientation:
 ---------------------------------------------------------------------
 Center     Atomic      Atomic             Coordinates (Angstroms)
 Number     Number       Type             X           Y           Z
 ---------------------------------------------------------------------
      1         11           0        2.123713    3.201428    0.042698
      2         11           0       -0.395235    0.769171   -1.753470
      3         11           0       -0.351609   -2.578677    1.574863
      4         11           0       -3.537423   -0.197354   -1.545501
      5         11           0        2.174195    0.230838    1.106792
      6         11           0       -2.616128    0.937415    1.839355
      7         11           0        2.602486   -2.362821   -1.264737
 ---------------------------------------------------------------------

 SCF Done:  E(UB3LYP) =  -1136.11700850     A.U. after   20 cycles

 The electronic state is 2-A.
 Alpha  occ. eigenvalues --  -38.45222 -38.44621 -38.44547 -38.44387 -38.44233
 Alpha  occ. eigenvalues --  -38.43619 -38.42903  -2.20971  -2.20359  -2.20313
 Alpha  occ. eigenvalues --   -2.20192  -2.20033  -2.19474  -2.18711  -1.14634
 Alpha  occ. eigenvalues --   -1.14621  -1.14596  -1.14050  -1.14028  -1.13981
 Alpha  occ. eigenvalues --   -1.13971  -1.13969  -1.13923  -1.13874  -1.13855
 Alpha  occ. eigenvalues --   -1.13833  -1.13691  -1.13683  -1.13653  -1.13165
 Alpha  occ. eigenvalues --   -1.13156  -1.13099  -1.12388  -1.12364  -1.12344
 Alpha  occ. eigenvalues --   -0.16736  -0.13149  -0.11655  -0.11107
 Alpha virt. eigenvalues --   -0.06355  -0.05566  -0.04765  -0.03461  -0.02920
 Alpha virt. eigenvalues --   -0.02769  -0.01794  -0.01414  -0.01066  -0.00319
 Alpha virt. eigenvalues --   -0.00059   0.00112   0.00193   0.00388   0.00520

  Beta  occ. eigenvalues --  -38.45176 -38.44602 -38.44512 -38.44341 -38.44208
  Beta  occ. eigenvalues --  -38.43611 -38.42899  -2.20886  -2.20325  -2.20245
  Beta  occ. eigenvalues --   -2.20109  -2.19989  -2.19459  -2.18704  -1.14576
  Beta  occ. eigenvalues --   -1.14556  -1.14538  -1.14021  -1.14008  -1.13938
  Beta  occ. eigenvalues --   -1.13935  -1.13922  -1.13881  -1.13822  -1.13797
  Beta  occ. eigenvalues --   -1.13761  -1.13662  -1.13637  -1.13625  -1.13154
  Beta  occ. eigenvalues --   -1.13137  -1.13088  -1.12379  -1.12358  -1.12341
  Beta  occ. eigenvalues --   -0.16142  -0.12844  -0.11421
  Beta virt. eigenvalues --   -0.07657  -0.05780  -0.05213  -0.04614  -0.03228
  Beta virt. eigenvalues --   -0.02519  -0.02144  -0.01592  -0.01168  -0.00825
  Beta virt. eigenvalues --   -0.00158   0.00083   0.00236   0.00299   0.00535

 Mulliken charges and spin densities:
               1          2
     1  Na   0.086329  -0.100346
     2  Na  -0.252853   0.418179
     3  Na  -0.135835   0.139476
     4  Na   0.271789  -0.010696
     5  Na   0.275075   0.228077
     6  Na  -0.161492   0.287805
     7  Na  -0.083014   0.037503
 Sum of Mulliken charges =  -0.00000   1.00000

 Dipole moment (field-independent basis, Debye):
    X=             -0.8647    Y=             -0.5242    Z=             -0.0988  Tot=              1.0160
 Quadrupole moment (field-independent basis, Debye-Ang):
   XX=            -61.3633   YY=            -68.1367   ZZ=            -67.1477
   XY=             -1.0578   XZ=             -2.7449   YZ=              3.3128

 Normal termination of Gaussian 16 at Mon Dec  4 05:27:55 2023.
