 Gaussian 16, Revision B.01,
 Gaussian 16:  ES64L-G16RevB.01 20-Dec-2017

 -------------------------
 #P B3LYP/6-311+g(d) force
 -------------------------

 -----
 DPGEN
 -----
 Symbolic Z-matrix:
 Charge =  0 Multiplicity = 2

                         Standard orientation:
 ---------------------------------------------------------------------
 Center     Atomic      Atomic             Coordinates (Angstroms)
 Number     Number       Type             X           Y           Z
 ---------------------------------------------------------------------
      1         11           0       -1.706432   -0.382022    1.178467
      2         11           0       -4.743428   -0.346007   -0.295929
      3         11           0        1.301462    2.530011    0.566596
      4         11           0       -1.367807    1.215976   -1.125775
      5         11           0        2.380045   -0.397127    1.818265
      6         11           0        1.036780   -2.494660   -0.310367
      7         11           0        3.099381   -0.126171   -1.831256
 ---------------------------------------------------------------------

 SCF Done:  E(UB3LYP) =  -1136.11438375     A.U. after   29 cycles

 The electronic state is 2-A.
 Alpha  occ. eigenvalues --  -38.45492 -38.44621 -38.44517 -38.44486 -38.44286
 Alpha  occ. eigenvalues --  -38.43113 -38.42433  -2.21255  -2.20490  -2.20385
 Alpha  occ. eigenvalues --   -2.20370  -2.20104  -2.18951  -2.18269  -1.14935
 Alpha  occ. eigenvalues --   -1.14921  -1.14881  -1.14437  -1.14148  -1.14068
 Alpha  occ. eigenvalues --   -1.14037  -1.14033  -1.14029  -1.14008  -1.13981
 Alpha  occ. eigenvalues --   -1.13939  -1.13769  -1.13731  -1.13715  -1.12628
 Alpha  occ. eigenvalues --   -1.12616  -1.12584  -1.11948  -1.11923  -1.11917
 Alpha  occ. eigenvalues --   -0.17777  -0.14110  -0.11139  -0.10842
 Alpha virt. eigenvalues --   -0.07404  -0.04972  -0.04131  -0.03509  -0.02956
 Alpha virt. eigenvalues --   -0.02650  -0.02407  -0.01303  -0.00845  -0.00127
 Alpha virt. eigenvalues --   -0.00092  -0.00055   0.00218   0.00678   0.00731

  Beta  occ. eigenvalues --  -38.45500 -38.44626 -38.44479 -38.44459 -38.44196
  Beta  occ. eigenvalues --  -38.43094 -38.42422  -2.21272  -2.20497  -2.20337
  Beta  occ. eigenvalues --   -2.20304  -2.19936  -2.18919  -2.18250  -1.14946
  Beta  occ. eigenvalues --   -1.14932  -1.14890  -1.14427  -1.14149  -1.14074
  Beta  occ. eigenvalues --   -1.14008  -1.13990  -1.13969  -1.13960  -1.13952
  Beta  occ. eigenvalues --   -1.13891  -1.13651  -1.13621  -1.13595  -1.12610
  Beta  occ. eigenvalues --   -1.12592  -1.12535  -1.11930  -1.11918  -1.11888
  Beta  occ. eigenvalues --   -0.17164  -0.13859  -0.10947
  Beta virt. eigenvalues --   -0.07269  -0.07043  -0.04458  -0.03959  -0.03434
  Beta virt. eigenvalues --   -0.02802  -0.01973  -0.01664  -0.00877  -0.00773
  Beta virt. eigenvalues --   -0.00079   0.00008   0.00020   0.00369   0.00774

 Mulliken charges and spin densities:
               1          2
     1  Na  -0.583927   0.092707
     2  Na   0.632554   0.019347
     3  Na  -0.085476   0.160740
     4  Na  -0.180342  -0.020348
     5  Na   0.287117   0.019663
     6  Na   0.010182   0.272341
     7  Na  -0.080107   0.455549
 Sum of Mulliken charges =  -0.00000   1.00000

 Dipole moment (field-independent basis, Debye):
    X=             -1.7900    Y=             -0.1178    Z=             -0.0056  Tot=              1.7939
 Quadrupole moment (field-independent basis, Debye-Ang):
   XX=            -47.7704   YY=            -78.0361   ZZ=            -67.6534
   XY=              3.5985   XZ=              4.2854   YZ=             -0.0122

 Normal termination of Gaussian 16 at Tue Dec  5 18:57:26 2023.
