 Gaussian 16, Revision B.01,
 Gaussian 16:  ES64L-G16RevB.01 20-Dec-2017

 -------------------------
 #P B3LYP/6-311+g(d) force
 -------------------------

 -----
 DPGEN
 -----
 Symbolic Z-matrix:
 Charge =  0 Multiplicity = 2

                         Standard orientation:
 ---------------------------------------------------------------------
 Center     Atomic      Atomic             Coordinates (Angstroms)
 Number     Number       Type             X           Y           Z
 ---------------------------------------------------------------------
      1         11           0       -0.278847   -0.191153   -0.673804
      2         11           0        1.070945   -2.654222    0.790867
      3         11           0       -3.303466    0.879631   -0.531203
      4         11           0        3.486000   -0.704476   -0.379750
      5         11           0       -2.508652   -2.163733    0.031368
      6         11           0       -0.801051    2.731022    1.010074
      7         11           0        2.335070    2.102931   -0.247552
 ---------------------------------------------------------------------

 SCF Done:  E(UB3LYP) =  -1136.12387549     A.U. after   22 cycles

 The electronic state is 2-A.
 Alpha  occ. eigenvalues --  -38.44171 -38.43963 -38.43928 -38.43755 -38.43728
 Alpha  occ. eigenvalues --  -38.43384 -38.43284  -2.20055  -2.19842  -2.19827
 Alpha  occ. eigenvalues --   -2.19780  -2.19617  -2.19260  -2.19145  -1.13809
 Alpha  occ. eigenvalues --   -1.13721  -1.13690  -1.13580  -1.13536  -1.13515
 Alpha  occ. eigenvalues --   -1.13495  -1.13487  -1.13477  -1.13443  -1.13408
 Alpha  occ. eigenvalues --   -1.13387  -1.13266  -1.13256  -1.13241  -1.12922
 Alpha  occ. eigenvalues --   -1.12903  -1.12879  -1.12798  -1.12788  -1.12780
 Alpha  occ. eigenvalues --   -0.18108  -0.14326  -0.13057  -0.09710
 Alpha virt. eigenvalues --   -0.06373  -0.05807  -0.04235  -0.03273  -0.02831
 Alpha virt. eigenvalues --   -0.02381  -0.01784  -0.01038  -0.00608  -0.00531
 Alpha virt. eigenvalues --   -0.00011   0.00262   0.00543   0.00755   0.00818

  Beta  occ. eigenvalues --  -38.44156 -38.43940 -38.43888 -38.43756 -38.43683
  Beta  occ. eigenvalues --  -38.43344 -38.43239  -2.20035  -2.19807  -2.19784
  Beta  occ. eigenvalues --   -2.19757  -2.19539  -2.19185  -2.19061  -1.13804
  Beta  occ. eigenvalues --   -1.13713  -1.13624  -1.13545  -1.13510  -1.13498
  Beta  occ. eigenvalues --   -1.13475  -1.13437  -1.13434  -1.13405  -1.13383
  Beta  occ. eigenvalues --   -1.13363  -1.13215  -1.13197  -1.13176  -1.12873
  Beta  occ. eigenvalues --   -1.12852  -1.12829  -1.12738  -1.12733  -1.12726
  Beta  occ. eigenvalues --   -0.17744  -0.13598  -0.12563
  Beta virt. eigenvalues --   -0.06431  -0.06354  -0.05556  -0.04028  -0.02726
  Beta virt. eigenvalues --   -0.02277  -0.02098  -0.01585  -0.00856  -0.00433
  Beta virt. eigenvalues --   -0.00381   0.00275   0.00436   0.00613   0.00837

 Mulliken charges and spin densities:
               1          2
     1  Na  -2.349065  -0.090522
     2  Na   0.163650   0.133741
     3  Na   0.959844   0.171709
     4  Na   0.792883   0.370140
     5  Na   0.231792   0.110884
     6  Na   0.044217   0.155877
     7  Na   0.156678   0.148172
 Sum of Mulliken charges =  -0.00000   1.00000

 Dipole moment (field-independent basis, Debye):
    X=             -0.5328    Y=             -0.1981    Z=              0.6431  Tot=              0.8583
 Quadrupole moment (field-independent basis, Debye-Ang):
   XX=            -65.3007   YY=            -63.1216   ZZ=            -70.4296
   XY=             -2.4928   XZ=             -0.2998   YZ=             -0.9425

 Normal termination of Gaussian 16 at Wed Nov 29 17:05:35 2023.
