 Gaussian 16, Revision B.01,
 Gaussian 16:  ES64L-G16RevB.01 20-Dec-2017

 -------------------------
 #P B3LYP/6-311+g(d) force
 -------------------------

 -----
 DPGEN
 -----
 Symbolic Z-matrix:
 Charge =  0 Multiplicity = 2

                         Standard orientation:
 ---------------------------------------------------------------------
 Center     Atomic      Atomic             Coordinates (Angstroms)
 Number     Number       Type             X           Y           Z
 ---------------------------------------------------------------------
      1         11           0        3.117992    0.864726   -0.460115
      2         11           0       -0.538868    2.892060   -0.578770
      3         11           0       -0.579143   -0.329076   -1.366164
      4         11           0       -1.712333   -2.519497    0.104787
      5         11           0        2.137730   -2.084619   -0.148613
      6         11           0       -3.045538    0.522622    0.188237
      7         11           0        0.620159    0.653784    2.260638
 ---------------------------------------------------------------------

 SCF Done:  E(UB3LYP) =  -1136.12859984     A.U. after   19 cycles

 The electronic state is 2-A.
 Alpha  occ. eigenvalues --  -38.44399 -38.44364 -38.43775 -38.43768 -38.43525
 Alpha  occ. eigenvalues --  -38.43300 -38.43254  -2.20241  -2.20219  -2.19616
 Alpha  occ. eigenvalues --   -2.19603  -2.19415  -2.19298  -2.19130  -1.13971
 Alpha  occ. eigenvalues --   -1.13914  -1.13896  -1.13878  -1.13856  -1.13854
 Alpha  occ. eigenvalues --   -1.13300  -1.13283  -1.13271  -1.13252  -1.13251
 Alpha  occ. eigenvalues --   -1.13232  -1.13222  -1.13053  -1.13025  -1.12961
 Alpha  occ. eigenvalues --   -1.12920  -1.12883  -1.12797  -1.12779  -1.12761
 Alpha  occ. eigenvalues --   -0.18419  -0.13478  -0.12252  -0.10566
 Alpha virt. eigenvalues --   -0.05973  -0.05265  -0.04566  -0.03481  -0.02870
 Alpha virt. eigenvalues --   -0.02341  -0.01636  -0.01062  -0.00565  -0.00412
 Alpha virt. eigenvalues --   -0.00033   0.00344   0.00753   0.00835   0.00857

  Beta  occ. eigenvalues --  -38.44393 -38.44361 -38.43763 -38.43672 -38.43522
  Beta  occ. eigenvalues --  -38.43287 -38.43215  -2.20238  -2.20211  -2.19608
  Beta  occ. eigenvalues --   -2.19414  -2.19410  -2.19228  -2.19110  -1.13967
  Beta  occ. eigenvalues --   -1.13911  -1.13873  -1.13859  -1.13853  -1.13850
  Beta  occ. eigenvalues --   -1.13291  -1.13265  -1.13248  -1.13247  -1.13125
  Beta  occ. eigenvalues --   -1.13099  -1.13090  -1.13036  -1.13024  -1.12914
  Beta  occ. eigenvalues --   -1.12871  -1.12843  -1.12770  -1.12757  -1.12746
  Beta  occ. eigenvalues --   -0.17770  -0.13266  -0.12036
  Beta virt. eigenvalues --   -0.06673  -0.05877  -0.05255  -0.04484  -0.02710
  Beta virt. eigenvalues --   -0.02124  -0.01543  -0.01372  -0.01003  -0.00591
  Beta virt. eigenvalues --   -0.00421   0.00166   0.00398   0.00815   0.00850

 Mulliken charges and spin densities:
               1          2
     1  Na   0.157037  -0.001400
     2  Na   0.060739  -0.014416
     3  Na  -0.105613   0.099384
     4  Na   0.219365   0.090206
     5  Na   0.163701   0.036834
     6  Na   0.210324   0.091272
     7  Na  -0.705553   0.698121
 Sum of Mulliken charges =  -0.00000   1.00000

 Dipole moment (field-independent basis, Debye):
    X=              0.0352    Y=              0.0982    Z=              0.1835  Tot=              0.2111
 Quadrupole moment (field-independent basis, Debye-Ang):
   XX=            -55.5808   YY=            -63.8114   ZZ=            -74.9519
   XY=              0.5949   XZ=             -2.6161   YZ=             -1.9528

 Normal termination of Gaussian 16 at Thu Dec  7 17:30:42 2023.
