 Gaussian 16, Revision B.01,
 Gaussian 16:  ES64L-G16RevB.01 20-Dec-2017

 -------------------------
 #P B3LYP/6-311+g(d) force
 -------------------------

 -----
 DPGEN
 -----
 Symbolic Z-matrix:
 Charge =  0 Multiplicity = 2

                         Standard orientation:
 ---------------------------------------------------------------------
 Center     Atomic      Atomic             Coordinates (Angstroms)
 Number     Number       Type             X           Y           Z
 ---------------------------------------------------------------------
      1         11           0        2.962565   -0.877780   -0.376357
      2         11           0       -0.204191   -0.124544    2.025976
      3         11           0        0.199468   -0.127358   -1.904341
      4         11           0        2.034904    2.418640    0.476016
      5         11           0       -1.803027    2.114235   -0.406746
      6         11           0       -3.421364   -0.623898   -0.044769
      7         11           0        0.231644   -2.779294    0.230221
 ---------------------------------------------------------------------

 SCF Done:  E(UB3LYP) =  -1136.13398159     A.U. after   19 cycles

 The electronic state is 2-A.
 Alpha  occ. eigenvalues --  -38.44576 -38.44144 -38.43881 -38.43880 -38.43502
 Alpha  occ. eigenvalues --  -38.43297 -38.42953  -2.20372  -2.20001  -2.19796
 Alpha  occ. eigenvalues --   -2.19767  -2.19364  -2.19098  -2.18825  -1.14052
 Alpha  occ. eigenvalues --   -1.14038  -1.14007  -1.13711  -1.13656  -1.13628
 Alpha  occ. eigenvalues --   -1.13470  -1.13440  -1.13434  -1.13413  -1.13407
 Alpha  occ. eigenvalues --   -1.13377  -1.13052  -1.13027  -1.12985  -1.12770
 Alpha  occ. eigenvalues --   -1.12756  -1.12743  -1.12517  -1.12491  -1.12447
 Alpha  occ. eigenvalues --   -0.18433  -0.13257  -0.11955  -0.11093
 Alpha virt. eigenvalues --   -0.06063  -0.04958  -0.04367  -0.03448  -0.02962
 Alpha virt. eigenvalues --   -0.02815  -0.01831  -0.01017  -0.00269  -0.00217
 Alpha virt. eigenvalues --   -0.00032   0.00348   0.00735   0.00783   0.00875

  Beta  occ. eigenvalues --  -38.44578 -38.44135 -38.43806 -38.43791 -38.43492
  Beta  occ. eigenvalues --  -38.43290 -38.42946  -2.20378  -2.19988  -2.19659
  Beta  occ. eigenvalues --   -2.19602  -2.19349  -2.19086  -2.18816  -1.14059
  Beta  occ. eigenvalues --   -1.14028  -1.14011  -1.13687  -1.13638  -1.13622
  Beta  occ. eigenvalues --   -1.13379  -1.13335  -1.13332  -1.13319  -1.13289
  Beta  occ. eigenvalues --   -1.13257  -1.13036  -1.13006  -1.12972  -1.12756
  Beta  occ. eigenvalues --   -1.12741  -1.12736  -1.12510  -1.12466  -1.12436
  Beta  occ. eigenvalues --   -0.17686  -0.13039  -0.11700
  Beta virt. eigenvalues --   -0.07203  -0.05979  -0.04949  -0.04267  -0.02715
  Beta virt. eigenvalues --   -0.02176  -0.01823  -0.01737  -0.00932  -0.00300
  Beta virt. eigenvalues --   -0.00212   0.00075   0.00372   0.00830   0.00874

 Mulliken charges and spin densities:
               1          2
     1  Na   0.306320   0.012667
     2  Na  -0.301745   0.766279
     3  Na  -0.076555   0.502052
     4  Na  -0.098224  -0.036727
     5  Na   0.111186   0.010691
     6  Na   0.014416  -0.126174
     7  Na   0.044602  -0.128789
 Sum of Mulliken charges =  -0.00000   1.00000

 Dipole moment (field-independent basis, Debye):
    X=             -0.3248    Y=             -0.2087    Z=             -0.0308  Tot=              0.3873
 Quadrupole moment (field-independent basis, Debye-Ang):
   XX=            -54.6856   YY=            -67.3867   ZZ=            -72.4676
   XY=              0.9048   XZ=              0.2414   YZ=              0.3772

 Normal termination of Gaussian 16 at Tue Dec  5 15:46:50 2023.
