 Gaussian 16, Revision B.01,
 Gaussian 16:  ES64L-G16RevB.01 20-Dec-2017

 -------------------------
 #P B3LYP/6-311+g(d) force
 -------------------------

 -----
 DPGEN
 -----
 Symbolic Z-matrix:
 Charge =  0 Multiplicity = 2

                         Standard orientation:
 ---------------------------------------------------------------------
 Center     Atomic      Atomic             Coordinates (Angstroms)
 Number     Number       Type             X           Y           Z
 ---------------------------------------------------------------------
      1         11           0       -0.103241   -3.305683   -1.043614
      2         11           0        1.720196    3.197750   -0.878755
      3         11           0        4.192071    0.774158    1.280090
      4         11           0       -3.837809    0.859347    0.907447
      5         11           0       -3.435582   -2.284060    0.346321
      6         11           0        3.165352   -2.537072   -0.067824
      7         11           0       -1.700988    3.295559   -0.543664
 ---------------------------------------------------------------------

 SCF Done:  E(UB3LYP) =  -1136.10600302     A.U. after   23 cycles

 The electronic state is 2-A.
 Alpha  occ. eigenvalues --  -38.45270 -38.45087 -38.44837 -38.44637 -38.44349
 Alpha  occ. eigenvalues --  -38.44266 -38.44133  -2.21012  -2.20832  -2.20617
 Alpha  occ. eigenvalues --   -2.20438  -2.20125  -2.20046  -2.19914  -1.14693
 Alpha  occ. eigenvalues --   -1.14681  -1.14641  -1.14520  -1.14508  -1.14468
 Alpha  occ. eigenvalues --   -1.14309  -1.14288  -1.14266  -1.14099  -1.14088
 Alpha  occ. eigenvalues --   -1.14068  -1.13778  -1.13757  -1.13752  -1.13716
 Alpha  occ. eigenvalues --   -1.13708  -1.13681  -1.13575  -1.13567  -1.13537
 Alpha  occ. eigenvalues --   -0.15384  -0.13796  -0.13360  -0.10910
 Alpha virt. eigenvalues --   -0.07805  -0.05117  -0.04495  -0.03594  -0.03482
 Alpha virt. eigenvalues --   -0.02078  -0.01925  -0.01787  -0.01537  -0.01257
 Alpha virt. eigenvalues --   -0.01102  -0.00128  -0.00056   0.00270   0.00710

  Beta  occ. eigenvalues --  -38.45252 -38.45083 -38.44828 -38.44609 -38.44268
  Beta  occ. eigenvalues --  -38.44244 -38.44076  -2.20984  -2.20831  -2.20605
  Beta  occ. eigenvalues --   -2.20388  -2.20007  -2.19974  -2.19809  -1.14677
  Beta  occ. eigenvalues --   -1.14665  -1.14597  -1.14526  -1.14512  -1.14427
  Beta  occ. eigenvalues --   -1.14290  -1.14283  -1.14244  -1.14067  -1.14058
  Beta  occ. eigenvalues --   -1.14026  -1.13691  -1.13684  -1.13675  -1.13656
  Beta  occ. eigenvalues --   -1.13650  -1.13644  -1.13503  -1.13497  -1.13465
  Beta  occ. eigenvalues --   -0.14921  -0.13005  -0.12654
  Beta virt. eigenvalues --   -0.08064  -0.07760  -0.04498  -0.04014  -0.03447
  Beta virt. eigenvalues --   -0.03267  -0.01875  -0.01736  -0.01698  -0.01181
  Beta virt. eigenvalues --   -0.01081  -0.00798   0.00137   0.00182   0.00258

 Mulliken charges and spin densities:
               1          2
     1  Na  -0.185223   0.261527
     2  Na  -0.164449   0.063741
     3  Na  -0.014799   0.393588
     4  Na  -0.043267   0.120511
     5  Na   0.275124   0.053122
     6  Na  -0.013020   0.017465
     7  Na   0.145636   0.090046
 Sum of Mulliken charges =  -0.00000   1.00000

 Dipole moment (field-independent basis, Debye):
    X=             -0.2811    Y=              0.1272    Z=              0.0357  Tot=              0.3106
 Quadrupole moment (field-independent basis, Debye-Ang):
   XX=            -62.7341   YY=            -66.2639   ZZ=            -71.5539
   XY=              0.8187   XZ=             -1.0433   YZ=              0.1923

 Normal termination of Gaussian 16 at Mon Dec  4 00:30:54 2023.
