 Gaussian 16, Revision B.01,
 Gaussian 16:  ES64L-G16RevB.01 20-Dec-2017

 -------------------------
 #P B3LYP/6-311+g(d) force
 -------------------------

 -----
 DPGEN
 -----
 Symbolic Z-matrix:
 Charge =  0 Multiplicity = 2

                         Standard orientation:
 ---------------------------------------------------------------------
 Center     Atomic      Atomic             Coordinates (Angstroms)
 Number     Number       Type             X           Y           Z
 ---------------------------------------------------------------------
      1         11           0       -0.262506   -2.141579   -1.579459
      2         11           0       -2.041970    1.623434    1.728906
      3         11           0        3.273746    0.887201   -0.398265
      4         11           0       -2.951692    0.169774   -1.562959
      5         11           0        0.794886    2.997302   -0.493850
      6         11           0       -1.081124   -1.787949    1.502164
      7         11           0        2.268661   -1.748182    0.803462
 ---------------------------------------------------------------------

 SCF Done:  E(UB3LYP) =  -1136.12361935     A.U. after   20 cycles

 The electronic state is 2-A.
 Alpha  occ. eigenvalues --  -38.44706 -38.44245 -38.44148 -38.44067 -38.43978
 Alpha  occ. eigenvalues --  -38.43914 -38.43749  -2.20494  -2.20095  -2.19914
 Alpha  occ. eigenvalues --   -2.19864  -2.19845  -2.19776  -2.19584  -1.14164
 Alpha  occ. eigenvalues --   -1.14140  -1.14119  -1.13792  -1.13757  -1.13713
 Alpha  occ. eigenvalues --   -1.13597  -1.13589  -1.13554  -1.13545  -1.13524
 Alpha  occ. eigenvalues --   -1.13511  -1.13501  -1.13499  -1.13493  -1.13460
 Alpha  occ. eigenvalues --   -1.13432  -1.13402  -1.13236  -1.13227  -1.13209
 Alpha  occ. eigenvalues --   -0.17394  -0.13280  -0.12457  -0.11214
 Alpha virt. eigenvalues --   -0.06259  -0.05340  -0.04674  -0.03815  -0.03245
 Alpha virt. eigenvalues --   -0.02643  -0.01432  -0.00736  -0.00559  -0.00442
 Alpha virt. eigenvalues --   -0.00311   0.00101   0.00263   0.00471   0.00781

  Beta  occ. eigenvalues --  -38.44655 -38.44206 -38.44145 -38.44022 -38.43937
  Beta  occ. eigenvalues --  -38.43905 -38.43748  -2.20401  -2.20025  -2.19910
  Beta  occ. eigenvalues --   -2.19781  -2.19771  -2.19759  -2.19583  -1.14096
  Beta  occ. eigenvalues --   -1.14079  -1.14045  -1.13751  -1.13711  -1.13642
  Beta  occ. eigenvalues --   -1.13594  -1.13583  -1.13551  -1.13495  -1.13485
  Beta  occ. eigenvalues --   -1.13468  -1.13457  -1.13438  -1.13436  -1.13417
  Beta  occ. eigenvalues --   -1.13410  -1.13378  -1.13232  -1.13226  -1.13208
  Beta  occ. eigenvalues --   -0.16804  -0.12967  -0.12309
  Beta virt. eigenvalues --   -0.07389  -0.06219  -0.05155  -0.03979  -0.03631
  Beta virt. eigenvalues --   -0.02720  -0.01882  -0.01308  -0.00674  -0.00493
  Beta virt. eigenvalues --   -0.00354  -0.00054   0.00263   0.00455   0.00553

 Mulliken charges and spin densities:
               1          2
     1  Na  -0.111201   0.425047
     2  Na  -0.182662   0.257891
     3  Na   0.033241  -0.110992
     4  Na  -0.081321   0.100981
     5  Na  -0.108363   0.084837
     6  Na   0.232581   0.218838
     7  Na   0.217725   0.023399
 Sum of Mulliken charges =  -0.00000   1.00000

 Dipole moment (field-independent basis, Debye):
    X=             -0.3796    Y=             -0.1599    Z=             -0.2149  Tot=              0.4646
 Quadrupole moment (field-independent basis, Debye-Ang):
   XX=            -62.9414   YY=            -68.0947   ZZ=            -68.4962
   XY=             -3.1230   XZ=              0.5107   YZ=             -0.6039

 Normal termination of Gaussian 16 at Sun Dec  3 19:30:33 2023.
