 Gaussian 16, Revision B.01,
 Gaussian 16:  ES64L-G16RevB.01 20-Dec-2017

 -------------------------
 #P B3LYP/6-311+g(d) force
 -------------------------

 -----
 DPGEN
 -----
 Symbolic Z-matrix:
 Charge =  0 Multiplicity = 2

                         Standard orientation:
 ---------------------------------------------------------------------
 Center     Atomic      Atomic             Coordinates (Angstroms)
 Number     Number       Type             X           Y           Z
 ---------------------------------------------------------------------
      1         11           0        2.093176    1.382617    1.754967
      2         11           0       -2.803388   -1.086852    0.480362
      3         11           0       -0.092017   -1.716128    2.238612
      4         11           0       -2.272943    2.316577    0.186875
      5         11           0        0.080336    1.700405   -1.884085
      6         11           0       -0.361762   -2.083126   -2.091153
      7         11           0        3.356597   -0.513494   -0.685578
 ---------------------------------------------------------------------

 SCF Done:  E(UB3LYP) =  -1136.11966834     A.U. after   21 cycles

 The electronic state is 2-A.
 Alpha  occ. eigenvalues --  -38.45402 -38.44780 -38.44779 -38.43892 -38.43629
 Alpha  occ. eigenvalues --  -38.43547 -38.43306  -2.21188  -2.20568  -2.20540
 Alpha  occ. eigenvalues --   -2.19679  -2.19454  -2.19353  -2.19129  -1.14839
 Alpha  occ. eigenvalues --   -1.14827  -1.14794  -1.14256  -1.14228  -1.14206
 Alpha  occ. eigenvalues --   -1.14200  -1.14194  -1.14158  -1.13367  -1.13330
 Alpha  occ. eigenvalues --   -1.13318  -1.13136  -1.13114  -1.13087  -1.13048
 Alpha  occ. eigenvalues --   -1.13029  -1.12991  -1.12781  -1.12776  -1.12766
 Alpha  occ. eigenvalues --   -0.17204  -0.12835  -0.12149  -0.11515
 Alpha virt. eigenvalues --   -0.06081  -0.05352  -0.04722  -0.03536  -0.03486
 Alpha virt. eigenvalues --   -0.03331  -0.01383  -0.00875  -0.00613  -0.00356
 Alpha virt. eigenvalues --   -0.00206   0.00200   0.00384   0.00523   0.00767

  Beta  occ. eigenvalues --  -38.45302 -38.44783 -38.44742 -38.43868 -38.43628
  Beta  occ. eigenvalues --  -38.43537 -38.43291  -2.21002  -2.20548  -2.20497
  Beta  occ. eigenvalues --   -2.19634  -2.19455  -2.19337  -2.19101  -1.14711
  Beta  occ. eigenvalues --   -1.14700  -1.14664  -1.14238  -1.14209  -1.14197
  Beta  occ. eigenvalues --   -1.14174  -1.14149  -1.14135  -1.13336  -1.13299
  Beta  occ. eigenvalues --   -1.13286  -1.13124  -1.13111  -1.13088  -1.13036
  Beta  occ. eigenvalues --   -1.12999  -1.12984  -1.12758  -1.12758  -1.12748
  Beta  occ. eigenvalues --   -0.16443  -0.12708  -0.11378
  Beta virt. eigenvalues --   -0.08318  -0.05726  -0.04833  -0.04286  -0.03335
  Beta virt. eigenvalues --   -0.03062  -0.02618  -0.01317  -0.00578  -0.00390
  Beta virt. eigenvalues --   -0.00265   0.00049   0.00262   0.00450   0.00616

 Mulliken charges and spin densities:
               1          2
     1  Na  -0.099865   0.310459
     2  Na   0.064152  -0.031542
     3  Na  -0.081723   0.105155
     4  Na   0.141619   0.260525
     5  Na  -0.128004  -0.216496
     6  Na  -0.099709   0.658868
     7  Na   0.203530  -0.086969
 Sum of Mulliken charges =  -0.00000   1.00000

 Dipole moment (field-independent basis, Debye):
    X=              0.8419    Y=             -0.4024    Z=             -0.0511  Tot=              0.9345
 Quadrupole moment (field-independent basis, Debye-Ang):
   XX=            -62.9168   YY=            -71.8453   ZZ=            -64.9647
   XY=             -0.6137   XZ=             -1.9883   YZ=              7.7312

 Normal termination of Gaussian 16 at Sun Dec  3 21:51:57 2023.
