 Gaussian 16, Revision B.01,
 Gaussian 16:  ES64L-G16RevB.01 20-Dec-2017

 -------------------------
 #P B3LYP/6-311+g(d) force
 -------------------------

 -----
 DPGEN
 -----
 Symbolic Z-matrix:
 Charge =  0 Multiplicity = 2

                         Standard orientation:
 ---------------------------------------------------------------------
 Center     Atomic      Atomic             Coordinates (Angstroms)
 Number     Number       Type             X           Y           Z
 ---------------------------------------------------------------------
      1         11           0        3.310438    0.642029   -0.372017
      2         11           0       -0.424164   -0.745646   -1.472974
      3         11           0       -3.496211   -1.433510   -0.203204
      4         11           0        0.700558    2.563552   -0.067627
      5         11           0       -0.218168   -0.316756    1.917808
      6         11           0       -2.261582    1.639117    0.023864
      7         11           0        2.389128   -2.348786    0.174150
 ---------------------------------------------------------------------

 SCF Done:  E(UB3LYP) =  -1136.12662836     A.U. after   21 cycles

 The electronic state is 2-A.
 Alpha  occ. eigenvalues --  -38.44678 -38.44531 -38.44266 -38.43858 -38.43766
 Alpha  occ. eigenvalues --  -38.43500 -38.42434  -2.20520  -2.20349  -2.20159
 Alpha  occ. eigenvalues --   -2.19792  -2.19596  -2.19401  -2.18332  -1.14188
 Alpha  occ. eigenvalues --   -1.14179  -1.14167  -1.14024  -1.14010  -1.13992
 Alpha  occ. eigenvalues --   -1.13872  -1.13820  -1.13761  -1.13490  -1.13457
 Alpha  occ. eigenvalues --   -1.13418  -1.13266  -1.13252  -1.13243  -1.13079
 Alpha  occ. eigenvalues --   -1.13019  -1.13008  -1.12016  -1.11996  -1.11974
 Alpha  occ. eigenvalues --   -0.18606  -0.14003  -0.11887  -0.10444
 Alpha virt. eigenvalues --   -0.06750  -0.05709  -0.04047  -0.03401  -0.02544
 Alpha virt. eigenvalues --   -0.02413  -0.02182  -0.01352  -0.00713  -0.00137
 Alpha virt. eigenvalues --   -0.00032   0.00174   0.00589   0.00691   0.00746

  Beta  occ. eigenvalues --  -38.44661 -38.44524 -38.44232 -38.43850 -38.43763
  Beta  occ. eigenvalues --  -38.43396 -38.42429  -2.20488  -2.20338  -2.20098
  Beta  occ. eigenvalues --   -2.19781  -2.19592  -2.19210  -2.18327  -1.14168
  Beta  occ. eigenvalues --   -1.14150  -1.14144  -1.14019  -1.13995  -1.13976
  Beta  occ. eigenvalues --   -1.13824  -1.13770  -1.13716  -1.13487  -1.13434
  Beta  occ. eigenvalues --   -1.13394  -1.13267  -1.13248  -1.13222  -1.12952
  Beta  occ. eigenvalues --   -1.12891  -1.12865  -1.12016  -1.11996  -1.11941
  Beta  occ. eigenvalues --   -0.17933  -0.13734  -0.11650
  Beta virt. eigenvalues --   -0.06788  -0.06459  -0.05628  -0.03934  -0.02794
  Beta virt. eigenvalues --   -0.02322  -0.01752  -0.01447  -0.01144  -0.00700
  Beta virt. eigenvalues --   -0.00026   0.00079   0.00239   0.00674   0.00741

 Mulliken charges and spin densities:
               1          2
     1  Na  -0.003533   0.082197
     2  Na  -0.481764   0.289478
     3  Na   0.466093   0.078402
     4  Na  -0.370275  -0.061480
     5  Na  -0.385929   0.462331
     6  Na   0.473286   0.125216
     7  Na   0.302122   0.023856
 Sum of Mulliken charges =  -0.00000   1.00000

 Dipole moment (field-independent basis, Debye):
    X=             -0.3626    Y=             -0.5558    Z=              0.1346  Tot=              0.6771
 Quadrupole moment (field-independent basis, Debye-Ang):
   XX=            -50.9401   YY=            -68.7776   ZZ=            -74.8432
   XY=              0.3717   XZ=             -1.0726   YZ=             -0.3933

 Normal termination of Gaussian 16 at Tue Dec  5 14:22:58 2023.
