 Gaussian 16, Revision B.01,
 Gaussian 16:  ES64L-G16RevB.01 20-Dec-2017

 -------------------------
 #P B3LYP/6-311+g(d) force
 -------------------------

 -----
 DPGEN
 -----
 Symbolic Z-matrix:
 Charge =  0 Multiplicity = 2

                         Standard orientation:
 ---------------------------------------------------------------------
 Center     Atomic      Atomic             Coordinates (Angstroms)
 Number     Number       Type             X           Y           Z
 ---------------------------------------------------------------------
      1         11           0        4.230332    0.024180   -1.065712
      2         11           0       -4.431897    1.064588   -0.460623
      3         11           0        0.233357   -1.462387    1.952041
      4         11           0        2.257730    1.604598    1.135953
      5         11           0       -0.842523    1.400836   -0.126649
      6         11           0        1.060411   -1.144800   -1.193497
      7         11           0       -2.507410   -1.487016   -0.241514
 ---------------------------------------------------------------------

 SCF Done:  E(UB3LYP) =  -1136.12091665     A.U. after   26 cycles

 The electronic state is 2-A.
 Alpha  occ. eigenvalues --  -38.44612 -38.44248 -38.43954 -38.43949 -38.43902
 Alpha  occ. eigenvalues --  -38.43475 -38.43272  -2.20513  -2.20166  -2.19827
 Alpha  occ. eigenvalues --   -2.19805  -2.19779  -2.19340  -2.19088  -1.14238
 Alpha  occ. eigenvalues --   -1.14169  -1.14123  -1.13884  -1.13831  -1.13751
 Alpha  occ. eigenvalues --   -1.13513  -1.13504  -1.13492  -1.13480  -1.13472
 Alpha  occ. eigenvalues --   -1.13431  -1.13429  -1.13398  -1.13380  -1.13023
 Alpha  occ. eigenvalues --   -1.12990  -1.12968  -1.12766  -1.12748  -1.12721
 Alpha  occ. eigenvalues --   -0.18496  -0.14175  -0.11483  -0.11125
 Alpha virt. eigenvalues --   -0.07166  -0.05121  -0.04382  -0.03126  -0.02966
 Alpha virt. eigenvalues --   -0.02500  -0.02117  -0.01422  -0.01218  -0.00250
 Alpha virt. eigenvalues --   -0.00059   0.00200   0.00457   0.00625   0.00754

  Beta  occ. eigenvalues --  -38.44568 -38.44203 -38.43907 -38.43907 -38.43887
  Beta  occ. eigenvalues --  -38.43463 -38.43277  -2.20439  -2.20087  -2.19776
  Beta  occ. eigenvalues --   -2.19744  -2.19702  -2.19320  -2.19097  -1.14183
  Beta  occ. eigenvalues --   -1.14122  -1.14044  -1.13826  -1.13776  -1.13683
  Beta  occ. eigenvalues --   -1.13481  -1.13473  -1.13449  -1.13431  -1.13407
  Beta  occ. eigenvalues --   -1.13379  -1.13376  -1.13365  -1.13324  -1.13013
  Beta  occ. eigenvalues --   -1.12971  -1.12938  -1.12770  -1.12753  -1.12728
  Beta  occ. eigenvalues --   -0.17809  -0.13907  -0.10983
  Beta virt. eigenvalues --   -0.07496  -0.06955  -0.04832  -0.03992  -0.02823
  Beta virt. eigenvalues --   -0.02753  -0.01879  -0.01741  -0.01154  -0.00823
  Beta virt. eigenvalues --   -0.00198  -0.00007   0.00320   0.00557   0.00721

 Mulliken charges and spin densities:
               1          2
     1  Na  -0.065377   0.114806
     2  Na   0.294721   0.006324
     3  Na  -0.276856   0.154837
     4  Na   0.736645  -0.038988
     5  Na  -1.136032   0.352495
     6  Na  -0.048915   0.310904
     7  Na   0.495813   0.099623
 Sum of Mulliken charges =  -0.00000   1.00000

 Dipole moment (field-independent basis, Debye):
    X=              0.2499    Y=             -0.6264    Z=              0.7548  Tot=              1.0122
 Quadrupole moment (field-independent basis, Debye-Ang):
   XX=            -61.7096   YY=            -72.2354   ZZ=            -66.8252
   XY=              1.7167   XZ=              1.4859   YZ=              0.6201

 Normal termination of Gaussian 16 at Fri Dec  8 17:52:20 2023.
