 Gaussian 16, Revision B.01,
 Gaussian 16:  ES64L-G16RevB.01 20-Dec-2017

 -------------------------
 #P B3LYP/6-311+g(d) force
 -------------------------

 -----
 DPGEN
 -----
 Symbolic Z-matrix:
 Charge =  0 Multiplicity = 2

                         Standard orientation:
 ---------------------------------------------------------------------
 Center     Atomic      Atomic             Coordinates (Angstroms)
 Number     Number       Type             X           Y           Z
 ---------------------------------------------------------------------
      1         11           0       -2.328710    0.956846   -1.188758
      2         11           0        0.825139    3.205353    0.335684
      3         11           0        0.256504   -0.983940   -1.605201
      4         11           0        3.302562   -2.540798    0.217407
      5         11           0       -0.818828   -0.255675    1.949130
      6         11           0       -4.477345   -1.199112    0.349954
      7         11           0        3.240679    0.817326   -0.058215
 ---------------------------------------------------------------------

 SCF Done:  E(UB3LYP) =  -1136.11417937     A.U. after   25 cycles

 The electronic state is 2-A.
 Alpha  occ. eigenvalues --  -38.46157 -38.45234 -38.44590 -38.44356 -38.44084
 Alpha  occ. eigenvalues --  -38.43389 -38.42703  -2.21908  -2.20996  -2.20403
 Alpha  occ. eigenvalues --   -2.20196  -2.19949  -2.19177  -2.18487  -1.15599
 Alpha  occ. eigenvalues --   -1.15564  -1.15504  -1.14672  -1.14655  -1.14618
 Alpha  occ. eigenvalues --   -1.14102  -1.14074  -1.14019  -1.13891  -1.13850
 Alpha  occ. eigenvalues --   -1.13808  -1.13629  -1.13598  -1.13561  -1.12851
 Alpha  occ. eigenvalues --   -1.12842  -1.12810  -1.12166  -1.12153  -1.12129
 Alpha  occ. eigenvalues --   -0.17345  -0.13723  -0.11269  -0.10727
 Alpha virt. eigenvalues --   -0.07551  -0.05484  -0.04323  -0.03526  -0.03010
 Alpha virt. eigenvalues --   -0.02590  -0.02280  -0.01636  -0.00898  -0.00735
 Alpha virt. eigenvalues --   -0.00100  -0.00069   0.00281   0.00448   0.00634

  Beta  occ. eigenvalues --  -38.46108 -38.45214 -38.44586 -38.44280 -38.44041
  Beta  occ. eigenvalues --  -38.43389 -38.42706  -2.21815  -2.20959  -2.20397
  Beta  occ. eigenvalues --   -2.20060  -2.19876  -2.19177  -2.18494  -1.15530
  Beta  occ. eigenvalues --   -1.15500  -1.15433  -1.14648  -1.14623  -1.14593
  Beta  occ. eigenvalues --   -1.14091  -1.14070  -1.14017  -1.13802  -1.13756
  Beta  occ. eigenvalues --   -1.13696  -1.13571  -1.13531  -1.13505  -1.12849
  Beta  occ. eigenvalues --   -1.12840  -1.12811  -1.12173  -1.12149  -1.12134
  Beta  occ. eigenvalues --   -0.16648  -0.13528  -0.11195
  Beta virt. eigenvalues --   -0.07299  -0.06847  -0.05302  -0.04209  -0.03100
  Beta virt. eigenvalues --   -0.02736  -0.01900  -0.01814  -0.01410  -0.00891
  Beta virt. eigenvalues --   -0.00423  -0.00033   0.00002   0.00472   0.00552

 Mulliken charges and spin densities:
               1          2
     1  Na   0.226285   0.166074
     2  Na  -0.000114  -0.081020
     3  Na  -0.109179   0.242217
     4  Na   0.325223  -0.065434
     5  Na  -0.364314   0.518350
     6  Na   0.129156   0.091345
     7  Na  -0.207058   0.128469
 Sum of Mulliken charges =  -0.00000   1.00000

 Dipole moment (field-independent basis, Debye):
    X=             -1.1358    Y=             -0.5907    Z=              0.2731  Tot=              1.3091
 Quadrupole moment (field-independent basis, Debye-Ang):
   XX=            -54.5489   YY=            -69.8429   ZZ=            -73.1132
   XY=              1.3252   XZ=              1.6671   YZ=             -3.4509

 Normal termination of Gaussian 16 at Thu Dec  7 20:43:22 2023.
