 Gaussian 16, Revision B.01,
 Gaussian 16:  ES64L-G16RevB.01 20-Dec-2017

 -------------------------
 #P B3LYP/6-311+g(d) force
 -------------------------

 -----
 DPGEN
 -----
 Symbolic Z-matrix:
 Charge =  0 Multiplicity = 2

                         Standard orientation:
 ---------------------------------------------------------------------
 Center     Atomic      Atomic             Coordinates (Angstroms)
 Number     Number       Type             X           Y           Z
 ---------------------------------------------------------------------
      1         11           0       -0.654830    3.949039    0.101871
      2         11           0        1.182776    0.042155   -0.026414
      3         11           0       -3.858170   -1.905382   -1.017029
      4         11           0       -2.053904    1.190661   -0.914395
      5         11           0       -2.076192   -1.297421    2.252878
      6         11           0        4.371417    0.818475    0.155500
      7         11           0        3.088903   -2.797527   -0.552412
 ---------------------------------------------------------------------

 SCF Done:  E(UB3LYP) =  -1136.10670491     A.U. after   27 cycles

 The electronic state is 2-A.
 Alpha  occ. eigenvalues --  -38.45747 -38.44959 -38.44700 -38.44180 -38.43658
 Alpha  occ. eigenvalues --  -38.43522 -38.43340  -2.21495  -2.20694  -2.20505
 Alpha  occ. eigenvalues --   -2.20025  -2.19508  -2.19300  -2.19145  -1.15177
 Alpha  occ. eigenvalues --   -1.15160  -1.15110  -1.14375  -1.14359  -1.14323
 Alpha  occ. eigenvalues --   -1.14183  -1.14155  -1.14100  -1.13755  -1.13696
 Alpha  occ. eigenvalues --   -1.13621  -1.13229  -1.13189  -1.13123  -1.12966
 Alpha  occ. eigenvalues --   -1.12964  -1.12922  -1.12803  -1.12798  -1.12749
 Alpha  occ. eigenvalues --   -0.16344  -0.13987  -0.11670  -0.09715
 Alpha virt. eigenvalues --   -0.07650  -0.05938  -0.04551  -0.03305  -0.02785
 Alpha virt. eigenvalues --   -0.02426  -0.02023  -0.01614  -0.01437  -0.00878
 Alpha virt. eigenvalues --   -0.00436  -0.00159   0.00095   0.00188   0.00526

  Beta  occ. eigenvalues --  -38.45741 -38.44952 -38.44630 -38.44163 -38.43649
  Beta  occ. eigenvalues --  -38.43526 -38.43268  -2.21485  -2.20681  -2.20374
  Beta  occ. eigenvalues --   -2.19998  -2.19493  -2.19308  -2.19011  -1.15171
  Beta  occ. eigenvalues --   -1.15146  -1.15102  -1.14366  -1.14341  -1.14311
  Beta  occ. eigenvalues --   -1.14093  -1.14065  -1.14013  -1.13738  -1.13648
  Beta  occ. eigenvalues --   -1.13607  -1.13222  -1.13167  -1.13108  -1.12970
  Beta  occ. eigenvalues --   -1.12968  -1.12924  -1.12710  -1.12702  -1.12665
  Beta  occ. eigenvalues --   -0.15932  -0.13566  -0.11536
  Beta virt. eigenvalues --   -0.06903  -0.06447  -0.05832  -0.04198  -0.03099
  Beta virt. eigenvalues --   -0.02452  -0.02301  -0.01837  -0.01344  -0.00969
  Beta virt. eigenvalues --   -0.00702  -0.00066   0.00055   0.00249   0.00294

 Mulliken charges and spin densities:
               1          2
     1  Na   0.565055   0.016415
     2  Na  -1.873313   0.093249
     3  Na   0.352319   0.295039
     4  Na  -0.124496   0.137021
     5  Na   0.189733   0.089606
     6  Na   0.058356   0.344220
     7  Na   0.832345   0.024451
 Sum of Mulliken charges =  -0.00000   1.00000

 Dipole moment (field-independent basis, Debye):
    X=              1.8231    Y=             -1.0173    Z=              0.6870  Tot=              2.1978
 Quadrupole moment (field-independent basis, Debye-Ang):
   XX=            -68.7759   YY=            -61.2169   ZZ=            -67.9640
   XY=             -4.9289   XZ=             -3.2290   YZ=              4.5184

 Normal termination of Gaussian 16 at Thu Nov 30 08:53:03 2023.
