 Gaussian 16, Revision B.01,
 Gaussian 16:  ES64L-G16RevB.01 20-Dec-2017

 -------------------------
 #P B3LYP/6-311+g(d) force
 -------------------------

 -----
 DPGEN
 -----
 Symbolic Z-matrix:
 Charge =  0 Multiplicity = 2

                         Standard orientation:
 ---------------------------------------------------------------------
 Center     Atomic      Atomic             Coordinates (Angstroms)
 Number     Number       Type             X           Y           Z
 ---------------------------------------------------------------------
      1         11           0        2.964398   -0.767085    0.243898
      2         11           0       -0.580454   -0.061510   -1.670316
      3         11           0        0.258659   -0.383376    1.970137
      4         11           0        1.669027    2.223866   -0.321082
      5         11           0       -3.039403   -0.965503    0.447613
      6         11           0       -1.533901    2.392940    0.072617
      7         11           0        0.261673   -2.439332   -0.742867
 ---------------------------------------------------------------------

 SCF Done:  E(UB3LYP) =  -1136.13024974     A.U. after   18 cycles

 The electronic state is 2-A.
 Alpha  occ. eigenvalues --  -38.44121 -38.43809 -38.43742 -38.43568 -38.43513
 Alpha  occ. eigenvalues --  -38.43316 -38.43213  -2.19947  -2.19733  -2.19639
 Alpha  occ. eigenvalues --   -2.19625  -2.19473  -2.19200  -2.19096  -1.13673
 Alpha  occ. eigenvalues --   -1.13620  -1.13606  -1.13584  -1.13434  -1.13380
 Alpha  occ. eigenvalues --   -1.13363  -1.13284  -1.13283  -1.13274  -1.13264
 Alpha  occ. eigenvalues --   -1.13208  -1.13080  -1.13040  -1.13001  -1.12896
 Alpha  occ. eigenvalues --   -1.12866  -1.12834  -1.12766  -1.12747  -1.12716
 Alpha  occ. eigenvalues --   -0.19167  -0.13161  -0.12522  -0.11226
 Alpha virt. eigenvalues --   -0.05601  -0.04903  -0.04310  -0.03461  -0.03025
 Alpha virt. eigenvalues --   -0.02762  -0.01578  -0.00862  -0.00155   0.00051
 Alpha virt. eigenvalues --    0.00129   0.00352   0.00835   0.00918   0.00935

  Beta  occ. eigenvalues --  -38.44110 -38.43737 -38.43728 -38.43495 -38.43483
  Beta  occ. eigenvalues --  -38.43313 -38.43208  -2.19930  -2.19621  -2.19584
  Beta  occ. eigenvalues --   -2.19514  -2.19416  -2.19196  -2.19090  -1.13608
  Beta  occ. eigenvalues --   -1.13591  -1.13582  -1.13569  -1.13361  -1.13290
  Beta  occ. eigenvalues --   -1.13288  -1.13262  -1.13257  -1.13203  -1.13185
  Beta  occ. eigenvalues --   -1.13122  -1.13030  -1.12998  -1.12947  -1.12886
  Beta  occ. eigenvalues --   -1.12850  -1.12821  -1.12758  -1.12731  -1.12710
  Beta  occ. eigenvalues --   -0.18439  -0.12923  -0.12250
  Beta virt. eigenvalues --   -0.07252  -0.05525  -0.04896  -0.04266  -0.02693
  Beta virt. eigenvalues --   -0.02257  -0.01687  -0.01441  -0.00822  -0.00070
  Beta virt. eigenvalues --    0.00040   0.00162   0.00389   0.00890   0.00933

 Mulliken charges and spin densities:
               1          2
     1  Na   0.259913   0.056189
     2  Na  -0.120121   0.340262
     3  Na  -0.544042   0.685335
     4  Na  -0.030405  -0.061886
     5  Na   0.000988   0.026712
     6  Na   0.046929  -0.003962
     7  Na   0.386739  -0.042651
 Sum of Mulliken charges =  -0.00000   1.00000

 Dipole moment (field-independent basis, Debye):
    X=             -0.2348    Y=             -0.0956    Z=              0.4378  Tot=              0.5059
 Quadrupole moment (field-independent basis, Debye-Ang):
   XX=            -55.7975   YY=            -66.6925   ZZ=            -72.0750
   XY=              0.1252   XZ=             -1.8704   YZ=              0.1104

 Normal termination of Gaussian 16 at Tue Dec  5 22:04:28 2023.
