 Gaussian 16, Revision B.01,
 Gaussian 16:  ES64L-G16RevB.01 20-Dec-2017

 -------------------------
 #P B3LYP/6-311+g(d) force
 -------------------------

 -----
 DPGEN
 -----
 Symbolic Z-matrix:
 Charge =  0 Multiplicity = 2

                         Standard orientation:
 ---------------------------------------------------------------------
 Center     Atomic      Atomic             Coordinates (Angstroms)
 Number     Number       Type             X           Y           Z
 ---------------------------------------------------------------------
      1         11           0       -0.285061   -0.000559   -1.608957
      2         11           0       -0.664845   -2.375064    0.000343
      3         11           0        2.289858   -1.524924   -0.000757
      4         11           0        2.287149    1.529976   -0.000057
      5         11           0       -0.672778    2.373806   -0.001057
      6         11           0       -2.671261   -0.003977    0.000543
      7         11           0       -0.283061    0.000741    1.609943
 ---------------------------------------------------------------------

 SCF Done:  E(UB3LYP) =  -1136.10877378     A.U. after   18 cycles

 The electronic state is 2-A.
 Alpha  occ. eigenvalues --  -38.43722 -38.43545 -38.43543 -38.43372 -38.43370
 Alpha  occ. eigenvalues --  -38.43288 -38.43286  -2.19808  -2.19598  -2.19587
 Alpha  occ. eigenvalues --   -2.19506  -2.19492  -2.19364  -2.19356  -1.13740
 Alpha  occ. eigenvalues --   -1.13543  -1.13493  -1.13395  -1.13376  -1.13347
 Alpha  occ. eigenvalues --   -1.13290  -1.13231  -1.13214  -1.13180  -1.13173
 Alpha  occ. eigenvalues --   -1.13121  -1.13111  -1.13106  -1.13066  -1.12997
 Alpha  occ. eigenvalues --   -1.12990  -1.12931  -1.12925  -1.12916  -1.12911
 Alpha  occ. eigenvalues --   -0.20818  -0.13654  -0.13175  -0.11280
 Alpha virt. eigenvalues --   -0.05200  -0.04822  -0.04489  -0.03208  -0.02996
 Alpha virt. eigenvalues --   -0.02268  -0.01175  -0.00797   0.00037   0.00321
 Alpha virt. eigenvalues --    0.00328   0.00446   0.00980   0.01039   0.01069

  Beta  occ. eigenvalues --  -38.43707 -38.43541 -38.43539 -38.43288 -38.43286
  Beta  occ. eigenvalues --  -38.43273 -38.43272  -2.19786  -2.19503  -2.19489
  Beta  occ. eigenvalues --   -2.19451  -2.19434  -2.19346  -2.19332  -1.13707
  Beta  occ. eigenvalues --   -1.13462  -1.13459  -1.13345  -1.13337  -1.13293
  Beta  occ. eigenvalues --   -1.13243  -1.13196  -1.13172  -1.13143  -1.13120
  Beta  occ. eigenvalues --   -1.13087  -1.13067  -1.13023  -1.13008  -1.12965
  Beta  occ. eigenvalues --   -1.12919  -1.12918  -1.12908  -1.12885  -1.12837
  Beta  occ. eigenvalues --   -0.20050  -0.13332  -0.12832
  Beta virt. eigenvalues --   -0.07173  -0.05201  -0.04796  -0.04510  -0.02324
  Beta virt. eigenvalues --   -0.02095  -0.01243  -0.01071  -0.00748   0.00158
  Beta virt. eigenvalues --    0.00278   0.00331   0.00408   0.00997   0.01035

 Mulliken charges and spin densities:
               1          2
     1  Na  -0.986367   0.570490
     2  Na   0.531171  -0.011829
     3  Na   0.015288  -0.060848
     4  Na   0.016386  -0.060957
     5  Na   0.529699  -0.012595
     6  Na   0.878563   0.004579
     7  Na  -0.984740   0.571159
 Sum of Mulliken charges =  -0.00000   1.00000

 Dipole moment (field-independent basis, Debye):
    X=              0.2818    Y=              0.0018    Z=              0.0010  Tot=              0.2818
 Quadrupole moment (field-independent basis, Debye-Ang):
   XX=            -58.1422   YY=            -63.8720   ZZ=            -73.0648
   XY=              0.0032   XZ=             -0.0044   YZ=             -0.0022

 Normal termination of Gaussian 16 at Fri Dec  8 19:07:37 2023.
