 Gaussian 16, Revision B.01,
 Gaussian 16:  ES64L-G16RevB.01 20-Dec-2017

 -------------------------
 #P B3LYP/6-311+g(d) force
 -------------------------

 -----
 DPGEN
 -----
 Symbolic Z-matrix:
 Charge =  0 Multiplicity = 2

                         Standard orientation:
 ---------------------------------------------------------------------
 Center     Atomic      Atomic             Coordinates (Angstroms)
 Number     Number       Type             X           Y           Z
 ---------------------------------------------------------------------
      1         11           0       -0.432501    3.612927   -0.807269
      2         11           0        2.412502   -2.299385   -1.329557
      3         11           0        1.930110    1.862557   -0.346556
      4         11           0        4.402970   -0.132376    1.627887
      5         11           0       -0.517250   -2.669190   -0.142059
      6         11           0       -3.441909    1.191259    0.690299
      7         11           0       -4.353922   -1.565792    0.307255
 ---------------------------------------------------------------------

 SCF Done:  E(UB3LYP) =  -1136.11040584     A.U. after   19 cycles

 The electronic state is 2-A.
 Alpha  occ. eigenvalues --  -38.45006 -38.45003 -38.44640 -38.44376 -38.44258
 Alpha  occ. eigenvalues --  -38.44060 -38.43283  -2.20808  -2.20792  -2.20426
 Alpha  occ. eigenvalues --   -2.20165  -2.20090  -2.19873  -2.19112  -1.14526
 Alpha  occ. eigenvalues --   -1.14470  -1.14445  -1.14434  -1.14426  -1.14393
 Alpha  occ. eigenvalues --   -1.14105  -1.14093  -1.14060  -1.13834  -1.13822
 Alpha  occ. eigenvalues --   -1.13791  -1.13760  -1.13729  -1.13709  -1.13573
 Alpha  occ. eigenvalues --   -1.13554  -1.13529  -1.12783  -1.12750  -1.12735
 Alpha  occ. eigenvalues --   -0.15846  -0.14051  -0.12799  -0.11249
 Alpha virt. eigenvalues --   -0.06449  -0.05542  -0.04595  -0.03427  -0.02931
 Alpha virt. eigenvalues --   -0.02508  -0.01921  -0.01866  -0.01334  -0.01021
 Alpha virt. eigenvalues --   -0.00570  -0.00125   0.00052   0.00460   0.00637

  Beta  occ. eigenvalues --  -38.44994 -38.44886 -38.44597 -38.44363 -38.44241
  Beta  occ. eigenvalues --  -38.44056 -38.43259  -2.20788  -2.20573  -2.20350
  Beta  occ. eigenvalues --   -2.20146  -2.20060  -2.19870  -2.19067  -1.14506
  Beta  occ. eigenvalues --   -1.14459  -1.14426  -1.14284  -1.14274  -1.14248
  Beta  occ. eigenvalues --   -1.14050  -1.14044  -1.14002  -1.13824  -1.13804
  Beta  occ. eigenvalues --   -1.13758  -1.13734  -1.13710  -1.13691  -1.13558
  Beta  occ. eigenvalues --   -1.13537  -1.13528  -1.12753  -1.12720  -1.12706
  Beta  occ. eigenvalues --   -0.15372  -0.13392  -0.12238
  Beta virt. eigenvalues --   -0.07761  -0.06520  -0.05080  -0.04325  -0.03218
  Beta virt. eigenvalues --   -0.02403  -0.02277  -0.01747  -0.01484  -0.01125
  Beta virt. eigenvalues --   -0.00895  -0.00151   0.00111   0.00291   0.00525

 Mulliken charges and spin densities:
               1          2
     1  Na  -0.058069   0.106188
     2  Na   0.535831  -0.056501
     3  Na  -0.712521   0.100674
     4  Na   0.654909   0.484963
     5  Na  -0.537721   0.208604
     6  Na  -0.274708   0.054212
     7  Na   0.392280   0.101860
 Sum of Mulliken charges =  -0.00000   1.00000

 Dipole moment (field-independent basis, Debye):
    X=             -0.3762    Y=             -0.9053    Z=              0.2763  Tot=              1.0186
 Quadrupole moment (field-independent basis, Debye-Ang):
   XX=            -60.1094   YY=            -68.9102   ZZ=            -69.9347
   XY=             -2.1628   XZ=             -0.6194   YZ=              0.2111

 Normal termination of Gaussian 16 at Mon Dec  4 01:05:49 2023.
