 Gaussian 16, Revision B.01,
 Gaussian 16:  ES64L-G16RevB.01 20-Dec-2017

 -------------------------
 #P B3LYP/6-311+g(d) force
 -------------------------

 -----
 DPGEN
 -----
 Symbolic Z-matrix:
 Charge =  0 Multiplicity = 2

                         Standard orientation:
 ---------------------------------------------------------------------
 Center     Atomic      Atomic             Coordinates (Angstroms)
 Number     Number       Type             X           Y           Z
 ---------------------------------------------------------------------
      1         11           0        3.984779   -0.400001    0.497475
      2         11           0       -2.372668    2.244977    0.180588
      3         11           0        0.888442   -2.017312   -0.925163
      4         11           0        1.700460    1.707646   -0.565480
      5         11           0       -0.039997    0.072702    2.055133
      6         11           0       -0.965660    0.302160   -1.640817
      7         11           0       -3.195356   -1.910171    0.398264
 ---------------------------------------------------------------------

 SCF Done:  E(UB3LYP) =  -1136.11943443     A.U. after   24 cycles

 The electronic state is 2-A.
 Alpha  occ. eigenvalues --  -38.45073 -38.44880 -38.44340 -38.43767 -38.43566
 Alpha  occ. eigenvalues --  -38.43558 -38.43146  -2.20858  -2.20703  -2.20084
 Alpha  occ. eigenvalues --   -2.19600  -2.19443  -2.19423  -2.19166  -1.14537
 Alpha  occ. eigenvalues --   -1.14514  -1.14487  -1.14388  -1.14336  -1.14314
 Alpha  occ. eigenvalues --   -1.13766  -1.13746  -1.13715  -1.13350  -1.13247
 Alpha  occ. eigenvalues --   -1.13215  -1.13205  -1.13161  -1.13121  -1.13084
 Alpha  occ. eigenvalues --   -1.13042  -1.12998  -1.12847  -1.12788  -1.12736
 Alpha  occ. eigenvalues --   -0.18391  -0.13468  -0.11241  -0.11070
 Alpha virt. eigenvalues --   -0.06946  -0.05478  -0.03897  -0.03128  -0.02863
 Alpha virt. eigenvalues --   -0.02587  -0.02342  -0.01474  -0.00664  -0.00120
 Alpha virt. eigenvalues --    0.00064   0.00184   0.00431   0.00614   0.00668

  Beta  occ. eigenvalues --  -38.45068 -38.44808 -38.44339 -38.43766 -38.43541
  Beta  occ. eigenvalues --  -38.43530 -38.43077  -2.20848  -2.20569  -2.20085
  Beta  occ. eigenvalues --   -2.19600  -2.19417  -2.19362  -2.19042  -1.14531
  Beta  occ. eigenvalues --   -1.14500  -1.14481  -1.14297  -1.14242  -1.14215
  Beta  occ. eigenvalues --   -1.13764  -1.13740  -1.13716  -1.13342  -1.13237
  Beta  occ. eigenvalues --   -1.13214  -1.13156  -1.13124  -1.13075  -1.13031
  Beta  occ. eigenvalues --   -1.13026  -1.12962  -1.12763  -1.12697  -1.12648
  Beta  occ. eigenvalues --   -0.17603  -0.13312  -0.10972
  Beta virt. eigenvalues --   -0.07254  -0.06652  -0.05446  -0.03537  -0.02864
  Beta virt. eigenvalues --   -0.02320  -0.01986  -0.01728  -0.01337  -0.00405
  Beta virt. eigenvalues --   -0.00068   0.00072   0.00193   0.00614   0.00681

 Mulliken charges and spin densities:
               1          2
     1  Na   0.170737   0.079001
     2  Na   0.106715   0.016970
     3  Na  -0.152330   0.013584
     4  Na   0.074482   0.059133
     5  Na  -0.413603   0.722089
     6  Na   0.334469   0.111036
     7  Na  -0.120470  -0.001813
 Sum of Mulliken charges =  -0.00000   1.00000

 Dipole moment (field-independent basis, Debye):
    X=              0.5597    Y=             -0.0566    Z=              0.6824  Tot=              0.8844
 Quadrupole moment (field-independent basis, Debye-Ang):
   XX=            -47.5123   YY=            -73.2614   ZZ=            -71.6966
   XY=             -2.0081   XZ=              0.0961   YZ=             -0.3713

 Normal termination of Gaussian 16 at Thu Dec  7 10:23:48 2023.
