 Gaussian 16, Revision B.01,
 Gaussian 16:  ES64L-G16RevB.01 20-Dec-2017

 -------------------------
 #P B3LYP/6-311+g(d) force
 -------------------------

 -----
 DPGEN
 -----
 Symbolic Z-matrix:
 Charge =  0 Multiplicity = 2

                         Standard orientation:
 ---------------------------------------------------------------------
 Center     Atomic      Atomic             Coordinates (Angstroms)
 Number     Number       Type             X           Y           Z
 ---------------------------------------------------------------------
      1         11           0       -2.537446    1.860657    0.120105
      2         11           0       -2.674797   -1.453987   -0.117788
      3         11           0        0.566858   -2.859257   -0.442333
      4         11           0        3.206492   -0.539683   -0.040952
      5         11           0        1.488715    2.877432   -0.066317
      6         11           0        0.099501   -0.333764    2.219260
      7         11           0       -0.149323    0.448602   -1.671974
 ---------------------------------------------------------------------

 SCF Done:  E(UB3LYP) =  -1136.13675562     A.U. after   19 cycles

 The electronic state is 2-A.
 Alpha  occ. eigenvalues --  -38.44302 -38.44002 -38.43896 -38.43815 -38.43701
 Alpha  occ. eigenvalues --  -38.43326 -38.43274  -2.20089  -2.19829  -2.19732
 Alpha  occ. eigenvalues --   -2.19603  -2.19549  -2.19255  -2.19111  -1.13767
 Alpha  occ. eigenvalues --   -1.13748  -1.13728  -1.13521  -1.13491  -1.13469
 Alpha  occ. eigenvalues --   -1.13388  -1.13361  -1.13351  -1.13293  -1.13264
 Alpha  occ. eigenvalues --   -1.13236  -1.13223  -1.13209  -1.13190  -1.12939
 Alpha  occ. eigenvalues --   -1.12894  -1.12881  -1.12783  -1.12771  -1.12749
 Alpha  occ. eigenvalues --   -0.18178  -0.12904  -0.12299  -0.10721
 Alpha virt. eigenvalues --   -0.05828  -0.05303  -0.04761  -0.03217  -0.02933
 Alpha virt. eigenvalues --   -0.02653  -0.01533  -0.01212  -0.00636  -0.00452
 Alpha virt. eigenvalues --   -0.00045   0.00359   0.00749   0.00812   0.00873

  Beta  occ. eigenvalues --  -38.44302 -38.43999 -38.43815 -38.43795 -38.43697
  Beta  occ. eigenvalues --  -38.43270 -38.43264  -2.20090  -2.19826  -2.19605
  Beta  occ. eigenvalues --   -2.19547  -2.19542  -2.19153  -2.19095  -1.13752
  Beta  occ. eigenvalues --   -1.13748  -1.13733  -1.13517  -1.13473  -1.13468
  Beta  occ. eigenvalues --   -1.13286  -1.13264  -1.13257  -1.13240  -1.13230
  Beta  occ. eigenvalues --   -1.13220  -1.13212  -1.13191  -1.13183  -1.12870
  Beta  occ. eigenvalues --   -1.12822  -1.12807  -1.12765  -1.12746  -1.12737
  Beta  occ. eigenvalues --   -0.17458  -0.12726  -0.12096
  Beta virt. eigenvalues --   -0.06795  -0.05808  -0.05265  -0.04667  -0.02451
  Beta virt. eigenvalues --   -0.02202  -0.01613  -0.01437  -0.01134  -0.00681
  Beta virt. eigenvalues --   -0.00499   0.00123   0.00393   0.00800   0.00840

 Mulliken charges and spin densities:
               1          2
     1  Na   0.141229  -0.043378
     2  Na   0.210792   0.027773
     3  Na   0.077627   0.010508
     4  Na   0.064738  -0.052108
     5  Na   0.025447  -0.108788
     6  Na  -0.537396   0.770508
     7  Na   0.017563   0.395485
 Sum of Mulliken charges =  -0.00000   1.00000

 Dipole moment (field-independent basis, Debye):
    X=              0.1068    Y=              0.2090    Z=              0.1449  Tot=              0.2758
 Quadrupole moment (field-independent basis, Debye-Ang):
   XX=            -56.8089   YY=            -62.6327   ZZ=            -74.4993
   XY=             -0.2138   XZ=             -0.3827   YZ=              1.7899

 Normal termination of Gaussian 16 at Thu Dec  7 17:05:17 2023.
