 Gaussian 16, Revision B.01,
 Gaussian 16:  ES64L-G16RevB.01 20-Dec-2017

 -------------------------
 #P B3LYP/6-311+g(d) force
 -------------------------

 -----
 DPGEN
 -----
 Symbolic Z-matrix:
 Charge =  0 Multiplicity = 2

                         Standard orientation:
 ---------------------------------------------------------------------
 Center     Atomic      Atomic             Coordinates (Angstroms)
 Number     Number       Type             X           Y           Z
 ---------------------------------------------------------------------
      1         11           0        3.524241   -0.543403   -1.137461
      2         11           0       -3.195584   -1.474041   -0.822963
      3         11           0        2.104550   -0.481532    1.819425
      4         11           0       -1.577196    0.184602    2.226690
      5         11           0       -0.204958   -1.667610   -0.776433
      6         11           0       -1.860930    2.165646   -0.809755
      7         11           0        1.209878    1.816339   -0.499502
 ---------------------------------------------------------------------

 SCF Done:  E(UB3LYP) =  -1136.12543920     A.U. after   22 cycles

 The electronic state is 2-A.
 Alpha  occ. eigenvalues --  -38.44910 -38.44731 -38.44637 -38.43611 -38.43491
 Alpha  occ. eigenvalues --  -38.42993 -38.42896  -2.20726  -2.20571  -2.20512
 Alpha  occ. eigenvalues --   -2.19456  -2.19363  -2.18843  -2.18806  -1.14401
 Alpha  occ. eigenvalues --   -1.14357  -1.14348  -1.14251  -1.14233  -1.14210
 Alpha  occ. eigenvalues --   -1.14183  -1.14165  -1.14100  -1.13234  -1.13104
 Alpha  occ. eigenvalues --   -1.13086  -1.13043  -1.13029  -1.12933  -1.12605
 Alpha  occ. eigenvalues --   -1.12497  -1.12483  -1.12477  -1.12464  -1.12381
 Alpha  occ. eigenvalues --   -0.18341  -0.13994  -0.11670  -0.11095
 Alpha virt. eigenvalues --   -0.06213  -0.05441  -0.04850  -0.03418  -0.02634
 Alpha virt. eigenvalues --   -0.02438  -0.02120  -0.01209  -0.00694  -0.00134
 Alpha virt. eigenvalues --    0.00196   0.00279   0.00355   0.00599   0.00684

  Beta  occ. eigenvalues --  -38.44843 -38.44713 -38.44586 -38.43600 -38.43479
  Beta  occ. eigenvalues --  -38.42979 -38.42879  -2.20603  -2.20536  -2.20418
  Beta  occ. eigenvalues --   -2.19437  -2.19344  -2.18817  -2.18778  -1.14311
  Beta  occ. eigenvalues --   -1.14269  -1.14259  -1.14221  -1.14203  -1.14185
  Beta  occ. eigenvalues --   -1.14121  -1.14105  -1.14022  -1.13220  -1.13085
  Beta  occ. eigenvalues --   -1.13075  -1.13021  -1.13005  -1.12922  -1.12585
  Beta  occ. eigenvalues --   -1.12474  -1.12466  -1.12451  -1.12436  -1.12363
  Beta  occ. eigenvalues --   -0.17648  -0.13825  -0.10909
  Beta virt. eigenvalues --   -0.07697  -0.06026  -0.04942  -0.04586  -0.03022
  Beta virt. eigenvalues --   -0.02047  -0.02011  -0.01870  -0.00840  -0.00450
  Beta virt. eigenvalues --    0.00059   0.00246   0.00356   0.00430   0.00722

 Mulliken charges and spin densities:
               1          2
     1  Na   1.217422   0.077416
     2  Na   0.425370   0.022825
     3  Na   0.203349   0.218697
     4  Na  -0.120749   0.232039
     5  Na  -1.047877   0.180098
     6  Na   0.106965   0.035164
     7  Na  -0.784480   0.233760
 Sum of Mulliken charges =  -0.00000   1.00000

 Dipole moment (field-independent basis, Debye):
    X=              0.6919    Y=             -0.2485    Z=              0.3916  Tot=              0.8330
 Quadrupole moment (field-independent basis, Debye-Ang):
   XX=            -49.4212   YY=            -80.7404   ZZ=            -65.0762
   XY=             -2.7690   XZ=             -2.6572   YZ=             -0.4198

 Normal termination of Gaussian 16 at Thu Dec  7 12:27:51 2023.
