 Gaussian 16, Revision B.01,
 Gaussian 16:  ES64L-G16RevB.01 20-Dec-2017

 -------------------------
 #P B3LYP/6-311+g(d) force
 -------------------------

 -----
 DPGEN
 -----
 Symbolic Z-matrix:
 Charge =  0 Multiplicity = 2

                         Standard orientation:
 ---------------------------------------------------------------------
 Center     Atomic      Atomic             Coordinates (Angstroms)
 Number     Number       Type             X           Y           Z
 ---------------------------------------------------------------------
      1         11           0       -1.171166    2.916590    0.114856
      2         11           0       -4.850658    1.160972    0.564269
      3         11           0       -5.214468   -2.431361   -0.268483
      4         11           0       -2.316787   -1.008557    0.018398
      5         11           0        1.164803    0.278427   -0.538770
      6         11           0        5.631056    0.090391   -1.243434
      7         11           0        6.757220   -1.006462    1.353164
 ---------------------------------------------------------------------

 SCF Done:  E(UB3LYP) =  -1136.11451413     A.U. after   19 cycles

 The electronic state is 2-A.
 Alpha  occ. eigenvalues --  -38.44583 -38.44452 -38.44358 -38.44281 -38.44085
 Alpha  occ. eigenvalues --  -38.43960 -38.43606  -2.20375  -2.20261  -2.20150
 Alpha  occ. eigenvalues --   -2.20044  -2.19937  -2.19773  -2.19390  -1.14090
 Alpha  occ. eigenvalues --   -1.14026  -1.14023  -1.13944  -1.13934  -1.13850
 Alpha  occ. eigenvalues --   -1.13806  -1.13796  -1.13772  -1.13731  -1.13701
 Alpha  occ. eigenvalues --   -1.13669  -1.13639  -1.13626  -1.13561  -1.13430
 Alpha  occ. eigenvalues --   -1.13425  -1.13377  -1.13063  -1.13055  -1.12998
 Alpha  occ. eigenvalues --   -0.16019  -0.13745  -0.12245  -0.10686
 Alpha virt. eigenvalues --   -0.06298  -0.05647  -0.04647  -0.03581  -0.02957
 Alpha virt. eigenvalues --   -0.02452  -0.02136  -0.01835  -0.01192  -0.00944
 Alpha virt. eigenvalues --   -0.00404  -0.00115   0.00024   0.00415   0.00589

  Beta  occ. eigenvalues --  -38.44573 -38.44389 -38.44360 -38.44259 -38.44059
  Beta  occ. eigenvalues --  -38.43936 -38.43569  -2.20358  -2.20156  -2.20145
  Beta  occ. eigenvalues --   -2.20004  -2.19891  -2.19728  -2.19320  -1.14080
  Beta  occ. eigenvalues --   -1.14014  -1.14011  -1.13868  -1.13857  -1.13810
  Beta  occ. eigenvalues --   -1.13799  -1.13770  -1.13755  -1.13706  -1.13672
  Beta  occ. eigenvalues --   -1.13625  -1.13611  -1.13571  -1.13526  -1.13400
  Beta  occ. eigenvalues --   -1.13385  -1.13352  -1.13014  -1.13001  -1.12957
  Beta  occ. eigenvalues --   -0.15338  -0.13604  -0.12053
  Beta virt. eigenvalues --   -0.07122  -0.05975  -0.05245  -0.04278  -0.03392
  Beta virt. eigenvalues --   -0.02637  -0.02263  -0.01750  -0.01667  -0.00939
  Beta virt. eigenvalues --   -0.00782  -0.00148   0.00149   0.00256   0.00511

 Mulliken charges and spin densities:
               1          2
     1  Na   0.065984   0.318585
     2  Na   0.223704   0.186367
     3  Na   0.851313   0.129711
     4  Na  -0.997791   0.552095
     5  Na  -0.120888  -0.190714
     6  Na  -0.146296  -0.041579
     7  Na   0.123975   0.045535
 Sum of Mulliken charges =  -0.00000   1.00000

 Dipole moment (field-independent basis, Debye):
    X=              0.0522    Y=             -0.2389    Z=              0.2706  Tot=              0.3647
 Quadrupole moment (field-independent basis, Debye-Ang):
   XX=            -55.7011   YY=            -66.3168   ZZ=            -67.0231
   XY=              1.9363   XZ=              3.6841   YZ=             -2.4863

 Normal termination of Gaussian 16 at Wed Nov 29 01:39:02 2023.
