 Gaussian 16, Revision B.01,
 Gaussian 16:  ES64L-G16RevB.01 20-Dec-2017

 -------------------------
 #P B3LYP/6-311+g(d) force
 -------------------------

 -----
 DPGEN
 -----
 Symbolic Z-matrix:
 Charge =  0 Multiplicity = 2

                         Standard orientation:
 ---------------------------------------------------------------------
 Center     Atomic      Atomic             Coordinates (Angstroms)
 Number     Number       Type             X           Y           Z
 ---------------------------------------------------------------------
      1         11           0       -1.628966   -2.001913    0.942547
      2         11           0        2.584471    2.055519    0.192696
      3         11           0        2.873571   -1.550284   -1.163772
      4         11           0       -0.019189   -0.110475   -1.775188
      5         11           0       -3.853949    0.419021   -0.769124
      6         11           0       -0.967391    1.873620    0.616013
      7         11           0        1.011452   -0.685488    1.956827
 ---------------------------------------------------------------------

 SCF Done:  E(UB3LYP) =  -1136.12664653     A.U. after   23 cycles

 The electronic state is 2-A.
 Alpha  occ. eigenvalues --  -38.44846 -38.44576 -38.44316 -38.43669 -38.43540
 Alpha  occ. eigenvalues --  -38.43278 -38.43075  -2.20630  -2.20462  -2.20133
 Alpha  occ. eigenvalues --   -2.19584  -2.19347  -2.19131  -2.18958  -1.14302
 Alpha  occ. eigenvalues --   -1.14284  -1.14256  -1.14165  -1.14108  -1.14084
 Alpha  occ. eigenvalues --   -1.13807  -1.13765  -1.13756  -1.13303  -1.13209
 Alpha  occ. eigenvalues --   -1.13201  -1.13026  -1.12995  -1.12993  -1.12825
 Alpha  occ. eigenvalues --   -1.12785  -1.12740  -1.12681  -1.12638  -1.12543
 Alpha  occ. eigenvalues --   -0.18373  -0.13551  -0.11653  -0.11180
 Alpha virt. eigenvalues --   -0.06522  -0.05091  -0.04329  -0.03201  -0.02773
 Alpha virt. eigenvalues --   -0.02715  -0.02311  -0.01147  -0.00771  -0.00015
 Alpha virt. eigenvalues --    0.00159   0.00228   0.00401   0.00687   0.00737

  Beta  occ. eigenvalues --  -38.44832 -38.44524 -38.44273 -38.43597 -38.43537
  Beta  occ. eigenvalues --  -38.43256 -38.43063  -2.20604  -2.20368  -2.20056
  Beta  occ. eigenvalues --   -2.19454  -2.19344  -2.19093  -2.18940  -1.14282
  Beta  occ. eigenvalues --   -1.14266  -1.14238  -1.14095  -1.14044  -1.14012
  Beta  occ. eigenvalues --   -1.13739  -1.13717  -1.13706  -1.13209  -1.13116
  Beta  occ. eigenvalues --   -1.13109  -1.13016  -1.12994  -1.12982  -1.12787
  Beta  occ. eigenvalues --   -1.12752  -1.12714  -1.12674  -1.12603  -1.12527
  Beta  occ. eigenvalues --   -0.17661  -0.13249  -0.10866
  Beta virt. eigenvalues --   -0.07783  -0.06319  -0.05055  -0.03825  -0.02914
  Beta virt. eigenvalues --   -0.02247  -0.02069  -0.01860  -0.01055  -0.00450
  Beta virt. eigenvalues --    0.00011   0.00204   0.00255   0.00520   0.00742

 Mulliken charges and spin densities:
               1          2
     1  Na  -0.333556  -0.015688
     2  Na   0.030525  -0.046302
     3  Na   0.046012   0.055500
     4  Na  -0.238348   0.513335
     5  Na   0.576079   0.089344
     6  Na  -0.377489   0.026453
     7  Na   0.296776   0.377358
 Sum of Mulliken charges =  -0.00000   1.00000

 Dipole moment (field-independent basis, Debye):
    X=             -0.2921    Y=             -0.1270    Z=             -0.4308  Tot=              0.5358
 Quadrupole moment (field-independent basis, Debye-Ang):
   XX=            -48.1482   YY=            -75.8909   ZZ=            -69.2139
   XY=              0.0100   XZ=              1.5119   YZ=              1.2244

 Normal termination of Gaussian 16 at Tue Dec  5 11:14:56 2023.
