 Gaussian 16, Revision B.01,
 Gaussian 16:  ES64L-G16RevB.01 20-Dec-2017

 -------------------------
 #P B3LYP/6-311+g(d) force
 -------------------------

 -----
 DPGEN
 -----
 Symbolic Z-matrix:
 Charge =  0 Multiplicity = 2

                         Standard orientation:
 ---------------------------------------------------------------------
 Center     Atomic      Atomic             Coordinates (Angstroms)
 Number     Number       Type             X           Y           Z
 ---------------------------------------------------------------------
      1         11           0        3.996881   -0.446582    0.711969
      2         11           0        0.699564    0.487601    0.272478
      3         11           0        3.121937    2.790073   -0.552773
      4         11           0        1.448578   -2.234420   -0.874194
      5         11           0       -1.766365   -2.401238   -0.270502
      6         11           0       -2.718174    0.173841    1.399034
      7         11           0       -4.782420    1.630724   -0.686013
 ---------------------------------------------------------------------

 SCF Done:  E(UB3LYP) =  -1136.11540690     A.U. after   21 cycles

 The electronic state is 2-A.
 Alpha  occ. eigenvalues --  -38.44436 -38.44341 -38.44338 -38.44138 -38.43832
 Alpha  occ. eigenvalues --  -38.43825 -38.43370  -2.20284  -2.20253  -2.20184
 Alpha  occ. eigenvalues --   -2.19945  -2.19685  -2.19630  -2.19262  -1.13990
 Alpha  occ. eigenvalues --   -1.13967  -1.13959  -1.13942  -1.13918  -1.13867
 Alpha  occ. eigenvalues --   -1.13846  -1.13823  -1.13788  -1.13607  -1.13597
 Alpha  occ. eigenvalues --   -1.13557  -1.13374  -1.13367  -1.13346  -1.13270
 Alpha  occ. eigenvalues --   -1.13269  -1.13224  -1.12976  -1.12921  -1.12868
 Alpha  occ. eigenvalues --   -0.17419  -0.14426  -0.11999  -0.10244
 Alpha virt. eigenvalues --   -0.06633  -0.06244  -0.03963  -0.03655  -0.02898
 Alpha virt. eigenvalues --   -0.02318  -0.01999  -0.01443  -0.00899  -0.00619
 Alpha virt. eigenvalues --   -0.00246  -0.00110   0.00176   0.00361   0.00568

  Beta  occ. eigenvalues --  -38.44435 -38.44316 -38.44291 -38.44094 -38.43843
  Beta  occ. eigenvalues --  -38.43743 -38.43362  -2.20279  -2.20215  -2.20093
  Beta  occ. eigenvalues --   -2.19863  -2.19711  -2.19478  -2.19251  -1.13972
  Beta  occ. eigenvalues --   -1.13966  -1.13940  -1.13921  -1.13916  -1.13816
  Beta  occ. eigenvalues --   -1.13796  -1.13761  -1.13716  -1.13549  -1.13534
  Beta  occ. eigenvalues --   -1.13508  -1.13396  -1.13375  -1.13323  -1.13166
  Beta  occ. eigenvalues --   -1.13164  -1.13138  -1.12971  -1.12914  -1.12839
  Beta  occ. eigenvalues --   -0.17038  -0.13938  -0.11577
  Beta virt. eigenvalues --   -0.06803  -0.06353  -0.05893  -0.03718  -0.03441
  Beta virt. eigenvalues --   -0.02722  -0.02082  -0.01511  -0.01116  -0.00718
  Beta virt. eigenvalues --   -0.00352   0.00050   0.00163   0.00250   0.00448

 Mulliken charges and spin densities:
               1          2
     1  Na   0.576286   0.251498
     2  Na  -1.641630   0.152637
     3  Na   0.375621   0.156221
     4  Na   0.485400   0.163667
     5  Na   0.169660  -0.018697
     6  Na   0.019802  -0.132199
     7  Na   0.014860   0.426874
 Sum of Mulliken charges =  -0.00000   1.00000

 Dipole moment (field-independent basis, Debye):
    X=              0.9474    Y=             -0.5098    Z=             -0.2326  Tot=              1.1007
 Quadrupole moment (field-independent basis, Debye-Ang):
   XX=            -66.4423   YY=            -69.2994   ZZ=            -66.0034
   XY=              8.1318   XZ=              2.7457   YZ=             -2.1425

 Normal termination of Gaussian 16 at Wed Nov 29 15:42:44 2023.
