 Gaussian 16, Revision B.01,
 Gaussian 16:  ES64L-G16RevB.01 20-Dec-2017

 -------------------------
 #P B3LYP/6-311+g(d) force
 -------------------------

 -----
 DPGEN
 -----
 Symbolic Z-matrix:
 Charge =  0 Multiplicity = 2

                         Standard orientation:
 ---------------------------------------------------------------------
 Center     Atomic      Atomic             Coordinates (Angstroms)
 Number     Number       Type             X           Y           Z
 ---------------------------------------------------------------------
      1         11           0       -3.141568   -0.427774   -0.179385
      2         11           0       -0.170505    0.149826    1.838720
      3         11           0        2.160652    1.741615    0.074367
      4         11           0        0.312411   -0.255097   -1.805160
      5         11           0        2.605746   -1.444498    0.042597
      6         11           0       -0.684813   -2.473914    0.184984
      7         11           0       -1.081923    2.709841   -0.156123
 ---------------------------------------------------------------------

 SCF Done:  E(UB3LYP) =  -1136.13711775     A.U. after   19 cycles

 The electronic state is 2-A.
 Alpha  occ. eigenvalues --  -38.44057 -38.43533 -38.43427 -38.43354 -38.43308
 Alpha  occ. eigenvalues --  -38.43306 -38.43088  -2.19892  -2.19441  -2.19350
 Alpha  occ. eigenvalues --   -2.19349  -2.19290  -2.19159  -2.19043  -1.13568
 Alpha  occ. eigenvalues --   -1.13555  -1.13533  -1.13190  -1.13123  -1.13093
 Alpha  occ. eigenvalues --   -1.13061  -1.13040  -1.13031  -1.12986  -1.12965
 Alpha  occ. eigenvalues --   -1.12958  -1.12940  -1.12932  -1.12896  -1.12824
 Alpha  occ. eigenvalues --   -1.12816  -1.12788  -1.12715  -1.12698  -1.12647
 Alpha  occ. eigenvalues --   -0.19303  -0.13193  -0.12607  -0.10944
 Alpha virt. eigenvalues --   -0.05556  -0.04962  -0.04488  -0.03257  -0.02963
 Alpha virt. eigenvalues --   -0.02521  -0.01483  -0.00962  -0.00120  -0.00031
 Alpha virt. eigenvalues --    0.00030   0.00362   0.00834   0.00936   0.00963

  Beta  occ. eigenvalues --  -38.44055 -38.43527 -38.43419 -38.43305 -38.43276
  Beta  occ. eigenvalues --  -38.43222 -38.43075  -2.19891  -2.19434  -2.19338
  Beta  occ. eigenvalues --   -2.19207  -2.19156  -2.19138  -2.19026  -1.13570
  Beta  occ. eigenvalues --   -1.13536  -1.13533  -1.13173  -1.13111  -1.13061
  Beta  occ. eigenvalues --   -1.13041  -1.12983  -1.12962  -1.12957  -1.12889
  Beta  occ. eigenvalues --   -1.12878  -1.12861  -1.12843  -1.12805  -1.12801
  Beta  occ. eigenvalues --   -1.12788  -1.12768  -1.12694  -1.12642  -1.12638
  Beta  occ. eigenvalues --   -0.18538  -0.12942  -0.12344
  Beta virt. eigenvalues --   -0.06981  -0.05523  -0.04957  -0.04479  -0.02436
  Beta virt. eigenvalues --   -0.02147  -0.01465  -0.01396  -0.00907  -0.00168
  Beta virt. eigenvalues --   -0.00042   0.00125   0.00381   0.00882   0.00921

 Mulliken charges and spin densities:
               1          2
     1  Na  -0.049378  -0.098835
     2  Na  -0.446978   0.625794
     3  Na   0.242446  -0.056980
     4  Na  -0.575765   0.699030
     5  Na   0.435579  -0.014915
     6  Na   0.406319  -0.035007
     7  Na  -0.012223  -0.119087
 Sum of Mulliken charges =  -0.00000   1.00000

 Dipole moment (field-independent basis, Debye):
    X=             -0.2099    Y=              0.0854    Z=             -0.0350  Tot=              0.2293
 Quadrupole moment (field-independent basis, Debye-Ang):
   XX=            -56.0646   YY=            -64.4911   ZZ=            -73.2363
   XY=             -0.8865   XZ=              1.2567   YZ=             -0.8643

 Normal termination of Gaussian 16 at Thu Dec  7 19:09:03 2023.
