 Gaussian 16, Revision B.01,
 Gaussian 16:  ES64L-G16RevB.01 20-Dec-2017

 -------------------------
 #P B3LYP/6-311+g(d) force
 -------------------------

 -----
 DPGEN
 -----
 Symbolic Z-matrix:
 Charge =  0 Multiplicity = 2

                         Standard orientation:
 ---------------------------------------------------------------------
 Center     Atomic      Atomic             Coordinates (Angstroms)
 Number     Number       Type             X           Y           Z
 ---------------------------------------------------------------------
      1         11           0       -0.517017    2.154280    1.574945
      2         11           0        2.809669   -1.851223   -0.903673
      3         11           0        0.443554   -1.012635    1.759957
      4         11           0        3.041937    1.659739   -0.245536
      5         11           0       -3.167538    1.061427   -1.650658
      6         11           0        0.081443   -0.121768   -1.207612
      7         11           0       -2.692049   -1.889819    0.672576
 ---------------------------------------------------------------------

 SCF Done:  E(UB3LYP) =  -1136.12202064     A.U. after   24 cycles

 The electronic state is 2-A.
 Alpha  occ. eigenvalues --  -38.44624 -38.44600 -38.44243 -38.43960 -38.43671
 Alpha  occ. eigenvalues --  -38.43498 -38.43058  -2.20422  -2.20376  -2.20029
 Alpha  occ. eigenvalues --   -2.19892  -2.19634  -2.19335  -2.18880  -1.14091
 Alpha  occ. eigenvalues --   -1.14070  -1.14048  -1.14038  -1.14027  -1.14005
 Alpha  occ. eigenvalues --   -1.13713  -1.13691  -1.13666  -1.13636  -1.13515
 Alpha  occ. eigenvalues --   -1.13491  -1.13354  -1.13279  -1.13249  -1.13013
 Alpha  occ. eigenvalues --   -1.12979  -1.12965  -1.12578  -1.12523  -1.12493
 Alpha  occ. eigenvalues --   -0.18070  -0.13530  -0.11605  -0.10985
 Alpha virt. eigenvalues --   -0.06172  -0.05487  -0.04400  -0.03053  -0.02999
 Alpha virt. eigenvalues --   -0.02495  -0.02198  -0.01280  -0.00667  -0.00203
 Alpha virt. eigenvalues --    0.00183   0.00300   0.00316   0.00601   0.00655

  Beta  occ. eigenvalues --  -38.44602 -38.44553 -38.44231 -38.43887 -38.43650
  Beta  occ. eigenvalues --  -38.43492 -38.43025  -2.20381  -2.20289  -2.20011
  Beta  occ. eigenvalues --   -2.19760  -2.19597  -2.19325  -2.18821  -1.14071
  Beta  occ. eigenvalues --   -1.14032  -1.14002  -1.13994  -1.13958  -1.13954
  Beta  occ. eigenvalues --   -1.13684  -1.13681  -1.13646  -1.13560  -1.13412
  Beta  occ. eigenvalues --   -1.13392  -1.13299  -1.13256  -1.13227  -1.13001
  Beta  occ. eigenvalues --   -1.12976  -1.12954  -1.12525  -1.12478  -1.12458
  Beta  occ. eigenvalues --   -0.17409  -0.13052  -0.10795
  Beta virt. eigenvalues --   -0.07825  -0.06085  -0.05166  -0.03936  -0.02871
  Beta virt. eigenvalues --   -0.02341  -0.02066  -0.01756  -0.01118  -0.00425
  Beta virt. eigenvalues --   -0.00071   0.00235   0.00313   0.00406   0.00695

 Mulliken charges and spin densities:
               1          2
     1  Na  -0.354636  -0.078719
     2  Na   0.672075  -0.056298
     3  Na   0.538316   0.649652
     4  Na   0.182217  -0.042033
     5  Na   0.450227   0.315741
     6  Na  -1.442703   0.265966
     7  Na  -0.045496  -0.054309
 Sum of Mulliken charges =  -0.00000   1.00000

 Dipole moment (field-independent basis, Debye):
    X=              0.0338    Y=              0.0577    Z=             -0.0971  Tot=              0.1179
 Quadrupole moment (field-independent basis, Debye-Ang):
   XX=            -51.7565   YY=            -72.2984   ZZ=            -68.6525
   XY=              0.4558   XZ=             -0.3427   YZ=             -2.2380

 Normal termination of Gaussian 16 at Tue Dec  5 19:12:14 2023.
