 Gaussian 16, Revision B.01,
 Gaussian 16:  ES64L-G16RevB.01 20-Dec-2017

 -------------------------
 #P B3LYP/6-311+g(d) force
 -------------------------

 -----
 DPGEN
 -----
 Symbolic Z-matrix:
 Charge =  0 Multiplicity = 2

                         Standard orientation:
 ---------------------------------------------------------------------
 Center     Atomic      Atomic             Coordinates (Angstroms)
 Number     Number       Type             X           Y           Z
 ---------------------------------------------------------------------
      1         11           0        1.029639    0.104604    1.783888
      2         11           0        2.714047    1.520393   -0.945599
      3         11           0        2.513926   -2.169054   -0.097920
      4         11           0       -0.657077   -0.562339   -1.564470
      5         11           0       -0.258857    2.821188    0.505559
      6         11           0       -3.855104    0.409394   -0.233153
      7         11           0       -1.486575   -2.124186    0.551695
 ---------------------------------------------------------------------

 SCF Done:  E(UB3LYP) =  -1136.12534724     A.U. after   21 cycles

 The electronic state is 2-A.
 Alpha  occ. eigenvalues --  -38.44952 -38.44229 -38.44009 -38.43961 -38.43890
 Alpha  occ. eigenvalues --  -38.43169 -38.43039  -2.20718  -2.20156  -2.19910
 Alpha  occ. eigenvalues --   -2.19784  -2.19700  -2.18990  -2.18982  -1.14397
 Alpha  occ. eigenvalues --   -1.14370  -1.14353  -1.14101  -1.13799  -1.13722
 Alpha  occ. eigenvalues --   -1.13556  -1.13532  -1.13459  -1.13456  -1.13440
 Alpha  occ. eigenvalues --   -1.13410  -1.13391  -1.13352  -1.13332  -1.12724
 Alpha  occ. eigenvalues --   -1.12653  -1.12641  -1.12627  -1.12614  -1.12567
 Alpha  occ. eigenvalues --   -0.18198  -0.13400  -0.11955  -0.10432
 Alpha virt. eigenvalues --   -0.06458  -0.05269  -0.04299  -0.03484  -0.02705
 Alpha virt. eigenvalues --   -0.02251  -0.02182  -0.01190  -0.00553  -0.00181
 Alpha virt. eigenvalues --   -0.00087   0.00255   0.00601   0.00731   0.00762

  Beta  occ. eigenvalues --  -38.44952 -38.44192 -38.43995 -38.43927 -38.43885
  Beta  occ. eigenvalues --  -38.43157 -38.42966  -2.20720  -2.20088  -2.19887
  Beta  occ. eigenvalues --   -2.19721  -2.19695  -2.18970  -2.18850  -1.14393
  Beta  occ. eigenvalues --   -1.14370  -1.14354  -1.14058  -1.13752  -1.13672
  Beta  occ. eigenvalues --   -1.13525  -1.13502  -1.13437  -1.13409  -1.13401
  Beta  occ. eigenvalues --   -1.13383  -1.13359  -1.13343  -1.13318  -1.12684
  Beta  occ. eigenvalues --   -1.12625  -1.12603  -1.12563  -1.12528  -1.12478
  Beta  occ. eigenvalues --   -0.17528  -0.13172  -0.11739
  Beta virt. eigenvalues --   -0.06670  -0.06319  -0.05141  -0.04222  -0.02863
  Beta virt. eigenvalues --   -0.02179  -0.02021  -0.01363  -0.01052  -0.00445
  Beta virt. eigenvalues --   -0.00145   0.00052   0.00308   0.00727   0.00782

 Mulliken charges and spin densities:
               1          2
     1  Na   0.184582   0.445074
     2  Na  -0.160523   0.277741
     3  Na   0.134888   0.034369
     4  Na  -0.284239   0.416462
     5  Na  -0.141914  -0.056058
     6  Na   0.115476  -0.027695
     7  Na   0.151730  -0.089892
 Sum of Mulliken charges =  -0.00000   1.00000

 Dipole moment (field-independent basis, Debye):
    X=             -0.6847    Y=             -0.1356    Z=             -0.1013  Tot=              0.7053
 Quadrupole moment (field-independent basis, Debye-Ang):
   XX=            -51.2211   YY=            -67.2155   ZZ=            -74.0941
   XY=             -2.9477   XZ=             -2.2224   YZ=             -1.5064

 Normal termination of Gaussian 16 at Thu Dec  7 19:16:16 2023.
