 Gaussian 16, Revision B.01,
 Gaussian 16:  ES64L-G16RevB.01 20-Dec-2017

 -------------------------
 #P B3LYP/6-311+g(d) force
 -------------------------

 -----
 DPGEN
 -----
 Symbolic Z-matrix:
 Charge =  0 Multiplicity = 2

                         Standard orientation:
 ---------------------------------------------------------------------
 Center     Atomic      Atomic             Coordinates (Angstroms)
 Number     Number       Type             X           Y           Z
 ---------------------------------------------------------------------
      1         11           0       -3.484271   -0.182603    0.028296
      2         11           0        2.258736    2.003928   -0.226739
      3         11           0        0.231922   -0.210883    1.782408
      4         11           0       -1.264605    2.586209    0.080742
      5         11           0        2.810435   -1.329666    0.164486
      6         11           0        0.179025   -0.222642   -1.648304
      7         11           0       -0.731242   -2.644343   -0.180888
 ---------------------------------------------------------------------

 SCF Done:  E(UB3LYP) =  -1136.13466240     A.U. after   21 cycles

 The electronic state is 2-A.
 Alpha  occ. eigenvalues --  -38.44682 -38.44084 -38.43546 -38.43307 -38.43276
 Alpha  occ. eigenvalues --  -38.43217 -38.43087  -2.20455  -2.19962  -2.19410
 Alpha  occ. eigenvalues --   -2.19183  -2.19180  -2.19138  -2.19096  -1.14131
 Alpha  occ. eigenvalues --   -1.14113  -1.14095  -1.13650  -1.13629  -1.13591
 Alpha  occ. eigenvalues --   -1.13096  -1.13070  -1.13048  -1.13012  -1.12903
 Alpha  occ. eigenvalues --   -1.12853  -1.12823  -1.12817  -1.12790  -1.12777
 Alpha  occ. eigenvalues --   -1.12768  -1.12765  -1.12749  -1.12691  -1.12682
 Alpha  occ. eigenvalues --   -0.18881  -0.13196  -0.12401  -0.10482
 Alpha virt. eigenvalues --   -0.06148  -0.05160  -0.04445  -0.03093  -0.02691
 Alpha virt. eigenvalues --   -0.02230  -0.01935  -0.01130  -0.00413  -0.00264
 Alpha virt. eigenvalues --    0.00004   0.00317   0.00767   0.00861   0.00897

  Beta  occ. eigenvalues --  -38.44685 -38.44074 -38.43538 -38.43304 -38.43265
  Beta  occ. eigenvalues --  -38.43136 -38.43012  -2.20463  -2.19947  -2.19399
  Beta  occ. eigenvalues --   -2.19164  -2.19136  -2.19034  -2.18960  -1.14128
  Beta  occ. eigenvalues --   -1.14116  -1.14100  -1.13640  -1.13588  -1.13584
  Beta  occ. eigenvalues --   -1.13084  -1.13046  -1.13039  -1.12973  -1.12836
  Beta  occ. eigenvalues --   -1.12822  -1.12795  -1.12767  -1.12766  -1.12755
  Beta  occ. eigenvalues --   -1.12686  -1.12684  -1.12659  -1.12598  -1.12595
  Beta  occ. eigenvalues --   -0.18155  -0.12977  -0.12126
  Beta virt. eigenvalues --   -0.06558  -0.06106  -0.05163  -0.04426  -0.02347
  Beta virt. eigenvalues --   -0.01907  -0.01858  -0.01180  -0.01075  -0.00448
  Beta virt. eigenvalues --   -0.00309   0.00144   0.00346   0.00802   0.00859

 Mulliken charges and spin densities:
               1          2
     1  Na  -0.099310  -0.096416
     2  Na   0.049597  -0.058660
     3  Na  -0.369660   0.788718
     4  Na  -0.066721  -0.119760
     5  Na   0.495618  -0.019780
     6  Na  -0.247989   0.650825
     7  Na   0.238465  -0.144927
 Sum of Mulliken charges =  -0.00000   1.00000

 Dipole moment (field-independent basis, Debye):
    X=             -0.1815    Y=             -0.1031    Z=              0.0794  Tot=              0.2233
 Quadrupole moment (field-independent basis, Debye-Ang):
   XX=            -51.2220   YY=            -64.4451   ZZ=            -76.1012
   XY=              0.1080   XZ=             -0.2057   YZ=             -0.1857

 Normal termination of Gaussian 16 at Tue Dec  5 21:20:30 2023.
