 Gaussian 16, Revision B.01,
 Gaussian 16:  ES64L-G16RevB.01 20-Dec-2017

 -------------------------
 #P B3LYP/6-311+g(d) force
 -------------------------

 -----
 DPGEN
 -----
 Symbolic Z-matrix:
 Charge =  0 Multiplicity = 2

                         Standard orientation:
 ---------------------------------------------------------------------
 Center     Atomic      Atomic             Coordinates (Angstroms)
 Number     Number       Type             X           Y           Z
 ---------------------------------------------------------------------
      1         11           0        0.788939   -2.703761   -0.084549
      2         11           0       -2.615938   -1.761291    0.261776
      3         11           0       -2.418407    1.755616   -0.008453
      4         11           0       -0.203750   -0.006607   -1.785560
      5         11           0        0.377287    0.345692    1.822996
      6         11           0        3.061801   -0.367747   -0.054715
      7         11           0        1.010068    2.738098   -0.151496
 ---------------------------------------------------------------------

 SCF Done:  E(UB3LYP) =  -1136.14021367     A.U. after   19 cycles

 The electronic state is 2-A.
 Alpha  occ. eigenvalues --  -38.43828 -38.43782 -38.43719 -38.43478 -38.43321
 Alpha  occ. eigenvalues --  -38.43277 -38.43166  -2.19689  -2.19633  -2.19536
 Alpha  occ. eigenvalues --   -2.19356  -2.19227  -2.19199  -2.19127  -1.13375
 Alpha  occ. eigenvalues --   -1.13351  -1.13333  -1.13323  -1.13303  -1.13268
 Alpha  occ. eigenvalues --   -1.13204  -1.13194  -1.13180  -1.13082  -1.13029
 Alpha  occ. eigenvalues --   -1.12973  -1.12912  -1.12888  -1.12865  -1.12841
 Alpha  occ. eigenvalues --   -1.12834  -1.12828  -1.12796  -1.12748  -1.12740
 Alpha  occ. eigenvalues --   -0.18858  -0.13000  -0.12675  -0.10641
 Alpha virt. eigenvalues --   -0.05444  -0.05257  -0.04783  -0.03113  -0.02971
 Alpha virt. eigenvalues --   -0.02380  -0.01416  -0.01161  -0.00340  -0.00288
 Alpha virt. eigenvalues --    0.00007   0.00371   0.00840   0.00889   0.00915

  Beta  occ. eigenvalues --  -38.43824 -38.43777 -38.43715 -38.43470 -38.43315
  Beta  occ. eigenvalues --  -38.43199 -38.43087  -2.19685  -2.19628  -2.19532
  Beta  occ. eigenvalues --   -2.19346  -2.19192  -2.19085  -2.18983  -1.13372
  Beta  occ. eigenvalues --   -1.13335  -1.13321  -1.13317  -1.13277  -1.13269
  Beta  occ. eigenvalues --   -1.13193  -1.13184  -1.13179  -1.13064  -1.12993
  Beta  occ. eigenvalues --   -1.12970  -1.12890  -1.12836  -1.12827  -1.12799
  Beta  occ. eigenvalues --   -1.12744  -1.12738  -1.12702  -1.12646  -1.12637
  Beta  occ. eigenvalues --   -0.18122  -0.12760  -0.12427
  Beta virt. eigenvalues --   -0.06745  -0.05435  -0.05224  -0.04744  -0.02327
  Beta virt. eigenvalues --   -0.02172  -0.01347  -0.01334  -0.01093  -0.00402
  Beta virt. eigenvalues --   -0.00334   0.00140   0.00393   0.00867   0.00900

 Mulliken charges and spin densities:
               1          2
     1  Na   0.077054  -0.070710
     2  Na  -0.076626  -0.058252
     3  Na   0.134362  -0.091165
     4  Na  -0.241950   0.668871
     5  Na  -0.376233   0.774442
     6  Na   0.228945  -0.084544
     7  Na   0.254448  -0.138641
 Sum of Mulliken charges =  -0.00000   1.00000

 Dipole moment (field-independent basis, Debye):
    X=             -0.0286    Y=              0.1209    Z=              0.0263  Tot=              0.1270
 Quadrupole moment (field-independent basis, Debye-Ang):
   XX=            -56.9270   YY=            -61.5669   ZZ=            -74.7255
   XY=              0.1986   XZ=             -1.3623   YZ=             -0.8741

 Normal termination of Gaussian 16 at Thu Dec  7 04:03:53 2023.
