 Gaussian 16, Revision B.01,
 Gaussian 16:  ES64L-G16RevB.01 20-Dec-2017

 -------------------------
 #P B3LYP/6-311+g(d) force
 -------------------------

 -----
 DPGEN
 -----
 Symbolic Z-matrix:
 Charge =  0 Multiplicity = 2

                         Standard orientation:
 ---------------------------------------------------------------------
 Center     Atomic      Atomic             Coordinates (Angstroms)
 Number     Number       Type             X           Y           Z
 ---------------------------------------------------------------------
      1         11           0       -3.289623   -1.839882    0.519900
      2         11           0       -0.328130    1.097651    1.938394
      3         11           0       -0.668965   -1.962360   -1.025803
      4         11           0        2.647491   -0.578276   -1.672440
      5         11           0       -2.584015    1.870945   -0.648082
      6         11           0        3.246838   -0.888891    1.561875
      7         11           0        0.976403    2.300814   -0.673845
 ---------------------------------------------------------------------

 SCF Done:  E(UB3LYP) =  -1136.12306971     A.U. after   20 cycles

 The electronic state is 2-A.
 Alpha  occ. eigenvalues --  -38.44832 -38.44674 -38.44266 -38.43710 -38.43689
 Alpha  occ. eigenvalues --  -38.43648 -38.43629  -2.20615  -2.20463  -2.20105
 Alpha  occ. eigenvalues --   -2.19534  -2.19506  -2.19505  -2.19475  -1.14304
 Alpha  occ. eigenvalues --   -1.14274  -1.14235  -1.14121  -1.14109  -1.14096
 Alpha  occ. eigenvalues --   -1.13809  -1.13757  -1.13710  -1.13311  -1.13202
 Alpha  occ. eigenvalues --   -1.13200  -1.13194  -1.13183  -1.13156  -1.13145
 Alpha  occ. eigenvalues --   -1.13136  -1.13130  -1.13118  -1.13090  -1.13074
 Alpha  occ. eigenvalues --   -0.17499  -0.13471  -0.11887  -0.10908
 Alpha virt. eigenvalues --   -0.06378  -0.05490  -0.04807  -0.03445  -0.02872
 Alpha virt. eigenvalues --   -0.02607  -0.02026  -0.01230  -0.00638  -0.00265
 Alpha virt. eigenvalues --    0.00109   0.00221   0.00244   0.00308   0.00553

  Beta  occ. eigenvalues --  -38.44828 -38.44622 -38.44222 -38.43697 -38.43689
  Beta  occ. eigenvalues --  -38.43623 -38.43598  -2.20609  -2.20367  -2.20023
  Beta  occ. eigenvalues --   -2.19515  -2.19502  -2.19463  -2.19419  -1.14292
  Beta  occ. eigenvalues --   -1.14271  -1.14231  -1.14055  -1.14043  -1.14027
  Beta  occ. eigenvalues --   -1.13757  -1.13701  -1.13640  -1.13300  -1.13189
  Beta  occ. eigenvalues --   -1.13182  -1.13166  -1.13151  -1.13134  -1.13130
  Beta  occ. eigenvalues --   -1.13111  -1.13094  -1.13072  -1.13060  -1.13057
  Beta  occ. eigenvalues --   -0.16896  -0.13251  -0.11771
  Beta virt. eigenvalues --   -0.07202  -0.06152  -0.05245  -0.04196  -0.03337
  Beta virt. eigenvalues --   -0.02387  -0.01886  -0.01806  -0.01071  -0.00419
  Beta virt. eigenvalues --   -0.00129   0.00157   0.00306   0.00430   0.00481

 Mulliken charges and spin densities:
               1          2
     1  Na   0.639472  -0.114237
     2  Na  -0.459816   0.474833
     3  Na  -0.730175   0.140850
     4  Na   0.108837   0.153389
     5  Na   0.244554  -0.051877
     6  Na   0.147792   0.135059
     7  Na   0.049335   0.261982
 Sum of Mulliken charges =  -0.00000   1.00000

 Dipole moment (field-independent basis, Debye):
    X=             -0.5170    Y=              0.5052    Z=              0.1547  Tot=              0.7392
 Quadrupole moment (field-independent basis, Debye-Ang):
   XX=            -55.0969   YY=            -73.3142   ZZ=            -68.6637
   XY=             -3.2611   XZ=             -0.3758   YZ=             -3.4963

 Normal termination of Gaussian 16 at Sun Dec  3 11:43:12 2023.
