 Gaussian 16, Revision B.01,
 Gaussian 16:  ES64L-G16RevB.01 20-Dec-2017

 -------------------------
 #P B3LYP/6-311+g(d) force
 -------------------------

 -----
 DPGEN
 -----
 Symbolic Z-matrix:
 Charge =  0 Multiplicity = 2

                         Standard orientation:
 ---------------------------------------------------------------------
 Center     Atomic      Atomic             Coordinates (Angstroms)
 Number     Number       Type             X           Y           Z
 ---------------------------------------------------------------------
      1         11           0       -0.890967   -1.893882    0.455963
      2         11           0       -3.854517   -2.831266   -0.369199
      3         11           0       -2.561129    0.782176   -0.621061
      4         11           0       -1.391151    4.035254   -0.301873
      5         11           0        0.289429    1.131789    1.124433
      6         11           0        2.649685   -0.558956    0.544503
      7         11           0        5.758649   -0.665115   -0.832766
 ---------------------------------------------------------------------

 SCF Done:  E(UB3LYP) =  -1136.12279084     A.U. after   19 cycles

 The electronic state is 2-A.
 Alpha  occ. eigenvalues --  -38.44598 -38.44347 -38.44159 -38.43864 -38.43863
 Alpha  occ. eigenvalues --  -38.43856 -38.43111  -2.20402  -2.20201  -2.19967
 Alpha  occ. eigenvalues --   -2.19810  -2.19760  -2.19660  -2.18978  -1.14031
 Alpha  occ. eigenvalues --   -1.14031  -1.14018  -1.13942  -1.13902  -1.13768
 Alpha  occ. eigenvalues --   -1.13647  -1.13624  -1.13597  -1.13534  -1.13515
 Alpha  occ. eigenvalues --   -1.13448  -1.13443  -1.13416  -1.13330  -1.13323
 Alpha  occ. eigenvalues --   -1.13321  -1.13275  -1.12684  -1.12639  -1.12611
 Alpha  occ. eigenvalues --   -0.17400  -0.13731  -0.12720  -0.11291
 Alpha virt. eigenvalues --   -0.06020  -0.05001  -0.04749  -0.03843  -0.02340
 Alpha virt. eigenvalues --   -0.02160  -0.02007  -0.01892  -0.01344  -0.00850
 Alpha virt. eigenvalues --   -0.00166   0.00002   0.00157   0.00499   0.00662

  Beta  occ. eigenvalues --  -38.44481 -38.44339 -38.44140 -38.43845 -38.43835
  Beta  occ. eigenvalues --  -38.43828 -38.43108  -2.20187  -2.20185  -2.19932
  Beta  occ. eigenvalues --   -2.19749  -2.19726  -2.19624  -2.18984  -1.13925
  Beta  occ. eigenvalues --   -1.13893  -1.13883  -1.13883  -1.13874  -1.13756
  Beta  occ. eigenvalues --   -1.13623  -1.13599  -1.13571  -1.13503  -1.13473
  Beta  occ. eigenvalues --   -1.13423  -1.13423  -1.13358  -1.13298  -1.13296
  Beta  occ. eigenvalues --   -1.13274  -1.13253  -1.12685  -1.12653  -1.12551
  Beta  occ. eigenvalues --   -0.16893  -0.12944  -0.12354
  Beta virt. eigenvalues --   -0.07810  -0.05817  -0.04773  -0.04341  -0.03606
  Beta virt. eigenvalues --   -0.02172  -0.01893  -0.01683  -0.01413  -0.01001
  Beta virt. eigenvalues --   -0.00508   0.00052   0.00154   0.00321   0.00592

 Mulliken charges and spin densities:
               1          2
     1  Na  -0.864237   0.011771
     2  Na   1.271791   0.090594
     3  Na  -0.460447   0.155301
     4  Na   0.896521   0.071688
     5  Na  -1.131266   0.068233
     6  Na   0.361380   0.002111
     7  Na  -0.073741   0.600302
 Sum of Mulliken charges =  -0.00000   1.00000

 Dipole moment (field-independent basis, Debye):
    X=             -0.9997    Y=              0.0946    Z=             -0.3007  Tot=              1.0483
 Quadrupole moment (field-independent basis, Debye-Ang):
   XX=            -62.0594   YY=            -60.3086   ZZ=            -70.8480
   XY=              4.5885   XZ=             -0.4247   YZ=              0.3472

 Normal termination of Gaussian 16 at Tue Nov 28 22:36:31 2023.
