 Gaussian 16, Revision B.01,
 Gaussian 16:  ES64L-G16RevB.01 20-Dec-2017

 -------------------------
 #P B3LYP/6-311+g(d) force
 -------------------------

 -----
 DPGEN
 -----
 Symbolic Z-matrix:
 Charge =  0 Multiplicity = 2

                         Standard orientation:
 ---------------------------------------------------------------------
 Center     Atomic      Atomic             Coordinates (Angstroms)
 Number     Number       Type             X           Y           Z
 ---------------------------------------------------------------------
      1         11           0        0.506877    0.158536    2.163895
      2         11           0        0.043155   -0.072588   -1.163069
      3         11           0        3.262445   -0.727247   -0.590326
      4         11           0        0.117975   -3.009602   -0.066201
      5         11           0       -2.719767   -1.318379    0.119983
      6         11           0        1.338574    3.017808    0.007674
      7         11           0       -2.549259    1.951472   -0.471956
 ---------------------------------------------------------------------

 SCF Done:  E(UB3LYP) =  -1136.13214521     A.U. after   19 cycles

 The electronic state is 2-A.
 Alpha  occ. eigenvalues --  -38.44308 -38.44273 -38.43733 -38.43674 -38.43589
 Alpha  occ. eigenvalues --  -38.43551 -38.42809  -2.20081  -2.20068  -2.19556
 Alpha  occ. eigenvalues --   -2.19534  -2.19449  -2.19426  -2.18854  -1.13759
 Alpha  occ. eigenvalues --   -1.13749  -1.13741  -1.13720  -1.13714  -1.13695
 Alpha  occ. eigenvalues --   -1.13262  -1.13246  -1.13227  -1.13192  -1.13186
 Alpha  occ. eigenvalues --   -1.13171  -1.13125  -1.13100  -1.13080  -1.13071
 Alpha  occ. eigenvalues --   -1.13051  -1.13044  -1.12563  -1.12497  -1.12479
 Alpha  occ. eigenvalues --   -0.18313  -0.12867  -0.12523  -0.10363
 Alpha virt. eigenvalues --   -0.06000  -0.05254  -0.04846  -0.02982  -0.02680
 Alpha virt. eigenvalues --   -0.02247  -0.01693  -0.01482  -0.00695  -0.00489
 Alpha virt. eigenvalues --   -0.00029   0.00302   0.00732   0.00776   0.00867

  Beta  occ. eigenvalues --  -38.44307 -38.44249 -38.43723 -38.43671 -38.43549
  Beta  occ. eigenvalues --  -38.43485 -38.42776  -2.20083  -2.20026  -2.19538
  Beta  occ. eigenvalues --   -2.19531  -2.19425  -2.19256  -2.18796  -1.13749
  Beta  occ. eigenvalues --   -1.13736  -1.13723  -1.13710  -1.13685  -1.13667
  Beta  occ. eigenvalues --   -1.13261  -1.13234  -1.13208  -1.13177  -1.13171
  Beta  occ. eigenvalues --   -1.13164  -1.13098  -1.13070  -1.13034  -1.12996
  Beta  occ. eigenvalues --   -1.12941  -1.12911  -1.12501  -1.12460  -1.12435
  Beta  occ. eigenvalues --   -0.17665  -0.12602  -0.12291
  Beta virt. eigenvalues --   -0.06575  -0.05864  -0.05154  -0.04803  -0.02277
  Beta virt. eigenvalues --   -0.02045  -0.01557  -0.01438  -0.01214  -0.00687
  Beta virt. eigenvalues --   -0.00524   0.00149   0.00364   0.00746   0.00833

 Mulliken charges and spin densities:
               1          2
     1  Na  -0.374825   0.652987
     2  Na  -0.828782  -0.045772
     3  Na   0.192349   0.092844
     4  Na   0.345613   0.081318
     5  Na   0.261122   0.114339
     6  Na   0.092835   0.006415
     7  Na   0.311689   0.097870
 Sum of Mulliken charges =  -0.00000   1.00000

 Dipole moment (field-independent basis, Debye):
    X=              0.3772    Y=              0.2016    Z=              0.2227  Tot=              0.4822
 Quadrupole moment (field-independent basis, Debye-Ang):
   XX=            -57.2642   YY=            -58.2588   ZZ=            -76.2284
   XY=              0.6553   XZ=             -1.0359   YZ=             -0.9382

 Normal termination of Gaussian 16 at Fri Dec  8 06:19:36 2023.
