 Gaussian 16, Revision B.01,
 Gaussian 16:  ES64L-G16RevB.01 20-Dec-2017

 -------------------------
 #P B3LYP/6-311+g(d) force
 -------------------------

 -----
 DPGEN
 -----
 Symbolic Z-matrix:
 Charge =  0 Multiplicity = 2

                         Standard orientation:
 ---------------------------------------------------------------------
 Center     Atomic      Atomic             Coordinates (Angstroms)
 Number     Number       Type             X           Y           Z
 ---------------------------------------------------------------------
      1         11           0        1.777349    2.665147   -0.088857
      2         11           0       -3.089526   -0.371671    1.560924
      3         11           0       -2.185465    2.345357   -1.009967
      4         11           0        3.565632    0.185792    0.656580
      5         11           0        1.502011   -2.312918   -1.390364
      6         11           0       -0.022775   -1.203125    1.929069
      7         11           0       -1.547226   -1.308582   -1.657386
 ---------------------------------------------------------------------

 SCF Done:  E(UB3LYP) =  -1136.12196661     A.U. after   21 cycles

 The electronic state is 2-A.
 Alpha  occ. eigenvalues --  -38.44738 -38.44661 -38.44191 -38.44133 -38.44067
 Alpha  occ. eigenvalues --  -38.43789 -38.43730  -2.20565  -2.20491  -2.20035
 Alpha  occ. eigenvalues --   -2.19942  -2.19831  -2.19560  -2.19548  -1.14284
 Alpha  occ. eigenvalues --   -1.14217  -1.14196  -1.14145  -1.14118  -1.14097
 Alpha  occ. eigenvalues --   -1.13729  -1.13681  -1.13659  -1.13635  -1.13611
 Alpha  occ. eigenvalues --   -1.13569  -1.13507  -1.13484  -1.13458  -1.13236
 Alpha  occ. eigenvalues --   -1.13228  -1.13226  -1.13197  -1.13194  -1.13174
 Alpha  occ. eigenvalues --   -0.17259  -0.13386  -0.11909  -0.11719
 Alpha virt. eigenvalues --   -0.05874  -0.05703  -0.04939  -0.03553  -0.02988
 Alpha virt. eigenvalues --   -0.02899  -0.01721  -0.01019  -0.00803  -0.00399
 Alpha virt. eigenvalues --   -0.00183   0.00102   0.00341   0.00391   0.00635

  Beta  occ. eigenvalues --  -38.44673 -38.44614 -38.44141 -38.44128 -38.44037
  Beta  occ. eigenvalues --  -38.43799 -38.43702  -2.20448  -2.20409  -2.19945
  Beta  occ. eigenvalues --   -2.19931  -2.19776  -2.19579  -2.19498  -1.14201
  Beta  occ. eigenvalues --   -1.14138  -1.14113  -1.14090  -1.14055  -1.14020
  Beta  occ. eigenvalues --   -1.13664  -1.13631  -1.13617  -1.13598  -1.13589
  Beta  occ. eigenvalues --   -1.13566  -1.13462  -1.13448  -1.13424  -1.13249
  Beta  occ. eigenvalues --   -1.13238  -1.13205  -1.13185  -1.13164  -1.13133
  Beta  occ. eigenvalues --   -0.16586  -0.13193  -0.11566
  Beta virt. eigenvalues --   -0.07878  -0.05710  -0.05586  -0.04363  -0.03303
  Beta virt. eigenvalues --   -0.02485  -0.02123  -0.01595  -0.00929  -0.00564
  Beta virt. eigenvalues --   -0.00252  -0.00077   0.00271   0.00408   0.00456

 Mulliken charges and spin densities:
               1          2
     1  Na  -0.036836  -0.085019
     2  Na   0.672808   0.074438
     3  Na  -0.309072   0.146646
     4  Na   0.229984   0.055430
     5  Na   0.112552   0.046182
     6  Na  -0.633993   0.391269
     7  Na  -0.035443   0.371054
 Sum of Mulliken charges =  -0.00000   1.00000

 Dipole moment (field-independent basis, Debye):
    X=             -0.3073    Y=             -0.4654    Z=              0.3218  Tot=              0.6439
 Quadrupole moment (field-independent basis, Debye-Ang):
   XX=            -57.5041   YY=            -72.8000   ZZ=            -68.8882
   XY=             -2.9456   XZ=             -0.3553   YZ=             -0.7622

 Normal termination of Gaussian 16 at Mon Dec  4 03:14:59 2023.
