 Gaussian 16, Revision B.01,
 Gaussian 16:  ES64L-G16RevB.01 20-Dec-2017

 -------------------------
 #P B3LYP/6-311+g(d) force
 -------------------------

 -----
 DPGEN
 -----
 Symbolic Z-matrix:
 Charge =  0 Multiplicity = 2

                         Standard orientation:
 ---------------------------------------------------------------------
 Center     Atomic      Atomic             Coordinates (Angstroms)
 Number     Number       Type             X           Y           Z
 ---------------------------------------------------------------------
      1         11           0       -1.730914   -0.462572    1.557873
      2         11           0        3.915751   -0.435434   -1.118042
      3         11           0        0.150845    0.024839   -1.651032
      4         11           0       -3.656286   -1.374633   -0.888684
      5         11           0       -1.750614    2.349652   -0.259995
      6         11           0        1.495870   -1.866825    1.239341
      7         11           0        1.575348    1.764971    1.120540
 ---------------------------------------------------------------------

 SCF Done:  E(UB3LYP) =  -1136.12494216     A.U. after   24 cycles

 The electronic state is 2-A.
 Alpha  occ. eigenvalues --  -38.44769 -38.44728 -38.43924 -38.43904 -38.43716
 Alpha  occ. eigenvalues --  -38.43657 -38.43065  -2.20626  -2.20512  -2.19739
 Alpha  occ. eigenvalues --   -2.19714  -2.19559  -2.19546  -2.18920  -1.14327
 Alpha  occ. eigenvalues --   -1.14275  -1.14243  -1.14178  -1.14167  -1.14128
 Alpha  occ. eigenvalues --   -1.13428  -1.13405  -1.13402  -1.13368  -1.13358
 Alpha  occ. eigenvalues --   -1.13350  -1.13242  -1.13229  -1.13217  -1.13215
 Alpha  occ. eigenvalues --   -1.13168  -1.13155  -1.12611  -1.12594  -1.12523
 Alpha  occ. eigenvalues --   -0.18160  -0.13704  -0.11329  -0.10915
 Alpha virt. eigenvalues --   -0.06639  -0.05359  -0.04713  -0.03126  -0.02670
 Alpha virt. eigenvalues --   -0.02441  -0.02259  -0.01363  -0.00844  -0.00193
 Alpha virt. eigenvalues --    0.00117   0.00186   0.00276   0.00546   0.00565

  Beta  occ. eigenvalues --  -38.44729 -38.44695 -38.43916 -38.43860 -38.43697
  Beta  occ. eigenvalues --  -38.43621 -38.43062  -2.20554  -2.20450  -2.19699
  Beta  occ. eigenvalues --   -2.19660  -2.19514  -2.19495  -2.18916  -1.14270
  Beta  occ. eigenvalues --   -1.14227  -1.14186  -1.14133  -1.14121  -1.14090
  Beta  occ. eigenvalues --   -1.13394  -1.13375  -1.13358  -1.13341  -1.13340
  Beta  occ. eigenvalues --   -1.13282  -1.13206  -1.13198  -1.13174  -1.13166
  Beta  occ. eigenvalues --   -1.13140  -1.13111  -1.12599  -1.12594  -1.12516
  Beta  occ. eigenvalues --   -0.17436  -0.13473  -0.10814
  Beta virt. eigenvalues --   -0.07478  -0.06343  -0.05178  -0.04247  -0.02871
  Beta virt. eigenvalues --   -0.02288  -0.02024  -0.01646  -0.01102  -0.00637
  Beta virt. eigenvalues --   -0.00090   0.00164   0.00277   0.00364   0.00641

 Mulliken charges and spin densities:
               1          2
     1  Na   0.195471  -0.089271
     2  Na   0.320807   0.166905
     3  Na  -0.384446   0.312278
     4  Na  -0.028092   0.146073
     5  Na   0.102846   0.048424
     6  Na  -0.142001   0.238682
     7  Na  -0.064585   0.176909
 Sum of Mulliken charges =  -0.00000   1.00000

 Dipole moment (field-independent basis, Debye):
    X=              0.8041    Y=              0.2949    Z=             -0.3305  Tot=              0.9180
 Quadrupole moment (field-independent basis, Debye-Ang):
   XX=            -52.9562   YY=            -74.9050   ZZ=            -67.3729
   XY=             -0.8957   XZ=              1.0711   YZ=              1.5215

 Normal termination of Gaussian 16 at Tue Dec  5 18:01:56 2023.
