 Gaussian 16, Revision B.01,
 Gaussian 16:  ES64L-G16RevB.01 20-Dec-2017

 -------------------------
 #P B3LYP/6-311+g(d) force
 -------------------------

 -----
 DPGEN
 -----
 Symbolic Z-matrix:
 Charge =  0 Multiplicity = 2

                         Standard orientation:
 ---------------------------------------------------------------------
 Center     Atomic      Atomic             Coordinates (Angstroms)
 Number     Number       Type             X           Y           Z
 ---------------------------------------------------------------------
      1         11           0        3.368303   -0.891006   -0.049322
      2         11           0        0.064818    0.129325    2.260829
      3         11           0       -2.647104   -1.474421   -0.392837
      4         11           0       -3.462872    1.504076    0.107371
      5         11           0        2.023053    3.016632   -0.236911
      6         11           0        0.624178   -2.921274   -0.200413
      7         11           0        0.029623    0.636668   -1.488717
 ---------------------------------------------------------------------

 SCF Done:  E(UB3LYP) =  -1136.12424439     A.U. after   21 cycles

 The electronic state is 2-A.
 Alpha  occ. eigenvalues --  -38.45406 -38.45042 -38.43915 -38.43907 -38.43738
 Alpha  occ. eigenvalues --  -38.43657 -38.42994  -2.21165  -2.20828  -2.19769
 Alpha  occ. eigenvalues --   -2.19719  -2.19599  -2.19431  -2.18815  -1.14848
 Alpha  occ. eigenvalues --   -1.14824  -1.14795  -1.14517  -1.14483  -1.14466
 Alpha  occ. eigenvalues --   -1.13444  -1.13428  -1.13415  -1.13376  -1.13342
 Alpha  occ. eigenvalues --   -1.13333  -1.13299  -1.13256  -1.13226  -1.13097
 Alpha  occ. eigenvalues --   -1.13087  -1.13068  -1.12485  -1.12478  -1.12469
 Alpha  occ. eigenvalues --   -0.17646  -0.13310  -0.11810  -0.10378
 Alpha virt. eigenvalues --   -0.06909  -0.05494  -0.04520  -0.03245  -0.02584
 Alpha virt. eigenvalues --   -0.02487  -0.02354  -0.01410  -0.01074  -0.00449
 Alpha virt. eigenvalues --   -0.00124   0.00228   0.00566   0.00605   0.00668

  Beta  occ. eigenvalues --  -38.45406 -38.45044 -38.43905 -38.43791 -38.43698
  Beta  occ. eigenvalues --  -38.43657 -38.42989  -2.21167  -2.20833  -2.19753
  Beta  occ. eigenvalues --   -2.19528  -2.19504  -2.19432  -2.18809  -1.14837
  Beta  occ. eigenvalues --   -1.14825  -1.14800  -1.14522  -1.14475  -1.14467
  Beta  occ. eigenvalues --   -1.13431  -1.13408  -1.13398  -1.13253  -1.13222
  Beta  occ. eigenvalues --   -1.13207  -1.13192  -1.13183  -1.13177  -1.13091
  Beta  occ. eigenvalues --   -1.13082  -1.13068  -1.12481  -1.12472  -1.12452
  Beta  occ. eigenvalues --   -0.16975  -0.13191  -0.11636
  Beta virt. eigenvalues --   -0.06867  -0.06378  -0.05409  -0.04494  -0.02629
  Beta virt. eigenvalues --   -0.02233  -0.01870  -0.01550  -0.01250  -0.01078
  Beta virt. eigenvalues --   -0.00464   0.00075   0.00283   0.00639   0.00693

 Mulliken charges and spin densities:
               1          2
     1  Na   0.152804  -0.019402
     2  Na  -0.424786   0.727522
     3  Na   0.222147   0.089588
     4  Na   0.239459   0.028964
     5  Na  -0.026628  -0.049548
     6  Na  -0.068321   0.021990
     7  Na  -0.094673   0.200887
 Sum of Mulliken charges =  -0.00000   1.00000

 Dipole moment (field-independent basis, Debye):
    X=              0.0009    Y=              0.3810    Z=              0.0519  Tot=              0.3845
 Quadrupole moment (field-independent basis, Debye-Ang):
   XX=            -50.3908   YY=            -65.3859   ZZ=            -77.5372
   XY=             -2.7523   XZ=              0.3185   YZ=              1.4451

 Normal termination of Gaussian 16 at Thu Dec  7 04:14:52 2023.
