 Gaussian 16, Revision B.01,
 Gaussian 16:  ES64L-G16RevB.01 20-Dec-2017

 -------------------------
 #P B3LYP/6-311+g(d) force
 -------------------------

 -----
 DPGEN
 -----
 Symbolic Z-matrix:
 Charge =  0 Multiplicity = 2

                         Standard orientation:
 ---------------------------------------------------------------------
 Center     Atomic      Atomic             Coordinates (Angstroms)
 Number     Number       Type             X           Y           Z
 ---------------------------------------------------------------------
      1         11           0       -2.774627   -1.754446   -0.105279
      2         11           0        3.581563   -0.146814    0.471408
      3         11           0       -2.791824    1.845182    0.090101
      4         11           0       -0.464197    0.107449    2.124239
      5         11           0        1.275595   -2.113767   -0.311604
      6         11           0       -0.406878   -0.149030   -1.630520
      7         11           0        1.580368    2.211425   -0.638345
 ---------------------------------------------------------------------

 SCF Done:  E(UB3LYP) =  -1136.12256727     A.U. after   21 cycles

 The electronic state is 2-A.
 Alpha  occ. eigenvalues --  -38.44973 -38.44386 -38.44372 -38.44210 -38.43366
 Alpha  occ. eigenvalues --  -38.43364 -38.43103  -2.20805  -2.20229  -2.20198
 Alpha  occ. eigenvalues --   -2.20012  -2.19387  -2.19206  -2.19015  -1.14486
 Alpha  occ. eigenvalues --   -1.14456  -1.14449  -1.13902  -1.13892  -1.13869
 Alpha  occ. eigenvalues --   -1.13855  -1.13837  -1.13826  -1.13688  -1.13666
 Alpha  occ. eigenvalues --   -1.13655  -1.13165  -1.13041  -1.13010  -1.12877
 Alpha  occ. eigenvalues --   -1.12860  -1.12828  -1.12689  -1.12661  -1.12617
 Alpha  occ. eigenvalues --   -0.18588  -0.13849  -0.11388  -0.10966
 Alpha virt. eigenvalues --   -0.06657  -0.05621  -0.03867  -0.03307  -0.02816
 Alpha virt. eigenvalues --   -0.02491  -0.02226  -0.01341  -0.00491  -0.00110
 Alpha virt. eigenvalues --    0.00078   0.00240   0.00565   0.00633   0.00795

  Beta  occ. eigenvalues --  -38.44969 -38.44367 -38.44300 -38.44212 -38.43347
  Beta  occ. eigenvalues --  -38.43292 -38.43094  -2.20798  -2.20193  -2.20070
  Beta  occ. eigenvalues --   -2.20018  -2.19252  -2.19178  -2.19004  -1.14484
  Beta  occ. eigenvalues --   -1.14449  -1.14437  -1.13880  -1.13846  -1.13823
  Beta  occ. eigenvalues --   -1.13791  -1.13748  -1.13736  -1.13679  -1.13664
  Beta  occ. eigenvalues --   -1.13655  -1.13085  -1.12955  -1.12917  -1.12838
  Beta  occ. eigenvalues --   -1.12821  -1.12812  -1.12668  -1.12623  -1.12613
  Beta  occ. eigenvalues --   -0.17865  -0.13659  -0.11114
  Beta virt. eigenvalues --   -0.07117  -0.06429  -0.05643  -0.03472  -0.02970
  Beta virt. eigenvalues --   -0.02155  -0.01853  -0.01652  -0.01242  -0.00466
  Beta virt. eigenvalues --    0.00029   0.00058   0.00273   0.00700   0.00797

 Mulliken charges and spin densities:
               1          2
     1  Na   0.160645  -0.045768
     2  Na  -0.174856   0.068562
     3  Na   0.022878  -0.054913
     4  Na  -0.548780   0.686041
     5  Na   0.386572   0.105209
     6  Na  -0.112489   0.174972
     7  Na   0.266030   0.065897
 Sum of Mulliken charges =  -0.00000   1.00000

 Dipole moment (field-independent basis, Debye):
    X=             -0.2607    Y=             -0.0027    Z=              0.5265  Tot=              0.5875
 Quadrupole moment (field-independent basis, Debye-Ang):
   XX=            -47.9337   YY=            -71.9533   ZZ=            -73.2690
   XY=              0.5117   XZ=              1.6150   YZ=             -0.9995

 Normal termination of Gaussian 16 at Fri Dec  8 04:33:28 2023.
