 Gaussian 16, Revision B.01,
 Gaussian 16:  ES64L-G16RevB.01 20-Dec-2017

 -------------------------
 #P B3LYP/6-311+g(d) force
 -------------------------

 -----
 DPGEN
 -----
 Symbolic Z-matrix:
 Charge =  0 Multiplicity = 2

                         Standard orientation:
 ---------------------------------------------------------------------
 Center     Atomic      Atomic             Coordinates (Angstroms)
 Number     Number       Type             X           Y           Z
 ---------------------------------------------------------------------
      1         11           0        0.123155   -0.246717    1.832247
      2         11           0        2.227345    1.865736   -0.163003
      3         11           0        2.423107   -1.318392    0.049051
      4         11           0       -0.687489   -2.540159    0.027107
      5         11           0       -3.050908   -0.214763   -0.230130
      6         11           0        0.226306   -0.158667   -1.731695
      7         11           0       -1.261517    2.612962    0.216423
 ---------------------------------------------------------------------

 SCF Done:  E(UB3LYP) =  -1136.13392893     A.U. after   19 cycles

 The electronic state is 2-A.
 Alpha  occ. eigenvalues --  -38.43849 -38.43503 -38.43488 -38.43391 -38.43390
 Alpha  occ. eigenvalues --  -38.43303 -38.43082  -2.19703  -2.19490  -2.19407
 Alpha  occ. eigenvalues --   -2.19383  -2.19345  -2.19232  -2.19059  -1.13373
 Alpha  occ. eigenvalues --   -1.13365  -1.13358  -1.13293  -1.13206  -1.13163
 Alpha  occ. eigenvalues --   -1.13098  -1.13082  -1.13054  -1.13022  -1.13014
 Alpha  occ. eigenvalues --   -1.12996  -1.12992  -1.12957  -1.12936  -1.12902
 Alpha  occ. eigenvalues --   -1.12892  -1.12866  -1.12723  -1.12707  -1.12658
 Alpha  occ. eigenvalues --   -0.19540  -0.13283  -0.12673  -0.11034
 Alpha virt. eigenvalues --   -0.05383  -0.05028  -0.04547  -0.03248  -0.02930
 Alpha virt. eigenvalues --   -0.02540  -0.01337  -0.00935  -0.00141   0.00020
 Alpha virt. eigenvalues --    0.00048   0.00360   0.00885   0.00955   0.00967

  Beta  occ. eigenvalues --  -38.43847 -38.43491 -38.43482 -38.43388 -38.43302
  Beta  occ. eigenvalues --  -38.43224 -38.43071  -2.19700  -2.19473  -2.19376
  Beta  occ. eigenvalues --   -2.19246  -2.19230  -2.19202  -2.19043  -1.13369
  Beta  occ. eigenvalues --   -1.13363  -1.13343  -1.13266  -1.13150  -1.13135
  Beta  occ. eigenvalues --   -1.13060  -1.13016  -1.13010  -1.12995  -1.12939
  Beta  occ. eigenvalues --   -1.12925  -1.12904  -1.12887  -1.12871  -1.12867
  Beta  occ. eigenvalues --   -1.12862  -1.12834  -1.12702  -1.12659  -1.12639
  Beta  occ. eigenvalues --   -0.18779  -0.13007  -0.12393
  Beta virt. eigenvalues --   -0.07042  -0.05359  -0.05019  -0.04536  -0.02417
  Beta virt. eigenvalues --   -0.02115  -0.01468  -0.01259  -0.00880  -0.00165
  Beta virt. eigenvalues --   -0.00015   0.00136   0.00382   0.00927   0.00949

 Mulliken charges and spin densities:
               1          2
     1  Na  -0.555986   0.705212
     2  Na   0.024055  -0.082027
     3  Na   0.681602  -0.011302
     4  Na   0.493404  -0.052618
     5  Na  -0.086166  -0.079011
     6  Na  -0.530610   0.613309
     7  Na  -0.026299  -0.093563
 Sum of Mulliken charges =  -0.00000   1.00000

 Dipole moment (field-independent basis, Debye):
    X=             -0.1385    Y=              0.1686    Z=              0.0233  Tot=              0.2194
 Quadrupole moment (field-independent basis, Debye-Ang):
   XX=            -57.4993   YY=            -63.5626   ZZ=            -73.1852
   XY=              0.3855   XZ=              0.3689   YZ=              0.2449

 Normal termination of Gaussian 16 at Sat Dec  9 05:52:45 2023.
