 Gaussian 16, Revision B.01,
 Gaussian 16:  ES64L-G16RevB.01 20-Dec-2017

 -------------------------
 #P B3LYP/6-311+g(d) force
 -------------------------

 -----
 DPGEN
 -----
 Symbolic Z-matrix:
 Charge =  0 Multiplicity = 2

                         Standard orientation:
 ---------------------------------------------------------------------
 Center     Atomic      Atomic             Coordinates (Angstroms)
 Number     Number       Type             X           Y           Z
 ---------------------------------------------------------------------
      1         11           0       -2.257573   -1.953712    0.252084
      2         11           0        3.157237    0.343662    0.054550
      3         11           0        0.413718    0.236875   -1.629945
      4         11           0        1.320594   -2.741187   -0.322892
      5         11           0        0.373326    3.106291    0.315339
      6         11           0       -0.226170   -0.129066    1.988760
      7         11           0       -2.781132    1.137136   -0.657895
 ---------------------------------------------------------------------

 SCF Done:  E(UB3LYP) =  -1136.13794313     A.U. after   19 cycles

 The electronic state is 2-A.
 Alpha  occ. eigenvalues --  -38.44197 -38.43728 -38.43675 -38.43614 -38.43555
 Alpha  occ. eigenvalues --  -38.43468 -38.43203  -2.20018  -2.19572  -2.19480
 Alpha  occ. eigenvalues --   -2.19453  -2.19440  -2.19333  -2.19163  -1.13717
 Alpha  occ. eigenvalues --   -1.13680  -1.13639  -1.13260  -1.13235  -1.13210
 Alpha  occ. eigenvalues --   -1.13157  -1.13150  -1.13149  -1.13133  -1.13115
 Alpha  occ. eigenvalues --   -1.13104  -1.13093  -1.13072  -1.13064  -1.12987
 Alpha  occ. eigenvalues --   -1.12980  -1.12960  -1.12844  -1.12803  -1.12782
 Alpha  occ. eigenvalues --   -0.18473  -0.12978  -0.12418  -0.10714
 Alpha virt. eigenvalues --   -0.05641  -0.04997  -0.04950  -0.03215  -0.02955
 Alpha virt. eigenvalues --   -0.02480  -0.01462  -0.01246  -0.00443  -0.00354
 Alpha virt. eigenvalues --    0.00007   0.00363   0.00814   0.00860   0.00875

  Beta  occ. eigenvalues --  -38.44195 -38.43709 -38.43669 -38.43608 -38.43465
  Beta  occ. eigenvalues --  -38.43462 -38.43145  -2.20018  -2.19540  -2.19472
  Beta  occ. eigenvalues --   -2.19434  -2.19326  -2.19286  -2.19059  -1.13710
  Beta  occ. eigenvalues --   -1.13673  -1.13636  -1.13238  -1.13201  -1.13186
  Beta  occ. eigenvalues --   -1.13144  -1.13133  -1.13123  -1.13108  -1.13092
  Beta  occ. eigenvalues --   -1.13068  -1.13056  -1.12993  -1.12964  -1.12963
  Beta  occ. eigenvalues --   -1.12952  -1.12917  -1.12771  -1.12728  -1.12704
  Beta  occ. eigenvalues --   -0.17765  -0.12726  -0.12178
  Beta virt. eigenvalues --   -0.06858  -0.05629  -0.04918  -0.04877  -0.02467
  Beta virt. eigenvalues --   -0.02220  -0.01477  -0.01360  -0.01165  -0.00452
  Beta virt. eigenvalues --   -0.00387   0.00131   0.00394   0.00820   0.00887

 Mulliken charges and spin densities:
               1          2
     1  Na   0.205341   0.025257
     2  Na   0.074441  -0.069471
     3  Na  -0.023401   0.405275
     4  Na   0.019482  -0.076210
     5  Na  -0.037614  -0.009941
     6  Na  -0.284576   0.696009
     7  Na   0.046326   0.029080
 Sum of Mulliken charges =  -0.00000   1.00000

 Dipole moment (field-independent basis, Debye):
    X=              0.3410    Y=              0.1012    Z=              0.1062  Tot=              0.3712
 Quadrupole moment (field-independent basis, Debye-Ang):
   XX=            -58.0420   YY=            -60.8345   ZZ=            -74.3807
   XY=              0.1256   XZ=              1.6257   YZ=              0.8076

 Normal termination of Gaussian 16 at Thu Dec  7 07:47:35 2023.
