 Gaussian 16, Revision B.01,
 Gaussian 16:  ES64L-G16RevB.01 20-Dec-2017

 -------------------------
 #P B3LYP/6-311+g(d) force
 -------------------------

 -----
 DPGEN
 -----
 Symbolic Z-matrix:
 Charge =  0 Multiplicity = 2

                         Standard orientation:
 ---------------------------------------------------------------------
 Center     Atomic      Atomic             Coordinates (Angstroms)
 Number     Number       Type             X           Y           Z
 ---------------------------------------------------------------------
      1         11           0       -1.206297    2.501004   -0.446443
      2         11           0        0.761467    2.823393    1.707184
      3         11           0        3.116401   -2.624885   -0.691301
      4         11           0        2.242389    1.189366   -1.778593
      5         11           0       -2.102494   -2.727567    1.011553
      6         11           0        1.096261   -0.777894    1.439475
      7         11           0       -3.907726   -0.383417   -1.241875
 ---------------------------------------------------------------------

 SCF Done:  E(UB3LYP) =  -1136.11328779     A.U. after   20 cycles

 The electronic state is 2-A.
 Alpha  occ. eigenvalues --  -38.45218 -38.44606 -38.44519 -38.44357 -38.44109
 Alpha  occ. eigenvalues --  -38.44099 -38.43814  -2.20980  -2.20351  -2.20252
 Alpha  occ. eigenvalues --   -2.20185  -2.19964  -2.19858  -2.19638  -1.14662
 Alpha  occ. eigenvalues --   -1.14627  -1.14579  -1.14029  -1.14013  -1.13992
 Alpha  occ. eigenvalues --   -1.13969  -1.13935  -1.13921  -1.13881  -1.13844
 Alpha  occ. eigenvalues --   -1.13819  -1.13602  -1.13599  -1.13559  -1.13530
 Alpha  occ. eigenvalues --   -1.13512  -1.13484  -1.13321  -1.13287  -1.13270
 Alpha  occ. eigenvalues --   -0.16775  -0.12628  -0.12575  -0.10864
 Alpha virt. eigenvalues --   -0.06679  -0.05611  -0.05238  -0.03362  -0.03110
 Alpha virt. eigenvalues --   -0.02484  -0.01761  -0.01224  -0.01044  -0.00593
 Alpha virt. eigenvalues --   -0.00476  -0.00146   0.00085   0.00371   0.00628

  Beta  occ. eigenvalues --  -38.45152 -38.44616 -38.44517 -38.44348 -38.44081
  Beta  occ. eigenvalues --  -38.44062 -38.43771  -2.20858  -2.20369  -2.20250
  Beta  occ. eigenvalues --   -2.20170  -2.19895  -2.19804  -2.19559  -1.14577
  Beta  occ. eigenvalues --   -1.14544  -1.14492  -1.14042  -1.14024  -1.13999
  Beta  occ. eigenvalues --   -1.13937  -1.13932  -1.13918  -1.13875  -1.13835
  Beta  occ. eigenvalues --   -1.13809  -1.13557  -1.13543  -1.13515  -1.13493
  Beta  occ. eigenvalues --   -1.13472  -1.13451  -1.13269  -1.13228  -1.13207
  Beta  occ. eigenvalues --   -0.16139  -0.12529  -0.12271
  Beta virt. eigenvalues --   -0.07489  -0.06225  -0.05114  -0.04923  -0.02980
  Beta virt. eigenvalues --   -0.02763  -0.02062  -0.01561  -0.01121  -0.00802
  Beta virt. eigenvalues --   -0.00419  -0.00205   0.00004   0.00291   0.00460

 Mulliken charges and spin densities:
               1          2
     1  Na  -0.453362   0.211375
     2  Na   0.544728   0.071982
     3  Na   0.146856   0.019385
     4  Na  -0.240434   0.379507
     5  Na  -0.018456  -0.010115
     6  Na   0.019834   0.188153
     7  Na   0.000834   0.139713
 Sum of Mulliken charges =  -0.00000   1.00000

 Dipole moment (field-independent basis, Debye):
    X=              0.8243    Y=              0.0196    Z=             -0.2910  Tot=              0.8744
 Quadrupole moment (field-independent basis, Debye-Ang):
   XX=            -66.0610   YY=            -61.1234   ZZ=            -69.5287
   XY=             -1.1914   XZ=              0.3518   YZ=              0.6823

 Normal termination of Gaussian 16 at Mon Dec  4 02:36:53 2023.
