 Gaussian 16, Revision B.01,
 Gaussian 16:  ES64L-G16RevB.01 20-Dec-2017

 -------------------------
 #P B3LYP/6-311+g(d) force
 -------------------------

 -----
 DPGEN
 -----
 Symbolic Z-matrix:
 Charge =  0 Multiplicity = 2

                         Standard orientation:
 ---------------------------------------------------------------------
 Center     Atomic      Atomic             Coordinates (Angstroms)
 Number     Number       Type             X           Y           Z
 ---------------------------------------------------------------------
      1         11           0        3.287098    0.077353   -0.226013
      2         11           0       -0.006429   -0.177076    2.050264
      3         11           0       -2.646538    1.788579   -0.015889
      4         11           0        0.152239    0.063529   -1.560502
      5         11           0       -2.529868   -1.960317   -0.341067
      6         11           0        0.749915    2.862396    0.015753
      7         11           0        0.993583   -2.654463    0.077454
 ---------------------------------------------------------------------

 SCF Done:  E(UB3LYP) =  -1136.13896993     A.U. after   20 cycles

 The electronic state is 2-A.
 Alpha  occ. eigenvalues --  -38.44035 -38.43946 -38.43803 -38.43537 -38.43464
 Alpha  occ. eigenvalues --  -38.43430 -38.43090  -2.19849  -2.19748  -2.19609
 Alpha  occ. eigenvalues --   -2.19377  -2.19352  -2.19308  -2.19071  -1.13527
 Alpha  occ. eigenvalues --   -1.13501  -1.13494  -1.13424  -1.13409  -1.13390
 Alpha  occ. eigenvalues --   -1.13286  -1.13264  -1.13252  -1.13082  -1.13060
 Alpha  occ. eigenvalues --   -1.13047  -1.13002  -1.12996  -1.12994  -1.12966
 Alpha  occ. eigenvalues --   -1.12941  -1.12917  -1.12758  -1.12708  -1.12681
 Alpha  occ. eigenvalues --   -0.18495  -0.12780  -0.12581  -0.10547
 Alpha virt. eigenvalues --   -0.05606  -0.05353  -0.04817  -0.02960  -0.02890
 Alpha virt. eigenvalues --   -0.02428  -0.01638  -0.01236  -0.00491  -0.00450
 Alpha virt. eigenvalues --   -0.00010   0.00336   0.00771   0.00848   0.00867

  Beta  occ. eigenvalues --  -38.44031 -38.43946 -38.43797 -38.43533 -38.43422
  Beta  occ. eigenvalues --  -38.43364 -38.43034  -2.19844  -2.19749  -2.19600
  Beta  occ. eigenvalues --   -2.19372  -2.19297  -2.19169  -2.18968  -1.13512
  Beta  occ. eigenvalues --   -1.13494  -1.13489  -1.13414  -1.13407  -1.13391
  Beta  occ. eigenvalues --   -1.13267  -1.13255  -1.13246  -1.13075  -1.13023
  Beta  occ. eigenvalues --   -1.13018  -1.12994  -1.12954  -1.12916  -1.12889
  Beta  occ. eigenvalues --   -1.12837  -1.12831  -1.12685  -1.12637  -1.12604
  Beta  occ. eigenvalues --   -0.17778  -0.12558  -0.12342
  Beta virt. eigenvalues --   -0.06641  -0.05577  -0.05346  -0.04760  -0.02219
  Beta virt. eigenvalues --   -0.02123  -0.01547  -0.01368  -0.01170  -0.00539
  Beta virt. eigenvalues --   -0.00492   0.00135   0.00369   0.00828   0.00846

 Mulliken charges and spin densities:
               1          2
     1  Na   0.196874  -0.050406
     2  Na  -0.407613   0.744287
     3  Na   0.029316  -0.069288
     4  Na  -0.286269   0.499054
     5  Na   0.048076  -0.044806
     6  Na   0.097910  -0.078349
     7  Na   0.321706  -0.000492
 Sum of Mulliken charges =  -0.00000   1.00000

 Dipole moment (field-independent basis, Debye):
    X=              0.0073    Y=              0.0785    Z=              0.1010  Tot=              0.1281
 Quadrupole moment (field-independent basis, Debye-Ang):
   XX=            -55.1569   YY=            -61.6232   ZZ=            -75.5890
   XY=              0.1415   XZ=              0.2628   YZ=              0.6821

 Normal termination of Gaussian 16 at Thu Dec  7 04:09:58 2023.
