 Gaussian 16, Revision B.01,
 Gaussian 16:  ES64L-G16RevB.01 20-Dec-2017

 -------------------------
 #P B3LYP/6-311+g(d) force
 -------------------------

 -----
 DPGEN
 -----
 Symbolic Z-matrix:
 Charge =  0 Multiplicity = 2

                         Standard orientation:
 ---------------------------------------------------------------------
 Center     Atomic      Atomic             Coordinates (Angstroms)
 Number     Number       Type             X           Y           Z
 ---------------------------------------------------------------------
      1         11           0       -0.105524    0.052719   -1.425737
      2         11           0        2.407370   -2.150829   -0.197504
      3         11           0       -3.184769    0.099363   -0.110450
      4         11           0       -0.613329    3.192755   -0.237249
      5         11           0       -1.192209   -2.767712   -0.081829
      6         11           0       -0.130436    0.094169    2.053466
      7         11           0        2.818897    1.479535   -0.000697
 ---------------------------------------------------------------------

 SCF Done:  E(UB3LYP) =  -1136.13776381     A.U. after   19 cycles

 The electronic state is 2-A.
 Alpha  occ. eigenvalues --  -38.44114 -38.44033 -38.43961 -38.43757 -38.43658
 Alpha  occ. eigenvalues --  -38.43313 -38.42901  -2.19910  -2.19858  -2.19756
 Alpha  occ. eigenvalues --   -2.19560  -2.19506  -2.19187  -2.18890  -1.13590
 Alpha  occ. eigenvalues --   -1.13575  -1.13543  -1.13542  -1.13519  -1.13494
 Alpha  occ. eigenvalues --   -1.13439  -1.13413  -1.13390  -1.13236  -1.13222
 Alpha  occ. eigenvalues --   -1.13206  -1.13193  -1.13168  -1.13128  -1.12865
 Alpha  occ. eigenvalues --   -1.12805  -1.12800  -1.12591  -1.12525  -1.12515
 Alpha  occ. eigenvalues --   -0.18323  -0.12802  -0.12532  -0.10265
 Alpha virt. eigenvalues --   -0.05723  -0.05309  -0.05157  -0.02891  -0.02714
 Alpha virt. eigenvalues --   -0.02267  -0.01550  -0.01454  -0.00736  -0.00644
 Alpha virt. eigenvalues --    0.00006   0.00331   0.00777   0.00806   0.00826

  Beta  occ. eigenvalues --  -38.44112 -38.44029 -38.43956 -38.43755 -38.43652
  Beta  occ. eigenvalues --  -38.43210 -38.42851  -2.19909  -2.19853  -2.19750
  Beta  occ. eigenvalues --   -2.19557  -2.19499  -2.18997  -2.18801  -1.13580
  Beta  occ. eigenvalues --   -1.13565  -1.13546  -1.13534  -1.13497  -1.13494
  Beta  occ. eigenvalues --   -1.13425  -1.13401  -1.13388  -1.13227  -1.13214
  Beta  occ. eigenvalues --   -1.13205  -1.13187  -1.13142  -1.13127  -1.12738
  Beta  occ. eigenvalues --   -1.12672  -1.12664  -1.12518  -1.12459  -1.12448
  Beta  occ. eigenvalues --   -0.17621  -0.12597  -0.12308
  Beta virt. eigenvalues --   -0.06359  -0.05723  -0.05309  -0.05077  -0.02138
  Beta virt. eigenvalues --   -0.02010  -0.01468  -0.01375  -0.01191  -0.00785
  Beta virt. eigenvalues --   -0.00696   0.00162   0.00375   0.00789   0.00824

 Mulliken charges and spin densities:
               1          2
     1  Na  -0.416267   0.359870
     2  Na   0.082682  -0.029246
     3  Na   0.285947  -0.030657
     4  Na   0.119170  -0.067655
     5  Na   0.263123   0.009157
     6  Na  -0.447604   0.803045
     7  Na   0.112951  -0.044514
 Sum of Mulliken charges =  -0.00000   1.00000

 Dipole moment (field-independent basis, Debye):
    X=             -0.0435    Y=              0.1868    Z=              0.0959  Tot=              0.2144
 Quadrupole moment (field-independent basis, Debye-Ang):
   XX=            -56.0785   YY=            -58.0109   ZZ=            -77.3593
   XY=             -0.0344   XZ=              0.1126   YZ=             -0.0666

 Normal termination of Gaussian 16 at Thu Dec  7 04:33:28 2023.
