 Gaussian 16, Revision B.01,
 Gaussian 16:  ES64L-G16RevB.01 20-Dec-2017

 -------------------------
 #P B3LYP/6-311+g(d) force
 -------------------------

 -----
 DPGEN
 -----
 Symbolic Z-matrix:
 Charge =  0 Multiplicity = 2

                         Standard orientation:
 ---------------------------------------------------------------------
 Center     Atomic      Atomic             Coordinates (Angstroms)
 Number     Number       Type             X           Y           Z
 ---------------------------------------------------------------------
      1         11           0        0.497444   -0.128446    1.673382
      2         11           0        0.486176    2.431996   -0.465058
      3         11           0        3.505623    0.684039    0.323959
      4         11           0       -3.771727    0.912859    0.466431
      5         11           0        1.924246   -1.657501   -0.765848
      6         11           0       -1.247405   -0.077839   -1.552321
      7         11           0       -1.394357   -2.165107    0.319455
 ---------------------------------------------------------------------

 SCF Done:  E(UB3LYP) =  -1136.11650182     A.U. after   25 cycles

 The electronic state is 2-A.
 Alpha  occ. eigenvalues --  -38.45377 -38.44751 -38.43942 -38.43503 -38.43348
 Alpha  occ. eigenvalues --  -38.43207 -38.43156  -2.21141  -2.20614  -2.19921
 Alpha  occ. eigenvalues --   -2.19428  -2.19231  -2.19198  -2.19112  -1.14819
 Alpha  occ. eigenvalues --   -1.14789  -1.14770  -1.14331  -1.14267  -1.14229
 Alpha  occ. eigenvalues --   -1.13630  -1.13572  -1.13548  -1.13142  -1.13107
 Alpha  occ. eigenvalues --   -1.13076  -1.13062  -1.12961  -1.12881  -1.12846
 Alpha  occ. eigenvalues --   -1.12814  -1.12793  -1.12777  -1.12674  -1.12660
 Alpha  occ. eigenvalues --   -0.18973  -0.13972  -0.11608  -0.10549
 Alpha virt. eigenvalues --   -0.07283  -0.04953  -0.03956  -0.03369  -0.02871
 Alpha virt. eigenvalues --   -0.02239  -0.02046  -0.01236  -0.00407  -0.00069
 Alpha virt. eigenvalues --    0.00029   0.00174   0.00461   0.00810   0.00874

  Beta  occ. eigenvalues --  -38.45364 -38.44747 -38.43887 -38.43486 -38.43329
  Beta  occ. eigenvalues --  -38.43145 -38.43144  -2.21115  -2.20608  -2.19821
  Beta  occ. eigenvalues --   -2.19402  -2.19167  -2.19131  -2.19084  -1.14799
  Beta  occ. eigenvalues --   -1.14768  -1.14753  -1.14329  -1.14247  -1.14226
  Beta  occ. eigenvalues --   -1.13559  -1.13500  -1.13474  -1.13094  -1.13086
  Beta  occ. eigenvalues --   -1.13052  -1.13021  -1.12918  -1.12840  -1.12798
  Beta  occ. eigenvalues --   -1.12775  -1.12751  -1.12717  -1.12640  -1.12617
  Beta  occ. eigenvalues --   -0.18268  -0.13755  -0.11342
  Beta virt. eigenvalues --   -0.07134  -0.06698  -0.04905  -0.03654  -0.02979
  Beta virt. eigenvalues --   -0.02599  -0.01682  -0.01192  -0.01088  -0.00212
  Beta virt. eigenvalues --   -0.00005   0.00052   0.00200   0.00604   0.00837

 Mulliken charges and spin densities:
               1          2
     1  Na  -0.452195   0.448465
     2  Na  -0.204053   0.032702
     3  Na   0.505892   0.013966
     4  Na   0.023271   0.092299
     5  Na  -0.063533   0.130301
     6  Na  -0.177485   0.063614
     7  Na   0.368103   0.218654
 Sum of Mulliken charges =  -0.00000   1.00000

 Dipole moment (field-independent basis, Debye):
    X=             -0.0832    Y=              0.2521    Z=              0.1484  Tot=              0.3042
 Quadrupole moment (field-independent basis, Debye-Ang):
   XX=            -45.7355   YY=            -72.3136   ZZ=            -73.5249
   XY=             -0.6141   XZ=             -2.4621   YZ=              1.4369

 Normal termination of Gaussian 16 at Tue Dec  5 18:25:16 2023.
