 Gaussian 16, Revision B.01,
 Gaussian 16:  ES64L-G16RevB.01 20-Dec-2017

 -------------------------
 #P B3LYP/6-311+g(d) force
 -------------------------

 -----
 DPGEN
 -----
 Symbolic Z-matrix:
 Charge =  0 Multiplicity = 2

                         Standard orientation:
 ---------------------------------------------------------------------
 Center     Atomic      Atomic             Coordinates (Angstroms)
 Number     Number       Type             X           Y           Z
 ---------------------------------------------------------------------
      1         11           0       -0.233731   -0.288044   -1.811284
      2         11           0       -2.245454   -2.188657    0.224134
      3         11           0       -0.007259   -0.240425    1.830069
      4         11           0       -2.684556    1.497536   -0.102247
      5         11           0        1.776294   -2.192504   -0.223981
      6         11           0        0.469132    2.870487    0.011051
      7         11           0        2.925575    0.541608    0.072259
 ---------------------------------------------------------------------

 SCF Done:  E(UB3LYP) =  -1136.13739144     A.U. after   19 cycles

 The electronic state is 2-A.
 Alpha  occ. eigenvalues --  -38.43997 -38.43803 -38.43728 -38.43574 -38.43327
 Alpha  occ. eigenvalues --  -38.43318 -38.43181  -2.19826  -2.19635  -2.19629
 Alpha  occ. eigenvalues --   -2.19500  -2.19277  -2.19271  -2.19028  -1.13507
 Alpha  occ. eigenvalues --   -1.13493  -1.13459  -1.13413  -1.13317  -1.13303
 Alpha  occ. eigenvalues --   -1.13284  -1.13277  -1.13267  -1.13189  -1.13151
 Alpha  occ. eigenvalues --   -1.13087  -1.12961  -1.12931  -1.12901  -1.12896
 Alpha  occ. eigenvalues --   -1.12893  -1.12886  -1.12696  -1.12694  -1.12672
 Alpha  occ. eigenvalues --   -0.18934  -0.13227  -0.12482  -0.10785
 Alpha virt. eigenvalues --   -0.05529  -0.05338  -0.04568  -0.03285  -0.02844
 Alpha virt. eigenvalues --   -0.02506  -0.01451  -0.01185  -0.00259  -0.00230
 Alpha virt. eigenvalues --    0.00003   0.00366   0.00810   0.00872   0.00927

  Beta  occ. eigenvalues --  -38.43993 -38.43797 -38.43724 -38.43563 -38.43246
  Beta  occ. eigenvalues --  -38.43240 -38.43179  -2.19823  -2.19627  -2.19625
  Beta  occ. eigenvalues --   -2.19484  -2.19130  -2.19125  -2.19027  -1.13497
  Beta  occ. eigenvalues --   -1.13479  -1.13460  -1.13412  -1.13304  -1.13283
  Beta  occ. eigenvalues --   -1.13279  -1.13265  -1.13246  -1.13170  -1.13107
  Beta  occ. eigenvalues --   -1.13083  -1.12868  -1.12834  -1.12798  -1.12790
  Beta  occ. eigenvalues --   -1.12786  -1.12782  -1.12695  -1.12682  -1.12664
  Beta  occ. eigenvalues --   -0.18193  -0.12975  -0.12235
  Beta virt. eigenvalues --   -0.06863  -0.05531  -0.05292  -0.04540  -0.02459
  Beta virt. eigenvalues --   -0.02084  -0.01455  -0.01353  -0.01120  -0.00321
  Beta virt. eigenvalues --   -0.00273   0.00134   0.00389   0.00863   0.00872

 Mulliken charges and spin densities:
               1          2
     1  Na  -0.327273   0.625639
     2  Na   0.149236  -0.135313
     3  Na  -0.395453   0.710111
     4  Na   0.021905  -0.097750
     5  Na   0.544592  -0.009936
     6  Na  -0.008447  -0.076962
     7  Na   0.015441  -0.015789
 Sum of Mulliken charges =  -0.00000   1.00000

 Dipole moment (field-independent basis, Debye):
    X=             -0.3692    Y=             -0.1204    Z=              0.0243  Tot=              0.3891
 Quadrupole moment (field-independent basis, Debye-Ang):
   XX=            -56.7896   YY=            -62.7591   ZZ=            -74.3228
   XY=              0.4460   XZ=             -0.3149   YZ=             -0.1083

 Normal termination of Gaussian 16 at Mon Dec  4 02:46:32 2023.
