 Gaussian 16, Revision B.01,
 Gaussian 16:  ES64L-G16RevB.01 20-Dec-2017

 -------------------------
 #P B3LYP/6-311+g(d) force
 -------------------------

 -----
 DPGEN
 -----
 Symbolic Z-matrix:
 Charge =  0 Multiplicity = 2

                         Standard orientation:
 ---------------------------------------------------------------------
 Center     Atomic      Atomic             Coordinates (Angstroms)
 Number     Number       Type             X           Y           Z
 ---------------------------------------------------------------------
      1         11           0        3.490997    1.118107   -0.014918
      2         11           0        1.876439   -2.206727   -0.068175
      3         11           0       -2.837745    0.520391    0.032684
      4         11           0        0.001025    0.287354    2.009208
      5         11           0       -0.030673   -0.186171   -1.674085
      6         11           0       -1.651004   -2.624494    0.027919
      7         11           0       -0.849039    3.091540   -0.312633
 ---------------------------------------------------------------------

 SCF Done:  E(UB3LYP) =  -1136.13386153     A.U. after   21 cycles

 The electronic state is 2-A.
 Alpha  occ. eigenvalues --  -38.44591 -38.43839 -38.43757 -38.43681 -38.43618
 Alpha  occ. eigenvalues --  -38.43338 -38.43313  -2.20331  -2.19686  -2.19585
 Alpha  occ. eigenvalues --   -2.19575  -2.19487  -2.19287  -2.19170  -1.14008
 Alpha  occ. eigenvalues --   -1.13993  -1.13969  -1.13406  -1.13357  -1.13304
 Alpha  occ. eigenvalues --   -1.13291  -1.13267  -1.13258  -1.13235  -1.13224
 Alpha  occ. eigenvalues --   -1.13172  -1.13157  -1.13109  -1.13102  -1.12974
 Alpha  occ. eigenvalues --   -1.12923  -1.12913  -1.12832  -1.12822  -1.12812
 Alpha  occ. eigenvalues --   -0.18428  -0.13000  -0.12271  -0.10547
 Alpha virt. eigenvalues --   -0.06079  -0.05163  -0.04771  -0.03144  -0.02800
 Alpha virt. eigenvalues --   -0.02422  -0.01738  -0.01291  -0.00601  -0.00393
 Alpha virt. eigenvalues --   -0.00022   0.00330   0.00731   0.00822   0.00838

  Beta  occ. eigenvalues --  -38.44597 -38.43833 -38.43751 -38.43672 -38.43526
  Beta  occ. eigenvalues --  -38.43309 -38.43272  -2.20343  -2.19677  -2.19573
  Beta  occ. eigenvalues --   -2.19567  -2.19318  -2.19167  -2.19166  -1.14006
  Beta  occ. eigenvalues --   -1.14002  -1.13977  -1.13393  -1.13331  -1.13299
  Beta  occ. eigenvalues --   -1.13290  -1.13262  -1.13223  -1.13216  -1.13201
  Beta  occ. eigenvalues --   -1.13168  -1.13047  -1.12991  -1.12979  -1.12898
  Beta  occ. eigenvalues --   -1.12850  -1.12835  -1.12824  -1.12802  -1.12779
  Beta  occ. eigenvalues --   -0.17679  -0.12783  -0.12081
  Beta virt. eigenvalues --   -0.06634  -0.06061  -0.05058  -0.04775  -0.02369
  Beta virt. eigenvalues --   -0.02078  -0.01714  -0.01356  -0.01196  -0.00643
  Beta virt. eigenvalues --   -0.00436   0.00128   0.00359   0.00753   0.00842

 Mulliken charges and spin densities:
               1          2
     1  Na  -0.092228  -0.133703
     2  Na   0.137277  -0.051761
     3  Na   0.385334   0.109746
     4  Na  -0.441289   0.688699
     5  Na  -0.101182   0.479330
     6  Na   0.128088   0.008659
     7  Na  -0.015999  -0.100970
 Sum of Mulliken charges =  -0.00000   1.00000

 Dipole moment (field-independent basis, Debye):
    X=              0.3972    Y=              0.2368    Z=              0.0698  Tot=              0.4677
 Quadrupole moment (field-independent basis, Debye-Ang):
   XX=            -57.2327   YY=            -60.0814   ZZ=            -75.6149
   XY=              1.7185   XZ=             -0.1503   YZ=             -1.1377

 Normal termination of Gaussian 16 at Thu Dec  7 02:00:21 2023.
