 Gaussian 16, Revision B.01,
 Gaussian 16:  ES64L-G16RevB.01 20-Dec-2017

 -------------------------
 #P B3LYP/6-311+g(d) force
 -------------------------

 -----
 DPGEN
 -----
 Symbolic Z-matrix:
 Charge =  0 Multiplicity = 2

                         Standard orientation:
 ---------------------------------------------------------------------
 Center     Atomic      Atomic             Coordinates (Angstroms)
 Number     Number       Type             X           Y           Z
 ---------------------------------------------------------------------
      1         11           0        2.542955    2.190160   -0.226144
      2         11           0        4.159464   -1.121297   -0.033495
      3         11           0       -4.409379    0.364068   -0.602289
      4         11           0        0.813013   -1.757395   -0.317964
      5         11           0        0.161766    1.098272    1.385724
      6         11           0       -0.913352    0.089547   -1.659549
      7         11           0       -2.354466   -0.863354    1.453718
 ---------------------------------------------------------------------

 SCF Done:  E(UB3LYP) =  -1136.09987348     A.U. after   32 cycles

 The electronic state is 2-A.
 Alpha  occ. eigenvalues --  -38.46708 -38.45351 -38.44937 -38.44623 -38.43148
 Alpha  occ. eigenvalues --  -38.42777 -38.42571  -2.22590  -2.21251  -2.20718
 Alpha  occ. eigenvalues --   -2.20471  -2.18993  -2.18718  -2.18533  -1.16354
 Alpha  occ. eigenvalues --   -1.16222  -1.16192  -1.14958  -1.14914  -1.14876
 Alpha  occ. eigenvalues --   -1.14389  -1.14356  -1.14351  -1.14130  -1.14091
 Alpha  occ. eigenvalues --   -1.14084  -1.12691  -1.12660  -1.12616  -1.12477
 Alpha  occ. eigenvalues --   -1.12368  -1.12304  -1.12206  -1.12178  -1.12167
 Alpha  occ. eigenvalues --   -0.18750  -0.14519  -0.11324  -0.10580
 Alpha virt. eigenvalues --   -0.08353  -0.04994  -0.04473  -0.03727  -0.02909
 Alpha virt. eigenvalues --   -0.02266  -0.02008  -0.01569  -0.01200  -0.00851
 Alpha virt. eigenvalues --   -0.00033   0.00186   0.00287   0.00538   0.00660

  Beta  occ. eigenvalues --  -38.46708 -38.45330 -38.44898 -38.44536 -38.43128
  Beta  occ. eigenvalues --  -38.42750 -38.42546  -2.22592  -2.21222  -2.20646
  Beta  occ. eigenvalues --   -2.20308  -2.18955  -2.18673  -2.18492  -1.16320
  Beta  occ. eigenvalues --   -1.16231  -1.16204  -1.14905  -1.14884  -1.14849
  Beta  occ. eigenvalues --   -1.14340  -1.14306  -1.14299  -1.14021  -1.13981
  Beta  occ. eigenvalues --   -1.13976  -1.12670  -1.12634  -1.12584  -1.12450
  Beta  occ. eigenvalues --   -1.12334  -1.12253  -1.12183  -1.12149  -1.12117
  Beta  occ. eigenvalues --   -0.18127  -0.13803  -0.10528
  Beta virt. eigenvalues --   -0.08122  -0.07668  -0.04647  -0.03820  -0.03487
  Beta virt. eigenvalues --   -0.02738  -0.02058  -0.01581  -0.01328  -0.00812
  Beta virt. eigenvalues --   -0.00535   0.00151   0.00292   0.00378   0.00613

 Mulliken charges and spin densities:
               1          2
     1  Na   0.209556   0.321046
     2  Na  -0.105650   0.171122
     3  Na  -0.306488   0.444129
     4  Na  -0.544426   0.263309
     5  Na  -0.783167   0.027465
     6  Na   0.392211  -0.131538
     7  Na   1.137963  -0.095533
 Sum of Mulliken charges =  -0.00000   1.00000

 Dipole moment (field-independent basis, Debye):
    X=             -0.8476    Y=             -0.2824    Z=              0.1377  Tot=              0.9039
 Quadrupole moment (field-independent basis, Debye-Ang):
   XX=            -56.7565   YY=            -79.9910   ZZ=            -64.8872
   XY=              0.9575   XZ=             -1.5391   YZ=            -10.5923

 Normal termination of Gaussian 16 at Tue Dec  5 14:32:23 2023.
