 Gaussian 16, Revision B.01,
 Gaussian 16:  ES64L-G16RevB.01 20-Dec-2017

 -------------------------
 #P B3LYP/6-311+g(d) force
 -------------------------

 -----
 DPGEN
 -----
 Symbolic Z-matrix:
 Charge =  0 Multiplicity = 2

                         Standard orientation:
 ---------------------------------------------------------------------
 Center     Atomic      Atomic             Coordinates (Angstroms)
 Number     Number       Type             X           Y           Z
 ---------------------------------------------------------------------
      1         11           0        2.618046   -2.277982   -0.188071
      2         11           0        2.315956    2.193218    0.336592
      3         11           0       -0.062573   -0.236157    2.034906
      4         11           0       -0.491938    2.699556   -0.397985
      5         11           0       -3.553785   -0.106448    0.175082
      6         11           0       -0.775342   -2.351758   -0.231533
      7         11           0       -0.050365    0.079569   -1.728991
 ---------------------------------------------------------------------

 SCF Done:  E(UB3LYP) =  -1136.12589305     A.U. after   19 cycles

 The electronic state is 2-A.
 Alpha  occ. eigenvalues --  -38.44026 -38.44025 -38.43960 -38.43885 -38.43737
 Alpha  occ. eigenvalues --  -38.43635 -38.43449  -2.19873  -2.19839  -2.19797
 Alpha  occ. eigenvalues --   -2.19719  -2.19668  -2.19560  -2.19400  -1.13633
 Alpha  occ. eigenvalues --   -1.13543  -1.13533  -1.13519  -1.13502  -1.13477
 Alpha  occ. eigenvalues --   -1.13472  -1.13463  -1.13444  -1.13434  -1.13424
 Alpha  occ. eigenvalues --   -1.13338  -1.13333  -1.13313  -1.13290  -1.13197
 Alpha  occ. eigenvalues --   -1.13182  -1.13147  -1.13078  -1.13073  -1.12950
 Alpha  occ. eigenvalues --   -0.18544  -0.13076  -0.12228  -0.10886
 Alpha virt. eigenvalues --   -0.05723  -0.05186  -0.04613  -0.03310  -0.02841
 Alpha virt. eigenvalues --   -0.02656  -0.01828  -0.01253  -0.00295  -0.00067
 Alpha virt. eigenvalues --    0.00018   0.00305   0.00731   0.00822   0.00888

  Beta  occ. eigenvalues --  -38.44028 -38.44020 -38.43886 -38.43871 -38.43661
  Beta  occ. eigenvalues --  -38.43623 -38.43434  -2.19867  -2.19802  -2.19675
  Beta  occ. eigenvalues --   -2.19671  -2.19583  -2.19539  -2.19378  -1.13631
  Beta  occ. eigenvalues --   -1.13508  -1.13495  -1.13476  -1.13454  -1.13448
  Beta  occ. eigenvalues --   -1.13437  -1.13425  -1.13367  -1.13356  -1.13343
  Beta  occ. eigenvalues --   -1.13323  -1.13320  -1.13309  -1.13200  -1.13161
  Beta  occ. eigenvalues --   -1.13144  -1.13132  -1.13056  -1.13012  -1.12940
  Beta  occ. eigenvalues --   -0.17785  -0.12830  -0.12053
  Beta virt. eigenvalues --   -0.06961  -0.05657  -0.05113  -0.04568  -0.02503
  Beta virt. eigenvalues --   -0.02174  -0.01729  -0.01631  -0.01178  -0.00315
  Beta virt. eigenvalues --   -0.00016   0.00082   0.00322   0.00782   0.00823

 Mulliken charges and spin densities:
               1          2
     1  Na  -0.052406  -0.100666
     2  Na  -0.105521  -0.015400
     3  Na  -0.459046   0.754572
     4  Na   0.276294  -0.035179
     5  Na   0.039057  -0.071843
     6  Na   0.260232   0.028351
     7  Na   0.041389   0.440165
 Sum of Mulliken charges =  -0.00000   1.00000

 Dipole moment (field-independent basis, Debye):
    X=              0.1919    Y=              0.1264    Z=              0.2558  Tot=              0.3438
 Quadrupole moment (field-independent basis, Debye-Ang):
   XX=            -55.0394   YY=            -64.7160   ZZ=            -73.9508
   XY=             -0.9142   XZ=              0.2361   YZ=              0.6358

 Normal termination of Gaussian 16 at Thu Dec  7 15:00:00 2023.
