 Gaussian 16, Revision B.01,
 Gaussian 16:  ES64L-G16RevB.01 20-Dec-2017

 -------------------------
 #P B3LYP/6-311+g(d) force
 -------------------------

 -----
 DPGEN
 -----
 Symbolic Z-matrix:
 Charge =  0 Multiplicity = 2

                         Standard orientation:
 ---------------------------------------------------------------------
 Center     Atomic      Atomic             Coordinates (Angstroms)
 Number     Number       Type             X           Y           Z
 ---------------------------------------------------------------------
      1         11           0       -0.932931   -2.556746   -1.045390
      2         11           0       -1.583845   -0.120556    1.608634
      3         11           0       -4.203099   -0.247964   -0.256616
      4         11           0       -0.911664    2.582741   -0.086282
      5         11           0        1.877398    2.142065   -1.367639
      6         11           0        2.979289   -1.427758   -0.981520
      7         11           0        2.774852   -0.371782    2.128813
 ---------------------------------------------------------------------

 SCF Done:  E(UB3LYP) =  -1136.11309987     A.U. after   22 cycles

 The electronic state is 2-A.
 Alpha  occ. eigenvalues --  -38.45958 -38.44642 -38.44617 -38.44399 -38.44164
 Alpha  occ. eigenvalues --  -38.43567 -38.42976  -2.21722  -2.20476  -2.20398
 Alpha  occ. eigenvalues --   -2.20199  -2.19948  -2.19386  -2.18814  -1.15408
 Alpha  occ. eigenvalues --   -1.15375  -1.15355  -1.14159  -1.14135  -1.14103
 Alpha  occ. eigenvalues --   -1.14073  -1.14066  -1.13994  -1.13851  -1.13843
 Alpha  occ. eigenvalues --   -1.13829  -1.13618  -1.13607  -1.13599  -1.13076
 Alpha  occ. eigenvalues --   -1.13041  -1.13010  -1.12500  -1.12482  -1.12446
 Alpha  occ. eigenvalues --   -0.16952  -0.13795  -0.11766  -0.10648
 Alpha virt. eigenvalues --   -0.07085  -0.05584  -0.04945  -0.03449  -0.02737
 Alpha virt. eigenvalues --   -0.02649  -0.02377  -0.01226  -0.00756  -0.00460
 Alpha virt. eigenvalues --   -0.00272   0.00060   0.00210   0.00358   0.00624

  Beta  occ. eigenvalues --  -38.45966 -38.44594 -38.44588 -38.44319 -38.44168
  Beta  occ. eigenvalues --  -38.43531 -38.42983  -2.21738  -2.20422  -2.20309
  Beta  occ. eigenvalues --   -2.20049  -2.19958  -2.19319  -2.18830  -1.15415
  Beta  occ. eigenvalues --   -1.15386  -1.15364  -1.14125  -1.14094  -1.14058
  Beta  occ. eigenvalues --   -1.14011  -1.14006  -1.13933  -1.13761  -1.13738
  Beta  occ. eigenvalues --   -1.13728  -1.13616  -1.13608  -1.13592  -1.13035
  Beta  occ. eigenvalues --   -1.12990  -1.12966  -1.12511  -1.12480  -1.12453
  Beta  occ. eigenvalues --   -0.16495  -0.13569  -0.11429
  Beta virt. eigenvalues --   -0.07188  -0.06889  -0.05141  -0.04480  -0.03293
  Beta virt. eigenvalues --   -0.02463  -0.02221  -0.01757  -0.01035  -0.00522
  Beta virt. eigenvalues --   -0.00395  -0.00168   0.00167   0.00326   0.00567

 Mulliken charges and spin densities:
               1          2
     1  Na  -0.198193   0.217314
     2  Na  -0.219174   0.223404
     3  Na   0.730348  -0.024734
     4  Na  -0.276024  -0.081001
     5  Na   0.040529   0.179806
     6  Na  -0.072293   0.201494
     7  Na  -0.005194   0.283716
 Sum of Mulliken charges =  -0.00000   1.00000

 Dipole moment (field-independent basis, Debye):
    X=             -1.8160    Y=             -0.4491    Z=             -0.2831  Tot=              1.8920
 Quadrupole moment (field-independent basis, Debye-Ang):
   XX=            -48.8875   YY=            -77.1970   ZZ=            -70.7745
   XY=             -0.5038   XZ=              0.5467   YZ=              1.2446

 Normal termination of Gaussian 16 at Sun Dec  3 14:21:31 2023.
