 Gaussian 16, Revision B.01,
 Gaussian 16:  ES64L-G16RevB.01 20-Dec-2017

 -------------------------
 #P B3LYP/6-311+g(d) force
 -------------------------

 -----
 DPGEN
 -----
 Symbolic Z-matrix:
 Charge =  0 Multiplicity = 2

                         Standard orientation:
 ---------------------------------------------------------------------
 Center     Atomic      Atomic             Coordinates (Angstroms)
 Number     Number       Type             X           Y           Z
 ---------------------------------------------------------------------
      1         11           0       -2.562946    0.081337   -0.896099
      2         11           0        0.405203   -0.347977    1.611877
      3         11           0       -1.953887   -2.325446    0.717764
      4         11           0        0.836278   -1.808230   -1.316274
      5         11           0       -1.710472    2.787871    0.606954
      6         11           0        1.094910    1.497611   -1.219407
      7         11           0        3.890915    0.114835    0.495186
 ---------------------------------------------------------------------

 SCF Done:  E(UB3LYP) =  -1136.12951089     A.U. after   20 cycles

 The electronic state is 2-A.
 Alpha  occ. eigenvalues --  -38.44929 -38.44110 -38.43677 -38.43621 -38.43472
 Alpha  occ. eigenvalues --  -38.43300 -38.43037  -2.20703  -2.20015  -2.19569
 Alpha  occ. eigenvalues --   -2.19555  -2.19359  -2.19213  -2.18866  -1.14374
 Alpha  occ. eigenvalues --   -1.14368  -1.14324  -1.13736  -1.13666  -1.13661
 Alpha  occ. eigenvalues --   -1.13324  -1.13254  -1.13222  -1.13200  -1.13168
 Alpha  occ. eigenvalues --   -1.13156  -1.13061  -1.13025  -1.12946  -1.12891
 Alpha  occ. eigenvalues --   -1.12861  -1.12819  -1.12540  -1.12519  -1.12506
 Alpha  occ. eigenvalues --   -0.18584  -0.13385  -0.12056  -0.10693
 Alpha virt. eigenvalues --   -0.06484  -0.04833  -0.04349  -0.03424  -0.02762
 Alpha virt. eigenvalues --   -0.02321  -0.02230  -0.00943  -0.00538  -0.00120
 Alpha virt. eigenvalues --    0.00194   0.00259   0.00540   0.00776   0.00792

  Beta  occ. eigenvalues --  -38.44920 -38.44100 -38.43626 -38.43559 -38.43439
  Beta  occ. eigenvalues --  -38.43290 -38.43034  -2.20689  -2.19999  -2.19478
  Beta  occ. eigenvalues --   -2.19443  -2.19302  -2.19196  -2.18860  -1.14364
  Beta  occ. eigenvalues --   -1.14347  -1.14317  -1.13726  -1.13656  -1.13632
  Beta  occ. eigenvalues --   -1.13260  -1.13169  -1.13144  -1.13120  -1.13101
  Beta  occ. eigenvalues --   -1.13082  -1.13022  -1.12954  -1.12912  -1.12882
  Beta  occ. eigenvalues --   -1.12836  -1.12796  -1.12537  -1.12509  -1.12500
  Beta  occ. eigenvalues --   -0.17846  -0.13179  -0.11900
  Beta virt. eigenvalues --   -0.06812  -0.06329  -0.04734  -0.04190  -0.02854
  Beta virt. eigenvalues --   -0.02221  -0.02107  -0.01368  -0.00902  -0.00231
  Beta virt. eigenvalues --   -0.00087   0.00251   0.00322   0.00690   0.00819

 Mulliken charges and spin densities:
               1          2
     1  Na  -0.098191   0.286401
     2  Na  -0.471001   0.647150
     3  Na   0.605566  -0.139834
     4  Na  -0.271391   0.236451
     5  Na   0.125171  -0.192230
     6  Na  -0.112184   0.210808
     7  Na   0.222031  -0.048746
 Sum of Mulliken charges =  -0.00000   1.00000

 Dipole moment (field-independent basis, Debye):
    X=              0.9542    Y=             -0.1777    Z=             -0.0393  Tot=              0.9714
 Quadrupole moment (field-independent basis, Debye-Ang):
   XX=            -52.1805   YY=            -68.1656   ZZ=            -72.0134
   XY=              1.2198   XZ=              0.5710   YZ=              1.1771

 Normal termination of Gaussian 16 at Tue Dec  5 14:50:35 2023.
