 Gaussian 16, Revision B.01,
 Gaussian 16:  ES64L-G16RevB.01 20-Dec-2017

 -------------------------
 #P B3LYP/6-311+g(d) force
 -------------------------

 -----
 DPGEN
 -----
 Symbolic Z-matrix:
 Charge =  0 Multiplicity = 2

                         Standard orientation:
 ---------------------------------------------------------------------
 Center     Atomic      Atomic             Coordinates (Angstroms)
 Number     Number       Type             X           Y           Z
 ---------------------------------------------------------------------
      1         11           0       -5.921432    1.191111    0.549122
      2         11           0       -4.537938   -1.523107   -0.309430
      3         11           0        2.182444   -2.741634   -0.332776
      4         11           0       -3.184008    2.623930   -0.425639
      5         11           0        7.031510    2.236492   -0.188707
      6         11           0        5.370336   -0.463893    0.508768
      7         11           0       -0.940911   -1.322899    0.198661
 ---------------------------------------------------------------------

 SCF Done:  E(UB3LYP) =  -1136.10362969     A.U. after   23 cycles

 The electronic state is 2-A.
 Alpha  occ. eigenvalues --  -38.45462 -38.45233 -38.44611 -38.44448 -38.44355
 Alpha  occ. eigenvalues --  -38.44131 -38.43832  -2.21285  -2.21049  -2.20457
 Alpha  occ. eigenvalues --   -2.20208  -2.20113  -2.19903  -2.19597  -1.14974
 Alpha  occ. eigenvalues --   -1.14958  -1.14948  -1.14691  -1.14682  -1.14652
 Alpha  occ. eigenvalues --   -1.14106  -1.14095  -1.14076  -1.13878  -1.13867
 Alpha  occ. eigenvalues --   -1.13846  -1.13801  -1.13798  -1.13730  -1.13561
 Alpha  occ. eigenvalues --   -1.13560  -1.13555  -1.13276  -1.13271  -1.13223
 Alpha  occ. eigenvalues --   -0.16392  -0.13717  -0.12174  -0.11117
 Alpha virt. eigenvalues --   -0.07854  -0.05440  -0.04468  -0.03427  -0.03054
 Alpha virt. eigenvalues --   -0.02992  -0.02469  -0.01820  -0.01549  -0.01001
 Alpha virt. eigenvalues --   -0.00817  -0.00552   0.00027   0.00161   0.00220

  Beta  occ. eigenvalues --  -38.45467 -38.45134 -38.44525 -38.44429 -38.44363
  Beta  occ. eigenvalues --  -38.44117 -38.43837  -2.21301  -2.20864  -2.20296
  Beta  occ. eigenvalues --   -2.20171  -2.20129  -2.19875  -2.19607  -1.14976
  Beta  occ. eigenvalues --   -1.14965  -1.14925  -1.14565  -1.14551  -1.14535
  Beta  occ. eigenvalues --   -1.13997  -1.13985  -1.13972  -1.13853  -1.13841
  Beta  occ. eigenvalues --   -1.13830  -1.13815  -1.13802  -1.13727  -1.13543
  Beta  occ. eigenvalues --   -1.13541  -1.13537  -1.13284  -1.13278  -1.13220
  Beta  occ. eigenvalues --   -0.15656  -0.13528  -0.11904
  Beta virt. eigenvalues --   -0.07776  -0.07156  -0.05274  -0.04207  -0.03066
  Beta virt. eigenvalues --   -0.02741  -0.02412  -0.02320  -0.01562  -0.01478
  Beta virt. eigenvalues --   -0.00772  -0.00489  -0.00156   0.00179   0.00222

 Mulliken charges and spin densities:
               1          2
     1  Na   0.148954   0.000427
     2  Na   0.365985   0.383866
     3  Na   0.018930   0.092534
     4  Na   0.074442   0.515762
     5  Na   0.332570   0.074892
     6  Na  -0.417255  -0.038933
     7  Na  -0.523625  -0.028548
 Sum of Mulliken charges =  -0.00000   1.00000

 Dipole moment (field-independent basis, Debye):
    X=             -2.2367    Y=              0.8247    Z=             -0.1239  Tot=              2.3871
 Quadrupole moment (field-independent basis, Debye-Ang):
   XX=            -57.0660   YY=            -66.3054   ZZ=            -73.2406
   XY=              0.4253   XZ=             -4.3141   YZ=             -0.2257

 Normal termination of Gaussian 16 at Mon Dec  4 04:27:23 2023.
