 Gaussian 16, Revision B.01,
 Gaussian 16:  ES64L-G16RevB.01 20-Dec-2017

 -------------------------
 #P B3LYP/6-311+g(d) force
 -------------------------

 -----
 DPGEN
 -----
 Symbolic Z-matrix:
 Charge =  0 Multiplicity = 2

                         Standard orientation:
 ---------------------------------------------------------------------
 Center     Atomic      Atomic             Coordinates (Angstroms)
 Number     Number       Type             X           Y           Z
 ---------------------------------------------------------------------
      1         11           0       -0.062703   -2.004371    0.297951
      2         11           0       -3.651453   -2.874605   -0.425126
      3         11           0       -3.305443    0.272485    0.129057
      4         11           0        0.189784    1.386107   -0.533832
      5         11           0        2.512937   -0.216080    1.053111
      6         11           0       -2.049800    3.721321    0.039693
      7         11           0        6.366679   -0.284856   -0.560854
 ---------------------------------------------------------------------

 SCF Done:  E(UB3LYP) =  -1136.12249644     A.U. after   19 cycles

 The electronic state is 2-A.
 Alpha  occ. eigenvalues --  -38.45562 -38.44192 -38.43940 -38.43837 -38.43698
 Alpha  occ. eigenvalues --  -38.43587 -38.43351  -2.21344  -2.20034  -2.19772
 Alpha  occ. eigenvalues --   -2.19720  -2.19541  -2.19397  -2.19158  -1.14967
 Alpha  occ. eigenvalues --   -1.14967  -1.14944  -1.13735  -1.13726  -1.13635
 Alpha  occ. eigenvalues --   -1.13473  -1.13469  -1.13426  -1.13407  -1.13381
 Alpha  occ. eigenvalues --   -1.13347  -1.13211  -1.13191  -1.13176  -1.13061
 Alpha  occ. eigenvalues --   -1.13055  -1.13021  -1.12824  -1.12819  -1.12788
 Alpha  occ. eigenvalues --   -0.16819  -0.13731  -0.12304  -0.11766
 Alpha virt. eigenvalues --   -0.05431  -0.05330  -0.05245  -0.03828  -0.02608
 Alpha virt. eigenvalues --   -0.02245  -0.01877  -0.01663  -0.01399  -0.01000
 Alpha virt. eigenvalues --   -0.00583  -0.00123   0.00138   0.00373   0.00654

  Beta  occ. eigenvalues --  -38.45403 -38.44170 -38.43930 -38.43828 -38.43699
  Beta  occ. eigenvalues --  -38.43577 -38.43348  -2.21048  -2.19997  -2.19753
  Beta  occ. eigenvalues --   -2.19705  -2.19550  -2.19380  -2.19152  -1.14767
  Beta  occ. eigenvalues --   -1.14766  -1.14744  -1.13709  -1.13699  -1.13605
  Beta  occ. eigenvalues --   -1.13461  -1.13456  -1.13419  -1.13394  -1.13365
  Beta  occ. eigenvalues --   -1.13335  -1.13219  -1.13202  -1.13145  -1.13045
  Beta  occ. eigenvalues --   -1.13043  -1.13012  -1.12819  -1.12815  -1.12784
  Beta  occ. eigenvalues --   -0.16537  -0.12864  -0.12225
  Beta virt. eigenvalues --   -0.07623  -0.05259  -0.05188  -0.04941  -0.03590
  Beta virt. eigenvalues --   -0.02244  -0.01738  -0.01661  -0.01274  -0.00967
  Beta virt. eigenvalues --   -0.00514  -0.00288   0.00068   0.00283   0.00527

 Mulliken charges and spin densities:
               1          2
     1  Na  -0.702250   0.008608
     2  Na   0.615950   0.016425
     3  Na  -0.301115   0.147532
     4  Na  -1.362526  -0.051888
     5  Na   0.888511   0.072279
     6  Na   0.870910   0.025520
     7  Na  -0.009479   0.781524
 Sum of Mulliken charges =  -0.00000   1.00000

 Dipole moment (field-independent basis, Debye):
    X=              0.1453    Y=             -0.2453    Z=              0.0086  Tot=              0.2853
 Quadrupole moment (field-independent basis, Debye-Ang):
   XX=            -64.1620   YY=            -63.0702   ZZ=            -70.6470
   XY=              0.8806   XZ=             -0.7137   YZ=              1.6039

 Normal termination of Gaussian 16 at Tue Nov 28 23:12:48 2023.
