 Gaussian 16, Revision B.01,
 Gaussian 16:  ES64L-G16RevB.01 20-Dec-2017

 -------------------------
 #P B3LYP/6-311+g(d) force
 -------------------------

 -----
 DPGEN
 -----
 Symbolic Z-matrix:
 Charge =  0 Multiplicity = 2

                         Standard orientation:
 ---------------------------------------------------------------------
 Center     Atomic      Atomic             Coordinates (Angstroms)
 Number     Number       Type             X           Y           Z
 ---------------------------------------------------------------------
      1         11           0       -1.307898    1.673529   -0.828635
      2         11           0       -3.722105    0.214204    0.403132
      3         11           0       -1.126151   -2.218902   -0.547232
      4         11           0        3.220812   -1.056650    0.521127
      5         11           0       -0.134663   -0.265272    2.170534
      6         11           0        1.021830   -0.456970   -1.885293
      7         11           0        2.048175    2.110060    0.166368
 ---------------------------------------------------------------------

 SCF Done:  E(UB3LYP) =  -1136.12422285     A.U. after   24 cycles

 The electronic state is 2-A.
 Alpha  occ. eigenvalues --  -38.45175 -38.44980 -38.44918 -38.43611 -38.42994
 Alpha  occ. eigenvalues --  -38.42857 -38.42851  -2.20986  -2.20795  -2.20748
 Alpha  occ. eigenvalues --   -2.19577  -2.18852  -2.18760  -2.18727  -1.14684
 Alpha  occ. eigenvalues --   -1.14639  -1.14608  -1.14478  -1.14451  -1.14428
 Alpha  occ. eigenvalues --   -1.14419  -1.14385  -1.14358  -1.13287  -1.13207
 Alpha  occ. eigenvalues --   -1.13194  -1.12528  -1.12520  -1.12499  -1.12450
 Alpha  occ. eigenvalues --   -1.12437  -1.12423  -1.12391  -1.12384  -1.12329
 Alpha  occ. eigenvalues --   -0.18653  -0.13768  -0.11588  -0.11110
 Alpha virt. eigenvalues --   -0.06944  -0.04800  -0.04241  -0.03292  -0.02884
 Alpha virt. eigenvalues --   -0.02737  -0.02394  -0.00867  -0.00543  -0.00090
 Alpha virt. eigenvalues --    0.00174   0.00252   0.00273   0.00774   0.00836

  Beta  occ. eigenvalues --  -38.45174 -38.44971 -38.44839 -38.43534 -38.42991
  Beta  occ. eigenvalues --  -38.42842 -38.42830  -2.20985  -2.20781  -2.20602
  Beta  occ. eigenvalues --   -2.19438  -2.18849  -2.18726  -2.18704  -1.14685
  Beta  occ. eigenvalues --   -1.14632  -1.14607  -1.14462  -1.14429  -1.14420
  Beta  occ. eigenvalues --   -1.14325  -1.14285  -1.14249  -1.13189  -1.13111
  Beta  occ. eigenvalues --   -1.13089  -1.12528  -1.12511  -1.12483  -1.12423
  Beta  occ. eigenvalues --   -1.12411  -1.12381  -1.12364  -1.12353  -1.12318
  Beta  occ. eigenvalues --   -0.17864  -0.13611  -0.10858
  Beta virt. eigenvalues --   -0.07631  -0.06747  -0.04796  -0.03610  -0.02985
  Beta virt. eigenvalues --   -0.02347  -0.02051  -0.01911  -0.00800  -0.00334
  Beta virt. eigenvalues --   -0.00049   0.00199   0.00266   0.00455   0.00837

 Mulliken charges and spin densities:
               1          2
     1  Na  -0.485758   0.016498
     2  Na   0.429240   0.037458
     3  Na  -0.367462  -0.037358
     4  Na   0.139322  -0.003194
     5  Na  -0.207131   0.572487
     6  Na   0.644682   0.349467
     7  Na  -0.152894   0.064641
 Sum of Mulliken charges =  -0.00000   1.00000

 Dipole moment (field-independent basis, Debye):
    X=             -0.1326    Y=             -0.3759    Z=              0.8095  Tot=              0.9023
 Quadrupole moment (field-independent basis, Debye-Ang):
   XX=            -47.5633   YY=            -77.3014   ZZ=            -68.7631
   XY=             -0.4575   XZ=             -0.1510   YZ=             -0.2916

 Normal termination of Gaussian 16 at Fri Dec  8 07:08:56 2023.
