 Gaussian 16, Revision B.01,
 Gaussian 16:  ES64L-G16RevB.01 20-Dec-2017

 -------------------------
 #P B3LYP/6-311+g(d) force
 -------------------------

 -----
 DPGEN
 -----
 Symbolic Z-matrix:
 Charge =  0 Multiplicity = 2

                         Standard orientation:
 ---------------------------------------------------------------------
 Center     Atomic      Atomic             Coordinates (Angstroms)
 Number     Number       Type             X           Y           Z
 ---------------------------------------------------------------------
      1         11           0        1.116200   -2.671970   -0.830219
      2         11           0       -3.911674   -0.710111    0.676014
      3         11           0       -2.257446    1.134717   -1.641810
      4         11           0       -1.027036   -0.064083    0.697153
      5         11           0        1.248780    2.667576    0.376669
      6         11           0        1.900488   -0.400856    1.947346
      7         11           0        2.930688    0.044728   -1.225153
 ---------------------------------------------------------------------

 SCF Done:  E(UB3LYP) =  -1136.11626779     A.U. after   24 cycles

 The electronic state is 2-A.
 Alpha  occ. eigenvalues --  -38.45329 -38.44865 -38.44474 -38.44001 -38.43339
 Alpha  occ. eigenvalues --  -38.42852 -38.42497  -2.21169  -2.20725  -2.20337
 Alpha  occ. eigenvalues --   -2.19908  -2.19392  -2.18676  -2.18328  -1.14889
 Alpha  occ. eigenvalues --   -1.14803  -1.14793  -1.14479  -1.14356  -1.14303
 Alpha  occ. eigenvalues --   -1.14018  -1.13994  -1.13948  -1.13625  -1.13548
 Alpha  occ. eigenvalues --   -1.13489  -1.13114  -1.13048  -1.12992  -1.12357
 Alpha  occ. eigenvalues --   -1.12330  -1.12316  -1.12002  -1.11998  -1.11974
 Alpha  occ. eigenvalues --   -0.18113  -0.14311  -0.11194  -0.10715
 Alpha virt. eigenvalues --   -0.06790  -0.05288  -0.03856  -0.03719  -0.02669
 Alpha virt. eigenvalues --   -0.02397  -0.02189  -0.00901  -0.00490  -0.00229
 Alpha virt. eigenvalues --   -0.00211   0.00168   0.00294   0.00663   0.00745

  Beta  occ. eigenvalues --  -38.45324 -38.44826 -38.44433 -38.43941 -38.43303
  Beta  occ. eigenvalues --  -38.42844 -38.42498  -2.21160  -2.20652  -2.20261
  Beta  occ. eigenvalues --   -2.19798  -2.19334  -2.18665  -2.18333  -1.14880
  Beta  occ. eigenvalues --   -1.14798  -1.14781  -1.14430  -1.14305  -1.14250
  Beta  occ. eigenvalues --   -1.13958  -1.13945  -1.13892  -1.13538  -1.13471
  Beta  occ. eigenvalues --   -1.13413  -1.13024  -1.13010  -1.12958  -1.12349
  Beta  occ. eigenvalues --   -1.12315  -1.12303  -1.12005  -1.11998  -1.11963
  Beta  occ. eigenvalues --   -0.17463  -0.14081  -0.10974
  Beta virt. eigenvalues --   -0.07095  -0.06448  -0.04779  -0.03801  -0.03502
  Beta virt. eigenvalues --   -0.02272  -0.02011  -0.01518  -0.00627  -0.00280
  Beta virt. eigenvalues --   -0.00145   0.00042   0.00217   0.00429   0.00762

 Mulliken charges and spin densities:
               1          2
     1  Na  -0.320618   0.056415
     2  Na   0.390230   0.057520
     3  Na  -0.068825   0.160967
     4  Na  -1.218369   0.548430
     5  Na   0.052456  -0.061607
     6  Na   1.121772  -0.086249
     7  Na   0.043355   0.324524
 Sum of Mulliken charges =  -0.00000   1.00000

 Dipole moment (field-independent basis, Debye):
    X=             -1.4208    Y=             -0.0947    Z=             -0.1755  Tot=              1.4347
 Quadrupole moment (field-independent basis, Debye-Ang):
   XX=            -50.0187   YY=            -73.9977   ZZ=            -68.1092
   XY=              3.3931   XZ=              0.6259   YZ=             -2.3910

 Normal termination of Gaussian 16 at Fri Dec  8 05:55:34 2023.
