 Gaussian 16, Revision B.01,
 Gaussian 16:  ES64L-G16RevB.01 20-Dec-2017

 -------------------------
 #P B3LYP/6-311+g(d) force
 -------------------------

 -----
 DPGEN
 -----
 Symbolic Z-matrix:
 Charge =  0 Multiplicity = 2

                         Standard orientation:
 ---------------------------------------------------------------------
 Center     Atomic      Atomic             Coordinates (Angstroms)
 Number     Number       Type             X           Y           Z
 ---------------------------------------------------------------------
      1         11           0       -2.530437    1.902561   -0.289924
      2         11           0        1.992574   -1.967805   -0.883760
      3         11           0       -2.865822   -1.132138    1.285439
      4         11           0        0.867202    1.912353   -0.901642
      5         11           0       -1.528807   -1.153822   -1.533852
      6         11           0        3.827551    0.547132    0.723063
      7         11           0        0.237739   -0.108280    1.600676
 ---------------------------------------------------------------------

 SCF Done:  E(UB3LYP) =  -1136.12621581     A.U. after   24 cycles

 The electronic state is 2-A.
 Alpha  occ. eigenvalues --  -38.45194 -38.44377 -38.43922 -38.43733 -38.43649
 Alpha  occ. eigenvalues --  -38.43535 -38.42929  -2.20991  -2.20282  -2.19819
 Alpha  occ. eigenvalues --   -2.19556  -2.19550  -2.19388  -2.18787  -1.14664
 Alpha  occ. eigenvalues --   -1.14639  -1.14617  -1.13992  -1.13926  -1.13912
 Alpha  occ. eigenvalues --   -1.13510  -1.13479  -1.13445  -1.13239  -1.13223
 Alpha  occ. eigenvalues --   -1.13212  -1.13196  -1.13183  -1.13169  -1.13060
 Alpha  occ. eigenvalues --   -1.13039  -1.13028  -1.12506  -1.12452  -1.12390
 Alpha  occ. eigenvalues --   -0.18519  -0.14222  -0.11114  -0.11054
 Alpha virt. eigenvalues --   -0.06800  -0.05311  -0.04627  -0.03162  -0.02641
 Alpha virt. eigenvalues --   -0.02475  -0.02191  -0.01102  -0.00806  -0.00176
 Alpha virt. eigenvalues --    0.00165   0.00238   0.00346   0.00641   0.00711

  Beta  occ. eigenvalues --  -38.45177 -38.44332 -38.43887 -38.43707 -38.43604
  Beta  occ. eigenvalues --  -38.43527 -38.42921  -2.20960  -2.20201  -2.19756
  Beta  occ. eigenvalues --   -2.19509  -2.19469  -2.19377  -2.18773  -1.14636
  Beta  occ. eigenvalues --   -1.14620  -1.14597  -1.13926  -1.13872  -1.13847
  Beta  occ. eigenvalues --   -1.13472  -1.13420  -1.13400  -1.13201  -1.13185
  Beta  occ. eigenvalues --   -1.13164  -1.13144  -1.13126  -1.13112  -1.13038
  Beta  occ. eigenvalues --   -1.13032  -1.13013  -1.12501  -1.12426  -1.12376
  Beta  occ. eigenvalues --   -0.17851  -0.14011  -0.10809
  Beta virt. eigenvalues --   -0.07274  -0.06583  -0.05283  -0.04002  -0.02954
  Beta virt. eigenvalues --   -0.02426  -0.01900  -0.01408  -0.01016  -0.00400
  Beta virt. eigenvalues --   -0.00146   0.00194   0.00272   0.00482   0.00703

 Mulliken charges and spin densities:
               1          2
     1  Na  -0.125156   0.065993
     2  Na  -0.379395   0.114208
     3  Na   0.730096   0.127593
     4  Na  -0.430553   0.051187
     5  Na  -0.135242   0.282408
     6  Na   1.070290   0.070592
     7  Na  -0.730039   0.288018
 Sum of Mulliken charges =  -0.00000   1.00000

 Dipole moment (field-independent basis, Debye):
    X=              0.8519    Y=              0.0391    Z=              0.2678  Tot=              0.8938
 Quadrupole moment (field-independent basis, Debye-Ang):
   XX=            -45.7673   YY=            -77.1579   ZZ=            -70.1779
   XY=              0.3397   XZ=              0.8745   YZ=              1.1064

 Normal termination of Gaussian 16 at Tue Dec  5 11:34:11 2023.
