 Gaussian 16, Revision B.01,
 Gaussian 16:  ES64L-G16RevB.01 20-Dec-2017

 -------------------------
 #P B3LYP/6-311+g(d) force
 -------------------------

 -----
 DPGEN
 -----
 Symbolic Z-matrix:
 Charge =  0 Multiplicity = 2

                         Standard orientation:
 ---------------------------------------------------------------------
 Center     Atomic      Atomic             Coordinates (Angstroms)
 Number     Number       Type             X           Y           Z
 ---------------------------------------------------------------------
      1         11           0       -3.581188   -0.371725    1.382334
      2         11           0       -1.472278    1.983202   -0.564999
      3         11           0        4.206962   -0.835892    0.769436
      4         11           0        1.947344    2.026662   -0.361204
      5         11           0       -2.494010   -1.226791   -1.207614
      6         11           0        1.309266   -1.443552   -1.163194
      7         11           0        0.083905   -0.131905    1.145240
 ---------------------------------------------------------------------

 SCF Done:  E(UB3LYP) =  -1136.11685049     A.U. after   24 cycles

 The electronic state is 2-A.
 Alpha  occ. eigenvalues --  -38.45042 -38.44199 -38.44190 -38.44044 -38.43724
 Alpha  occ. eigenvalues --  -38.43386 -38.43045  -2.21024  -2.20100  -2.19996
 Alpha  occ. eigenvalues --   -2.19934  -2.19632  -2.19256  -2.18945  -1.14802
 Alpha  occ. eigenvalues --   -1.14668  -1.14633  -1.13881  -1.13762  -1.13735
 Alpha  occ. eigenvalues --   -1.13662  -1.13652  -1.13608  -1.13573  -1.13546
 Alpha  occ. eigenvalues --   -1.13519  -1.13379  -1.13267  -1.13200  -1.12952
 Alpha  occ. eigenvalues --   -1.12937  -1.12858  -1.12650  -1.12621  -1.12544
 Alpha  occ. eigenvalues --   -0.18715  -0.14580  -0.11158  -0.10721
 Alpha virt. eigenvalues --   -0.06966  -0.05311  -0.04744  -0.03117  -0.03003
 Alpha virt. eigenvalues --   -0.02135  -0.01853  -0.01206  -0.01008  -0.00249
 Alpha virt. eigenvalues --   -0.00014   0.00317   0.00347   0.00484   0.00741

  Beta  occ. eigenvalues --  -38.45031 -38.44164 -38.44155 -38.43989 -38.43677
  Beta  occ. eigenvalues --  -38.43385 -38.43045  -2.21008  -2.20057  -2.19913
  Beta  occ. eigenvalues --   -2.19831  -2.19549  -2.19257  -2.18948  -1.14751
  Beta  occ. eigenvalues --   -1.14664  -1.14628  -1.13830  -1.13739  -1.13686
  Beta  occ. eigenvalues --   -1.13605  -1.13592  -1.13557  -1.13501  -1.13471
  Beta  occ. eigenvalues --   -1.13458  -1.13327  -1.13214  -1.13110  -1.12953
  Beta  occ. eigenvalues --   -1.12930  -1.12855  -1.12652  -1.12607  -1.12544
  Beta  occ. eigenvalues --   -0.18072  -0.14192  -0.10903
  Beta virt. eigenvalues --   -0.07068  -0.06721  -0.05145  -0.04141  -0.02935
  Beta virt. eigenvalues --   -0.02823  -0.01632  -0.01303  -0.01145  -0.00521
  Beta virt. eigenvalues --   -0.00138   0.00088   0.00398   0.00471   0.00600

 Mulliken charges and spin densities:
               1          2
     1  Na   0.780165   0.332517
     2  Na  -0.165836   0.111109
     3  Na   0.648742   0.354008
     4  Na   0.064359   0.031052
     5  Na   0.095139   0.066092
     6  Na  -0.151669   0.165373
     7  Na  -1.270901  -0.060152
 Sum of Mulliken charges =  -0.00000   1.00000

 Dipole moment (field-independent basis, Debye):
    X=              0.0568    Y=              0.2591    Z=             -0.2068  Tot=              0.3364
 Quadrupole moment (field-independent basis, Debye-Ang):
   XX=            -56.5153   YY=            -76.7095   ZZ=            -65.4179
   XY=              1.0290   XZ=              1.5627   YZ=             -1.3645

 Normal termination of Gaussian 16 at Tue Dec  5 23:06:38 2023.
