 Gaussian 16, Revision B.01,
 Gaussian 16:  ES64L-G16RevB.01 20-Dec-2017

 -------------------------
 #P B3LYP/6-311+g(d) force
 -------------------------

 -----
 DPGEN
 -----
 Symbolic Z-matrix:
 Charge =  0 Multiplicity = 2

                         Standard orientation:
 ---------------------------------------------------------------------
 Center     Atomic      Atomic             Coordinates (Angstroms)
 Number     Number       Type             X           Y           Z
 ---------------------------------------------------------------------
      1         11           0        2.230154    1.528493    0.677043
      2         11           0       -0.365872   -2.235342    1.288690
      3         11           0        2.382574   -1.559356   -0.466983
      4         11           0       -0.300689   -0.965011   -2.074071
      5         11           0       -0.225113    2.289136   -1.374584
      6         11           0       -3.089542   -0.125604   -0.151549
      7         11           0       -0.631512    1.067684    2.101455
 ---------------------------------------------------------------------

 SCF Done:  E(UB3LYP) =  -1136.13256808     A.U. after   21 cycles

 The electronic state is 2-A.
 Alpha  occ. eigenvalues --  -38.44198 -38.44186 -38.44010 -38.43909 -38.43664
 Alpha  occ. eigenvalues --  -38.43118 -38.42990  -2.20100  -2.20087  -2.19871
 Alpha  occ. eigenvalues --   -2.19773  -2.19479  -2.19003  -2.18875  -1.13785
 Alpha  occ. eigenvalues --   -1.13774  -1.13743  -1.13731  -1.13717  -1.13715
 Alpha  occ. eigenvalues --   -1.13554  -1.13505  -1.13493  -1.13459  -1.13417
 Alpha  occ. eigenvalues --   -1.13392  -1.13156  -1.13138  -1.13123  -1.12688
 Alpha  occ. eigenvalues --   -1.12671  -1.12647  -1.12558  -1.12528  -1.12493
 Alpha  occ. eigenvalues --   -0.18741  -0.12537  -0.12516  -0.12139
 Alpha virt. eigenvalues --   -0.05250  -0.04594  -0.04274  -0.03791  -0.03644
 Alpha virt. eigenvalues --   -0.03564  -0.01060  -0.00627  -0.00423   0.00251
 Alpha virt. eigenvalues --    0.00422   0.00464   0.00758   0.00822   0.00903

  Beta  occ. eigenvalues --  -38.44132 -38.44117 -38.43969 -38.43872 -38.43666
  Beta  occ. eigenvalues --  -38.43112 -38.42988  -2.19977  -2.19968  -2.19797
  Beta  occ. eigenvalues --   -2.19708  -2.19486  -2.18994  -2.18873  -1.13700
  Beta  occ. eigenvalues --   -1.13689  -1.13651  -1.13641  -1.13637  -1.13625
  Beta  occ. eigenvalues --   -1.13496  -1.13447  -1.13441  -1.13408  -1.13366
  Beta  occ. eigenvalues --   -1.13346  -1.13149  -1.13144  -1.13119  -1.12677
  Beta  occ. eigenvalues --   -1.12656  -1.12641  -1.12547  -1.12519  -1.12495
  Beta  occ. eigenvalues --   -0.17882  -0.12322  -0.12003
  Beta virt. eigenvalues --   -0.08426  -0.05053  -0.04221  -0.04051  -0.03434
  Beta virt. eigenvalues --   -0.02976  -0.02612  -0.01001  -0.00545  -0.00205
  Beta virt. eigenvalues --    0.00309   0.00464   0.00503   0.00858   0.00901

 Mulliken charges and spin densities:
               1          2
     1  Na   0.132188   0.156015
     2  Na  -0.333259   0.129812
     3  Na   0.189657  -0.017350
     4  Na   0.163365   0.460062
     5  Na  -0.353342   0.016691
     6  Na   0.157739  -0.146860
     7  Na   0.043652   0.401631
 Sum of Mulliken charges =  -0.00000   1.00000

 Dipole moment (field-independent basis, Debye):
    X=             -0.5282    Y=              0.0451    Z=              0.0188  Tot=              0.5304
 Quadrupole moment (field-independent basis, Debye-Ang):
   XX=            -64.2217   YY=            -70.4416   ZZ=            -63.0008
   XY=             -0.1981   XZ=              0.5128   YZ=             -2.4150

 Normal termination of Gaussian 16 at Sun Dec  3 18:27:35 2023.
