 Gaussian 16, Revision B.01,
 Gaussian 16:  ES64L-G16RevB.01 20-Dec-2017

 -------------------------
 #P B3LYP/6-311+g(d) force
 -------------------------

 -----
 DPGEN
 -----
 Symbolic Z-matrix:
 Charge =  0 Multiplicity = 2

                         Standard orientation:
 ---------------------------------------------------------------------
 Center     Atomic      Atomic             Coordinates (Angstroms)
 Number     Number       Type             X           Y           Z
 ---------------------------------------------------------------------
      1         11           0        1.423953    2.667818   -0.034850
      2         11           0       -1.943952    2.231294    0.022440
      3         11           0        0.276813   -2.845929   -0.145216
      4         11           0       -2.954887   -1.198488   -0.334113
      5         11           0       -0.096040   -0.277653    2.242804
      6         11           0        0.157369    0.144850   -1.629276
      7         11           0        3.136745   -0.721891   -0.121790
 ---------------------------------------------------------------------

 SCF Done:  E(UB3LYP) =  -1136.13945626     A.U. after   18 cycles

 The electronic state is 2-A.
 Alpha  occ. eigenvalues --  -38.43921 -38.43877 -38.43758 -38.43556 -38.43550
 Alpha  occ. eigenvalues --  -38.43501 -38.43215  -2.19732  -2.19725  -2.19567
 Alpha  occ. eigenvalues --   -2.19403  -2.19393  -2.19356  -2.19189  -1.13409
 Alpha  occ. eigenvalues --   -1.13392  -1.13378  -1.13373  -1.13354  -1.13343
 Alpha  occ. eigenvalues --   -1.13241  -1.13225  -1.13216  -1.13123  -1.13079
 Alpha  occ. eigenvalues --   -1.13075  -1.13055  -1.13052  -1.13044  -1.13026
 Alpha  occ. eigenvalues --   -1.12996  -1.12971  -1.12866  -1.12819  -1.12804
 Alpha  occ. eigenvalues --   -0.18441  -0.12711  -0.12595  -0.10839
 Alpha virt. eigenvalues --   -0.05484  -0.05172  -0.04871  -0.03092  -0.03006
 Alpha virt. eigenvalues --   -0.02740  -0.01462  -0.01150  -0.00401  -0.00391
 Alpha virt. eigenvalues --   -0.00044   0.00352   0.00797   0.00868   0.00889

  Beta  occ. eigenvalues --  -38.43920 -38.43771 -38.43753 -38.43552 -38.43547
  Beta  occ. eigenvalues --  -38.43495 -38.43159  -2.19730  -2.19561  -2.19529
  Beta  occ. eigenvalues --   -2.19399  -2.19391  -2.19348  -2.19086  -1.13399
  Beta  occ. eigenvalues --   -1.13382  -1.13375  -1.13251  -1.13226  -1.13218
  Beta  occ. eigenvalues --   -1.13216  -1.13212  -1.13202  -1.13118  -1.13071
  Beta  occ. eigenvalues --   -1.13055  -1.13047  -1.13044  -1.13032  -1.12997
  Beta  occ. eigenvalues --   -1.12995  -1.12971  -1.12798  -1.12748  -1.12728
  Beta  occ. eigenvalues --   -0.17718  -0.12505  -0.12382
  Beta virt. eigenvalues --   -0.06875  -0.05474  -0.05189  -0.04766  -0.02285
  Beta virt. eigenvalues --   -0.02259  -0.01661  -0.01381  -0.01079  -0.00457
  Beta virt. eigenvalues --   -0.00443   0.00120   0.00381   0.00855   0.00875

 Mulliken charges and spin densities:
               1          2
     1  Na   0.155197  -0.035776
     2  Na   0.148399   0.000196
     3  Na   0.230771  -0.023527
     4  Na   0.112315  -0.023013
     5  Na  -0.624863   0.774395
     6  Na  -0.170876   0.363466
     7  Na   0.149057  -0.055741
 Sum of Mulliken charges =  -0.00000   1.00000

 Dipole moment (field-independent basis, Debye):
    X=              0.1033    Y=             -0.0392    Z=              0.1531  Tot=              0.1888
 Quadrupole moment (field-independent basis, Debye-Ang):
   XX=            -57.6171   YY=            -62.2300   ZZ=            -73.9816
   XY=              0.2171   XZ=              0.6127   YZ=              0.9673

 Normal termination of Gaussian 16 at Fri Dec  8 02:42:40 2023.
