 Gaussian 16, Revision B.01,
 Gaussian 16:  ES64L-G16RevB.01 20-Dec-2017

 -------------------------
 #P B3LYP/6-311+g(d) force
 -------------------------

 -----
 DPGEN
 -----
 Symbolic Z-matrix:
 Charge =  0 Multiplicity = 2

                         Standard orientation:
 ---------------------------------------------------------------------
 Center     Atomic      Atomic             Coordinates (Angstroms)
 Number     Number       Type             X           Y           Z
 ---------------------------------------------------------------------
      1         11           0        3.834391   -1.446096    0.518243
      2         11           0       -1.749577    1.777072   -0.770441
      3         11           0        0.099736   -0.101686    1.950635
      4         11           0       -1.992549   -1.810039   -0.769629
      5         11           0        1.056625   -0.609519   -1.584261
      6         11           0       -4.348069    0.145955    0.727858
      7         11           0        3.099443    2.044312   -0.072406
 ---------------------------------------------------------------------

 SCF Done:  E(UB3LYP) =  -1136.10623882     A.U. after   37 cycles

 The electronic state is 2-A.
 Alpha  occ. eigenvalues --  -38.47786 -38.45087 -38.44280 -38.44271 -38.44117
 Alpha  occ. eigenvalues --  -38.42930 -38.42666  -2.23506  -2.20880  -2.20109
 Alpha  occ. eigenvalues --   -2.20093  -2.19893  -2.18794  -2.18564  -1.17205
 Alpha  occ. eigenvalues --   -1.17155  -1.17131  -1.14550  -1.14513  -1.14499
 Alpha  occ. eigenvalues --   -1.13798  -1.13781  -1.13760  -1.13752  -1.13737
 Alpha  occ. eigenvalues --   -1.13691  -1.13579  -1.13545  -1.13533  -1.12480
 Alpha  occ. eigenvalues --   -1.12467  -1.12434  -1.12251  -1.12223  -1.12183
 Alpha  occ. eigenvalues --   -0.17843  -0.14438  -0.10819  -0.10159
 Alpha virt. eigenvalues --   -0.07949  -0.06110  -0.04608  -0.03423  -0.02880
 Alpha virt. eigenvalues --   -0.02286  -0.02113  -0.01721  -0.01370  -0.00729
 Alpha virt. eigenvalues --   -0.00295   0.00048   0.00190   0.00362   0.00446

  Beta  occ. eigenvalues --  -38.47781 -38.45031 -38.44252 -38.44230 -38.44105
  Beta  occ. eigenvalues --  -38.42930 -38.42632  -2.23498  -2.20775  -2.20061
  Beta  occ. eigenvalues --   -2.20015  -2.19872  -2.18797  -2.18505  -1.17181
  Beta  occ. eigenvalues --   -1.17153  -1.17128  -1.14477  -1.14441  -1.14430
  Beta  occ. eigenvalues --   -1.13769  -1.13741  -1.13712  -1.13698  -1.13680
  Beta  occ. eigenvalues --   -1.13641  -1.13565  -1.13530  -1.13506  -1.12477
  Beta  occ. eigenvalues --   -1.12466  -1.12423  -1.12211  -1.12155  -1.12145
  Beta  occ. eigenvalues --   -0.17248  -0.14025  -0.10040
  Beta virt. eigenvalues --   -0.07728  -0.07277  -0.05681  -0.04180  -0.03178
  Beta virt. eigenvalues --   -0.02694  -0.01874  -0.01586  -0.01465  -0.01058
  Beta virt. eigenvalues --   -0.00557  -0.00176   0.00119   0.00312   0.00458

 Mulliken charges and spin densities:
               1          2
     1  Na   0.142711   0.280675
     2  Na  -0.177752   0.094518
     3  Na  -0.128081   0.035234
     4  Na  -0.096989  -0.005051
     5  Na   0.115671   0.220490
     6  Na   0.205341   0.250057
     7  Na  -0.060903   0.124078
 Sum of Mulliken charges =  -0.00000   1.00000

 Dipole moment (field-independent basis, Debye):
    X=              0.4631    Y=             -0.5019    Z=              0.9018  Tot=              1.1312
 Quadrupole moment (field-independent basis, Debye-Ang):
   XX=            -57.7506   YY=            -77.4591   ZZ=            -66.5641
   XY=             -0.0778   XZ=             -0.2193   YZ=             -5.6330

 Normal termination of Gaussian 16 at Thu Dec  7 20:35:55 2023.
