 Gaussian 16, Revision B.01,
 Gaussian 16:  ES64L-G16RevB.01 20-Dec-2017

 -------------------------
 #P B3LYP/6-311+g(d) force
 -------------------------

 -----
 DPGEN
 -----
 Symbolic Z-matrix:
 Charge =  0 Multiplicity = 2

                         Standard orientation:
 ---------------------------------------------------------------------
 Center     Atomic      Atomic             Coordinates (Angstroms)
 Number     Number       Type             X           Y           Z
 ---------------------------------------------------------------------
      1         11           0        3.236288   -0.281536   -0.397372
      2         11           0        0.511720   -0.179926    2.149141
      3         11           0       -3.330722    1.654441   -0.046148
      4         11           0        0.856469   -2.810105   -0.442152
      5         11           0       -0.514834    0.488583   -1.222567
      6         11           0       -2.414313   -1.794680    0.036974
      7         11           0        1.655391    2.923222   -0.077877
 ---------------------------------------------------------------------

 SCF Done:  E(UB3LYP) =  -1136.13092943     A.U. after   20 cycles

 The electronic state is 2-A.
 Alpha  occ. eigenvalues --  -38.44592 -38.44470 -38.44098 -38.44021 -38.43342
 Alpha  occ. eigenvalues --  -38.43309 -38.43019  -2.20381  -2.20283  -2.19947
 Alpha  occ. eigenvalues --   -2.19809  -2.19258  -2.19202  -2.18867  -1.14058
 Alpha  occ. eigenvalues --   -1.14035  -1.14024  -1.13957  -1.13943  -1.13916
 Alpha  occ. eigenvalues --   -1.13656  -1.13610  -1.13562  -1.13487  -1.13467
 Alpha  occ. eigenvalues --   -1.13448  -1.12969  -1.12912  -1.12884  -1.12858
 Alpha  occ. eigenvalues --   -1.12831  -1.12805  -1.12538  -1.12523  -1.12517
 Alpha  occ. eigenvalues --   -0.18107  -0.13349  -0.12131  -0.10167
 Alpha virt. eigenvalues --   -0.06428  -0.05538  -0.04647  -0.03125  -0.02514
 Alpha virt. eigenvalues --   -0.02250  -0.01982  -0.01392  -0.00986  -0.00486
 Alpha virt. eigenvalues --   -0.00041   0.00262   0.00660   0.00689   0.00812

  Beta  occ. eigenvalues --  -38.44596 -38.44454 -38.44095 -38.44020 -38.43281
  Beta  occ. eigenvalues --  -38.43232 -38.43008  -2.20389  -2.20256  -2.19943
  Beta  occ. eigenvalues --   -2.19809  -2.19208  -2.18998  -2.18849  -1.14059
  Beta  occ. eigenvalues --   -1.14036  -1.14031  -1.13927  -1.13920  -1.13897
  Beta  occ. eigenvalues --   -1.13652  -1.13589  -1.13563  -1.13485  -1.13455
  Beta  occ. eigenvalues --   -1.13450  -1.12918  -1.12875  -1.12847  -1.12724
  Beta  occ. eigenvalues --   -1.12692  -1.12660  -1.12525  -1.12512  -1.12484
  Beta  occ. eigenvalues --   -0.17450  -0.13150  -0.11948
  Beta virt. eigenvalues --   -0.06388  -0.06229  -0.05464  -0.04606  -0.02450
  Beta virt. eigenvalues --   -0.01965  -0.01854  -0.01371  -0.01111  -0.00980
  Beta virt. eigenvalues --   -0.00488   0.00164   0.00340   0.00696   0.00764

 Mulliken charges and spin densities:
               1          2
     1  Na   0.249634   0.114910
     2  Na  -0.493885   0.673059
     3  Na   0.191869  -0.036615
     4  Na  -0.084377   0.070354
     5  Na  -0.096314   0.162051
     6  Na   0.236600   0.037180
     7  Na  -0.003527  -0.020940
 Sum of Mulliken charges =  -0.00000   1.00000

 Dipole moment (field-independent basis, Debye):
    X=             -0.3893    Y=              0.4615    Z=              0.1523  Tot=              0.6227
 Quadrupole moment (field-independent basis, Debye-Ang):
   XX=            -52.8195   YY=            -61.8688   ZZ=            -77.4472
   XY=             -0.3516   XZ=             -1.8141   YZ=              0.9895

 Normal termination of Gaussian 16 at Thu Dec  7 02:39:13 2023.
