 Gaussian 16, Revision B.01,
 Gaussian 16:  ES64L-G16RevB.01 20-Dec-2017

 -------------------------
 #P B3LYP/6-311+g(d) force
 -------------------------

 -----
 DPGEN
 -----
 Symbolic Z-matrix:
 Charge =  0 Multiplicity = 2

                         Standard orientation:
 ---------------------------------------------------------------------
 Center     Atomic      Atomic             Coordinates (Angstroms)
 Number     Number       Type             X           Y           Z
 ---------------------------------------------------------------------
      1         11           0       -1.522411    2.752332    0.313357
      2         11           0        3.040607   -1.156289    0.320904
      3         11           0       -3.253023   -1.267556   -0.288243
      4         11           0        1.992086    1.780652   -0.666899
      5         11           0       -0.033762   -2.543380   -0.020777
      6         11           0       -0.093447    0.164118   -1.750953
      7         11           0       -0.130051    0.270124    2.092612
 ---------------------------------------------------------------------

 SCF Done:  E(UB3LYP) =  -1136.13125755     A.U. after   20 cycles

 The electronic state is 2-A.
 Alpha  occ. eigenvalues --  -38.44292 -38.43986 -38.43744 -38.43737 -38.43669
 Alpha  occ. eigenvalues --  -38.43598 -38.43137  -2.20068  -2.19863  -2.19727
 Alpha  occ. eigenvalues --   -2.19587  -2.19577  -2.19411  -2.19029  -1.13741
 Alpha  occ. eigenvalues --   -1.13720  -1.13709  -1.13595  -1.13529  -1.13498
 Alpha  occ. eigenvalues --   -1.13485  -1.13393  -1.13328  -1.13285  -1.13235
 Alpha  occ. eigenvalues --   -1.13232  -1.13204  -1.13179  -1.13146  -1.13090
 Alpha  occ. eigenvalues --   -1.13065  -1.13043  -1.12734  -1.12705  -1.12629
 Alpha  occ. eigenvalues --   -0.18609  -0.12797  -0.12404  -0.11155
 Alpha virt. eigenvalues --   -0.05796  -0.05204  -0.04167  -0.03262  -0.03073
 Alpha virt. eigenvalues --   -0.02845  -0.01751  -0.01204  -0.00253  -0.00041
 Alpha virt. eigenvalues --    0.00026   0.00311   0.00737   0.00843   0.00929

  Beta  occ. eigenvalues --  -38.44290 -38.43895 -38.43734 -38.43672 -38.43645
  Beta  occ. eigenvalues --  -38.43592 -38.43130  -2.20066  -2.19695  -2.19601
  Beta  occ. eigenvalues --   -2.19574  -2.19544  -2.19403  -2.19019  -1.13733
  Beta  occ. eigenvalues --   -1.13717  -1.13709  -1.13519  -1.13420  -1.13379
  Beta  occ. eigenvalues --   -1.13363  -1.13305  -1.13278  -1.13244  -1.13229
  Beta  occ. eigenvalues --   -1.13210  -1.13165  -1.13129  -1.13116  -1.13069
  Beta  occ. eigenvalues --   -1.13056  -1.13038  -1.12726  -1.12677  -1.12619
  Beta  occ. eigenvalues --   -0.17871  -0.12574  -0.12126
  Beta virt. eigenvalues --   -0.07235  -0.05752  -0.05109  -0.04142  -0.02523
  Beta virt. eigenvalues --   -0.02303  -0.01845  -0.01646  -0.01107  -0.00209
  Beta virt. eigenvalues --   -0.00058   0.00098   0.00342   0.00804   0.00841

 Mulliken charges and spin densities:
               1          2
     1  Na  -0.011750  -0.067826
     2  Na  -0.035841   0.019353
     3  Na   0.015852  -0.095561
     4  Na   0.557338   0.125205
     5  Na   0.116926   0.077290
     6  Na  -0.199949   0.292562
     7  Na  -0.442576   0.648977
 Sum of Mulliken charges =  -0.00000   1.00000

 Dipole moment (field-independent basis, Debye):
    X=             -0.3938    Y=              0.0883    Z=              0.2534  Tot=              0.4765
 Quadrupole moment (field-independent basis, Debye-Ang):
   XX=            -55.2669   YY=            -66.1552   ZZ=            -72.5394
   XY=             -1.1107   XZ=              0.7036   YZ=             -0.4546

 Normal termination of Gaussian 16 at Tue Dec  5 11:15:44 2023.
