 Gaussian 16, Revision B.01,
 Gaussian 16:  ES64L-G16RevB.01 20-Dec-2017

 -------------------------
 #P B3LYP/6-311+g(d) force
 -------------------------

 -----
 DPGEN
 -----
 Symbolic Z-matrix:
 Charge =  0 Multiplicity = 2

                         Standard orientation:
 ---------------------------------------------------------------------
 Center     Atomic      Atomic             Coordinates (Angstroms)
 Number     Number       Type             X           Y           Z
 ---------------------------------------------------------------------
      1         11           0       -0.277757   -2.451356   -0.146049
      2         11           0       -0.630095    0.062880    1.838397
      3         11           0       -3.173734   -1.151348   -0.232906
      4         11           0        0.560606    0.421913   -1.621107
      5         11           0        3.124978   -1.384381    0.072667
      6         11           0        2.103391    1.963237    0.318122
      7         11           0       -1.707389    2.539054   -0.229123
 ---------------------------------------------------------------------

 SCF Done:  E(UB3LYP) =  -1136.13161321     A.U. after   19 cycles

 The electronic state is 2-A.
 Alpha  occ. eigenvalues --  -38.44434 -38.44187 -38.44066 -38.43670 -38.43203
 Alpha  occ. eigenvalues --  -38.43200 -38.43036  -2.20258  -2.19996  -2.19947
 Alpha  occ. eigenvalues --   -2.19496  -2.19192  -2.19141  -2.18953  -1.13939
 Alpha  occ. eigenvalues --   -1.13918  -1.13894  -1.13724  -1.13664  -1.13657
 Alpha  occ. eigenvalues --   -1.13645  -1.13597  -1.13533  -1.13176  -1.13173
 Alpha  occ. eigenvalues --   -1.13122  -1.12881  -1.12861  -1.12835  -1.12777
 Alpha  occ. eigenvalues --   -1.12772  -1.12753  -1.12635  -1.12613  -1.12564
 Alpha  occ. eigenvalues --   -0.18725  -0.13317  -0.12347  -0.10360
 Alpha virt. eigenvalues --   -0.05965  -0.05653  -0.04235  -0.03266  -0.02695
 Alpha virt. eigenvalues --   -0.02139  -0.01855  -0.01407  -0.00416  -0.00100
 Alpha virt. eigenvalues --   -0.00023   0.00315   0.00723   0.00800   0.00915

  Beta  occ. eigenvalues --  -38.44431 -38.44188 -38.44056 -38.43663 -38.43136
  Beta  occ. eigenvalues --  -38.43123 -38.43024  -2.20256  -2.19999  -2.19933
  Beta  occ. eigenvalues --   -2.19486  -2.19076  -2.18993  -2.18936  -1.13939
  Beta  occ. eigenvalues --   -1.13902  -1.13892  -1.13709  -1.13662  -1.13647
  Beta  occ. eigenvalues --   -1.13646  -1.13565  -1.13529  -1.13170  -1.13140
  Beta  occ. eigenvalues --   -1.13120  -1.12803  -1.12778  -1.12744  -1.12693
  Beta  occ. eigenvalues --   -1.12675  -1.12648  -1.12610  -1.12565  -1.12552
  Beta  occ. eigenvalues --   -0.18010  -0.13124  -0.12094
  Beta virt. eigenvalues --   -0.06496  -0.05865  -0.05645  -0.04210  -0.02518
  Beta virt. eigenvalues --   -0.01955  -0.01758  -0.01358  -0.01145  -0.00454
  Beta virt. eigenvalues --   -0.00120   0.00136   0.00348   0.00766   0.00815

 Mulliken charges and spin densities:
               1          2
     1  Na   0.125668  -0.065349
     2  Na  -0.374749   0.691164
     3  Na   0.117527  -0.040813
     4  Na  -0.332240   0.616799
     5  Na   0.040083  -0.024038
     6  Na   0.328759  -0.049732
     7  Na   0.094952  -0.128030
 Sum of Mulliken charges =  -0.00000   1.00000

 Dipole moment (field-independent basis, Debye):
    X=             -0.0828    Y=              0.1207    Z=              0.0715  Tot=              0.1629
 Quadrupole moment (field-independent basis, Debye-Ang):
   XX=            -50.7504   YY=            -65.1222   ZZ=            -75.9260
   XY=             -0.9786   XZ=              2.4637   YZ=              0.6521

 Normal termination of Gaussian 16 at Thu Dec  7 18:22:40 2023.
