 Gaussian 16, Revision B.01,
 Gaussian 16:  ES64L-G16RevB.01 20-Dec-2017

 -------------------------
 #P B3LYP/6-311+g(d) force
 -------------------------

 -----
 DPGEN
 -----
 Symbolic Z-matrix:
 Charge =  0 Multiplicity = 2

                         Standard orientation:
 ---------------------------------------------------------------------
 Center     Atomic      Atomic             Coordinates (Angstroms)
 Number     Number       Type             X           Y           Z
 ---------------------------------------------------------------------
      1         11           0       -0.263421   -1.745428    2.000984
      2         11           0        1.000146    1.455582   -1.966251
      3         11           0       -0.572054   -0.533097   -0.430553
      4         11           0        2.222048    0.754255    1.598399
      5         11           0        2.672312   -1.315171   -1.166793
      6         11           0       -3.417200   -1.064612   -0.988470
      7         11           0       -1.641831    2.448471    0.952683
 ---------------------------------------------------------------------

 SCF Done:  E(UB3LYP) =  -1136.11199217     A.U. after   24 cycles

 The electronic state is 2-A.
 Alpha  occ. eigenvalues --  -38.44896 -38.44868 -38.44508 -38.44447 -38.42962
 Alpha  occ. eigenvalues --  -38.42826 -38.42598  -2.20681  -2.20677  -2.20340
 Alpha  occ. eigenvalues --   -2.20299  -2.18848  -2.18766  -2.18703  -1.14395
 Alpha  occ. eigenvalues --   -1.14340  -1.14310  -1.14304  -1.14295  -1.14285
 Alpha  occ. eigenvalues --   -1.14014  -1.14003  -1.13983  -1.13964  -1.13929
 Alpha  occ. eigenvalues --   -1.13906  -1.12876  -1.12565  -1.12481  -1.12413
 Alpha  occ. eigenvalues --   -1.12399  -1.12349  -1.12337  -1.12305  -1.12246
 Alpha  occ. eigenvalues --   -0.18364  -0.13020  -0.11766  -0.11143
 Alpha virt. eigenvalues --   -0.05968  -0.05424  -0.03728  -0.03146  -0.02975
 Alpha virt. eigenvalues --   -0.02615  -0.01869  -0.01340  -0.00394   0.00014
 Alpha virt. eigenvalues --    0.00265   0.00328   0.00499   0.00696   0.00801

  Beta  occ. eigenvalues --  -38.44832 -38.44823 -38.44475 -38.44414 -38.42963
  Beta  occ. eigenvalues --  -38.42824 -38.42574  -2.20612  -2.20547  -2.20280
  Beta  occ. eigenvalues --   -2.20238  -2.18849  -2.18736  -2.18701  -1.14346
  Beta  occ. eigenvalues --   -1.14254  -1.14244  -1.14241  -1.14218  -1.14208
  Beta  occ. eigenvalues --   -1.13970  -1.13955  -1.13933  -1.13924  -1.13891
  Beta  occ. eigenvalues --   -1.13862  -1.12874  -1.12551  -1.12465  -1.12412
  Beta  occ. eigenvalues --   -1.12349  -1.12337  -1.12319  -1.12289  -1.12241
  Beta  occ. eigenvalues --   -0.17661  -0.12676  -0.10937
  Beta virt. eigenvalues --   -0.07990  -0.05679  -0.04806  -0.03706  -0.02951
  Beta virt. eigenvalues --   -0.02263  -0.02006  -0.01704  -0.00827  -0.00372
  Beta virt. eigenvalues --    0.00210   0.00373   0.00406   0.00553   0.00715

 Mulliken charges and spin densities:
               1          2
     1  Na  -0.592704   0.176200
     2  Na   0.029011   0.115777
     3  Na  -0.610285  -0.142105
     4  Na   0.546555   0.292000
     5  Na   0.448175   0.051263
     6  Na   0.291949   0.098634
     7  Na  -0.112701   0.408231
 Sum of Mulliken charges =  -0.00000   1.00000

 Dipole moment (field-independent basis, Debye):
    X=              0.0100    Y=              0.2801    Z=              0.1696  Tot=              0.3277
 Quadrupole moment (field-independent basis, Debye-Ang):
   XX=            -53.8921   YY=            -66.6196   ZZ=            -70.0306
   XY=             -0.7065   XZ=              0.4509   YZ=              7.8198

 Normal termination of Gaussian 16 at Fri Dec  8 02:15:11 2023.
