 Gaussian 16, Revision B.01,
 Gaussian 16:  ES64L-G16RevB.01 20-Dec-2017

 -------------------------
 #P B3LYP/6-311+g(d) force
 -------------------------

 -----
 DPGEN
 -----
 Symbolic Z-matrix:
 Charge =  0 Multiplicity = 2

                         Standard orientation:
 ---------------------------------------------------------------------
 Center     Atomic      Atomic             Coordinates (Angstroms)
 Number     Number       Type             X           Y           Z
 ---------------------------------------------------------------------
      1         11           0       -0.506353   -1.692739    0.996332
      2         11           0       -3.175244   -3.102506   -0.508946
      3         11           0       -2.850165    0.136846   -0.110939
      4         11           0       -0.132476    1.516098   -1.003720
      5         11           0        3.093692   -0.286720    0.566443
      6         11           0       -2.142439    3.668850    0.465999
      7         11           0        5.712985   -0.239830   -0.405169
 ---------------------------------------------------------------------

 SCF Done:  E(UB3LYP) =  -1136.11818510     A.U. after   19 cycles

 The electronic state is 2-A.
 Alpha  occ. eigenvalues --  -38.44693 -38.44385 -38.44275 -38.44135 -38.44078
 Alpha  occ. eigenvalues --  -38.43502 -38.42864  -2.20553  -2.20206  -2.20191
 Alpha  occ. eigenvalues --   -2.20014  -2.19917  -2.19370  -2.18729  -1.14281
 Alpha  occ. eigenvalues --   -1.14223  -1.14154  -1.13944  -1.13914  -1.13858
 Alpha  occ. eigenvalues --   -1.13850  -1.13815  -1.13785  -1.13702  -1.13675
 Alpha  occ. eigenvalues --   -1.13618  -1.13569  -1.13564  -1.13518  -1.13158
 Alpha  occ. eigenvalues --   -1.12975  -1.12974  -1.12389  -1.12381  -1.12365
 Alpha  occ. eigenvalues --   -0.17501  -0.13580  -0.13063  -0.10500
 Alpha virt. eigenvalues --   -0.06252  -0.05749  -0.04150  -0.03712  -0.02611
 Alpha virt. eigenvalues --   -0.02375  -0.02069  -0.01453  -0.01309  -0.00528
 Alpha virt. eigenvalues --   -0.00451   0.00073   0.00462   0.00518   0.00574

  Beta  occ. eigenvalues --  -38.44675 -38.44366 -38.44260 -38.44093 -38.44048
  Beta  occ. eigenvalues --  -38.43428 -38.42859  -2.20523  -2.20180  -2.20157
  Beta  occ. eigenvalues --   -2.19939  -2.19861  -2.19233  -2.18730  -1.14266
  Beta  occ. eigenvalues --   -1.14205  -1.14109  -1.13909  -1.13898  -1.13833
  Beta  occ. eigenvalues --   -1.13824  -1.13793  -1.13760  -1.13656  -1.13628
  Beta  occ. eigenvalues --   -1.13555  -1.13530  -1.13518  -1.13475  -1.13074
  Beta  occ. eigenvalues --   -1.12881  -1.12881  -1.12393  -1.12390  -1.12298
  Beta  occ. eigenvalues --   -0.16934  -0.12948  -0.12727
  Beta virt. eigenvalues --   -0.07161  -0.05942  -0.05518  -0.03619  -0.03467
  Beta virt. eigenvalues --   -0.02442  -0.02204  -0.01905  -0.01162  -0.00910
  Beta virt. eigenvalues --   -0.00245  -0.00171   0.00258   0.00550   0.00577

 Mulliken charges and spin densities:
               1          2
     1  Na  -0.240765  -0.134255
     2  Na   1.011406   0.180084
     3  Na  -0.756373   0.456657
     4  Na  -0.489645  -0.202261
     5  Na  -0.101015   0.234706
     6  Na   0.700208   0.128679
     7  Na  -0.123816   0.336390
 Sum of Mulliken charges =  -0.00000   1.00000

 Dipole moment (field-independent basis, Debye):
    X=             -2.0498    Y=              0.3294    Z=             -0.1217  Tot=              2.0797
 Quadrupole moment (field-independent basis, Debye-Ang):
   XX=            -73.6405   YY=            -59.4832   ZZ=            -67.1649
   XY=              1.2393   XZ=             -2.7882   YZ=              2.2301

 Normal termination of Gaussian 16 at Tue Nov 28 20:19:07 2023.
