 Gaussian 16, Revision B.01,
 Gaussian 16:  ES64L-G16RevB.01 20-Dec-2017

 -------------------------
 #P B3LYP/6-311+g(d) force
 -------------------------

 -----
 DPGEN
 -----
 Symbolic Z-matrix:
 Charge =  0 Multiplicity = 2

                         Standard orientation:
 ---------------------------------------------------------------------
 Center     Atomic      Atomic             Coordinates (Angstroms)
 Number     Number       Type             X           Y           Z
 ---------------------------------------------------------------------
      1         11           0        5.194117    1.530339   -0.326136
      2         11           0       -0.501176   -0.956339    2.373375
      3         11           0       -2.749334   -2.666782   -0.028738
      4         11           0       -4.214628   -0.169827   -1.661209
      5         11           0       -4.117058    2.819559   -0.031759
      6         11           0        1.742262    0.785214    0.969608
      7         11           0        4.645817   -1.342164   -1.295141
 ---------------------------------------------------------------------

 SCF Done:  E(UB3LYP) =  -1136.10573377     A.U. after   19 cycles

 The electronic state is 2-A.
 Alpha  occ. eigenvalues --  -38.45822 -38.45260 -38.44154 -38.44057 -38.43780
 Alpha  occ. eigenvalues --  -38.43292 -38.42941  -2.21612  -2.21067  -2.19942
 Alpha  occ. eigenvalues --   -2.19869  -2.19596  -2.19079  -2.18737  -1.15286
 Alpha  occ. eigenvalues --   -1.15267  -1.15250  -1.14726  -1.14722  -1.14704
 Alpha  occ. eigenvalues --   -1.13584  -1.13578  -1.13558  -1.13521  -1.13511
 Alpha  occ. eigenvalues --   -1.13485  -1.13271  -1.13265  -1.13216  -1.12760
 Alpha  occ. eigenvalues --   -1.12755  -1.12738  -1.12412  -1.12405  -1.12388
 Alpha  occ. eigenvalues --   -0.15546  -0.14338  -0.11777  -0.10786
 Alpha virt. eigenvalues --   -0.06912  -0.05624  -0.04217  -0.03595  -0.02824
 Alpha virt. eigenvalues --   -0.02621  -0.02353  -0.01571  -0.01219  -0.00823
 Alpha virt. eigenvalues --   -0.00289  -0.00119   0.00018   0.00218   0.00292

  Beta  occ. eigenvalues --  -38.45804 -38.45263 -38.44060 -38.43971 -38.43742
  Beta  occ. eigenvalues --  -38.43309 -38.42953  -2.21579  -2.21075  -2.19765
  Beta  occ. eigenvalues --   -2.19708  -2.19526  -2.19116  -2.18764  -1.15263
  Beta  occ. eigenvalues --   -1.15244  -1.15226  -1.14731  -1.14719  -1.14710
  Beta  occ. eigenvalues --   -1.13463  -1.13457  -1.13444  -1.13411  -1.13406
  Beta  occ. eigenvalues --   -1.13378  -1.13227  -1.13216  -1.13168  -1.12791
  Beta  occ. eigenvalues --   -1.12783  -1.12719  -1.12430  -1.12424  -1.12389
  Beta  occ. eigenvalues --   -0.15289  -0.13705  -0.11278
  Beta virt. eigenvalues --   -0.07487  -0.06583  -0.05380  -0.03805  -0.03334
  Beta virt. eigenvalues --   -0.02484  -0.02425  -0.02169  -0.01355  -0.00986
  Beta virt. eigenvalues --   -0.00536  -0.00074   0.00056   0.00162   0.00304

 Mulliken charges and spin densities:
               1          2
     1  Na   0.155396   0.019161
     2  Na   0.529213  -0.193943
     3  Na   0.073357   0.441269
     4  Na   0.007834  -0.130007
     5  Na   0.048067   0.505035
     6  Na  -1.052422   0.276486
     7  Na   0.238554   0.082000
 Sum of Mulliken charges =  -0.00000   1.00000

 Dipole moment (field-independent basis, Debye):
    X=              3.5975    Y=              0.0286    Z=             -0.6550  Tot=              3.6567
 Quadrupole moment (field-independent basis, Debye-Ang):
   XX=            -66.0217   YY=            -59.5753   ZZ=            -72.1810
   XY=              2.9880   XZ=             -4.8045   YZ=              4.7214

 Normal termination of Gaussian 16 at Mon Dec  4 01:11:04 2023.
