 Gaussian 16, Revision B.01,
 Gaussian 16:  ES64L-G16RevB.01 20-Dec-2017

 -------------------------
 #P B3LYP/6-311+g(d) force
 -------------------------

 -----
 DPGEN
 -----
 Symbolic Z-matrix:
 Charge =  0 Multiplicity = 2

                         Standard orientation:
 ---------------------------------------------------------------------
 Center     Atomic      Atomic             Coordinates (Angstroms)
 Number     Number       Type             X           Y           Z
 ---------------------------------------------------------------------
      1         11           0        2.824916   -1.111035   -0.404718
      2         11           0       -2.991852   -0.603113   -0.102166
      3         11           0       -1.776955    2.586467   -0.259436
      4         11           0       -0.074674   -0.184674   -1.584437
      5         11           0        2.269978    2.288073    0.131964
      6         11           0       -0.245898   -2.937458    0.120691
      7         11           0       -0.005515   -0.038260    2.098102
 ---------------------------------------------------------------------

 SCF Done:  E(UB3LYP) =  -1136.13861745     A.U. after   19 cycles

 The electronic state is 2-A.
 Alpha  occ. eigenvalues --  -38.43861 -38.43852 -38.43791 -38.43720 -38.43649
 Alpha  occ. eigenvalues --  -38.43274 -38.43164  -2.19717  -2.19643  -2.19639
 Alpha  occ. eigenvalues --   -2.19531  -2.19521  -2.19150  -2.19142  -1.13411
 Alpha  occ. eigenvalues --   -1.13382  -1.13351  -1.13345  -1.13319  -1.13314
 Alpha  occ. eigenvalues --   -1.13293  -1.13290  -1.13248  -1.13209  -1.13193
 Alpha  occ. eigenvalues --   -1.13184  -1.13164  -1.13146  -1.13137  -1.12884
 Alpha  occ. eigenvalues --   -1.12817  -1.12802  -1.12785  -1.12768  -1.12742
 Alpha  occ. eigenvalues --   -0.18524  -0.13003  -0.12371  -0.10714
 Alpha virt. eigenvalues --   -0.05486  -0.05295  -0.04865  -0.03117  -0.02869
 Alpha virt. eigenvalues --   -0.02577  -0.01443  -0.01222  -0.00546  -0.00386
 Alpha virt. eigenvalues --   -0.00009   0.00354   0.00804   0.00858   0.00865

  Beta  occ. eigenvalues --  -38.43856 -38.43852 -38.43781 -38.43717 -38.43549
  Beta  occ. eigenvalues --  -38.43268 -38.43105  -2.19711  -2.19644  -2.19623
  Beta  occ. eigenvalues --   -2.19527  -2.19337  -2.19135  -2.19044  -1.13403
  Beta  occ. eigenvalues --   -1.13366  -1.13341  -1.13333  -1.13306  -1.13300
  Beta  occ. eigenvalues --   -1.13295  -1.13270  -1.13242  -1.13197  -1.13184
  Beta  occ. eigenvalues --   -1.13160  -1.13066  -1.13019  -1.13002  -1.12856
  Beta  occ. eigenvalues --   -1.12781  -1.12763  -1.12746  -1.12703  -1.12681
  Beta  occ. eigenvalues --   -0.17800  -0.12761  -0.12152
  Beta virt. eigenvalues --   -0.06789  -0.05482  -0.05255  -0.04807  -0.02358
  Beta virt. eigenvalues --   -0.02109  -0.01515  -0.01351  -0.01135  -0.00590
  Beta virt. eigenvalues --   -0.00440   0.00134   0.00385   0.00846   0.00868

 Mulliken charges and spin densities:
               1          2
     1  Na   0.207797  -0.013659
     2  Na   0.251776  -0.021053
     3  Na  -0.023013  -0.073068
     4  Na  -0.168395   0.369201
     5  Na  -0.039813  -0.061704
     6  Na   0.274976   0.003831
     7  Na  -0.503328   0.796452
 Sum of Mulliken charges =  -0.00000   1.00000

 Dipole moment (field-independent basis, Debye):
    X=             -0.0222    Y=              0.0908    Z=              0.1336  Tot=              0.1630
 Quadrupole moment (field-independent basis, Debye-Ang):
   XX=            -57.8369   YY=            -60.6665   ZZ=            -74.7938
   XY=              0.3029   XZ=             -0.2453   YZ=             -0.1912

 Normal termination of Gaussian 16 at Thu Dec  7 08:16:08 2023.
