 Gaussian 16, Revision B.01,
 Gaussian 16:  ES64L-G16RevB.01 20-Dec-2017

 -------------------------
 #P B3LYP/6-311+g(d) force
 -------------------------

 -----
 DPGEN
 -----
 Symbolic Z-matrix:
 Charge =  0 Multiplicity = 2

                         Standard orientation:
 ---------------------------------------------------------------------
 Center     Atomic      Atomic             Coordinates (Angstroms)
 Number     Number       Type             X           Y           Z
 ---------------------------------------------------------------------
      1         11           0        2.608295   -0.861586    0.248494
      2         11           0        2.174733    2.434417   -0.375638
      3         11           0       -1.928174    2.215385    0.219264
      4         11           0       -0.346891   -0.089646   -1.810253
      5         11           0        0.590462   -2.817646   -0.113738
      6         11           0       -0.061214    0.061080    1.879882
      7         11           0       -3.037209   -0.942005   -0.048011
 ---------------------------------------------------------------------

 SCF Done:  E(UB3LYP) =  -1136.13260297     A.U. after   21 cycles

 The electronic state is 2-A.
 Alpha  occ. eigenvalues --  -38.44178 -38.43940 -38.43623 -38.43548 -38.43545
 Alpha  occ. eigenvalues --  -38.43442 -38.43296  -2.20018  -2.19797  -2.19577
 Alpha  occ. eigenvalues --   -2.19485  -2.19386  -2.19344  -2.19212  -1.13702
 Alpha  occ. eigenvalues --   -1.13680  -1.13661  -1.13493  -1.13467  -1.13409
 Alpha  occ. eigenvalues --   -1.13396  -1.13265  -1.13211  -1.13150  -1.13107
 Alpha  occ. eigenvalues --   -1.13094  -1.13065  -1.13027  -1.13015  -1.13007
 Alpha  occ. eigenvalues --   -1.12999  -1.12979  -1.12852  -1.12838  -1.12823
 Alpha  occ. eigenvalues --   -0.18877  -0.13416  -0.12217  -0.10883
 Alpha virt. eigenvalues --   -0.05631  -0.05275  -0.04511  -0.03453  -0.02824
 Alpha virt. eigenvalues --   -0.02533  -0.01547  -0.01138  -0.00285  -0.00147
 Alpha virt. eigenvalues --   -0.00002   0.00360   0.00808   0.00835   0.00934

  Beta  occ. eigenvalues --  -38.44174 -38.43931 -38.43615 -38.43544 -38.43461
  Beta  occ. eigenvalues --  -38.43366 -38.43291  -2.20014  -2.19785  -2.19567
  Beta  occ. eigenvalues --   -2.19339  -2.19330  -2.19245  -2.19208  -1.13695
  Beta  occ. eigenvalues --   -1.13665  -1.13654  -1.13479  -1.13437  -1.13405
  Beta  occ. eigenvalues --   -1.13394  -1.13243  -1.13178  -1.13054  -1.13007
  Beta  occ. eigenvalues --   -1.12998  -1.12994  -1.12991  -1.12978  -1.12972
  Beta  occ. eigenvalues --   -1.12931  -1.12896  -1.12844  -1.12826  -1.12801
  Beta  occ. eigenvalues --   -0.18130  -0.13154  -0.11976
  Beta virt. eigenvalues --   -0.06985  -0.05597  -0.05216  -0.04481  -0.02607
  Beta virt. eigenvalues --   -0.02093  -0.01525  -0.01450  -0.01049  -0.00325
  Beta virt. eigenvalues --   -0.00184   0.00121   0.00382   0.00836   0.00889

 Mulliken charges and spin densities:
               1          2
     1  Na   0.229446   0.078645
     2  Na  -0.086015  -0.065350
     3  Na   0.062414  -0.074311
     4  Na  -0.296324   0.751822
     5  Na   0.116360  -0.108066
     6  Na  -0.166773   0.529021
     7  Na   0.140892  -0.111761
 Sum of Mulliken charges =  -0.00000   1.00000

 Dipole moment (field-independent basis, Debye):
    X=             -0.6533    Y=              0.1542    Z=              0.0173  Tot=              0.6714
 Quadrupole moment (field-independent basis, Debye-Ang):
   XX=            -57.8489   YY=            -62.7106   ZZ=            -73.7994
   XY=              0.7408   XZ=             -0.5379   YZ=             -0.4855

 Normal termination of Gaussian 16 at Thu Dec  7 08:41:21 2023.
