 Gaussian 16, Revision B.01,
 Gaussian 16:  ES64L-G16RevB.01 20-Dec-2017

 -------------------------
 #P B3LYP/6-311+g(d) force
 -------------------------

 -----
 DPGEN
 -----
 Symbolic Z-matrix:
 Charge =  0 Multiplicity = 2

                         Standard orientation:
 ---------------------------------------------------------------------
 Center     Atomic      Atomic             Coordinates (Angstroms)
 Number     Number       Type             X           Y           Z
 ---------------------------------------------------------------------
      1         11           0       -3.286669    1.780020   -1.510013
      2         11           0        3.086336    2.860009    0.220670
      3         11           0        2.662389   -2.472268   -1.310916
      4         11           0       -1.435706   -1.534144   -1.052264
      5         11           0        1.551628   -0.686485    0.587372
      6         11           0       -0.723252    2.267991    0.980207
      7         11           0       -1.854725   -2.215123    2.084943
 ---------------------------------------------------------------------

 SCF Done:  E(UB3LYP) =  -1136.11278735     A.U. after   21 cycles

 The electronic state is 2-A.
 Alpha  occ. eigenvalues --  -38.44686 -38.44521 -38.44449 -38.44163 -38.44152
 Alpha  occ. eigenvalues --  -38.44127 -38.43451  -2.20501  -2.20263  -2.20253
 Alpha  occ. eigenvalues --   -2.20000  -2.19924  -2.19911  -2.19360  -1.14166
 Alpha  occ. eigenvalues --   -1.14132  -1.14123  -1.13963  -1.13941  -1.13931
 Alpha  occ. eigenvalues --   -1.13913  -1.13878  -1.13866  -1.13785  -1.13626
 Alpha  occ. eigenvalues --   -1.13622  -1.13616  -1.13596  -1.13567  -1.13558
 Alpha  occ. eigenvalues --   -1.13541  -1.13513  -1.13049  -1.13046  -1.12935
 Alpha  occ. eigenvalues --   -0.16937  -0.12883  -0.12408  -0.10999
 Alpha virt. eigenvalues --   -0.06344  -0.05706  -0.04562  -0.03332  -0.02854
 Alpha virt. eigenvalues --   -0.02385  -0.01952  -0.01538  -0.00904  -0.00511
 Alpha virt. eigenvalues --   -0.00394  -0.00108   0.00329   0.00507   0.00572

  Beta  occ. eigenvalues --  -38.44596 -38.44515 -38.44453 -38.44167 -38.44102
  Beta  occ. eigenvalues --  -38.44064 -38.43448  -2.20334  -2.20274  -2.20241
  Beta  occ. eigenvalues --   -2.19934  -2.19906  -2.19794  -2.19359  -1.14067
  Beta  occ. eigenvalues --   -1.14019  -1.14011  -1.13973  -1.13922  -1.13907
  Beta  occ. eigenvalues --   -1.13905  -1.13876  -1.13868  -1.13726  -1.13632
  Beta  occ. eigenvalues --   -1.13617  -1.13556  -1.13534  -1.13533  -1.13485
  Beta  occ. eigenvalues --   -1.13473  -1.13453  -1.13052  -1.13009  -1.12941
  Beta  occ. eigenvalues --   -0.16495  -0.12200  -0.11997
  Beta virt. eigenvalues --   -0.07792  -0.06202  -0.05102  -0.04281  -0.03075
  Beta virt. eigenvalues --   -0.02570  -0.02081  -0.01490  -0.01289  -0.00645
  Beta virt. eigenvalues --   -0.00357  -0.00252   0.00020   0.00388   0.00553

 Mulliken charges and spin densities:
               1          2
     1  Na   0.069778   0.380791
     2  Na   0.202875   0.010849
     3  Na   0.293209   0.187297
     4  Na  -0.072415  -0.184089
     5  Na  -0.616065   0.170094
     6  Na  -0.115949  -0.030038
     7  Na   0.238567   0.465098
 Sum of Mulliken charges =  -0.00000   1.00000

 Dipole moment (field-independent basis, Debye):
    X=             -0.0695    Y=             -0.2146    Z=             -0.1691  Tot=              0.2819
 Quadrupole moment (field-independent basis, Debye-Ang):
   XX=            -62.2506   YY=            -66.1812   ZZ=            -66.2126
   XY=              2.0463   XZ=             -2.5295   YZ=             -0.0705

 Normal termination of Gaussian 16 at Sun Dec  3 13:54:51 2023.
