 Gaussian 16, Revision B.01,
 Gaussian 16:  ES64L-G16RevB.01 20-Dec-2017

 -------------------------
 #P B3LYP/6-311+g(d) force
 -------------------------

 -----
 DPGEN
 -----
 Symbolic Z-matrix:
 Charge =  0 Multiplicity = 2

                         Standard orientation:
 ---------------------------------------------------------------------
 Center     Atomic      Atomic             Coordinates (Angstroms)
 Number     Number       Type             X           Y           Z
 ---------------------------------------------------------------------
      1         11           0        0.297432    0.676630    2.293015
      2         11           0       -1.966720   -2.296954    0.259886
      3         11           0        0.104485    2.796155   -0.109756
      4         11           0       -3.147110    0.767610   -0.353705
      5         11           0       -0.174542   -0.572101   -1.551330
      6         11           0        2.228994   -2.215593    0.264521
      7         11           0        2.657462    0.844253   -0.802630
 ---------------------------------------------------------------------

 SCF Done:  E(UB3LYP) =  -1136.13348705     A.U. after   19 cycles

 The electronic state is 2-A.
 Alpha  occ. eigenvalues --  -38.44243 -38.43992 -38.43878 -38.43686 -38.43654
 Alpha  occ. eigenvalues --  -38.43337 -38.42946  -2.20058  -2.19844  -2.19723
 Alpha  occ. eigenvalues --   -2.19588  -2.19481  -2.19317  -2.18822  -1.13737
 Alpha  occ. eigenvalues --   -1.13724  -1.13692  -1.13502  -1.13474  -1.13464
 Alpha  occ. eigenvalues --   -1.13454  -1.13377  -1.13336  -1.13297  -1.13262
 Alpha  occ. eigenvalues --   -1.13223  -1.13141  -1.13135  -1.13117  -1.12995
 Alpha  occ. eigenvalues --   -1.12966  -1.12923  -1.12506  -1.12485  -1.12456
 Alpha  occ. eigenvalues --   -0.18470  -0.13207  -0.12237  -0.11016
 Alpha virt. eigenvalues --   -0.05656  -0.05181  -0.04464  -0.03357  -0.03178
 Alpha virt. eigenvalues --   -0.02724  -0.01530  -0.01010  -0.00324  -0.00241
 Alpha virt. eigenvalues --   -0.00015   0.00351   0.00761   0.00856   0.00928

  Beta  occ. eigenvalues --  -38.44239 -38.43892 -38.43875 -38.43663 -38.43650
  Beta  occ. eigenvalues --  -38.43292 -38.42940  -2.20052  -2.19720  -2.19658
  Beta  occ. eigenvalues --   -2.19549  -2.19476  -2.19237  -2.18816  -1.13722
  Beta  occ. eigenvalues --   -1.13720  -1.13689  -1.13448  -1.13379  -1.13367
  Beta  occ. eigenvalues --   -1.13342  -1.13334  -1.13331  -1.13269  -1.13233
  Beta  occ. eigenvalues --   -1.13188  -1.13135  -1.13121  -1.13104  -1.12939
  Beta  occ. eigenvalues --   -1.12904  -1.12866  -1.12502  -1.12459  -1.12448
  Beta  occ. eigenvalues --   -0.17761  -0.13002  -0.12027
  Beta virt. eigenvalues --   -0.07073  -0.05627  -0.05107  -0.04337  -0.02679
  Beta virt. eigenvalues --   -0.02402  -0.01709  -0.01458  -0.00906  -0.00343
  Beta virt. eigenvalues --   -0.00218   0.00127   0.00394   0.00839   0.00889

 Mulliken charges and spin densities:
               1          2
     1  Na  -0.710170   0.683033
     2  Na   0.064340   0.075647
     3  Na   0.232416   0.029300
     4  Na   0.108728  -0.059946
     5  Na  -0.070702   0.147343
     6  Na  -0.019417   0.096076
     7  Na   0.394805   0.028547
 Sum of Mulliken charges =  -0.00000   1.00000

 Dipole moment (field-independent basis, Debye):
    X=             -0.3689    Y=             -0.1982    Z=              0.2169  Tot=              0.4716
 Quadrupole moment (field-independent basis, Debye-Ang):
   XX=            -57.7300   YY=            -65.0257   ZZ=            -72.1901
   XY=             -1.1310   XZ=             -0.5829   YZ=             -3.2170

 Normal termination of Gaussian 16 at Thu Dec  7 02:39:53 2023.
