 Gaussian 16, Revision B.01,
 Gaussian 16:  ES64L-G16RevB.01 20-Dec-2017

 -------------------------
 #P B3LYP/6-311+g(d) force
 -------------------------

 -----
 DPGEN
 -----
 Symbolic Z-matrix:
 Charge =  0 Multiplicity = 2

                         Standard orientation:
 ---------------------------------------------------------------------
 Center     Atomic      Atomic             Coordinates (Angstroms)
 Number     Number       Type             X           Y           Z
 ---------------------------------------------------------------------
      1         11           0       -2.062428   -1.974367   -0.123025
      2         11           0        3.147060    0.100887    0.055330
      3         11           0       -0.078430    0.028829   -1.610154
      4         11           0       -0.187425    0.012981    2.192380
      5         11           0        1.114247    2.989195   -0.209477
      6         11           0       -2.997824    1.595757   -0.102149
      7         11           0        1.064800   -2.753282   -0.202904
 ---------------------------------------------------------------------

 SCF Done:  E(UB3LYP) =  -1136.13610126     A.U. after   19 cycles

 The electronic state is 2-A.
 Alpha  occ. eigenvalues --  -38.44166 -38.43962 -38.43946 -38.43813 -38.43587
 Alpha  occ. eigenvalues --  -38.43232 -38.43230  -2.19939  -2.19759  -2.19753
 Alpha  occ. eigenvalues --   -2.19661  -2.19481  -2.19195  -2.19108  -1.13614
 Alpha  occ. eigenvalues --   -1.13590  -1.13589  -1.13442  -1.13431  -1.13429
 Alpha  occ. eigenvalues --   -1.13418  -1.13404  -1.13369  -1.13323  -1.13289
 Alpha  occ. eigenvalues --   -1.13276  -1.13204  -1.13142  -1.13106  -1.12890
 Alpha  occ. eigenvalues --   -1.12843  -1.12822  -1.12758  -1.12756  -1.12748
 Alpha  occ. eigenvalues --   -0.18384  -0.12833  -0.12405  -0.10718
 Alpha virt. eigenvalues --   -0.05840  -0.05125  -0.04848  -0.03085  -0.02889
 Alpha virt. eigenvalues --   -0.02659  -0.01568  -0.01239  -0.00604  -0.00370
 Alpha virt. eigenvalues --   -0.00030   0.00344   0.00790   0.00818   0.00862

  Beta  occ. eigenvalues --  -38.44167 -38.43960 -38.43944 -38.43708 -38.43579
  Beta  occ. eigenvalues --  -38.43226 -38.43172  -2.19942  -2.19758  -2.19751
  Beta  occ. eigenvalues --   -2.19471  -2.19466  -2.19102  -2.19088  -1.13601
  Beta  occ. eigenvalues --   -1.13595  -1.13592  -1.13439  -1.13422  -1.13417
  Beta  occ. eigenvalues --   -1.13410  -1.13402  -1.13371  -1.13208  -1.13180
  Beta  occ. eigenvalues --   -1.13153  -1.13139  -1.13114  -1.13091  -1.12831
  Beta  occ. eigenvalues --   -1.12782  -1.12753  -1.12747  -1.12732  -1.12708
  Beta  occ. eigenvalues --   -0.17651  -0.12633  -0.12198
  Beta virt. eigenvalues --   -0.06755  -0.05848  -0.05033  -0.04842  -0.02320
  Beta virt. eigenvalues --   -0.02130  -0.01608  -0.01469  -0.01149  -0.00659
  Beta virt. eigenvalues --   -0.00423   0.00127   0.00372   0.00799   0.00850

 Mulliken charges and spin densities:
               1          2
     1  Na   0.397345   0.056506
     2  Na   0.106697   0.000038
     3  Na  -0.180882   0.334512
     4  Na  -0.587911   0.771383
     5  Na   0.023350  -0.100640
     6  Na   0.045938  -0.098892
     7  Na   0.195462   0.037093
 Sum of Mulliken charges =  -0.00000   1.00000

 Dipole moment (field-independent basis, Debye):
    X=             -0.0621    Y=              0.3602    Z=              0.1445  Tot=              0.3931
 Quadrupole moment (field-independent basis, Debye-Ang):
   XX=            -57.5964   YY=            -60.8982   ZZ=            -74.9304
   XY=             -1.0151   XZ=              0.3279   YZ=              0.0599

 Normal termination of Gaussian 16 at Thu Dec  7 18:46:02 2023.
