 Gaussian 16, Revision B.01,
 Gaussian 16:  ES64L-G16RevB.01 20-Dec-2017

 -------------------------
 #P B3LYP/6-311+g(d) force
 -------------------------

 -----
 DPGEN
 -----
 Symbolic Z-matrix:
 Charge =  0 Multiplicity = 2

                         Standard orientation:
 ---------------------------------------------------------------------
 Center     Atomic      Atomic             Coordinates (Angstroms)
 Number     Number       Type             X           Y           Z
 ---------------------------------------------------------------------
      1         11           0       -3.525974    0.400352    0.140531
      2         11           0       -3.117581   -2.637895   -0.141555
      3         11           0        0.563682   -2.640376   -1.299362
      4         11           0        2.401360   -1.604173    2.089504
      5         11           0        3.881443    0.120012   -0.473703
      6         11           0        1.583464    2.797647   -0.877138
      7         11           0       -1.786394    3.564433    0.561724
 ---------------------------------------------------------------------

 SCF Done:  E(UB3LYP) =  -1136.10700130     A.U. after   24 cycles

 The electronic state is 2-A.
 Alpha  occ. eigenvalues --  -38.46363 -38.44979 -38.44529 -38.44342 -38.44093
 Alpha  occ. eigenvalues --  -38.43973 -38.43825  -2.22070  -2.20766  -2.20325
 Alpha  occ. eigenvalues --   -2.20147  -2.19898  -2.19746  -2.19586  -1.15762
 Alpha  occ. eigenvalues --   -1.15745  -1.15676  -1.14454  -1.14430  -1.14400
 Alpha  occ. eigenvalues --   -1.14015  -1.14000  -1.13977  -1.13795  -1.13789
 Alpha  occ. eigenvalues --   -1.13755  -1.13566  -1.13555  -1.13525  -1.13423
 Alpha  occ. eigenvalues --   -1.13411  -1.13361  -1.13262  -1.13246  -1.13225
 Alpha  occ. eigenvalues --   -0.15879  -0.13824  -0.12729  -0.10317
 Alpha virt. eigenvalues --   -0.07541  -0.06039  -0.04292  -0.03251  -0.03096
 Alpha virt. eigenvalues --   -0.02587  -0.02033  -0.01697  -0.01569  -0.01229
 Alpha virt. eigenvalues --   -0.00345  -0.00092   0.00105   0.00339   0.00465

  Beta  occ. eigenvalues --  -38.46349 -38.44959 -38.44520 -38.44254 -38.44091
  Beta  occ. eigenvalues --  -38.43927 -38.43817  -2.22046  -2.20736  -2.20309
  Beta  occ. eigenvalues --   -2.19981  -2.19892  -2.19663  -2.19572  -1.15743
  Beta  occ. eigenvalues --   -1.15729  -1.15652  -1.14436  -1.14412  -1.14337
  Beta  occ. eigenvalues --   -1.14004  -1.13986  -1.13964  -1.13681  -1.13674
  Beta  occ. eigenvalues --   -1.13647  -1.13566  -1.13551  -1.13515  -1.13367
  Beta  occ. eigenvalues --   -1.13356  -1.13296  -1.13253  -1.13236  -1.13207
  Beta  occ. eigenvalues --   -0.15397  -0.13397  -0.12313
  Beta virt. eigenvalues --   -0.07500  -0.06911  -0.05559  -0.04097  -0.02966
  Beta virt. eigenvalues --   -0.02774  -0.02160  -0.01981  -0.01489  -0.01243
  Beta virt. eigenvalues --   -0.01108  -0.00188   0.00223   0.00331   0.00485

 Mulliken charges and spin densities:
               1          2
     1  Na  -0.189464   0.080649
     2  Na   0.252144   0.043526
     3  Na  -0.090106   0.118058
     4  Na  -0.052528   0.422205
     5  Na   0.242113   0.169301
     6  Na  -0.269329   0.133837
     7  Na   0.107171   0.032423
 Sum of Mulliken charges =  -0.00000   1.00000

 Dipole moment (field-independent basis, Debye):
    X=              0.4873    Y=             -1.3075    Z=             -0.2215  Tot=              1.4129
 Quadrupole moment (field-independent basis, Debye-Ang):
   XX=            -63.9364   YY=            -68.5741   ZZ=            -70.2696
   XY=              0.7038   XZ=             -3.3980   YZ=              3.5281

 Normal termination of Gaussian 16 at Sun Dec  3 22:51:03 2023.
