 Gaussian 16, Revision B.01,
 Gaussian 16:  ES64L-G16RevB.01 20-Dec-2017

 -------------------------
 #P B3LYP/6-311+g(d) force
 -------------------------

 -----
 DPGEN
 -----
 Symbolic Z-matrix:
 Charge =  0 Multiplicity = 2

                         Standard orientation:
 ---------------------------------------------------------------------
 Center     Atomic      Atomic             Coordinates (Angstroms)
 Number     Number       Type             X           Y           Z
 ---------------------------------------------------------------------
      1         11           0        2.457241    1.037950   -2.266358
      2         11           0        2.079973   -2.272244   -0.008478
      3         11           0        1.302462    0.106495    2.353020
      4         11           0       -0.163605    2.836623    1.213768
      5         11           0       -0.417244   -0.012398   -0.908974
      6         11           0       -1.750485   -1.965873    0.567509
      7         11           0       -3.508342    0.269447   -0.950487
 ---------------------------------------------------------------------

 SCF Done:  E(UB3LYP) =  -1136.11912796     A.U. after   22 cycles

 The electronic state is 2-A.
 Alpha  occ. eigenvalues --  -38.45445 -38.44222 -38.43947 -38.43947 -38.43175
 Alpha  occ. eigenvalues --  -38.43094 -38.42798  -2.21245  -2.20081  -2.19856
 Alpha  occ. eigenvalues --   -2.19797  -2.19170  -2.18997  -2.18604  -1.14910
 Alpha  occ. eigenvalues --   -1.14852  -1.14850  -1.13755  -1.13727  -1.13719
 Alpha  occ. eigenvalues --   -1.13692  -1.13509  -1.13498  -1.13478  -1.13424
 Alpha  occ. eigenvalues --   -1.13367  -1.12887  -1.12787  -1.12779  -1.12676
 Alpha  occ. eigenvalues --   -1.12657  -1.12634  -1.12284  -1.12253  -1.12246
 Alpha  occ. eigenvalues --   -0.18063  -0.13108  -0.12105  -0.11456
 Alpha virt. eigenvalues --   -0.05465  -0.05199  -0.04255  -0.03305  -0.03182
 Alpha virt. eigenvalues --   -0.02894  -0.01621  -0.01133  -0.00614   0.00081
 Alpha virt. eigenvalues --    0.00181   0.00308   0.00621   0.00717   0.00820

  Beta  occ. eigenvalues --  -38.45335 -38.44155 -38.43944 -38.43942 -38.43175
  Beta  occ. eigenvalues --  -38.43071 -38.42791  -2.21043  -2.19958  -2.19848
  Beta  occ. eigenvalues --   -2.19792  -2.19133  -2.19001  -2.18593  -1.14765
  Beta  occ. eigenvalues --   -1.14719  -1.14712  -1.13711  -1.13667  -1.13651
  Beta  occ. eigenvalues --   -1.13597  -1.13503  -1.13489  -1.13472  -1.13421
  Beta  occ. eigenvalues --   -1.13361  -1.12826  -1.12769  -1.12763  -1.12674
  Beta  occ. eigenvalues --   -1.12660  -1.12622  -1.12269  -1.12243  -1.12241
  Beta  occ. eigenvalues --   -0.17422  -0.12711  -0.11254
  Beta virt. eigenvalues --   -0.08151  -0.05283  -0.04655  -0.04104  -0.03000
  Beta virt. eigenvalues --   -0.02578  -0.02277  -0.01488  -0.00802  -0.00434
  Beta virt. eigenvalues --    0.00217   0.00289   0.00426   0.00708   0.00808

 Mulliken charges and spin densities:
               1          2
     1  Na   0.251389   0.406981
     2  Na   0.084246   0.091282
     3  Na   0.103854   0.274288
     4  Na  -0.307831   0.125568
     5  Na  -0.277801   0.012673
     6  Na  -0.426611   0.183325
     7  Na   0.572754  -0.094117
 Sum of Mulliken charges =  -0.00000   1.00000

 Dipole moment (field-independent basis, Debye):
    X=              0.1236    Y=             -0.0338    Z=             -0.2447  Tot=              0.2762
 Quadrupole moment (field-independent basis, Debye-Ang):
   XX=            -57.1509   YY=            -70.5224   ZZ=            -65.3084
   XY=             -1.1957   XZ=             -1.8341   YZ=             -4.8528

 Normal termination of Gaussian 16 at Thu Dec  7 04:42:31 2023.
