 Gaussian 16, Revision B.01,
 Gaussian 16:  ES64L-G16RevB.01 20-Dec-2017

 -------------------------
 #P B3LYP/6-311+g(d) force
 -------------------------

 -----
 DPGEN
 -----
 Symbolic Z-matrix:
 Charge =  0 Multiplicity = 2

                         Standard orientation:
 ---------------------------------------------------------------------
 Center     Atomic      Atomic             Coordinates (Angstroms)
 Number     Number       Type             X           Y           Z
 ---------------------------------------------------------------------
      1         11           0        0.118290    2.914682   -0.349323
      2         11           0        2.308508   -1.630143   -0.963941
      3         11           0       -3.077497    1.541804   -0.257629
      4         11           0       -1.770826   -2.886347    0.493907
      5         11           0       -0.059583   -0.004686    2.140151
      6         11           0        3.311987    0.749618    0.384400
      7         11           0       -0.830878   -0.684928   -1.447564
 ---------------------------------------------------------------------

 SCF Done:  E(UB3LYP) =  -1136.12632662     A.U. after   19 cycles

 The electronic state is 2-A.
 Alpha  occ. eigenvalues --  -38.44436 -38.44089 -38.44031 -38.43948 -38.43928
 Alpha  occ. eigenvalues --  -38.43904 -38.43254  -2.20237  -2.19922  -2.19871
 Alpha  occ. eigenvalues --   -2.19799  -2.19736  -2.19718  -2.19196  -1.13916
 Alpha  occ. eigenvalues --   -1.13888  -1.13870  -1.13713  -1.13586  -1.13557
 Alpha  occ. eigenvalues --   -1.13537  -1.13520  -1.13502  -1.13459  -1.13425
 Alpha  occ. eigenvalues --   -1.13420  -1.13415  -1.13406  -1.13364  -1.13362
 Alpha  occ. eigenvalues --   -1.13360  -1.13355  -1.12869  -1.12855  -1.12813
 Alpha  occ. eigenvalues --   -0.17945  -0.13141  -0.12269  -0.10792
 Alpha virt. eigenvalues --   -0.05988  -0.05496  -0.04621  -0.03300  -0.02961
 Alpha virt. eigenvalues --   -0.02577  -0.01776  -0.01377  -0.00609  -0.00253
 Alpha virt. eigenvalues --   -0.00053   0.00311   0.00675   0.00766   0.00795

  Beta  occ. eigenvalues --  -38.44427 -38.44032 -38.43990 -38.43947 -38.43899
  Beta  occ. eigenvalues --  -38.43898 -38.43216  -2.20221  -2.19875  -2.19748
  Beta  occ. eigenvalues --   -2.19740  -2.19736  -2.19708  -2.19127  -1.13897
  Beta  occ. eigenvalues --   -1.13875  -1.13861  -1.13703  -1.13517  -1.13497
  Beta  occ. eigenvalues --   -1.13464  -1.13434  -1.13422  -1.13419  -1.13414
  Beta  occ. eigenvalues --   -1.13405  -1.13393  -1.13376  -1.13358  -1.13352
  Beta  occ. eigenvalues --   -1.13338  -1.13337  -1.12823  -1.12797  -1.12763
  Beta  occ. eigenvalues --   -0.17268  -0.12934  -0.12056
  Beta virt. eigenvalues --   -0.06985  -0.05903  -0.05311  -0.04450  -0.02697
  Beta virt. eigenvalues --   -0.02312  -0.01698  -0.01625  -0.01249  -0.00580
  Beta virt. eigenvalues --   -0.00217   0.00095   0.00373   0.00745   0.00798

 Mulliken charges and spin densities:
               1          2
     1  Na  -0.210645   0.033643
     2  Na  -0.213914   0.109366
     3  Na   0.219443   0.054808
     4  Na  -0.080253   0.079460
     5  Na  -0.314263   0.658746
     6  Na   0.188314   0.046335
     7  Na   0.411318   0.017643
 Sum of Mulliken charges =  -0.00000   1.00000

 Dipole moment (field-independent basis, Debye):
    X=             -0.4718    Y=              0.2159    Z=              0.2864  Tot=              0.5926
 Quadrupole moment (field-independent basis, Debye-Ang):
   XX=            -57.1291   YY=            -64.0644   ZZ=            -73.8304
   XY=              1.8246   XZ=             -0.7538   YZ=             -0.7660

 Normal termination of Gaussian 16 at Thu Dec  7 14:21:37 2023.
