 Gaussian 16, Revision B.01,
 Gaussian 16:  ES64L-G16RevB.01 20-Dec-2017

 -------------------------
 #P B3LYP/6-311+g(d) force
 -------------------------

 -----
 DPGEN
 -----
 Symbolic Z-matrix:
 Charge =  0 Multiplicity = 2

                         Standard orientation:
 ---------------------------------------------------------------------
 Center     Atomic      Atomic             Coordinates (Angstroms)
 Number     Number       Type             X           Y           Z
 ---------------------------------------------------------------------
      1         11           0        1.791561   -1.481844    1.107516
      2         11           0       -3.024044   -1.493063   -1.597818
      3         11           0        3.933748   -0.610057   -1.451785
      4         11           0       -3.265234    1.862017   -0.573008
      5         11           0       -1.256824   -1.930995    1.107545
      6         11           0       -0.205693    1.439009    1.987518
      7         11           0        2.026486    2.214933   -0.579968
 ---------------------------------------------------------------------

 SCF Done:  E(UB3LYP) =  -1136.11564788     A.U. after   24 cycles

 The electronic state is 2-A.
 Alpha  occ. eigenvalues --  -38.44873 -38.44783 -38.44535 -38.44416 -38.44336
 Alpha  occ. eigenvalues --  -38.43524 -38.43067  -2.20683  -2.20593  -2.20278
 Alpha  occ. eigenvalues --   -2.20250  -2.20110  -2.19386  -2.18939  -1.14332
 Alpha  occ. eigenvalues --   -1.14324  -1.14305  -1.14251  -1.14245  -1.14216
 Alpha  occ. eigenvalues --   -1.13963  -1.13933  -1.13921  -1.13918  -1.13899
 Alpha  occ. eigenvalues --   -1.13862  -1.13796  -1.13781  -1.13737  -1.13104
 Alpha  occ. eigenvalues --   -1.13057  -1.13019  -1.12612  -1.12606  -1.12573
 Alpha  occ. eigenvalues --   -0.17176  -0.14024  -0.11830  -0.11296
 Alpha virt. eigenvalues --   -0.06525  -0.05120  -0.04611  -0.03792  -0.03324
 Alpha virt. eigenvalues --   -0.02736  -0.01755  -0.00917  -0.00793  -0.00549
 Alpha virt. eigenvalues --   -0.00231   0.00043   0.00268   0.00356   0.00611

  Beta  occ. eigenvalues --  -38.44803 -38.44732 -38.44537 -38.44338 -38.44334
  Beta  occ. eigenvalues --  -38.43509 -38.43057  -2.20553  -2.20498  -2.20283
  Beta  occ. eigenvalues --   -2.20111  -2.20106  -2.19364  -2.18927  -1.14243
  Beta  occ. eigenvalues --   -1.14236  -1.14218  -1.14191  -1.14181  -1.14148
  Beta  occ. eigenvalues --   -1.13967  -1.13939  -1.13911  -1.13833  -1.13806
  Beta  occ. eigenvalues --   -1.13795  -1.13774  -1.13753  -1.13715  -1.13083
  Beta  occ. eigenvalues --   -1.13023  -1.12999  -1.12607  -1.12578  -1.12556
  Beta  occ. eigenvalues --   -0.16427  -0.13305  -0.11138
  Beta virt. eigenvalues --   -0.08382  -0.06391  -0.04603  -0.04100  -0.03518
  Beta virt. eigenvalues --   -0.03024  -0.02183  -0.01568  -0.00775  -0.00523
  Beta virt. eigenvalues --   -0.00377  -0.00081   0.00110   0.00385   0.00487

 Mulliken charges and spin densities:
               1          2
     1  Na  -0.366426  -0.052753
     2  Na   0.164720   0.362253
     3  Na   0.390411   0.373320
     4  Na  -0.136444  -0.059354
     5  Na  -0.095551  -0.135351
     6  Na   0.140799   0.574291
     7  Na  -0.097509  -0.062404
 Sum of Mulliken charges =  -0.00000   1.00000

 Dipole moment (field-independent basis, Debye):
    X=              0.2446    Y=              0.1154    Z=             -0.9876  Tot=              1.0240
 Quadrupole moment (field-independent basis, Debye-Ang):
   XX=            -59.9837   YY=            -73.4402   ZZ=            -64.2522
   XY=             -1.3023   XZ=             -1.4125   YZ=              3.1622

 Normal termination of Gaussian 16 at Mon Dec  4 00:55:41 2023.
