 Gaussian 16, Revision B.01,
 Gaussian 16:  ES64L-G16RevB.01 20-Dec-2017

 -------------------------
 #P B3LYP/6-311+g(d) force
 -------------------------

 -----
 DPGEN
 -----
 Symbolic Z-matrix:
 Charge =  0 Multiplicity = 2

                         Standard orientation:
 ---------------------------------------------------------------------
 Center     Atomic      Atomic             Coordinates (Angstroms)
 Number     Number       Type             X           Y           Z
 ---------------------------------------------------------------------
      1         11           0        0.364934    2.613876   -0.869209
      2         11           0       -3.716158    0.688901   -0.605703
      3         11           0        1.955488   -1.881038   -1.449556
      4         11           0       -1.949267   -1.500750   -0.773633
      5         11           0       -1.210863    0.575390    2.005783
      6         11           0        0.793837   -1.658678    1.531212
      7         11           0        3.762029    1.162298    0.161106
 ---------------------------------------------------------------------

 SCF Done:  E(UB3LYP) =  -1136.11496446     A.U. after   22 cycles

 The electronic state is 2-A.
 Alpha  occ. eigenvalues --  -38.44789 -38.44611 -38.44242 -38.44197 -38.44076
 Alpha  occ. eigenvalues --  -38.43979 -38.43367  -2.20522  -2.20479  -2.20145
 Alpha  occ. eigenvalues --   -2.19928  -2.19888  -2.19884  -2.19278  -1.14290
 Alpha  occ. eigenvalues --   -1.14207  -1.14174  -1.14160  -1.14106  -1.14075
 Alpha  occ. eigenvalues --   -1.13865  -1.13761  -1.13752  -1.13620  -1.13606
 Alpha  occ. eigenvalues --   -1.13567  -1.13553  -1.13541  -1.13539  -1.13524
 Alpha  occ. eigenvalues --   -1.13507  -1.13496  -1.12976  -1.12912  -1.12895
 Alpha  occ. eigenvalues --   -0.17789  -0.13606  -0.11516  -0.11390
 Alpha virt. eigenvalues --   -0.06660  -0.05364  -0.04339  -0.03487  -0.03019
 Alpha virt. eigenvalues --   -0.02702  -0.02204  -0.01320  -0.00536  -0.00263
 Alpha virt. eigenvalues --   -0.00080   0.00182   0.00351   0.00571   0.00708

  Beta  occ. eigenvalues --  -38.44792 -38.44581 -38.44196 -38.44151 -38.44046
  Beta  occ. eigenvalues --  -38.43951 -38.43323  -2.20527  -2.20425  -2.19983
  Beta  occ. eigenvalues --   -2.19926  -2.19836  -2.19830  -2.19204  -1.14245
  Beta  occ. eigenvalues --   -1.14206  -1.14177  -1.14164  -1.14066  -1.14037
  Beta  occ. eigenvalues --   -1.13743  -1.13652  -1.13633  -1.13616  -1.13600
  Beta  occ. eigenvalues --   -1.13542  -1.13532  -1.13516  -1.13506  -1.13484
  Beta  occ. eigenvalues --   -1.13460  -1.13452  -1.12911  -1.12853  -1.12833
  Beta  occ. eigenvalues --   -0.17077  -0.13289  -0.11362
  Beta virt. eigenvalues --   -0.07507  -0.06477  -0.05137  -0.03911  -0.03334
  Beta virt. eigenvalues --   -0.02368  -0.02192  -0.01806  -0.01137  -0.00300
  Beta virt. eigenvalues --   -0.00095  -0.00034   0.00287   0.00412   0.00658

 Mulliken charges and spin densities:
               1          2
     1  Na  -0.305596  -0.000709
     2  Na   0.592602   0.099500
     3  Na  -0.040047   0.280886
     4  Na  -0.618777   0.218381
     5  Na   0.035331   0.273430
     6  Na   0.401379   0.152592
     7  Na  -0.064892  -0.024081
 Sum of Mulliken charges =  -0.00000   1.00000

 Dipole moment (field-independent basis, Debye):
    X=             -0.0114    Y=              0.1937    Z=             -0.1257  Tot=              0.2312
 Quadrupole moment (field-independent basis, Debye-Ang):
   XX=            -55.0459   YY=            -74.9935   ZZ=            -67.7873
   XY=             -3.8366   XZ=              1.3699   YZ=              1.2726

 Normal termination of Gaussian 16 at Mon Dec  4 01:20:12 2023.
