 Gaussian 16, Revision B.01,
 Gaussian 16:  ES64L-G16RevB.01 20-Dec-2017

 -------------------------
 #P B3LYP/6-311+g(d) force
 -------------------------

 -----
 DPGEN
 -----
 Symbolic Z-matrix:
 Charge =  0 Multiplicity = 2

                         Standard orientation:
 ---------------------------------------------------------------------
 Center     Atomic      Atomic             Coordinates (Angstroms)
 Number     Number       Type             X           Y           Z
 ---------------------------------------------------------------------
      1         11           0       -0.054860    1.615608    1.912439
      2         11           0       -1.825014    1.458621   -0.758905
      3         11           0        0.724400   -0.534646   -0.834717
      4         11           0       -3.124348   -1.319516   -1.137233
      5         11           0        3.135306   -2.480687   -0.337402
      6         11           0        2.027265    2.716768   -0.738960
      7         11           0       -0.882748   -1.456148    1.894777
 ---------------------------------------------------------------------

 SCF Done:  E(UB3LYP) =  -1136.12188348     A.U. after   21 cycles

 The electronic state is 2-A.
 Alpha  occ. eigenvalues --  -38.44532 -38.44319 -38.44074 -38.44003 -38.43865
 Alpha  occ. eigenvalues --  -38.43436 -38.42628  -2.20407  -2.20110  -2.19931
 Alpha  occ. eigenvalues --   -2.19910  -2.19797  -2.19216  -2.18615  -1.14126
 Alpha  occ. eigenvalues --   -1.14043  -1.13996  -1.13786  -1.13770  -1.13729
 Alpha  occ. eigenvalues --   -1.13649  -1.13631  -1.13590  -1.13558  -1.13536
 Alpha  occ. eigenvalues --   -1.13521  -1.13492  -1.13447  -1.13351  -1.12905
 Alpha  occ. eigenvalues --   -1.12868  -1.12856  -1.12327  -1.12267  -1.12235
 Alpha  occ. eigenvalues --   -0.18539  -0.12747  -0.11958  -0.11691
 Alpha virt. eigenvalues --   -0.05857  -0.05490  -0.04008  -0.03217  -0.03039
 Alpha virt. eigenvalues --   -0.02665  -0.01748  -0.01304  -0.00700   0.00058
 Alpha virt. eigenvalues --    0.00174   0.00253   0.00447   0.00706   0.00756

  Beta  occ. eigenvalues --  -38.44456 -38.44306 -38.44048 -38.43936 -38.43841
  Beta  occ. eigenvalues --  -38.43437 -38.42609  -2.20271  -2.20084  -2.19864
  Beta  occ. eigenvalues --   -2.19811  -2.19756  -2.19219  -2.18582  -1.14023
  Beta  occ. eigenvalues --   -1.13931  -1.13912  -1.13762  -1.13753  -1.13713
  Beta  occ. eigenvalues --   -1.13602  -1.13571  -1.13525  -1.13506  -1.13505
  Beta  occ. eigenvalues --   -1.13463  -1.13417  -1.13392  -1.13320  -1.12904
  Beta  occ. eigenvalues --   -1.12871  -1.12857  -1.12287  -1.12242  -1.12215
  Beta  occ. eigenvalues --   -0.17752  -0.12457  -0.11669
  Beta virt. eigenvalues --   -0.07776  -0.05718  -0.05246  -0.03569  -0.02918
  Beta virt. eigenvalues --   -0.02398  -0.01991  -0.01589  -0.01186  -0.00318
  Beta virt. eigenvalues --    0.00090   0.00276   0.00291   0.00495   0.00750

 Mulliken charges and spin densities:
               1          2
     1  Na  -0.252921   0.298785
     2  Na   1.506988   0.043651
     3  Na  -0.946061   0.259636
     4  Na  -0.074565   0.140390
     5  Na  -0.324029  -0.002378
     6  Na  -0.023183   0.029442
     7  Na   0.113771   0.230474
 Sum of Mulliken charges =  -0.00000   1.00000

 Dipole moment (field-independent basis, Debye):
    X=             -0.3668    Y=              0.4652    Z=              0.3092  Tot=              0.6683
 Quadrupole moment (field-independent basis, Debye-Ang):
   XX=            -60.8640   YY=            -63.9270   ZZ=            -67.8283
   XY=              5.5602   XZ=              0.3778   YZ=             -2.0973

 Normal termination of Gaussian 16 at Tue Nov 28 20:08:55 2023.
