 Gaussian 16, Revision B.01,
 Gaussian 16:  ES64L-G16RevB.01 20-Dec-2017

 -------------------------
 #P B3LYP/6-311+g(d) force
 -------------------------

 -----
 DPGEN
 -----
 Symbolic Z-matrix:
 Charge =  0 Multiplicity = 2

                         Standard orientation:
 ---------------------------------------------------------------------
 Center     Atomic      Atomic             Coordinates (Angstroms)
 Number     Number       Type             X           Y           Z
 ---------------------------------------------------------------------
      1         11           0       -1.040891    0.721784    1.690127
      2         11           0       -2.297475    1.351626   -1.226105
      3         11           0        0.086976   -1.120484   -0.875260
      4         11           0       -3.606269   -1.807971    0.114298
      5         11           0        2.268231   -0.384896    1.859942
      6         11           0        3.716794   -0.975659   -1.203955
      7         11           0        0.872634    2.215600   -0.359047
 ---------------------------------------------------------------------

 SCF Done:  E(UB3LYP) =  -1136.12763633     A.U. after   23 cycles

 The electronic state is 2-A.
 Alpha  occ. eigenvalues --  -38.44246 -38.44214 -38.44124 -38.44046 -38.43513
 Alpha  occ. eigenvalues --  -38.43419 -38.42840  -2.20131  -2.20079  -2.20023
 Alpha  occ. eigenvalues --   -2.19846  -2.19477  -2.19199  -2.18751  -1.13867
 Alpha  occ. eigenvalues --   -1.13832  -1.13766  -1.13737  -1.13722  -1.13714
 Alpha  occ. eigenvalues --   -1.13698  -1.13683  -1.13602  -1.13509  -1.13502
 Alpha  occ. eigenvalues --   -1.13468  -1.13184  -1.13128  -1.13079  -1.12871
 Alpha  occ. eigenvalues --   -1.12869  -1.12826  -1.12440  -1.12410  -1.12369
 Alpha  occ. eigenvalues --   -0.18620  -0.13805  -0.11314  -0.11155
 Alpha virt. eigenvalues --   -0.06307  -0.05041  -0.04990  -0.03048  -0.02640
 Alpha virt. eigenvalues --   -0.02275  -0.02181  -0.01148  -0.00978  -0.00105
 Alpha virt. eigenvalues --    0.00122   0.00397   0.00426   0.00499   0.00587

  Beta  occ. eigenvalues --  -38.44226 -38.44166 -38.44091 -38.44022 -38.43467
  Beta  occ. eigenvalues --  -38.43416 -38.42825  -2.20100  -2.19992  -2.19964
  Beta  occ. eigenvalues --   -2.19803  -2.19396  -2.19195  -2.18726  -1.13834
  Beta  occ. eigenvalues --   -1.13791  -1.13713  -1.13693  -1.13674  -1.13673
  Beta  occ. eigenvalues --   -1.13651  -1.13617  -1.13555  -1.13477  -1.13469
  Beta  occ. eigenvalues --   -1.13441  -1.13134  -1.13048  -1.13018  -1.12868
  Beta  occ. eigenvalues --   -1.12863  -1.12824  -1.12427  -1.12370  -1.12346
  Beta  occ. eigenvalues --   -0.17895  -0.13593  -0.10957
  Beta virt. eigenvalues --   -0.07391  -0.06127  -0.04924  -0.04393  -0.02794
  Beta virt. eigenvalues --   -0.02285  -0.01934  -0.01594  -0.00995  -0.00489
  Beta virt. eigenvalues --   -0.00037   0.00164   0.00453   0.00545   0.00600

 Mulliken charges and spin densities:
               1          2
     1  Na   0.027700   0.389083
     2  Na   0.482482   0.019641
     3  Na  -1.102687   0.360378
     4  Na   0.181806  -0.070765
     5  Na   0.092836  -0.002402
     6  Na   0.384486   0.104491
     7  Na  -0.066624   0.199575
 Sum of Mulliken charges =  -0.00000   1.00000

 Dipole moment (field-independent basis, Debye):
    X=              0.3848    Y=              0.5587    Z=              0.0079  Tot=              0.6785
 Quadrupole moment (field-independent basis, Debye-Ang):
   XX=            -54.5822   YY=            -73.3962   ZZ=            -67.1373
   XY=             -0.5820   XZ=              0.1570   YZ=             -2.2915

 Normal termination of Gaussian 16 at Wed Nov 29 16:55:58 2023.
