 Gaussian 16, Revision B.01,
 Gaussian 16:  ES64L-G16RevB.01 20-Dec-2017

 -------------------------
 #P B3LYP/6-311+g(d) force
 -------------------------

 -----
 DPGEN
 -----
 Symbolic Z-matrix:
 Charge =  0 Multiplicity = 2

                         Standard orientation:
 ---------------------------------------------------------------------
 Center     Atomic      Atomic             Coordinates (Angstroms)
 Number     Number       Type             X           Y           Z
 ---------------------------------------------------------------------
      1         11           0       -0.914745   -2.336370    1.524962
      2         11           0       -3.860786   -0.679055   -0.316624
      3         11           0       -1.287625    0.147981   -1.559325
      4         11           0       -0.411968    3.872096    0.183719
      5         11           0        1.069762    1.438886    1.200933
      6         11           0        1.246696   -1.940079   -0.430756
      7         11           0        4.158668   -0.503459   -0.602909
 ---------------------------------------------------------------------

 SCF Done:  E(UB3LYP) =  -1136.11374252     A.U. after   19 cycles

 The electronic state is 2-A.
 Alpha  occ. eigenvalues --  -38.44711 -38.44613 -38.44297 -38.44266 -38.43662
 Alpha  occ. eigenvalues --  -38.43616 -38.43451  -2.20581  -2.20438  -2.20144
 Alpha  occ. eigenvalues --   -2.20101  -2.19587  -2.19469  -2.19259  -1.14364
 Alpha  occ. eigenvalues --   -1.14237  -1.14198  -1.14076  -1.14066  -1.14033
 Alpha  occ. eigenvalues --   -1.13895  -1.13773  -1.13756  -1.13747  -1.13727
 Alpha  occ. eigenvalues --   -1.13721  -1.13272  -1.13253  -1.13202  -1.13185
 Alpha  occ. eigenvalues --   -1.13141  -1.13121  -1.12910  -1.12899  -1.12877
 Alpha  occ. eigenvalues --   -0.17669  -0.13313  -0.12545  -0.10748
 Alpha virt. eigenvalues --   -0.06866  -0.05406  -0.03703  -0.03682  -0.03155
 Alpha virt. eigenvalues --   -0.02630  -0.01959  -0.01285  -0.00652  -0.00376
 Alpha virt. eigenvalues --   -0.00261  -0.00145   0.00317   0.00533   0.00821

  Beta  occ. eigenvalues --  -38.44678 -38.44583 -38.44240 -38.44184 -38.43652
  Beta  occ. eigenvalues --  -38.43602 -38.43452  -2.20522  -2.20385  -2.19994
  Beta  occ. eigenvalues --   -2.19993  -2.19577  -2.19443  -2.19262  -1.14317
  Beta  occ. eigenvalues --   -1.14193  -1.14157  -1.14040  -1.14017  -1.14001
  Beta  occ. eigenvalues --   -1.13792  -1.13683  -1.13672  -1.13669  -1.13657
  Beta  occ. eigenvalues --   -1.13622  -1.13267  -1.13226  -1.13173  -1.13167
  Beta  occ. eigenvalues --   -1.13123  -1.13097  -1.12912  -1.12898  -1.12877
  Beta  occ. eigenvalues --   -0.17193  -0.12700  -0.12176
  Beta virt. eigenvalues --   -0.07336  -0.06602  -0.05205  -0.03488  -0.03230
  Beta virt. eigenvalues --   -0.02582  -0.02412  -0.01634  -0.01085  -0.00325
  Beta virt. eigenvalues --   -0.00161  -0.00091   0.00004   0.00430   0.00620

 Mulliken charges and spin densities:
               1          2
     1  Na   0.144158   0.212605
     2  Na  -0.112353   0.200664
     3  Na   0.214795   0.068849
     4  Na   0.236329  -0.068782
     5  Na  -0.477420   0.152194
     6  Na  -0.021356   0.182230
     7  Na   0.015847   0.252242
 Sum of Mulliken charges =  -0.00000   1.00000

 Dipole moment (field-independent basis, Debye):
    X=             -0.6809    Y=             -0.0727    Z=              0.3096  Tot=              0.7515
 Quadrupole moment (field-independent basis, Debye-Ang):
   XX=            -59.3328   YY=            -69.1312   ZZ=            -69.3238
   XY=              1.6261   XZ=             -3.0189   YZ=             -2.3590

 Normal termination of Gaussian 16 at Mon Dec  4 03:35:21 2023.
