 Gaussian 16, Revision B.01,
 Gaussian 16:  ES64L-G16RevB.01 20-Dec-2017

 -------------------------
 #P B3LYP/6-311+g(d) force
 -------------------------

 -----
 DPGEN
 -----
 Symbolic Z-matrix:
 Charge =  0 Multiplicity = 2

                         Standard orientation:
 ---------------------------------------------------------------------
 Center     Atomic      Atomic             Coordinates (Angstroms)
 Number     Number       Type             X           Y           Z
 ---------------------------------------------------------------------
      1         11           0        1.990370   -0.200986   -2.041889
      2         11           0       -1.559042   -1.737186   -1.193027
      3         11           0       -3.119223    0.327720    1.057999
      4         11           0       -1.232360    1.889007   -1.630900
      5         11           0        1.865981    2.722209    0.961405
      6         11           0        0.473222   -0.637853    2.527349
      7         11           0        1.581052   -2.362910    0.319062
 ---------------------------------------------------------------------

 SCF Done:  E(UB3LYP) =  -1136.12017379     A.U. after   24 cycles

 The electronic state is 2-A.
 Alpha  occ. eigenvalues --  -38.44722 -38.44577 -38.44571 -38.44420 -38.43944
 Alpha  occ. eigenvalues --  -38.43788 -38.43107  -2.20561  -2.20396  -2.20322
 Alpha  occ. eigenvalues --   -2.20229  -2.19736  -2.19566  -2.18996  -1.14255
 Alpha  occ. eigenvalues --   -1.14194  -1.14169  -1.14074  -1.14055  -1.14021
 Alpha  occ. eigenvalues --   -1.13989  -1.13974  -1.13940  -1.13906  -1.13893
 Alpha  occ. eigenvalues --   -1.13845  -1.13407  -1.13391  -1.13377  -1.13264
 Alpha  occ. eigenvalues --   -1.13241  -1.13177  -1.12691  -1.12655  -1.12624
 Alpha  occ. eigenvalues --   -0.17647  -0.12527  -0.12372  -0.11665
 Alpha virt. eigenvalues --   -0.05699  -0.05391  -0.04603  -0.03744  -0.03476
 Alpha virt. eigenvalues --   -0.03407  -0.01078  -0.01027  -0.00524  -0.00054
 Alpha virt. eigenvalues --    0.00145   0.00178   0.00437   0.00467   0.00563

  Beta  occ. eigenvalues --  -38.44648 -38.44545 -38.44529 -38.44383 -38.43937
  Beta  occ. eigenvalues --  -38.43787 -38.43103  -2.20424  -2.20349  -2.20234
  Beta  occ. eigenvalues --   -2.20162  -2.19724  -2.19566  -2.18994  -1.14166
  Beta  occ. eigenvalues --   -1.14098  -1.14068  -1.14041  -1.14018  -1.13985
  Beta  occ. eigenvalues --   -1.13922  -1.13912  -1.13884  -1.13863  -1.13841
  Beta  occ. eigenvalues --   -1.13794  -1.13394  -1.13383  -1.13366  -1.13252
  Beta  occ. eigenvalues --   -1.13239  -1.13182  -1.12677  -1.12638  -1.12626
  Beta  occ. eigenvalues --   -0.16864  -0.12348  -0.11463
  Beta virt. eigenvalues --   -0.08543  -0.05211  -0.05133  -0.04122  -0.03329
  Beta virt. eigenvalues --   -0.03207  -0.02703  -0.00987  -0.00717  -0.00461
  Beta virt. eigenvalues --    0.00098   0.00273   0.00317   0.00523   0.00557

 Mulliken charges and spin densities:
               1          2
     1  Na   0.158986   0.292439
     2  Na  -0.176899   0.214944
     3  Na   0.169252   0.004364
     4  Na  -0.085929  -0.030681
     5  Na  -0.097781   0.122004
     6  Na  -0.166365   0.597557
     7  Na   0.198736  -0.200628
 Sum of Mulliken charges =  -0.00000   1.00000

 Dipole moment (field-independent basis, Debye):
    X=             -0.2625    Y=              0.0733    Z=              0.0497  Tot=              0.2771
 Quadrupole moment (field-independent basis, Debye-Ang):
   XX=            -67.0000   YY=            -69.4829   ZZ=            -62.7620
   XY=             -0.2771   XZ=             -1.0914   YZ=              5.5663

 Normal termination of Gaussian 16 at Sun Dec  3 23:28:36 2023.
