 Gaussian 16, Revision B.01,
 Gaussian 16:  ES64L-G16RevB.01 20-Dec-2017

 -------------------------
 #P B3LYP/6-311+g(d) force
 -------------------------

 -----
 DPGEN
 -----
 Symbolic Z-matrix:
 Charge =  0 Multiplicity = 2

                         Standard orientation:
 ---------------------------------------------------------------------
 Center     Atomic      Atomic             Coordinates (Angstroms)
 Number     Number       Type             X           Y           Z
 ---------------------------------------------------------------------
      1         11           0       -3.174924   -2.784668   -0.340926
      2         11           0        4.278249   -1.261303   -1.072789
      3         11           0        2.981325   -0.510154    1.632582
      4         11           0        0.355169   -2.436202   -0.168845
      5         11           0        0.394608    4.525593   -0.593785
      6         11           0       -0.726557    2.155509    0.345419
      7         11           0       -4.107870    0.311225    0.198343
 ---------------------------------------------------------------------

 SCF Done:  E(UB3LYP) =  -1136.10729536     A.U. after   20 cycles

 The electronic state is 2-A.
 Alpha  occ. eigenvalues --  -38.45514 -38.45221 -38.43982 -38.43929 -38.43927
 Alpha  occ. eigenvalues --  -38.43608 -38.43562  -2.21313  -2.21029  -2.19791
 Alpha  occ. eigenvalues --   -2.19766  -2.19716  -2.19454  -2.19381  -1.15018
 Alpha  occ. eigenvalues --   -1.14965  -1.14959  -1.14679  -1.14675  -1.14637
 Alpha  occ. eigenvalues --   -1.13622  -1.13470  -1.13454  -1.13401  -1.13394
 Alpha  occ. eigenvalues --   -1.13394  -1.13390  -1.13390  -1.13346  -1.13100
 Alpha  occ. eigenvalues --   -1.13089  -1.13041  -1.13027  -1.13014  -1.12999
 Alpha  occ. eigenvalues --   -0.16026  -0.13961  -0.12710  -0.10193
 Alpha virt. eigenvalues --   -0.06886  -0.05824  -0.04330  -0.03567  -0.02912
 Alpha virt. eigenvalues --   -0.02339  -0.01944  -0.01541  -0.01365  -0.00891
 Alpha virt. eigenvalues --   -0.00451   0.00025   0.00118   0.00304   0.00557

  Beta  occ. eigenvalues --  -38.45513 -38.45181 -38.43933 -38.43923 -38.43900
  Beta  occ. eigenvalues --  -38.43607 -38.43482  -2.21316  -2.20954  -2.19755
  Beta  occ. eigenvalues --   -2.19734  -2.19640  -2.19453  -2.19230  -1.15004
  Beta  occ. eigenvalues --   -1.14969  -1.14953  -1.14626  -1.14619  -1.14593
  Beta  occ. eigenvalues --   -1.13616  -1.13413  -1.13402  -1.13385  -1.13381
  Beta  occ. eigenvalues --   -1.13367  -1.13354  -1.13348  -1.13264  -1.13102
  Beta  occ. eigenvalues --   -1.13084  -1.13030  -1.12924  -1.12912  -1.12906
  Beta  occ. eigenvalues --   -0.15554  -0.13406  -0.12398
  Beta virt. eigenvalues --   -0.06797  -0.06580  -0.05646  -0.04017  -0.03173
  Beta virt. eigenvalues --   -0.02654  -0.02209  -0.01666  -0.01247  -0.01149
  Beta virt. eigenvalues --   -0.00753  -0.00112   0.00152   0.00318   0.00451

 Mulliken charges and spin densities:
               1          2
     1  Na  -0.394336  -0.098095
     2  Na   0.467499   0.232630
     3  Na   0.188917   0.119341
     4  Na  -0.219280   0.313675
     5  Na   0.273703  -0.043052
     6  Na  -0.765283   0.066978
     7  Na   0.448780   0.408523
 Sum of Mulliken charges =  -0.00000   1.00000

 Dipole moment (field-independent basis, Debye):
    X=              2.4982    Y=             -0.3617    Z=             -0.2114  Tot=              2.5330
 Quadrupole moment (field-independent basis, Debye-Ang):
   XX=            -67.0287   YY=            -67.6128   ZZ=            -64.3312
   XY=              2.3463   XZ=             -2.0486   YZ=              0.6691

 Normal termination of Gaussian 16 at Mon Dec  4 03:43:32 2023.
