 Gaussian 16, Revision B.01,
 Gaussian 16:  ES64L-G16RevB.01 20-Dec-2017

 -------------------------
 #P B3LYP/6-311+g(d) force
 -------------------------

 -----
 DPGEN
 -----
 Symbolic Z-matrix:
 Charge =  0 Multiplicity = 2

                         Standard orientation:
 ---------------------------------------------------------------------
 Center     Atomic      Atomic             Coordinates (Angstroms)
 Number     Number       Type             X           Y           Z
 ---------------------------------------------------------------------
      1         11           0       -3.706049    0.248115    1.375903
      2         11           0       -2.392734   -1.467026   -1.226700
      3         11           0        1.116870   -1.400028   -1.328603
      4         11           0        4.155788   -0.661330    0.806194
      5         11           0        2.268909    1.843976   -0.211416
      6         11           0       -1.215809    2.160616   -0.920160
      7         11           0       -0.226975   -0.724322    1.504782
 ---------------------------------------------------------------------

 SCF Done:  E(UB3LYP) =  -1136.12071651     A.U. after   27 cycles

 The electronic state is 2-A.
 Alpha  occ. eigenvalues --  -38.45595 -38.44935 -38.44520 -38.44243 -38.43516
 Alpha  occ. eigenvalues --  -38.43165 -38.42705  -2.21419  -2.20743  -2.20352
 Alpha  occ. eigenvalues --   -2.20097  -2.19395  -2.19007  -2.18515  -1.15145
 Alpha  occ. eigenvalues --   -1.15069  -1.15042  -1.14400  -1.14399  -1.14353
 Alpha  occ. eigenvalues --   -1.14022  -1.13990  -1.13966  -1.13772  -1.13743
 Alpha  occ. eigenvalues --   -1.13730  -1.13109  -1.13042  -1.13000  -1.12696
 Alpha  occ. eigenvalues --   -1.12684  -1.12640  -1.12192  -1.12190  -1.12141
 Alpha  occ. eigenvalues --   -0.18075  -0.14408  -0.11162  -0.10781
 Alpha virt. eigenvalues --   -0.07190  -0.05098  -0.04993  -0.03127  -0.03023
 Alpha virt. eigenvalues --   -0.02510  -0.01961  -0.01387  -0.01078  -0.00319
 Alpha virt. eigenvalues --   -0.00099   0.00217   0.00278   0.00486   0.00671

  Beta  occ. eigenvalues --  -38.45601 -38.44883 -38.44456 -38.44216 -38.43480
  Beta  occ. eigenvalues --  -38.43162 -38.42686  -2.21433  -2.20645  -2.20232
  Beta  occ. eigenvalues --   -2.20050  -2.19332  -2.19006  -2.18484  -1.15132
  Beta  occ. eigenvalues --   -1.15083  -1.15053  -1.14336  -1.14329  -1.14291
  Beta  occ. eigenvalues --   -1.13939  -1.13910  -1.13888  -1.13727  -1.13720
  Beta  occ. eigenvalues --   -1.13677  -1.13073  -1.12994  -1.12937  -1.12695
  Beta  occ. eigenvalues --   -1.12685  -1.12614  -1.12169  -1.12162  -1.12115
  Beta  occ. eigenvalues --   -0.17506  -0.13912  -0.10523
  Beta virt. eigenvalues --   -0.07577  -0.06912  -0.04980  -0.04414  -0.02915
  Beta virt. eigenvalues --   -0.02798  -0.01900  -0.01449  -0.00991  -0.00919
  Beta virt. eigenvalues --   -0.00204   0.00027   0.00298   0.00349   0.00612

 Mulliken charges and spin densities:
               1          2
     1  Na   0.910765   0.234792
     2  Na   0.199634   0.100732
     3  Na  -0.162452   0.199985
     4  Na   0.896580   0.374031
     5  Na  -0.304417  -0.052573
     6  Na  -0.623832   0.087276
     7  Na  -0.916278   0.055757
 Sum of Mulliken charges =  -0.00000   1.00000

 Dipole moment (field-independent basis, Debye):
    X=              0.0227    Y=             -0.8121    Z=              0.4492  Tot=              0.9283
 Quadrupole moment (field-independent basis, Debye-Ang):
   XX=            -49.9350   YY=            -81.3539   ZZ=            -65.3193
   XY=             -0.9932   XZ=              2.6089   YZ=              0.7350

 Normal termination of Gaussian 16 at Thu Dec  7 01:55:36 2023.
