 Gaussian 16, Revision B.01,
 Gaussian 16:  ES64L-G16RevB.01 20-Dec-2017

 -------------------------
 #P B3LYP/6-311+g(d) force
 -------------------------

 -----
 DPGEN
 -----
 Symbolic Z-matrix:
 Charge =  0 Multiplicity = 2

                         Standard orientation:
 ---------------------------------------------------------------------
 Center     Atomic      Atomic             Coordinates (Angstroms)
 Number     Number       Type             X           Y           Z
 ---------------------------------------------------------------------
      1         11           0       -2.178333    0.177855    0.917543
      2         11           0        0.193768   -0.816943    1.861243
      3         11           0        0.203265    2.004157    0.693643
      4         11           0       -1.554234    1.054155   -1.604457
      5         11           0       -1.330031   -1.887944   -0.628257
      6         11           0        0.965468   -0.450342   -1.007357
      7         11           0        3.700097   -0.080938   -0.232357
 ---------------------------------------------------------------------

 SCF Done:  E(UB3LYP) =  -1136.08006078     A.U. after   26 cycles

 The electronic state is 2-A.
 Alpha  occ. eigenvalues --  -38.45061 -38.44604 -38.44368 -38.43880 -38.43559
 Alpha  occ. eigenvalues --  -38.43234 -38.42839  -2.20881  -2.20855  -2.20480
 Alpha  occ. eigenvalues --   -2.19994  -2.19810  -2.19372  -2.18898  -1.14761
 Alpha  occ. eigenvalues --   -1.14680  -1.14642  -1.14507  -1.14498  -1.14469
 Alpha  occ. eigenvalues --   -1.14181  -1.14075  -1.14020  -1.13789  -1.13628
 Alpha  occ. eigenvalues --   -1.13613  -1.13557  -1.13453  -1.13365  -1.13022
 Alpha  occ. eigenvalues --   -1.12957  -1.12913  -1.12634  -1.12545  -1.12466
 Alpha  occ. eigenvalues --   -0.21149  -0.13638  -0.12968  -0.11674
 Alpha virt. eigenvalues --   -0.06437  -0.03957  -0.03709  -0.03385  -0.02937
 Alpha virt. eigenvalues --   -0.02835  -0.01855  -0.00497  -0.00276   0.00206
 Alpha virt. eigenvalues --    0.00412   0.00616   0.00699   0.00943   0.01069

  Beta  occ. eigenvalues --  -38.45062 -38.44565 -38.44284 -38.43827 -38.43515
  Beta  occ. eigenvalues --  -38.43207 -38.42809  -2.20883  -2.20792  -2.20332
  Beta  occ. eigenvalues --   -2.19898  -2.19734  -2.19329  -2.18849  -1.14688
  Beta  occ. eigenvalues --   -1.14638  -1.14601  -1.14507  -1.14499  -1.14427
  Beta  occ. eigenvalues --   -1.14097  -1.13947  -1.13921  -1.13716  -1.13566
  Beta  occ. eigenvalues --   -1.13563  -1.13475  -1.13386  -1.13295  -1.13002
  Beta  occ. eigenvalues --   -1.12915  -1.12846  -1.12598  -1.12472  -1.12440
  Beta  occ. eigenvalues --   -0.20211  -0.13432  -0.11497
  Beta virt. eigenvalues --   -0.08411  -0.06281  -0.03460  -0.03349  -0.03111
  Beta virt. eigenvalues --   -0.02301  -0.01915  -0.01765  -0.00283  -0.00182
  Beta virt. eigenvalues --    0.00258   0.00499   0.00694   0.00767   0.00979

 Mulliken charges and spin densities:
               1          2
     1  Na   0.723603   0.257179
     2  Na  -0.380600   0.247807
     3  Na  -0.508476   0.027267
     4  Na  -0.040284   0.003648
     5  Na  -0.486219  -0.021058
     6  Na   0.337607   0.473822
     7  Na   0.354368   0.011336
 Sum of Mulliken charges =  -0.00000   1.00000

 Dipole moment (field-independent basis, Debye):
    X=              0.9158    Y=              0.2021    Z=              0.1342  Tot=              0.9474
 Quadrupole moment (field-independent basis, Debye-Ang):
   XX=            -53.8498   YY=            -76.2752   ZZ=            -64.2239
   XY=              0.5105   XZ=              1.4450   YZ=              1.3516

 Normal termination of Gaussian 16 at Thu Dec  7 20:11:04 2023.
