 Gaussian 16, Revision B.01,
 Gaussian 16:  ES64L-G16RevB.01 20-Dec-2017

 -------------------------
 #P B3LYP/6-311+g(d) force
 -------------------------

 -----
 DPGEN
 -----
 Symbolic Z-matrix:
 Charge =  0 Multiplicity = 2

                         Standard orientation:
 ---------------------------------------------------------------------
 Center     Atomic      Atomic             Coordinates (Angstroms)
 Number     Number       Type             X           Y           Z
 ---------------------------------------------------------------------
      1         11           0        0.907122   -1.083522    1.222570
      2         11           0       -2.747725    1.058555   -1.254338
      3         11           0       -1.150903    1.393346    1.885638
      4         11           0        0.922911    2.488910   -0.317080
      5         11           0        3.620369   -0.426038   -0.187452
      6         11           0       -2.047904   -2.532526    0.292717
      7         11           0        0.496129   -0.898725   -1.642056
 ---------------------------------------------------------------------

 SCF Done:  E(UB3LYP) =  -1136.12841068     A.U. after   20 cycles

 The electronic state is 2-A.
 Alpha  occ. eigenvalues --  -38.44538 -38.44285 -38.43851 -38.43503 -38.43441
 Alpha  occ. eigenvalues --  -38.43309 -38.43208  -2.20330  -2.20116  -2.19786
 Alpha  occ. eigenvalues --   -2.19334  -2.19330  -2.19224  -2.19113  -1.14008
 Alpha  occ. eigenvalues --   -1.13975  -1.13949  -1.13817  -1.13769  -1.13744
 Alpha  occ. eigenvalues --   -1.13587  -1.13423  -1.13361  -1.13084  -1.13021
 Alpha  occ. eigenvalues --   -1.13013  -1.12958  -1.12953  -1.12918  -1.12909
 Alpha  occ. eigenvalues --   -1.12853  -1.12829  -1.12776  -1.12761  -1.12753
 Alpha  occ. eigenvalues --   -0.18490  -0.13069  -0.11824  -0.11254
 Alpha virt. eigenvalues --   -0.06059  -0.04983  -0.04006  -0.03481  -0.02977
 Alpha virt. eigenvalues --   -0.02689  -0.01941  -0.01013  -0.00429   0.00017
 Alpha virt. eigenvalues --    0.00261   0.00301   0.00488   0.00733   0.00875

  Beta  occ. eigenvalues --  -38.44500 -38.44285 -38.43809 -38.43497 -38.43384
  Beta  occ. eigenvalues --  -38.43308 -38.43161  -2.20259  -2.20118  -2.19709
  Beta  occ. eigenvalues --   -2.19326  -2.19229  -2.19142  -2.19114  -1.13947
  Beta  occ. eigenvalues --   -1.13930  -1.13901  -1.13816  -1.13764  -1.13746
  Beta  occ. eigenvalues --   -1.13533  -1.13362  -1.13305  -1.13053  -1.12996
  Beta  occ. eigenvalues --   -1.12947  -1.12944  -1.12884  -1.12863  -1.12856
  Beta  occ. eigenvalues --   -1.12799  -1.12773  -1.12765  -1.12756  -1.12728
  Beta  occ. eigenvalues --   -0.17749  -0.12850  -0.11662
  Beta virt. eigenvalues --   -0.07293  -0.05906  -0.04928  -0.03476  -0.03319
  Beta virt. eigenvalues --   -0.02308  -0.01892  -0.01646  -0.00919  -0.00147
  Beta virt. eigenvalues --    0.00019   0.00293   0.00332   0.00578   0.00780

 Mulliken charges and spin densities:
               1          2
     1  Na   0.084323   0.321257
     2  Na  -0.106955   0.129615
     3  Na   0.206776   0.125686
     4  Na  -0.214714   0.015465
     5  Na   0.344118  -0.057836
     6  Na   0.013859  -0.161346
     7  Na  -0.327407   0.627159
 Sum of Mulliken charges =  -0.00000   1.00000

 Dipole moment (field-independent basis, Debye):
    X=              0.1900    Y=              0.2094    Z=             -0.3573  Tot=              0.4557
 Quadrupole moment (field-independent basis, Debye-Ang):
   XX=            -52.7200   YY=            -70.9408   ZZ=            -69.0579
   XY=              0.7733   XZ=             -0.1235   YZ=             -1.7228

 Normal termination of Gaussian 16 at Fri Dec  8 00:31:17 2023.
