 Gaussian 16, Revision B.01,
 Gaussian 16:  ES64L-G16RevB.01 20-Dec-2017

 -------------------------
 #P B3LYP/6-311+g(d) force
 -------------------------

 -----
 DPGEN
 -----
 Symbolic Z-matrix:
 Charge =  0 Multiplicity = 2

                         Standard orientation:
 ---------------------------------------------------------------------
 Center     Atomic      Atomic             Coordinates (Angstroms)
 Number     Number       Type             X           Y           Z
 ---------------------------------------------------------------------
      1         11           0       -1.196888   -1.064945   -0.904928
      2         11           0       -2.491028    2.346566   -0.602752
      3         11           0        0.100366    1.086615    2.339165
      4         11           0        1.697353    1.870346   -0.713203
      5         11           0        4.394015   -0.681443   -0.858007
      6         11           0        1.932600   -1.805560    0.854612
      7         11           0       -4.436418   -1.751579   -0.114887
 ---------------------------------------------------------------------

 SCF Done:  E(UB3LYP) =  -1136.11481881     A.U. after   24 cycles

 The electronic state is 2-A.
 Alpha  occ. eigenvalues --  -38.45055 -38.44452 -38.44276 -38.44189 -38.44113
 Alpha  occ. eigenvalues --  -38.44083 -38.43865  -2.20804  -2.20246  -2.20085
 Alpha  occ. eigenvalues --   -2.20001  -2.19901  -2.19862  -2.19711  -1.14492
 Alpha  occ. eigenvalues --   -1.14458  -1.14410  -1.13953  -1.13924  -1.13839
 Alpha  occ. eigenvalues --   -1.13754  -1.13736  -1.13694  -1.13692  -1.13660
 Alpha  occ. eigenvalues --   -1.13640  -1.13580  -1.13551  -1.13537  -1.13536
 Alpha  occ. eigenvalues --   -1.13526  -1.13492  -1.13394  -1.13355  -1.13334
 Alpha  occ. eigenvalues --   -0.17285  -0.13531  -0.11259  -0.10954
 Alpha virt. eigenvalues --   -0.06751  -0.06396  -0.04159  -0.03166  -0.02869
 Alpha virt. eigenvalues --   -0.02591  -0.02267  -0.01810  -0.01121  -0.00574
 Alpha virt. eigenvalues --   -0.00230  -0.00009   0.00302   0.00489   0.00626

  Beta  occ. eigenvalues --  -38.45025 -38.44427 -38.44215 -38.44177 -38.44125
  Beta  occ. eigenvalues --  -38.44045 -38.43836  -2.20749  -2.20199  -2.19981
  Beta  occ. eigenvalues --   -2.19973  -2.19884  -2.19831  -2.19661  -1.14451
  Beta  occ. eigenvalues --   -1.14422  -1.14372  -1.13921  -1.13886  -1.13799
  Beta  occ. eigenvalues --   -1.13681  -1.13671  -1.13654  -1.13642  -1.13628
  Beta  occ. eigenvalues --   -1.13606  -1.13551  -1.13539  -1.13538  -1.13505
  Beta  occ. eigenvalues --   -1.13504  -1.13483  -1.13363  -1.13321  -1.13274
  Beta  occ. eigenvalues --   -0.16606  -0.13230  -0.11192
  Beta virt. eigenvalues --   -0.07297  -0.06432  -0.06081  -0.03717  -0.02944
  Beta virt. eigenvalues --   -0.02718  -0.02047  -0.01923  -0.01421  -0.00850
  Beta virt. eigenvalues --   -0.00414  -0.00147   0.00081   0.00368   0.00562

 Mulliken charges and spin densities:
               1          2
     1  Na  -0.751813   0.207900
     2  Na   0.046641   0.170458
     3  Na  -0.120748   0.287377
     4  Na   0.114118   0.220863
     5  Na  -0.068251   0.278291
     6  Na   0.452145  -0.043535
     7  Na   0.327907  -0.121355
 Sum of Mulliken charges =  -0.00000   1.00000

 Dipole moment (field-independent basis, Debye):
    X=             -0.3884    Y=              0.8303    Z=              0.5979  Tot=              1.0944
 Quadrupole moment (field-independent basis, Debye-Ang):
   XX=            -57.0035   YY=            -71.5745   ZZ=            -68.8815
   XY=             -3.6504   XZ=             -2.9337   YZ=             -1.7378

 Normal termination of Gaussian 16 at Mon Dec  4 01:34:24 2023.
