 Gaussian 16, Revision B.01,
 Gaussian 16:  ES64L-G16RevB.01 20-Dec-2017

 -------------------------
 #P B3LYP/6-311+g(d) force
 -------------------------

 -----
 DPGEN
 -----
 Symbolic Z-matrix:
 Charge =  0 Multiplicity = 2

                         Standard orientation:
 ---------------------------------------------------------------------
 Center     Atomic      Atomic             Coordinates (Angstroms)
 Number     Number       Type             X           Y           Z
 ---------------------------------------------------------------------
      1         11           0        1.783566    2.122375    0.005730
      2         11           0       -1.559800    2.488703    0.065445
      3         11           0       -0.077106   -2.647038   -0.108780
      4         11           0       -3.183573   -0.833380   -0.486479
      5         11           0       -0.181229   -0.344726    2.208471
      6         11           0        0.317826    0.210556   -1.479281
      7         11           0        2.900317   -0.996491   -0.205106
 ---------------------------------------------------------------------

 SCF Done:  E(UB3LYP) =  -1136.13251997     A.U. after   19 cycles

 The electronic state is 2-A.
 Alpha  occ. eigenvalues --  -38.44160 -38.43804 -38.43719 -38.43454 -38.43439
 Alpha  occ. eigenvalues --  -38.43254 -38.43190  -2.19949  -2.19683  -2.19611
 Alpha  occ. eigenvalues --   -2.19387  -2.19329  -2.19302  -2.19094  -1.13622
 Alpha  occ. eigenvalues --   -1.13599  -1.13592  -1.13369  -1.13348  -1.13314
 Alpha  occ. eigenvalues --   -1.13296  -1.13294  -1.13260  -1.13244  -1.13040
 Alpha  occ. eigenvalues --   -1.13024  -1.12985  -1.12979  -1.12957  -1.12918
 Alpha  occ. eigenvalues --   -1.12905  -1.12878  -1.12774  -1.12764  -1.12697
 Alpha  occ. eigenvalues --   -0.18977  -0.12980  -0.12622  -0.10941
 Alpha virt. eigenvalues --   -0.05630  -0.05043  -0.04493  -0.03215  -0.02976
 Alpha virt. eigenvalues --   -0.02617  -0.01562  -0.01019  -0.00198  -0.00129
 Alpha virt. eigenvalues --   -0.00027   0.00328   0.00798   0.00905   0.00933

  Beta  occ. eigenvalues --  -38.44151 -38.43714 -38.43698 -38.43451 -38.43433
  Beta  occ. eigenvalues --  -38.43203 -38.43181  -2.19933  -2.19605  -2.19488
  Beta  occ. eigenvalues --   -2.19374  -2.19300  -2.19242  -2.19083  -1.13598
  Beta  occ. eigenvalues --   -1.13590  -1.13584  -1.13348  -1.13277  -1.13249
  Beta  occ. eigenvalues --   -1.13232  -1.13217  -1.13173  -1.13157  -1.13022
  Beta  occ. eigenvalues --   -1.12997  -1.12968  -1.12945  -1.12937  -1.12915
  Beta  occ. eigenvalues --   -1.12853  -1.12828  -1.12761  -1.12718  -1.12694
  Beta  occ. eigenvalues --   -0.18253  -0.12729  -0.12382
  Beta virt. eigenvalues --   -0.06985  -0.05559  -0.05040  -0.04450  -0.02425
  Beta virt. eigenvalues --   -0.02181  -0.01564  -0.01468  -0.00964  -0.00231
  Beta virt. eigenvalues --   -0.00163   0.00128   0.00369   0.00857   0.00907

 Mulliken charges and spin densities:
               1          2
     1  Na   0.464459   0.097689
     2  Na   0.124627   0.013688
     3  Na   0.397197   0.047728
     4  Na   0.008886   0.000436
     5  Na  -0.707859   0.641785
     6  Na  -0.734227   0.162822
     7  Na   0.446916   0.035852
 Sum of Mulliken charges =  -0.00000   1.00000

 Dipole moment (field-independent basis, Debye):
    X=             -0.2179    Y=             -0.0704    Z=              0.2788  Tot=              0.3608
 Quadrupole moment (field-independent basis, Debye-Ang):
   XX=            -55.9165   YY=            -64.5505   ZZ=            -73.2637
   XY=             -0.6656   XZ=              1.0724   YZ=              1.3046

 Normal termination of Gaussian 16 at Fri Dec  8 04:31:21 2023.
