 Gaussian 16, Revision B.01,
 Gaussian 16:  ES64L-G16RevB.01 20-Dec-2017

 -------------------------
 #P B3LYP/6-311+g(d) force
 -------------------------

 -----
 DPGEN
 -----
 Symbolic Z-matrix:
 Charge =  0 Multiplicity = 2

                         Standard orientation:
 ---------------------------------------------------------------------
 Center     Atomic      Atomic             Coordinates (Angstroms)
 Number     Number       Type             X           Y           Z
 ---------------------------------------------------------------------
      1         11           0        3.855918   -0.049352    0.595738
      2         11           0        1.515308    1.881634   -0.684055
      3         11           0       -1.667047   -1.600750   -1.136188
      4         11           0        0.189820   -0.057926    1.838275
      5         11           0        1.827025   -1.787947   -0.796042
      6         11           0       -3.858989   -0.477774    0.856202
      7         11           0       -1.862035    2.092114   -0.673930
 ---------------------------------------------------------------------

 SCF Done:  E(UB3LYP) =  -1136.11922935     A.U. after   28 cycles

 The electronic state is 2-A.
 Alpha  occ. eigenvalues --  -38.45979 -38.45086 -38.44632 -38.43414 -38.43409
 Alpha  occ. eigenvalues --  -38.43276 -38.42892  -2.21783  -2.20959  -2.20459
 Alpha  occ. eigenvalues --   -2.19313  -2.19282  -2.19113  -2.18780  -1.15489
 Alpha  occ. eigenvalues --   -1.15433  -1.15397  -1.14652  -1.14613  -1.14580
 Alpha  occ. eigenvalues --   -1.14132  -1.14111  -1.14089  -1.12999  -1.12973
 Alpha  occ. eigenvalues --   -1.12963  -1.12948  -1.12934  -1.12918  -1.12793
 Alpha  occ. eigenvalues --   -1.12772  -1.12747  -1.12461  -1.12443  -1.12411
 Alpha  occ. eigenvalues --   -0.18395  -0.14569  -0.11292  -0.10512
 Alpha virt. eigenvalues --   -0.07519  -0.05310  -0.04714  -0.03287  -0.03134
 Alpha virt. eigenvalues --   -0.02351  -0.01899  -0.01144  -0.01136  -0.00310
 Alpha virt. eigenvalues --   -0.00021   0.00200   0.00253   0.00621   0.00710

  Beta  occ. eigenvalues --  -38.45951 -38.45069 -38.44604 -38.43381 -38.43378
  Beta  occ. eigenvalues --  -38.43258 -38.42877  -2.21731  -2.20928  -2.20407
  Beta  occ. eigenvalues --   -2.19262  -2.19227  -2.19081  -2.18755  -1.15440
  Beta  occ. eigenvalues --   -1.15404  -1.15353  -1.14636  -1.14589  -1.14554
  Beta  occ. eigenvalues --   -1.14102  -1.14071  -1.14052  -1.12958  -1.12934
  Beta  occ. eigenvalues --   -1.12920  -1.12900  -1.12891  -1.12856  -1.12761
  Beta  occ. eigenvalues --   -1.12755  -1.12720  -1.12450  -1.12413  -1.12386
  Beta  occ. eigenvalues --   -0.17792  -0.14381  -0.10894
  Beta virt. eigenvalues --   -0.07259  -0.06950  -0.05331  -0.04025  -0.03042
  Beta virt. eigenvalues --   -0.02906  -0.01783  -0.01332  -0.01040  -0.00682
  Beta virt. eigenvalues --   -0.00283   0.00040   0.00219   0.00433   0.00682

 Mulliken charges and spin densities:
               1          2
     1  Na   1.494989   0.150538
     2  Na  -0.528758   0.134856
     3  Na  -0.467381   0.087217
     4  Na  -0.756211   0.168185
     5  Na  -0.423620   0.071400
     6  Na   0.932690   0.244165
     7  Na  -0.251709   0.143639
 Sum of Mulliken charges =  -0.00000   1.00000

 Dipole moment (field-independent basis, Debye):
    X=              0.3521    Y=              0.1112    Z=              0.6473  Tot=              0.7452
 Quadrupole moment (field-independent basis, Debye-Ang):
   XX=            -47.5799   YY=            -79.2654   ZZ=            -69.6268
   XY=             -0.3312   XZ=              0.0537   YZ=             -0.5404

 Normal termination of Gaussian 16 at Wed Dec  6 00:29:07 2023.
