 Gaussian 16, Revision B.01,
 Gaussian 16:  ES64L-G16RevB.01 20-Dec-2017

 -------------------------
 #P B3LYP/6-311+g(d) force
 -------------------------

 -----
 DPGEN
 -----
 Symbolic Z-matrix:
 Charge =  0 Multiplicity = 2

                         Standard orientation:
 ---------------------------------------------------------------------
 Center     Atomic      Atomic             Coordinates (Angstroms)
 Number     Number       Type             X           Y           Z
 ---------------------------------------------------------------------
      1         11           0       -0.176812   -0.948275   -1.185952
      2         11           0       -0.359684   -0.702580    2.481860
      3         11           0        2.273905    0.774659   -2.000359
      4         11           0       -3.380590   -1.245951   -0.932582
      5         11           0       -2.145819    1.721837    0.215987
      6         11           0        2.754056   -1.811093    0.623409
      7         11           0        1.034944    2.211403    0.797638
 ---------------------------------------------------------------------

 SCF Done:  E(UB3LYP) =  -1136.12731844     A.U. after   22 cycles

 The electronic state is 2-A.
 Alpha  occ. eigenvalues --  -38.44985 -38.44795 -38.44403 -38.43658 -38.43208
 Alpha  occ. eigenvalues --  -38.42862 -38.42625  -2.20805  -2.20593  -2.20273
 Alpha  occ. eigenvalues --   -2.19521  -2.19035  -2.18806  -2.18498  -1.14476
 Alpha  occ. eigenvalues --   -1.14442  -1.14409  -1.14265  -1.14244  -1.14212
 Alpha  occ. eigenvalues --   -1.13975  -1.13910  -1.13867  -1.13222  -1.13183
 Alpha  occ. eigenvalues --   -1.13139  -1.12719  -1.12694  -1.12679  -1.12530
 Alpha  occ. eigenvalues --   -1.12477  -1.12401  -1.12187  -1.12149  -1.12134
 Alpha  occ. eigenvalues --   -0.18313  -0.13241  -0.12248  -0.11198
 Alpha virt. eigenvalues --   -0.05751  -0.05170  -0.04544  -0.03566  -0.02984
 Alpha virt. eigenvalues --   -0.02795  -0.01702  -0.01015  -0.00663   0.00066
 Alpha virt. eigenvalues --    0.00254   0.00294   0.00392   0.00650   0.00780

  Beta  occ. eigenvalues --  -38.44905 -38.44756 -38.44349 -38.43652 -38.43213
  Beta  occ. eigenvalues --  -38.42848 -38.42610  -2.20658  -2.20522  -2.20173
  Beta  occ. eigenvalues --   -2.19510  -2.19044  -2.18784  -2.18472  -1.14375
  Beta  occ. eigenvalues --   -1.14340  -1.14299  -1.14212  -1.14194  -1.14155
  Beta  occ. eigenvalues --   -1.13904  -1.13841  -1.13798  -1.13211  -1.13173
  Beta  occ. eigenvalues --   -1.13135  -1.12725  -1.12697  -1.12686  -1.12476
  Beta  occ. eigenvalues --   -1.12468  -1.12393  -1.12164  -1.12132  -1.12104
  Beta  occ. eigenvalues --   -0.17536  -0.13049  -0.11080
  Beta virt. eigenvalues --   -0.08179  -0.05449  -0.04807  -0.04204  -0.03035
  Beta virt. eigenvalues --   -0.02527  -0.02195  -0.01584  -0.00753  -0.00409
  Beta virt. eigenvalues --    0.00193   0.00309   0.00394   0.00527   0.00718

 Mulliken charges and spin densities:
               1          2
     1  Na  -0.576050   0.313552
     2  Na  -0.187513   0.487271
     3  Na   0.503780   0.001443
     4  Na   0.318745  -0.137469
     5  Na   0.004023   0.009069
     6  Na  -0.040048   0.153944
     7  Na  -0.022936   0.172191
 Sum of Mulliken charges =  -0.00000   1.00000

 Dipole moment (field-independent basis, Debye):
    X=              0.5820    Y=             -0.2249    Z=              0.5665  Tot=              0.8427
 Quadrupole moment (field-independent basis, Debye-Ang):
   XX=            -56.4116   YY=            -70.1746   ZZ=            -68.2845
   XY=             -1.0118   XZ=             -1.2745   YZ=             -7.9818

 Normal termination of Gaussian 16 at Mon Dec  4 02:45:28 2023.
