 Gaussian 16, Revision B.01,
 Gaussian 16:  ES64L-G16RevB.01 20-Dec-2017

 -------------------------
 #P B3LYP/6-311+g(d) force
 -------------------------

 -----
 DPGEN
 -----
 Symbolic Z-matrix:
 Charge =  0 Multiplicity = 2

                         Standard orientation:
 ---------------------------------------------------------------------
 Center     Atomic      Atomic             Coordinates (Angstroms)
 Number     Number       Type             X           Y           Z
 ---------------------------------------------------------------------
      1         11           0       -2.802297   -0.802307    0.847563
      2         11           0       -0.556122   -0.024804   -1.729007
      3         11           0        1.680010    2.587998    0.625452
      4         11           0       -2.021532    2.123467   -0.608335
      5         11           0        3.050898   -0.563485   -0.563990
      6         11           0        0.523457   -0.455192    1.694898
      7         11           0        0.125587   -2.865678   -0.266581
 ---------------------------------------------------------------------

 SCF Done:  E(UB3LYP) =  -1136.13234989     A.U. after   19 cycles

 The electronic state is 2-A.
 Alpha  occ. eigenvalues --  -38.44251 -38.43925 -38.43590 -38.43551 -38.43505
 Alpha  occ. eigenvalues --  -38.43327 -38.43283  -2.20070  -2.19787  -2.19507
 Alpha  occ. eigenvalues --   -2.19437  -2.19393  -2.19297  -2.19171  -1.13750
 Alpha  occ. eigenvalues --   -1.13735  -1.13694  -1.13473  -1.13450  -1.13422
 Alpha  occ. eigenvalues --   -1.13408  -1.13166  -1.13109  -1.13088  -1.13063
 Alpha  occ. eigenvalues --   -1.13046  -1.13034  -1.13021  -1.13013  -1.12990
 Alpha  occ. eigenvalues --   -1.12953  -1.12912  -1.12843  -1.12810  -1.12775
 Alpha  occ. eigenvalues --   -0.18726  -0.13128  -0.12368  -0.10965
 Alpha virt. eigenvalues --   -0.05577  -0.04969  -0.04632  -0.03446  -0.03008
 Alpha virt. eigenvalues --   -0.02482  -0.01493  -0.01046  -0.00368  -0.00062
 Alpha virt. eigenvalues --    0.00066   0.00361   0.00786   0.00868   0.00888

  Beta  occ. eigenvalues --  -38.44242 -38.43900 -38.43579 -38.43538 -38.43434
  Beta  occ. eigenvalues --  -38.43275 -38.43267  -2.20056  -2.19743  -2.19429
  Beta  occ. eigenvalues --   -2.19376  -2.19365  -2.19187  -2.19160  -1.13735
  Beta  occ. eigenvalues --   -1.13725  -1.13678  -1.13440  -1.13405  -1.13388
  Beta  occ. eigenvalues --   -1.13349  -1.13087  -1.13064  -1.13051  -1.13032
  Beta  occ. eigenvalues --   -1.13027  -1.13013  -1.12995  -1.12956  -1.12928
  Beta  occ. eigenvalues --   -1.12886  -1.12827  -1.12819  -1.12778  -1.12752
  Beta  occ. eigenvalues --   -0.18030  -0.12885  -0.12079
  Beta virt. eigenvalues --   -0.07111  -0.05484  -0.04870  -0.04572  -0.02756
  Beta virt. eigenvalues --   -0.02293  -0.01522  -0.01362  -0.00963  -0.00287
  Beta virt. eigenvalues --   -0.00077   0.00150   0.00409   0.00848   0.00896

 Mulliken charges and spin densities:
               1          2
     1  Na  -0.117700   0.070852
     2  Na   0.027584   0.416136
     3  Na  -0.229296  -0.044213
     4  Na   0.177161   0.055023
     5  Na  -0.037043   0.045247
     6  Na   0.040713   0.450967
     7  Na   0.138582   0.005989
 Sum of Mulliken charges =  -0.00000   1.00000

 Dipole moment (field-independent basis, Debye):
    X=              0.2185    Y=             -0.1594    Z=              0.0551  Tot=              0.2760
 Quadrupole moment (field-independent basis, Debye-Ang):
   XX=            -57.7906   YY=            -63.1652   ZZ=            -72.7406
   XY=             -0.1683   XZ=             -3.1833   YZ=              1.0656

 Normal termination of Gaussian 16 at Tue Dec  5 18:33:45 2023.
