 Gaussian 16, Revision B.01,
 Gaussian 16:  ES64L-G16RevB.01 20-Dec-2017

 -------------------------
 #P B3LYP/6-311+g(d) force
 -------------------------

 -----
 DPGEN
 -----
 Symbolic Z-matrix:
 Charge =  0 Multiplicity = 2

                         Standard orientation:
 ---------------------------------------------------------------------
 Center     Atomic      Atomic             Coordinates (Angstroms)
 Number     Number       Type             X           Y           Z
 ---------------------------------------------------------------------
      1         11           0        1.567440   -0.213270    1.170313
      2         11           0       -3.319604   -0.686195   -1.064906
      3         11           0       -0.092909   -2.721275   -0.431974
      4         11           0        3.882194   -1.213164   -0.524721
      5         11           0       -2.160263   -0.132393    2.328726
      6         11           0       -0.937447    1.521445   -1.614129
      7         11           0        1.060589    3.444852    0.136691
 ---------------------------------------------------------------------

 SCF Done:  E(UB3LYP) =  -1136.11976227     A.U. after   19 cycles

 The electronic state is 2-A.
 Alpha  occ. eigenvalues --  -38.45135 -38.44962 -38.44566 -38.44044 -38.43573
 Alpha  occ. eigenvalues --  -38.43464 -38.43170  -2.20891  -2.20750  -2.20365
 Alpha  occ. eigenvalues --   -2.19866  -2.19457  -2.19304  -2.18956  -1.14593
 Alpha  occ. eigenvalues --   -1.14578  -1.14485  -1.14454  -1.14401  -1.14369
 Alpha  occ. eigenvalues --   -1.14014  -1.14000  -1.13977  -1.13551  -1.13523
 Alpha  occ. eigenvalues --   -1.13490  -1.13153  -1.13136  -1.13065  -1.12977
 Alpha  occ. eigenvalues --   -1.12964  -1.12942  -1.12620  -1.12612  -1.12602
 Alpha  occ. eigenvalues --   -0.17228  -0.13206  -0.11840  -0.11057
 Alpha virt. eigenvalues --   -0.06758  -0.05076  -0.04681  -0.03433  -0.02800
 Alpha virt. eigenvalues --   -0.02648  -0.02201  -0.01144  -0.00990  -0.00312
 Alpha virt. eigenvalues --   -0.00153   0.00181   0.00250   0.00611   0.00646

  Beta  occ. eigenvalues --  -38.45128 -38.44960 -38.44467 -38.44019 -38.43554
  Beta  occ. eigenvalues --  -38.43430 -38.43174  -2.20879  -2.20745  -2.20180
  Beta  occ. eigenvalues --   -2.19823  -2.19425  -2.19242  -2.18964  -1.14585
  Beta  occ. eigenvalues --   -1.14557  -1.14479  -1.14451  -1.14396  -1.14364
  Beta  occ. eigenvalues --   -1.13881  -1.13875  -1.13855  -1.13516  -1.13482
  Beta  occ. eigenvalues --   -1.13460  -1.13136  -1.13090  -1.13045  -1.12936
  Beta  occ. eigenvalues --   -1.12926  -1.12888  -1.12620  -1.12618  -1.12607
  Beta  occ. eigenvalues --   -0.16600  -0.12943  -0.11773
  Beta virt. eigenvalues --   -0.07149  -0.06593  -0.04863  -0.04225  -0.03240
  Beta virt. eigenvalues --   -0.02266  -0.02029  -0.01884  -0.01071  -0.00583
  Beta virt. eigenvalues --   -0.00230  -0.00071   0.00267   0.00389   0.00669

 Mulliken charges and spin densities:
               1          2
     1  Na  -0.051695   0.220606
     2  Na   0.462527   0.169891
     3  Na  -0.248430   0.089856
     4  Na   0.200237  -0.002532
     5  Na  -0.010422   0.400282
     6  Na  -0.540328   0.145565
     7  Na   0.188112  -0.023667
 Sum of Mulliken charges =  -0.00000   1.00000

 Dipole moment (field-independent basis, Debye):
    X=              0.4673    Y=             -0.9520    Z=             -0.3180  Tot=              1.1072
 Quadrupole moment (field-independent basis, Debye-Ang):
   XX=            -54.9156   YY=            -68.6844   ZZ=            -71.1055
   XY=              0.8169   XZ=             -2.5889   YZ=              3.9856

 Normal termination of Gaussian 16 at Sun Dec  3 11:58:17 2023.
