 Gaussian 16, Revision B.01,
 Gaussian 16:  ES64L-G16RevB.01 20-Dec-2017

 -------------------------
 #P B3LYP/6-311+g(d) force
 -------------------------

 -----
 DPGEN
 -----
 Symbolic Z-matrix:
 Charge =  0 Multiplicity = 2

                         Standard orientation:
 ---------------------------------------------------------------------
 Center     Atomic      Atomic             Coordinates (Angstroms)
 Number     Number       Type             X           Y           Z
 ---------------------------------------------------------------------
      1         11           0       -1.948123   -3.051025   -0.478223
      2         11           0        1.772293   -3.074845    0.443462
      3         11           0        3.400608    2.099807   -0.397164
      4         11           0       -0.316155    3.286696   -0.413496
      5         11           0       -2.604400    2.545362    0.833083
      6         11           0       -4.280978   -0.873773   -0.196532
      7         11           0        3.976756   -0.932223    0.208869
 ---------------------------------------------------------------------

 SCF Done:  E(UB3LYP) =  -1136.10334545     A.U. after   20 cycles

 The electronic state is 2-A.
 Alpha  occ. eigenvalues --  -38.44737 -38.44674 -38.44659 -38.44639 -38.44534
 Alpha  occ. eigenvalues --  -38.44393 -38.44164  -2.20542  -2.20508  -2.20473
 Alpha  occ. eigenvalues --   -2.20470  -2.20374  -2.20214  -2.19990  -1.14569
 Alpha  occ. eigenvalues --   -1.14224  -1.14185  -1.14171  -1.14166  -1.14154
 Alpha  occ. eigenvalues --   -1.14124  -1.14111  -1.14105  -1.14081  -1.14073
 Alpha  occ. eigenvalues --   -1.14070  -1.14053  -1.14031  -1.13956  -1.13853
 Alpha  occ. eigenvalues --   -1.13839  -1.13834  -1.13628  -1.13627  -1.13611
 Alpha  occ. eigenvalues --   -0.15857  -0.14296  -0.13626  -0.11028
 Alpha virt. eigenvalues --   -0.07544  -0.04559  -0.04166  -0.03793  -0.03713
 Alpha virt. eigenvalues --   -0.02521  -0.02209  -0.01867  -0.01256  -0.00729
 Alpha virt. eigenvalues --   -0.00449  -0.00165   0.00165   0.00443   0.00680

  Beta  occ. eigenvalues --  -38.44736 -38.44629 -38.44626 -38.44625 -38.44530
  Beta  occ. eigenvalues --  -38.44314 -38.44091  -2.20513  -2.20499  -2.20437
  Beta  occ. eigenvalues --   -2.20391  -2.20375  -2.20068  -2.19855  -1.14522
  Beta  occ. eigenvalues --   -1.14202  -1.14193  -1.14159  -1.14140  -1.14127
  Beta  occ. eigenvalues --   -1.14071  -1.14061  -1.14060  -1.14055  -1.14046
  Beta  occ. eigenvalues --   -1.14042  -1.14041  -1.14020  -1.13912  -1.13754
  Beta  occ. eigenvalues --   -1.13748  -1.13735  -1.13544  -1.13535  -1.13521
  Beta  occ. eigenvalues --   -0.15309  -0.13549  -0.12885
  Beta virt. eigenvalues --   -0.07887  -0.07603  -0.04087  -0.03768  -0.03549
  Beta virt. eigenvalues --   -0.03324  -0.02248  -0.02062  -0.01632  -0.01142
  Beta virt. eigenvalues --   -0.00363  -0.00186  -0.00012   0.00322   0.00502

 Mulliken charges and spin densities:
               1          2
     1  Na   0.020635  -0.019352
     2  Na   0.097316   0.317083
     3  Na   0.153838   0.367325
     4  Na  -0.510388   0.037457
     5  Na  -0.029307   0.104199
     6  Na   0.134877   0.171795
     7  Na   0.133029   0.021493
 Sum of Mulliken charges =  -0.00000   1.00000

 Dipole moment (field-independent basis, Debye):
    X=             -0.6182    Y=              0.1848    Z=             -0.0006  Tot=              0.6452
 Quadrupole moment (field-independent basis, Debye-Ang):
   XX=            -61.0984   YY=            -69.3231   ZZ=            -72.0382
   XY=             -1.3411   XZ=             -1.5184   YZ=             -0.3916

 Normal termination of Gaussian 16 at Mon Dec  4 03:41:48 2023.
