 Gaussian 16, Revision B.01,
 Gaussian 16:  ES64L-G16RevB.01 20-Dec-2017

 -------------------------
 #P B3LYP/6-311+g(d) force
 -------------------------

 -----
 DPGEN
 -----
 Symbolic Z-matrix:
 Charge =  0 Multiplicity = 2

                         Standard orientation:
 ---------------------------------------------------------------------
 Center     Atomic      Atomic             Coordinates (Angstroms)
 Number     Number       Type             X           Y           Z
 ---------------------------------------------------------------------
      1         11           0       -1.943063   -1.196900    1.320302
      2         11           0       -0.154546    1.274342   -0.040174
      3         11           0       -3.635348    1.857702    0.092252
      4         11           0        2.496090   -0.099853    1.812099
      5         11           0        1.628053   -1.845406   -0.557618
      6         11           0       -2.155711   -1.324317   -1.548610
      7         11           0        3.764524    1.334432   -1.078250
 ---------------------------------------------------------------------

 SCF Done:  E(UB3LYP) =  -1136.11529810     A.U. after   26 cycles

 The electronic state is 2-A.
 Alpha  occ. eigenvalues --  -38.44727 -38.44373 -38.44346 -38.44254 -38.43911
 Alpha  occ. eigenvalues --  -38.43895 -38.43607  -2.20621  -2.20261  -2.20218
 Alpha  occ. eigenvalues --   -2.20061  -2.19804  -2.19751  -2.19401  -1.14395
 Alpha  occ. eigenvalues --   -1.14306  -1.14195  -1.13978  -1.13950  -1.13916
 Alpha  occ. eigenvalues --   -1.13901  -1.13866  -1.13811  -1.13720  -1.13712
 Alpha  occ. eigenvalues --   -1.13671  -1.13496  -1.13457  -1.13443  -1.13435
 Alpha  occ. eigenvalues --   -1.13371  -1.13335  -1.13078  -1.13067  -1.13037
 Alpha  occ. eigenvalues --   -0.18281  -0.14641  -0.10874  -0.10439
 Alpha virt. eigenvalues --   -0.06579  -0.06004  -0.05287  -0.03030  -0.02711
 Alpha virt. eigenvalues --   -0.02103  -0.01958  -0.01485  -0.00869  -0.00442
 Alpha virt. eigenvalues --    0.00034   0.00146   0.00214   0.00250   0.00414

  Beta  occ. eigenvalues --  -38.44721 -38.44334 -38.44327 -38.44198 -38.43880
  Beta  occ. eigenvalues --  -38.43874 -38.43614  -2.20614  -2.20203  -2.20180
  Beta  occ. eigenvalues --   -2.19957  -2.19735  -2.19726  -2.19415  -1.14380
  Beta  occ. eigenvalues --   -1.14288  -1.14190  -1.13927  -1.13900  -1.13894
  Beta  occ. eigenvalues --   -1.13860  -1.13805  -1.13788  -1.13646  -1.13637
  Beta  occ. eigenvalues --   -1.13605  -1.13455  -1.13424  -1.13407  -1.13394
  Beta  occ. eigenvalues --   -1.13325  -1.13316  -1.13088  -1.13073  -1.13046
  Beta  occ. eigenvalues --   -0.17685  -0.14348  -0.10700
  Beta virt. eigenvalues --   -0.06855  -0.06399  -0.05833  -0.04546  -0.02885
  Beta virt. eigenvalues --   -0.02556  -0.01663  -0.01466  -0.01263  -0.00397
  Beta virt. eigenvalues --   -0.00322   0.00125   0.00259   0.00317   0.00405

 Mulliken charges and spin densities:
               1          2
     1  Na   0.425020   0.153138
     2  Na  -1.640088   0.098629
     3  Na   0.305387  -0.089051
     4  Na   0.708424   0.198014
     5  Na  -0.205571   0.257575
     6  Na   0.058729   0.107159
     7  Na   0.348099   0.274536
 Sum of Mulliken charges =  -0.00000   1.00000

 Dipole moment (field-independent basis, Debye):
    X=              0.0463    Y=             -0.4611    Z=              0.4060  Tot=              0.6161
 Quadrupole moment (field-independent basis, Debye-Ang):
   XX=            -53.3742   YY=            -75.8261   ZZ=            -67.8844
   XY=              0.5125   XZ=              0.7984   YZ=             -2.4221

 Normal termination of Gaussian 16 at Tue Dec  5 16:09:52 2023.
