 Gaussian 16, Revision B.01,
 Gaussian 16:  ES64L-G16RevB.01 20-Dec-2017

 -------------------------
 #P B3LYP/6-311+g(d) force
 -------------------------

 -----
 DPGEN
 -----
 Symbolic Z-matrix:
 Charge =  0 Multiplicity = 2

                         Standard orientation:
 ---------------------------------------------------------------------
 Center     Atomic      Atomic             Coordinates (Angstroms)
 Number     Number       Type             X           Y           Z
 ---------------------------------------------------------------------
      1         11           0       -1.241177   -2.121310   -1.553221
      2         11           0       -2.167564    1.354207   -1.448753
      3         11           0        0.861017    0.292156   -0.557600
      4         11           0       -0.994918    2.971965    1.211481
      5         11           0        4.374487    0.869029   -0.399180
      6         11           0       -2.061196   -1.016310    1.523703
      7         11           0        1.229351   -2.349737    1.223571
 ---------------------------------------------------------------------

 SCF Done:  E(UB3LYP) =  -1136.12476723     A.U. after   21 cycles

 The electronic state is 2-A.
 Alpha  occ. eigenvalues --  -38.44403 -38.44364 -38.44138 -38.43966 -38.43796
 Alpha  occ. eigenvalues --  -38.43714 -38.42764  -2.20227  -2.20211  -2.19872
 Alpha  occ. eigenvalues --   -2.19769  -2.19679  -2.19590  -2.18714  -1.13934
 Alpha  occ. eigenvalues --   -1.13896  -1.13883  -1.13873  -1.13833  -1.13802
 Alpha  occ. eigenvalues --   -1.13545  -1.13538  -1.13502  -1.13431  -1.13422
 Alpha  occ. eigenvalues --   -1.13411  -1.13366  -1.13336  -1.13290  -1.13280
 Alpha  occ. eigenvalues --   -1.13237  -1.13197  -1.12433  -1.12382  -1.12328
 Alpha  occ. eigenvalues --   -0.18198  -0.12691  -0.11876  -0.11176
 Alpha virt. eigenvalues --   -0.06377  -0.04974  -0.04742  -0.03181  -0.02802
 Alpha virt. eigenvalues --   -0.02527  -0.01831  -0.01182  -0.00771  -0.00210
 Alpha virt. eigenvalues --   -0.00129   0.00188   0.00335   0.00621   0.00692

  Beta  occ. eigenvalues --  -38.44377 -38.44318 -38.44140 -38.43939 -38.43751
  Beta  occ. eigenvalues --  -38.43686 -38.42746  -2.20180  -2.20128  -2.19876
  Beta  occ. eigenvalues --   -2.19719  -2.19599  -2.19543  -2.18685  -1.13902
  Beta  occ. eigenvalues --   -1.13851  -1.13827  -1.13811  -1.13787  -1.13751
  Beta  occ. eigenvalues --   -1.13547  -1.13541  -1.13504  -1.13396  -1.13391
  Beta  occ. eigenvalues --   -1.13371  -1.13307  -1.13286  -1.13249  -1.13217
  Beta  occ. eigenvalues --   -1.13205  -1.13138  -1.12390  -1.12355  -1.12313
  Beta  occ. eigenvalues --   -0.17444  -0.12467  -0.11705
  Beta virt. eigenvalues --   -0.07347  -0.06175  -0.04746  -0.04382  -0.02817
  Beta virt. eigenvalues --   -0.02295  -0.02033  -0.01428  -0.01112  -0.00396
  Beta virt. eigenvalues --   -0.00110  -0.00060   0.00241   0.00414   0.00697

 Mulliken charges and spin densities:
               1          2
     1  Na   0.903967   0.058471
     2  Na   1.039529  -0.029905
     3  Na  -1.658335   0.674712
     4  Na  -0.216453  -0.000473
     5  Na   0.007889  -0.085429
     6  Na   0.223391   0.493309
     7  Na  -0.299989  -0.110684
 Sum of Mulliken charges =  -0.00000   1.00000

 Dipole moment (field-independent basis, Debye):
    X=             -0.5764    Y=             -0.4021    Z=              0.4806  Tot=              0.8514
 Quadrupole moment (field-independent basis, Debye-Ang):
   XX=            -60.9361   YY=            -63.5258   ZZ=            -67.6514
   XY=             -0.3494   XZ=              1.5967   YZ=              1.2953

 Normal termination of Gaussian 16 at Tue Dec  5 13:29:54 2023.
