 Gaussian 16, Revision B.01,
 Gaussian 16:  ES64L-G16RevB.01 20-Dec-2017

 -------------------------
 #P B3LYP/6-311+g(d) force
 -------------------------

 -----
 DPGEN
 -----
 Symbolic Z-matrix:
 Charge =  0 Multiplicity = 2

                         Standard orientation:
 ---------------------------------------------------------------------
 Center     Atomic      Atomic             Coordinates (Angstroms)
 Number     Number       Type             X           Y           Z
 ---------------------------------------------------------------------
      1         11           0        3.906411    1.407285   -0.397092
      2         11           0        0.676698   -0.602746    0.851116
      3         11           0        0.152669    2.270440    0.218965
      4         11           0       -3.065355    2.799064   -0.288462
      5         11           0       -1.682461   -3.027368   -0.493279
      6         11           0        4.146906   -1.656663   -0.038961
      7         11           0       -4.134869   -1.190012    0.147712
 ---------------------------------------------------------------------

 SCF Done:  E(UB3LYP) =  -1136.11163968     A.U. after   21 cycles

 The electronic state is 2-A.
 Alpha  occ. eigenvalues --  -38.45496 -38.44873 -38.44443 -38.44358 -38.44040
 Alpha  occ. eigenvalues --  -38.43565 -38.43054  -2.21310  -2.20694  -2.20233
 Alpha  occ. eigenvalues --   -2.20230  -2.19818  -2.19374  -2.18925  -1.14995
 Alpha  occ. eigenvalues --   -1.14977  -1.14932  -1.14348  -1.14342  -1.14325
 Alpha  occ. eigenvalues --   -1.13953  -1.13906  -1.13895  -1.13889  -1.13863
 Alpha  occ. eigenvalues --   -1.13810  -1.13485  -1.13470  -1.13455  -1.13039
 Alpha  occ. eigenvalues --   -1.13034  -1.13023  -1.12635  -1.12575  -1.12537
 Alpha  occ. eigenvalues --   -0.16837  -0.14128  -0.12103  -0.10644
 Alpha virt. eigenvalues --   -0.07203  -0.05428  -0.04002  -0.03794  -0.03466
 Alpha virt. eigenvalues --   -0.02546  -0.01823  -0.01560  -0.00782  -0.00631
 Alpha virt. eigenvalues --   -0.00196  -0.00074   0.00331   0.00416   0.00544

  Beta  occ. eigenvalues --  -38.45469 -38.44838 -38.44410 -38.44290 -38.44008
  Beta  occ. eigenvalues --  -38.43563 -38.43034  -2.21265  -2.20632  -2.20170
  Beta  occ. eigenvalues --   -2.20109  -2.19758  -2.19371  -2.18893  -1.14958
  Beta  occ. eigenvalues --   -1.14950  -1.14880  -1.14305  -1.14298  -1.14275
  Beta  occ. eigenvalues --   -1.13867  -1.13860  -1.13847  -1.13817  -1.13810
  Beta  occ. eigenvalues --   -1.13732  -1.13444  -1.13434  -1.13407  -1.13039
  Beta  occ. eigenvalues --   -1.13034  -1.13007  -1.12596  -1.12556  -1.12515
  Beta  occ. eigenvalues --   -0.16196  -0.13513  -0.11988
  Beta virt. eigenvalues --   -0.07297  -0.06996  -0.04961  -0.03765  -0.03241
  Beta virt. eigenvalues --   -0.03033  -0.02364  -0.01655  -0.01399  -0.00604
  Beta virt. eigenvalues --   -0.00422  -0.00074   0.00227   0.00409   0.00541

 Mulliken charges and spin densities:
               1          2
     1  Na   0.167949   0.093334
     2  Na  -0.983342   0.265245
     3  Na  -0.027447  -0.225036
     4  Na   0.340929   0.408173
     5  Na   0.409413  -0.039949
     6  Na   0.397122   0.280930
     7  Na  -0.304623   0.217303
 Sum of Mulliken charges =  -0.00000   1.00000

 Dipole moment (field-independent basis, Debye):
    X=              1.5607    Y=             -0.2454    Z=             -0.1851  Tot=              1.5907
 Quadrupole moment (field-independent basis, Debye-Ang):
   XX=            -63.2666   YY=            -63.6904   ZZ=            -72.3156
   XY=              0.7020   XZ=             -0.7145   YZ=             -1.0059

 Normal termination of Gaussian 16 at Sun Dec  3 23:13:38 2023.
