 Gaussian 16, Revision B.01,
 Gaussian 16:  ES64L-G16RevB.01 20-Dec-2017

 -------------------------
 #P B3LYP/6-311+g(d) force
 -------------------------

 -----
 DPGEN
 -----
 Symbolic Z-matrix:
 Charge =  0 Multiplicity = 2

                         Standard orientation:
 ---------------------------------------------------------------------
 Center     Atomic      Atomic             Coordinates (Angstroms)
 Number     Number       Type             X           Y           Z
 ---------------------------------------------------------------------
      1         11           0       -2.326247   -1.788380   -0.731633
      2         11           0        1.494007    0.196916   -1.783490
      3         11           0        0.763481   -2.762773    0.314497
      4         11           0       -2.535426    1.647402   -0.808421
      5         11           0        0.751227    2.838173    0.479217
      6         11           0        3.624360   -0.098778    0.517837
      7         11           0       -1.771401   -0.032561    2.011992
 ---------------------------------------------------------------------

 SCF Done:  E(UB3LYP) =  -1136.12778030     A.U. after   20 cycles

 The electronic state is 2-A.
 Alpha  occ. eigenvalues --  -38.44937 -38.44049 -38.44000 -38.43954 -38.43848
 Alpha  occ. eigenvalues --  -38.43726 -38.43665  -2.20729  -2.19901  -2.19780
 Alpha  occ. eigenvalues --   -2.19773  -2.19698  -2.19519  -2.19518  -1.14423
 Alpha  occ. eigenvalues --   -1.14381  -1.14358  -1.13576  -1.13547  -1.13535
 Alpha  occ. eigenvalues --   -1.13472  -1.13452  -1.13447  -1.13446  -1.13422
 Alpha  occ. eigenvalues --   -1.13392  -1.13360  -1.13349  -1.13312  -1.13223
 Alpha  occ. eigenvalues --   -1.13193  -1.13174  -1.13173  -1.13168  -1.13123
 Alpha  occ. eigenvalues --   -0.17586  -0.13565  -0.12079  -0.10236
 Alpha virt. eigenvalues --   -0.06331  -0.05318  -0.05083  -0.03659  -0.02941
 Alpha virt. eigenvalues --   -0.02352  -0.01723  -0.00882  -0.00700  -0.00535
 Alpha virt. eigenvalues --   -0.00218   0.00351   0.00426   0.00531   0.00743

  Beta  occ. eigenvalues --  -38.44934 -38.44010 -38.43993 -38.43937 -38.43781
  Beta  occ. eigenvalues --  -38.43721 -38.43649  -2.20723  -2.19829  -2.19763
  Beta  occ. eigenvalues --   -2.19750  -2.19573  -2.19512  -2.19493  -1.14414
  Beta  occ. eigenvalues --   -1.14375  -1.14356  -1.13529  -1.13490  -1.13488
  Beta  occ. eigenvalues --   -1.13450  -1.13438  -1.13427  -1.13407  -1.13402
  Beta  occ. eigenvalues --   -1.13382  -1.13286  -1.13263  -1.13228  -1.13211
  Beta  occ. eigenvalues --   -1.13179  -1.13159  -1.13153  -1.13131  -1.13110
  Beta  occ. eigenvalues --   -0.16974  -0.13378  -0.11917
  Beta virt. eigenvalues --   -0.06678  -0.06193  -0.05267  -0.04552  -0.03270
  Beta virt. eigenvalues --   -0.02303  -0.01627  -0.01495  -0.00830  -0.00668
  Beta virt. eigenvalues --   -0.00531   0.00076   0.00466   0.00584   0.00750

 Mulliken charges and spin densities:
               1          2
     1  Na   0.111158   0.169048
     2  Na   0.098525   0.328978
     3  Na  -0.229675  -0.038848
     4  Na   0.147708   0.149452
     5  Na  -0.229165  -0.032762
     6  Na   0.312314  -0.016388
     7  Na  -0.210865   0.440520
 Sum of Mulliken charges =  -0.00000   1.00000

 Dipole moment (field-independent basis, Debye):
    X=              0.8360    Y=              0.1349    Z=              0.1346  Tot=              0.8574
 Quadrupole moment (field-independent basis, Debye-Ang):
   XX=            -56.1192   YY=            -67.9419   ZZ=            -71.9890
   XY=             -0.3120   XZ=              4.1171   YZ=              0.0938

 Normal termination of Gaussian 16 at Sun Dec  3 19:47:39 2023.
