 Gaussian 16, Revision B.01,
 Gaussian 16:  ES64L-G16RevB.01 20-Dec-2017

 -------------------------
 #P B3LYP/6-311+g(d) force
 -------------------------

 -----
 DPGEN
 -----
 Symbolic Z-matrix:
 Charge =  0 Multiplicity = 2

                         Standard orientation:
 ---------------------------------------------------------------------
 Center     Atomic      Atomic             Coordinates (Angstroms)
 Number     Number       Type             X           Y           Z
 ---------------------------------------------------------------------
      1         11           0        0.695770    2.893915   -0.182660
      2         11           0       -0.527274   -0.410808    1.958691
      3         11           0       -2.186433   -2.265016   -0.262906
      4         11           0       -2.772583    1.529782    0.089014
      5         11           0        2.069844   -2.361653   -0.148784
      6         11           0       -0.217576   -0.045580   -1.714324
      7         11           0        2.938251    0.659360    0.260969
 ---------------------------------------------------------------------

 SCF Done:  E(UB3LYP) =  -1136.13558882     A.U. after   19 cycles

 The electronic state is 2-A.
 Alpha  occ. eigenvalues --  -38.44326 -38.44082 -38.43863 -38.43685 -38.43543
 Alpha  occ. eigenvalues --  -38.43306 -38.43194  -2.20140  -2.19915  -2.19686
 Alpha  occ. eigenvalues --   -2.19552  -2.19429  -2.19150  -2.19139  -1.13820
 Alpha  occ. eigenvalues --   -1.13807  -1.13769  -1.13599  -1.13592  -1.13537
 Alpha  occ. eigenvalues --   -1.13403  -1.13351  -1.13323  -1.13230  -1.13204
 Alpha  occ. eigenvalues --   -1.13185  -1.13096  -1.13062  -1.13045  -1.12848
 Alpha  occ. eigenvalues --   -1.12815  -1.12811  -1.12785  -1.12766  -1.12752
 Alpha  occ. eigenvalues --   -0.18458  -0.13190  -0.12357  -0.10585
 Alpha virt. eigenvalues --   -0.05947  -0.05351  -0.04590  -0.03275  -0.02814
 Alpha virt. eigenvalues --   -0.02471  -0.01575  -0.01310  -0.00494  -0.00367
 Alpha virt. eigenvalues --   -0.00008   0.00361   0.00785   0.00821   0.00901

  Beta  occ. eigenvalues --  -38.44320 -38.44073 -38.43862 -38.43682 -38.43459
  Beta  occ. eigenvalues --  -38.43304 -38.43121  -2.20133  -2.19903  -2.19686
  Beta  occ. eigenvalues --   -2.19548  -2.19274  -2.19149  -2.19006  -1.13806
  Beta  occ. eigenvalues --   -1.13787  -1.13767  -1.13590  -1.13556  -1.13531
  Beta  occ. eigenvalues --   -1.13406  -1.13331  -1.13326  -1.13231  -1.13187
  Beta  occ. eigenvalues --   -1.13182  -1.12993  -1.12954  -1.12933  -1.12832
  Beta  occ. eigenvalues --   -1.12799  -1.12784  -1.12725  -1.12672  -1.12661
  Beta  occ. eigenvalues --   -0.17747  -0.12971  -0.12134
  Beta virt. eigenvalues --   -0.06703  -0.05950  -0.05240  -0.04577  -0.02495
  Beta virt. eigenvalues --   -0.02084  -0.01503  -0.01416  -0.01235  -0.00550
  Beta virt. eigenvalues --   -0.00398   0.00137   0.00394   0.00786   0.00875

 Mulliken charges and spin densities:
               1          2
     1  Na   0.043949  -0.037273
     2  Na  -0.361332   0.734657
     3  Na   0.183802  -0.157326
     4  Na   0.151952  -0.070021
     5  Na   0.142824  -0.075763
     6  Na  -0.113343   0.605498
     7  Na  -0.047852   0.000227
 Sum of Mulliken charges =  -0.00000   1.00000

 Dipole moment (field-independent basis, Debye):
    X=             -0.5104    Y=             -0.2304    Z=              0.0656  Tot=              0.5639
 Quadrupole moment (field-independent basis, Debye-Ang):
   XX=            -56.9282   YY=            -61.4430   ZZ=            -75.3121
   XY=             -0.5557   XZ=              0.7311   YZ=              0.8988

 Normal termination of Gaussian 16 at Thu Dec  7 07:09:04 2023.
