 Gaussian 16, Revision B.01,
 Gaussian 16:  ES64L-G16RevB.01 20-Dec-2017

 -------------------------
 #P B3LYP/6-311+g(d) force
 -------------------------

 -----
 DPGEN
 -----
 Symbolic Z-matrix:
 Charge =  0 Multiplicity = 2

                         Standard orientation:
 ---------------------------------------------------------------------
 Center     Atomic      Atomic             Coordinates (Angstroms)
 Number     Number       Type             X           Y           Z
 ---------------------------------------------------------------------
      1         11           0        3.520669   -1.200179   -0.619468
      2         11           0        1.109619   -0.375083    1.764564
      3         11           0       -3.845303    0.426559   -0.897228
      4         11           0        0.019720   -0.899121   -1.805669
      5         11           0       -1.061405    1.888633    0.583083
      6         11           0       -1.985265   -1.880028    1.125548
      7         11           0        2.241966    2.039219   -0.150830
 ---------------------------------------------------------------------

 SCF Done:  E(UB3LYP) =  -1136.12512758     A.U. after   25 cycles

 The electronic state is 2-A.
 Alpha  occ. eigenvalues --  -38.45025 -38.44889 -38.44148 -38.44003 -38.43752
 Alpha  occ. eigenvalues --  -38.43382 -38.42414  -2.20822  -2.20682  -2.19956
 Alpha  occ. eigenvalues --   -2.19838  -2.19692  -2.19249  -2.18295  -1.14484
 Alpha  occ. eigenvalues --   -1.14476  -1.14441  -1.14377  -1.14355  -1.14280
 Alpha  occ. eigenvalues --   -1.13635  -1.13616  -1.13594  -1.13519  -1.13489
 Alpha  occ. eigenvalues --   -1.13462  -1.13383  -1.13336  -1.13301  -1.12929
 Alpha  occ. eigenvalues --   -1.12917  -1.12867  -1.12000  -1.11981  -1.11902
 Alpha  occ. eigenvalues --   -0.18309  -0.14008  -0.11297  -0.10927
 Alpha virt. eigenvalues --   -0.06998  -0.05276  -0.04520  -0.03100  -0.02778
 Alpha virt. eigenvalues --   -0.02492  -0.02342  -0.01098  -0.00988  -0.00238
 Alpha virt. eigenvalues --    0.00086   0.00207   0.00294   0.00613   0.00715

  Beta  occ. eigenvalues --  -38.44988 -38.44858 -38.44148 -38.43956 -38.43683
  Beta  occ. eigenvalues --  -38.43378 -38.42409  -2.20752  -2.20626  -2.19958
  Beta  occ. eigenvalues --   -2.19756  -2.19568  -2.19242  -2.18289  -1.14434
  Beta  occ. eigenvalues --   -1.14425  -1.14397  -1.14339  -1.14307  -1.14239
  Beta  occ. eigenvalues --   -1.13633  -1.13615  -1.13593  -1.13453  -1.13432
  Beta  occ. eigenvalues --   -1.13393  -1.13305  -1.13233  -1.13214  -1.12922
  Beta  occ. eigenvalues --   -1.12911  -1.12859  -1.12000  -1.11950  -1.11901
  Beta  occ. eigenvalues --   -0.17633  -0.13733  -0.10773
  Beta virt. eigenvalues --   -0.07438  -0.06740  -0.05100  -0.04064  -0.02887
  Beta virt. eigenvalues --   -0.02494  -0.01912  -0.01651  -0.00996  -0.00610
  Beta virt. eigenvalues --   -0.00157   0.00137   0.00238   0.00400   0.00684

 Mulliken charges and spin densities:
               1          2
     1  Na   0.302575   0.048995
     2  Na   0.183193   0.277173
     3  Na   0.500626   0.157854
     4  Na  -0.495988   0.295468
     5  Na  -0.603747   0.056407
     6  Na   0.001175   0.085675
     7  Na   0.112167   0.078428
 Sum of Mulliken charges =  -0.00000   1.00000

 Dipole moment (field-independent basis, Debye):
    X=             -0.3463    Y=             -0.3115    Z=             -0.4006  Tot=              0.6143
 Quadrupole moment (field-independent basis, Debye-Ang):
   XX=            -48.3708   YY=            -76.6636   ZZ=            -69.3822
   XY=              0.9700   XZ=              1.1243   YZ=             -4.2843

 Normal termination of Gaussian 16 at Thu Dec  7 02:45:51 2023.
