 Gaussian 16, Revision B.01,
 Gaussian 16:  ES64L-G16RevB.01 20-Dec-2017

 -------------------------
 #P B3LYP/6-311+g(d) force
 -------------------------

 -----
 DPGEN
 -----
 Symbolic Z-matrix:
 Charge =  0 Multiplicity = 2

                         Standard orientation:
 ---------------------------------------------------------------------
 Center     Atomic      Atomic             Coordinates (Angstroms)
 Number     Number       Type             X           Y           Z
 ---------------------------------------------------------------------
      1         11           0        0.538256    0.597585    2.523813
      2         11           0        0.020099    3.425914   -0.113858
      3         11           0        1.802805   -0.851978   -0.852623
      4         11           0       -1.490752   -2.044529    0.726380
      5         11           0       -1.647392    0.963119   -1.363584
      6         11           0        4.868279   -0.989676   -0.529833
      7         11           0       -4.091295   -1.100435   -0.390295
 ---------------------------------------------------------------------

 SCF Done:  E(UB3LYP) =  -1136.11534724     A.U. after   22 cycles

 The electronic state is 2-A.
 Alpha  occ. eigenvalues --  -38.45130 -38.44399 -38.44325 -38.44069 -38.43934
 Alpha  occ. eigenvalues --  -38.43664 -38.43367  -2.20918  -2.20257  -2.20197
 Alpha  occ. eigenvalues --   -2.19869  -2.19813  -2.19485  -2.19162  -1.14574
 Alpha  occ. eigenvalues --   -1.14559  -1.14523  -1.14041  -1.13916  -1.13898
 Alpha  occ. eigenvalues --   -1.13859  -1.13843  -1.13753  -1.13554  -1.13511
 Alpha  occ. eigenvalues --   -1.13509  -1.13507  -1.13471  -1.13427  -1.13158
 Alpha  occ. eigenvalues --   -1.13153  -1.13116  -1.12836  -1.12823  -1.12796
 Alpha  occ. eigenvalues --   -0.17481  -0.13367  -0.11986  -0.11418
 Alpha virt. eigenvalues --   -0.06968  -0.05171  -0.04313  -0.03325  -0.02947
 Alpha virt. eigenvalues --   -0.02598  -0.02573  -0.01235  -0.00909  -0.00463
 Alpha virt. eigenvalues --   -0.00284   0.00093   0.00409   0.00485   0.00750

  Beta  occ. eigenvalues --  -38.45038 -38.44391 -38.44297 -38.44037 -38.43891
  Beta  occ. eigenvalues --  -38.43665 -38.43365  -2.20748  -2.20242  -2.20147
  Beta  occ. eigenvalues --   -2.19809  -2.19735  -2.19490  -2.19161  -1.14456
  Beta  occ. eigenvalues --   -1.14442  -1.14404  -1.14023  -1.13898  -1.13884
  Beta  occ. eigenvalues --   -1.13830  -1.13805  -1.13714  -1.13517  -1.13471
  Beta  occ. eigenvalues --   -1.13468  -1.13456  -1.13418  -1.13367  -1.13162
  Beta  occ. eigenvalues --   -1.13145  -1.13109  -1.12830  -1.12818  -1.12796
  Beta  occ. eigenvalues --   -0.16856  -0.13038  -0.11674
  Beta virt. eigenvalues --   -0.07763  -0.06715  -0.04731  -0.03923  -0.02924
  Beta virt. eigenvalues --   -0.02758  -0.02327  -0.02023  -0.01140  -0.00572
  Beta virt. eigenvalues --   -0.00346  -0.00176   0.00232   0.00596   0.00651

 Mulliken charges and spin densities:
               1          2
     1  Na  -0.152072   0.380194
     2  Na   0.145974  -0.061513
     3  Na  -0.735214   0.055278
     4  Na   0.643549   0.191062
     5  Na   0.121425   0.366153
     6  Na   0.078617   0.058848
     7  Na  -0.102279   0.009979
 Sum of Mulliken charges =  -0.00000   1.00000

 Dipole moment (field-independent basis, Debye):
    X=             -0.6196    Y=              0.1949    Z=              0.9396  Tot=              1.1423
 Quadrupole moment (field-independent basis, Debye-Ang):
   XX=            -56.5808   YY=            -70.9402   ZZ=            -68.8656
   XY=              4.2063   XZ=              3.4184   YZ=              0.8405

 Normal termination of Gaussian 16 at Mon Dec  4 02:29:16 2023.
