 Gaussian 16, Revision B.01,
 Gaussian 16:  ES64L-G16RevB.01 20-Dec-2017

 -------------------------
 #P B3LYP/6-311+g(d) force
 -------------------------

 -----
 DPGEN
 -----
 Symbolic Z-matrix:
 Charge =  0 Multiplicity = 2

                         Standard orientation:
 ---------------------------------------------------------------------
 Center     Atomic      Atomic             Coordinates (Angstroms)
 Number     Number       Type             X           Y           Z
 ---------------------------------------------------------------------
      1         11           0        1.858771    2.263721    0.057127
      2         11           0       -1.669936    2.453347    0.278176
      3         11           0        0.205641   -0.513913    1.907140
      4         11           0       -0.094309   -2.766665    0.121975
      5         11           0        0.034743    0.082186   -1.536072
      6         11           0       -3.215038   -0.673497   -0.396507
      7         11           0        2.880129   -0.845178   -0.431839
 ---------------------------------------------------------------------

 SCF Done:  E(UB3LYP) =  -1136.13522893     A.U. after   19 cycles

 The electronic state is 2-A.
 Alpha  occ. eigenvalues --  -38.44146 -38.43812 -38.43550 -38.43438 -38.43379
 Alpha  occ. eigenvalues --  -38.43341 -38.43057  -2.19949  -2.19707  -2.19402
 Alpha  occ. eigenvalues --   -2.19382  -2.19260  -2.19256  -2.19086  -1.13626
 Alpha  occ. eigenvalues --   -1.13602  -1.13588  -1.13410  -1.13369  -1.13335
 Alpha  occ. eigenvalues --   -1.13238  -1.13069  -1.13056  -1.13037  -1.13018
 Alpha  occ. eigenvalues --   -1.12996  -1.12956  -1.12926  -1.12913  -1.12885
 Alpha  occ. eigenvalues --   -1.12864  -1.12845  -1.12766  -1.12712  -1.12698
 Alpha  occ. eigenvalues --   -0.18976  -0.13093  -0.12626  -0.10687
 Alpha virt. eigenvalues --   -0.05656  -0.05093  -0.04664  -0.03080  -0.02951
 Alpha virt. eigenvalues --   -0.02316  -0.01636  -0.01058  -0.00326  -0.00225
 Alpha virt. eigenvalues --    0.00019   0.00336   0.00814   0.00893   0.00904

  Beta  occ. eigenvalues --  -38.44138 -38.43797 -38.43545 -38.43374 -38.43348
  Beta  occ. eigenvalues --  -38.43330 -38.42999  -2.19936  -2.19683  -2.19377
  Beta  occ. eigenvalues --   -2.19258  -2.19251  -2.19224  -2.18981  -1.13602
  Beta  occ. eigenvalues --   -1.13595  -1.13581  -1.13389  -1.13342  -1.13309
  Beta  occ. eigenvalues --   -1.13161  -1.13063  -1.13036  -1.13011  -1.12952
  Beta  occ. eigenvalues --   -1.12932  -1.12903  -1.12890  -1.12889  -1.12870
  Beta  occ. eigenvalues --   -1.12836  -1.12789  -1.12695  -1.12639  -1.12617
  Beta  occ. eigenvalues --   -0.18270  -0.12826  -0.12352
  Beta virt. eigenvalues --   -0.06806  -0.05582  -0.05081  -0.04607  -0.02372
  Beta virt. eigenvalues --   -0.02152  -0.01529  -0.01291  -0.00989  -0.00346
  Beta virt. eigenvalues --   -0.00261   0.00149   0.00375   0.00858   0.00893

 Mulliken charges and spin densities:
               1          2
     1  Na   0.035571  -0.016510
     2  Na  -0.049271  -0.011250
     3  Na  -0.409948   0.644162
     4  Na   0.395256  -0.027865
     5  Na  -0.376467   0.418898
     6  Na  -0.008140  -0.031520
     7  Na   0.412999   0.024085
 Sum of Mulliken charges =  -0.00000   1.00000

 Dipole moment (field-independent basis, Debye):
    X=             -0.1602    Y=             -0.0226    Z=              0.0740  Tot=              0.1779
 Quadrupole moment (field-independent basis, Debye-Ang):
   XX=            -55.3959   YY=            -62.9322   ZZ=            -74.6432
   XY=              0.1876   XZ=             -0.2339   YZ=              1.7948

 Normal termination of Gaussian 16 at Thu Dec  7 23:59:26 2023.
