 Gaussian 16, Revision B.01,
 Gaussian 16:  ES64L-G16RevB.01 20-Dec-2017

 -------------------------
 #P B3LYP/6-311+g(d) force
 -------------------------

 -----
 DPGEN
 -----
 Symbolic Z-matrix:
 Charge =  0 Multiplicity = 2

                         Standard orientation:
 ---------------------------------------------------------------------
 Center     Atomic      Atomic             Coordinates (Angstroms)
 Number     Number       Type             X           Y           Z
 ---------------------------------------------------------------------
      1         11           0       -0.501212    1.095538    1.698102
      2         11           0        0.691492   -1.575189    1.562906
      3         11           0       -3.192281   -1.516125    0.317097
      4         11           0       -3.279873    1.620317   -1.031717
      5         11           0        2.915512    1.980738    0.329160
      6         11           0        3.409598   -1.080679   -1.067315
      7         11           0       -0.043237   -0.524601   -1.808234
 ---------------------------------------------------------------------

 SCF Done:  E(UB3LYP) =  -1136.11555501     A.U. after   28 cycles

 The electronic state is 2-A.
 Alpha  occ. eigenvalues --  -38.45686 -38.45075 -38.44734 -38.43980 -38.43819
 Alpha  occ. eigenvalues --  -38.42989 -38.42841  -2.21459  -2.20867  -2.20531
 Alpha  occ. eigenvalues --   -2.19781  -2.19631  -2.18877  -2.18733  -1.15153
 Alpha  occ. eigenvalues --   -1.15107  -1.15080  -1.14539  -1.14499  -1.14490
 Alpha  occ. eigenvalues --   -1.14233  -1.14215  -1.14123  -1.13444  -1.13440
 Alpha  occ. eigenvalues --   -1.13407  -1.13296  -1.13294  -1.13276  -1.12695
 Alpha  occ. eigenvalues --   -1.12543  -1.12486  -1.12393  -1.12346  -1.12333
 Alpha  occ. eigenvalues --   -0.17803  -0.13896  -0.11368  -0.10650
 Alpha virt. eigenvalues --   -0.06857  -0.06042  -0.04347  -0.03103  -0.02909
 Alpha virt. eigenvalues --   -0.02528  -0.02341  -0.01590  -0.00687  -0.00483
 Alpha virt. eigenvalues --    0.00057   0.00134   0.00276   0.00431   0.00526

  Beta  occ. eigenvalues --  -38.45680 -38.45016 -38.44701 -38.43951 -38.43813
  Beta  occ. eigenvalues --  -38.42973 -38.42820  -2.21450  -2.20757  -2.20473
  Beta  occ. eigenvalues --   -2.19726  -2.19622  -2.18847  -2.18697  -1.15139
  Beta  occ. eigenvalues --   -1.15102  -1.15070  -1.14462  -1.14428  -1.14410
  Beta  occ. eigenvalues --   -1.14190  -1.14161  -1.14082  -1.13405  -1.13399
  Beta  occ. eigenvalues --   -1.13374  -1.13290  -1.13277  -1.13266  -1.12676
  Beta  occ. eigenvalues --   -1.12520  -1.12454  -1.12362  -1.12313  -1.12304
  Beta  occ. eigenvalues --   -0.17137  -0.13676  -0.10518
  Beta virt. eigenvalues --   -0.07703  -0.06653  -0.05344  -0.04114  -0.02758
  Beta virt. eigenvalues --   -0.02533  -0.02324  -0.01824  -0.01087  -0.00555
  Beta virt. eigenvalues --   -0.00309   0.00123   0.00189   0.00419   0.00517

 Mulliken charges and spin densities:
               1          2
     1  Na  -0.350607   0.482282
     2  Na  -0.039500   0.229632
     3  Na   0.360249  -0.037218
     4  Na   0.254597  -0.000100
     5  Na   0.072103   0.057593
     6  Na   0.257073  -0.013530
     7  Na  -0.553915   0.281341
 Sum of Mulliken charges =  -0.00000   1.00000

 Dipole moment (field-independent basis, Debye):
    X=             -0.4998    Y=             -0.3418    Z=              0.1963  Tot=              0.6365
 Quadrupole moment (field-independent basis, Debye-Ang):
   XX=            -54.6338   YY=            -61.8424   ZZ=            -80.7282
   XY=              3.1453   XZ=             -0.5758   YZ=             -0.2364

 Normal termination of Gaussian 16 at Wed Nov 29 16:28:10 2023.
