 Gaussian 16, Revision B.01,
 Gaussian 16:  ES64L-G16RevB.01 20-Dec-2017

 -------------------------
 #P B3LYP/6-311+g(d) force
 -------------------------

 -----
 DPGEN
 -----
 Symbolic Z-matrix:
 Charge =  0 Multiplicity = 2

                         Standard orientation:
 ---------------------------------------------------------------------
 Center     Atomic      Atomic             Coordinates (Angstroms)
 Number     Number       Type             X           Y           Z
 ---------------------------------------------------------------------
      1         11           0       -4.988576    0.240217    0.667842
      2         11           0        3.490341   -2.744113   -0.245159
      3         11           0        2.441844    2.715899   -0.956950
      4         11           0        4.437753    0.415851   -1.136210
      5         11           0        1.553747   -1.384698    1.768630
      6         11           0       -0.948075    1.782453    1.633386
      7         11           0       -5.987033   -1.025609   -1.731539
 ---------------------------------------------------------------------

 SCF Done:  E(UB3LYP) =  -1136.10075902     A.U. after   22 cycles

 The electronic state is 2-A.
 Alpha  occ. eigenvalues --  -38.45541 -38.45075 -38.44797 -38.44434 -38.44140
 Alpha  occ. eigenvalues --  -38.44100 -38.43371  -2.21345  -2.20927  -2.20544
 Alpha  occ. eigenvalues --   -2.20256  -2.19949  -2.19894  -2.19209  -1.15019
 Alpha  occ. eigenvalues --   -1.14988  -1.14965  -1.14616  -1.14584  -1.14530
 Alpha  occ. eigenvalues --   -1.14203  -1.14200  -1.14161  -1.14030  -1.13889
 Alpha  occ. eigenvalues --   -1.13888  -1.13598  -1.13591  -1.13590  -1.13567
 Alpha  occ. eigenvalues --   -1.13554  -1.13509  -1.12894  -1.12861  -1.12856
 Alpha  occ. eigenvalues --   -0.16115  -0.13855  -0.12399  -0.11853
 Alpha virt. eigenvalues --   -0.06621  -0.04941  -0.04767  -0.03748  -0.03355
 Alpha virt. eigenvalues --   -0.02602  -0.02335  -0.01563  -0.01229  -0.00874
 Alpha virt. eigenvalues --   -0.00676  -0.00404  -0.00151   0.00253   0.00638

  Beta  occ. eigenvalues --  -38.45476 -38.45008 -38.44731 -38.44410 -38.44144
  Beta  occ. eigenvalues --  -38.44081 -38.43374  -2.21225  -2.20804  -2.20422
  Beta  occ. eigenvalues --   -2.20212  -2.19959  -2.19864  -2.19217  -1.14939
  Beta  occ. eigenvalues --   -1.14911  -1.14868  -1.14530  -1.14502  -1.14441
  Beta  occ. eigenvalues --   -1.14121  -1.14109  -1.14085  -1.14005  -1.13859
  Beta  occ. eigenvalues --   -1.13858  -1.13607  -1.13599  -1.13557  -1.13555
  Beta  occ. eigenvalues --   -1.13538  -1.13478  -1.12886  -1.12865  -1.12864
  Beta  occ. eigenvalues --   -0.15308  -0.13480  -0.11479
  Beta virt. eigenvalues --   -0.08786  -0.06191  -0.04655  -0.04316  -0.03478
  Beta virt. eigenvalues --   -0.02963  -0.02492  -0.02166  -0.01224  -0.01068
  Beta virt. eigenvalues --   -0.00588  -0.00466  -0.00162  -0.00017   0.00372

 Mulliken charges and spin densities:
               1          2
     1  Na  -0.298045   0.014066
     2  Na   0.546141  -0.064854
     3  Na   0.218887   0.116488
     4  Na  -0.207087   0.234015
     5  Na  -0.338220   0.434515
     6  Na  -0.271863   0.214902
     7  Na   0.350187   0.050868
 Sum of Mulliken charges =  -0.00000   1.00000

 Dipole moment (field-independent basis, Debye):
    X=              0.2391    Y=             -0.6311    Z=             -0.3669  Tot=              0.7682
 Quadrupole moment (field-independent basis, Debye-Ang):
   XX=            -64.7782   YY=            -71.2272   ZZ=            -64.1349
   XY=              0.1604   XZ=             -0.2477   YZ=              3.5969

 Normal termination of Gaussian 16 at Sun Dec  3 13:11:07 2023.
