 Gaussian 16, Revision B.01,
 Gaussian 16:  ES64L-G16RevB.01 20-Dec-2017

 -------------------------
 #P B3LYP/6-311+g(d) force
 -------------------------

 -----
 DPGEN
 -----
 Symbolic Z-matrix:
 Charge =  0 Multiplicity = 2

                         Standard orientation:
 ---------------------------------------------------------------------
 Center     Atomic      Atomic             Coordinates (Angstroms)
 Number     Number       Type             X           Y           Z
 ---------------------------------------------------------------------
      1         11           0        3.202617    1.740493    0.105176
      2         11           0        3.164643   -2.238990    0.070558
      3         11           0       -0.307104   -2.547856   -0.993149
      4         11           0       -3.474999   -0.793894    1.242577
      5         11           0       -2.462353    0.558044   -1.342389
      6         11           0       -0.202446    3.250995   -0.263531
      7         11           0        0.079641    0.031208    1.180757
 ---------------------------------------------------------------------

 SCF Done:  E(UB3LYP) =  -1136.12344746     A.U. after   22 cycles

 The electronic state is 2-A.
 Alpha  occ. eigenvalues --  -38.44600 -38.44436 -38.44436 -38.44093 -38.43880
 Alpha  occ. eigenvalues --  -38.43842 -38.43608  -2.20363  -2.20299  -2.20188
 Alpha  occ. eigenvalues --   -2.19963  -2.19703  -2.19693  -2.19406  -1.14045
 Alpha  occ. eigenvalues --   -1.14025  -1.14017  -1.13988  -1.13960  -1.13916
 Alpha  occ. eigenvalues --   -1.13875  -1.13841  -1.13834  -1.13680  -1.13624
 Alpha  occ. eigenvalues --   -1.13594  -1.13380  -1.13361  -1.13353  -1.13334
 Alpha  occ. eigenvalues --   -1.13306  -1.13289  -1.13084  -1.13069  -1.13031
 Alpha  occ. eigenvalues --   -0.17544  -0.13501  -0.12389  -0.09934
 Alpha virt. eigenvalues --   -0.06616  -0.06012  -0.05072  -0.03046  -0.02507
 Alpha virt. eigenvalues --   -0.02452  -0.01778  -0.01552  -0.01088  -0.00754
 Alpha virt. eigenvalues --   -0.00333   0.00174   0.00450   0.00491   0.00691

  Beta  occ. eigenvalues --  -38.44587 -38.44446 -38.44422 -38.44065 -38.43842
  Beta  occ. eigenvalues --  -38.43770 -38.43592  -2.20337  -2.20275  -2.20207
  Beta  occ. eigenvalues --   -2.19914  -2.19623  -2.19569  -2.19377  -1.14025
  Beta  occ. eigenvalues --   -1.14002  -1.13990  -1.13974  -1.13950  -1.13896
  Beta  occ. eigenvalues --   -1.13889  -1.13848  -1.13841  -1.13618  -1.13591
  Beta  occ. eigenvalues --   -1.13557  -1.13333  -1.13302  -1.13261  -1.13245
  Beta  occ. eigenvalues --   -1.13239  -1.13219  -1.13066  -1.13046  -1.13004
  Beta  occ. eigenvalues --   -0.17048  -0.13182  -0.12129
  Beta virt. eigenvalues --   -0.06585  -0.06323  -0.05758  -0.04628  -0.02762
  Beta virt. eigenvalues --   -0.02217  -0.02120  -0.01510  -0.01123  -0.00986
  Beta virt. eigenvalues --   -0.00519  -0.00002   0.00305   0.00629   0.00649

 Mulliken charges and spin densities:
               1          2
     1  Na   0.118514   0.096914
     2  Na   0.172212  -0.033306
     3  Na  -0.482668   0.102253
     4  Na  -0.038134   0.231904
     5  Na   0.282671   0.340249
     6  Na  -0.298896  -0.004907
     7  Na   0.246301   0.266894
 Sum of Mulliken charges =  -0.00000   1.00000

 Dipole moment (field-independent basis, Debye):
    X=              0.7735    Y=             -0.0214    Z=             -0.4436  Tot=              0.8919
 Quadrupole moment (field-independent basis, Debye-Ang):
   XX=            -55.4470   YY=            -66.2343   ZZ=            -74.2672
   XY=             -0.6942   XZ=              1.7787   YZ=             -0.3440

 Normal termination of Gaussian 16 at Tue Dec  5 18:17:57 2023.
