 Gaussian 16, Revision B.01,
 Gaussian 16:  ES64L-G16RevB.01 20-Dec-2017

 -------------------------
 #P B3LYP/6-311+g(d) force
 -------------------------

 -----
 DPGEN
 -----
 Symbolic Z-matrix:
 Charge =  0 Multiplicity = 2

                         Standard orientation:
 ---------------------------------------------------------------------
 Center     Atomic      Atomic             Coordinates (Angstroms)
 Number     Number       Type             X           Y           Z
 ---------------------------------------------------------------------
      1         11           0       -3.854867    1.112340   -0.884450
      2         11           0        1.599588   -2.365687   -0.064451
      3         11           0        2.427109    2.105472   -0.583375
      4         11           0       -2.326793   -1.746869   -1.396069
      5         11           0       -0.961130    2.532933    1.136106
      6         11           0        4.282960   -0.106395   -0.358826
      7         11           0       -1.166867   -1.531795    2.151065
 ---------------------------------------------------------------------

 SCF Done:  E(UB3LYP) =  -1136.11361420     A.U. after   20 cycles

 The electronic state is 2-A.
 Alpha  occ. eigenvalues --  -38.44724 -38.44706 -38.44461 -38.44440 -38.44264
 Alpha  occ. eigenvalues --  -38.44184 -38.43784  -2.20524  -2.20487  -2.20256
 Alpha  occ. eigenvalues --   -2.20254  -2.20117  -2.19949  -2.19552  -1.14205
 Alpha  occ. eigenvalues --   -1.14198  -1.14155  -1.14145  -1.14122  -1.14102
 Alpha  occ. eigenvalues --   -1.14076  -1.13921  -1.13914  -1.13908  -1.13899
 Alpha  occ. eigenvalues --   -1.13877  -1.13750  -1.13742  -1.13700  -1.13644
 Alpha  occ. eigenvalues --   -1.13629  -1.13564  -1.13214  -1.13211  -1.13180
 Alpha  occ. eigenvalues --   -0.16461  -0.14102  -0.11926  -0.11118
 Alpha virt. eigenvalues --   -0.06465  -0.06114  -0.04028  -0.03540  -0.03460
 Alpha virt. eigenvalues --   -0.02369  -0.02209  -0.01606  -0.00936  -0.00483
 Alpha virt. eigenvalues --   -0.00338  -0.00051   0.00177   0.00335   0.00737

  Beta  occ. eigenvalues --  -38.44679 -38.44647 -38.44440 -38.44420 -38.44244
  Beta  occ. eigenvalues --  -38.44186 -38.43739  -2.20446  -2.20377  -2.20255
  Beta  occ. eigenvalues --   -2.20185  -2.20080  -2.19954  -2.19467  -1.14154
  Beta  occ. eigenvalues --   -1.14147  -1.14074  -1.14069  -1.14063  -1.14049
  Beta  occ. eigenvalues --   -1.14027  -1.13917  -1.13895  -1.13874  -1.13859
  Beta  occ. eigenvalues --   -1.13816  -1.13724  -1.13719  -1.13681  -1.13646
  Beta  occ. eigenvalues --   -1.13632  -1.13559  -1.13157  -1.13147  -1.13126
  Beta  occ. eigenvalues --   -0.15924  -0.13559  -0.11668
  Beta virt. eigenvalues --   -0.07558  -0.06440  -0.05726  -0.03476  -0.03337
  Beta virt. eigenvalues --   -0.03078  -0.02019  -0.01833  -0.01417  -0.00802
  Beta virt. eigenvalues --   -0.00374  -0.00087   0.00135   0.00357   0.00425

 Mulliken charges and spin densities:
               1          2
     1  Na   0.152420   0.028564
     2  Na  -0.390857   0.017944
     3  Na  -0.434817  -0.018652
     4  Na   0.103901   0.297701
     5  Na  -0.305302   0.335687
     6  Na   0.710962   0.070314
     7  Na   0.163693   0.268441
 Sum of Mulliken charges =  -0.00000   1.00000

 Dipole moment (field-independent basis, Debye):
    X=              0.0806    Y=             -0.5358    Z=             -0.0093  Tot=              0.5420
 Quadrupole moment (field-independent basis, Debye-Ang):
   XX=            -60.2045   YY=            -71.1981   ZZ=            -68.7292
   XY=             -2.2126   XZ=             -1.8647   YZ=              0.0982

 Normal termination of Gaussian 16 at Sun Dec  3 11:46:26 2023.
