 Gaussian 16, Revision B.01,
 Gaussian 16:  ES64L-G16RevB.01 20-Dec-2017

 -------------------------
 #P B3LYP/6-311+g(d) force
 -------------------------

 -----
 DPGEN
 -----
 Symbolic Z-matrix:
 Charge =  0 Multiplicity = 2

                         Standard orientation:
 ---------------------------------------------------------------------
 Center     Atomic      Atomic             Coordinates (Angstroms)
 Number     Number       Type             X           Y           Z
 ---------------------------------------------------------------------
      1         11           0       -2.114176    1.993298    0.312325
      2         11           0       -0.729208    0.145674   -1.694622
      3         11           0        1.368080    2.638147   -0.300416
      4         11           0        0.341534   -0.197242    1.797720
      5         11           0        0.556503   -2.706031   -0.438593
      6         11           0       -2.522216   -1.439501    0.273455
      7         11           0        3.099483   -0.434344    0.050131
 ---------------------------------------------------------------------

 SCF Done:  E(UB3LYP) =  -1136.13813189     A.U. after   19 cycles

 The electronic state is 2-A.
 Alpha  occ. eigenvalues --  -38.43842 -38.43625 -38.43606 -38.43585 -38.43287
 Alpha  occ. eigenvalues --  -38.43208 -38.43178  -2.19683  -2.19518  -2.19516
 Alpha  occ. eigenvalues --   -2.19415  -2.19187  -2.19180  -2.19169  -1.13374
 Alpha  occ. eigenvalues --   -1.13342  -1.13325  -1.13277  -1.13226  -1.13186
 Alpha  occ. eigenvalues --   -1.13171  -1.13162  -1.13117  -1.13094  -1.13077
 Alpha  occ. eigenvalues --   -1.13043  -1.12903  -1.12866  -1.12842  -1.12826
 Alpha  occ. eigenvalues --   -1.12808  -1.12803  -1.12791  -1.12777  -1.12775
 Alpha  occ. eigenvalues --   -0.19050  -0.13122  -0.12701  -0.10714
 Alpha virt. eigenvalues --   -0.05391  -0.05209  -0.04738  -0.03219  -0.02967
 Alpha virt. eigenvalues --   -0.02323  -0.01313  -0.01097  -0.00333  -0.00161
 Alpha virt. eigenvalues --    0.00024   0.00372   0.00870   0.00900   0.00919

  Beta  occ. eigenvalues --  -38.43840 -38.43616 -38.43596 -38.43579 -38.43274
  Beta  occ. eigenvalues --  -38.43131 -38.43110  -2.19683  -2.19504  -2.19503
  Beta  occ. eigenvalues --   -2.19408  -2.19160  -2.19062  -2.19029  -1.13366
  Beta  occ. eigenvalues --   -1.13332  -1.13327  -1.13264  -1.13211  -1.13160
  Beta  occ. eigenvalues --   -1.13145  -1.13139  -1.13103  -1.13081  -1.13063
  Beta  occ. eigenvalues --   -1.13040  -1.12872  -1.12814  -1.12794  -1.12767
  Beta  occ. eigenvalues --   -1.12740  -1.12721  -1.12692  -1.12688  -1.12685
  Beta  occ. eigenvalues --   -0.18316  -0.12898  -0.12437
  Beta virt. eigenvalues --   -0.06791  -0.05352  -0.05193  -0.04683  -0.02448
  Beta virt. eigenvalues --   -0.02190  -0.01325  -0.01207  -0.01030  -0.00350
  Beta virt. eigenvalues --   -0.00208   0.00152   0.00406   0.00895   0.00914

 Mulliken charges and spin densities:
               1          2
     1  Na   0.160239  -0.010927
     2  Na  -0.248470   0.563309
     3  Na  -0.078645  -0.110418
     4  Na  -0.308264   0.626809
     5  Na   0.069930  -0.045081
     6  Na   0.347652   0.039536
     7  Na   0.057558  -0.063228
 Sum of Mulliken charges =  -0.00000   1.00000

 Dipole moment (field-independent basis, Debye):
    X=              0.0958    Y=              0.0846    Z=              0.0722  Tot=              0.1468
 Quadrupole moment (field-independent basis, Debye-Ang):
   XX=            -57.5238   YY=            -61.8764   ZZ=            -74.0954
   XY=              0.1244   XZ=             -2.2030   YZ=              0.6347

 Normal termination of Gaussian 16 at Thu Dec  7 14:41:26 2023.
