 Gaussian 16, Revision B.01,
 Gaussian 16:  ES64L-G16RevB.01 20-Dec-2017

 -------------------------
 #P B3LYP/6-311+g(d) force
 -------------------------

 -----
 DPGEN
 -----
 Symbolic Z-matrix:
 Charge =  0 Multiplicity = 2

                         Standard orientation:
 ---------------------------------------------------------------------
 Center     Atomic      Atomic             Coordinates (Angstroms)
 Number     Number       Type             X           Y           Z
 ---------------------------------------------------------------------
      1         11           0       -0.295121   -0.002086   -1.503599
      2         11           0        0.659539   -2.026318    0.032301
      3         11           0       -2.224178   -1.452643    0.095801
      4         11           0       -2.189765    1.481758    0.101601
      5         11           0        0.699219    2.019444    0.012201
      6         11           0        2.564729   -0.026201   -0.578399
      7         11           0        0.785578    0.006046    1.840091
 ---------------------------------------------------------------------

 SCF Done:  E(UB3LYP) =  -1136.07737886     A.U. after   19 cycles

 The electronic state is 2-A.
 Alpha  occ. eigenvalues --  -38.44426 -38.44137 -38.44007 -38.43759 -38.43739
 Alpha  occ. eigenvalues --  -38.43498 -38.43493  -2.20598  -2.20381  -2.20270
 Alpha  occ. eigenvalues --   -2.19794  -2.19766  -2.19700  -2.19689  -1.14486
 Alpha  occ. eigenvalues --   -1.14388  -1.14226  -1.14225  -1.14180  -1.14119
 Alpha  occ. eigenvalues --   -1.13987  -1.13919  -1.13840  -1.13594  -1.13516
 Alpha  occ. eigenvalues --   -1.13502  -1.13412  -1.13387  -1.13312  -1.13302
 Alpha  occ. eigenvalues --   -1.13298  -1.13292  -1.13253  -1.13197  -1.13165
 Alpha  occ. eigenvalues --   -0.21529  -0.14109  -0.12828  -0.12040
 Alpha virt. eigenvalues --   -0.05396  -0.04577  -0.03986  -0.03651  -0.03007
 Alpha virt. eigenvalues --   -0.02646  -0.01221  -0.00484  -0.00059   0.00344
 Alpha virt. eigenvalues --    0.00659   0.00737   0.01015   0.01127   0.01136

  Beta  occ. eigenvalues --  -38.44334 -38.44112 -38.43928 -38.43755 -38.43735
  Beta  occ. eigenvalues --  -38.43478 -38.43473  -2.20430  -2.20249  -2.20223
  Beta  occ. eigenvalues --   -2.19789  -2.19761  -2.19673  -2.19661  -1.14410
  Beta  occ. eigenvalues --   -1.14268  -1.14137  -1.14136  -1.14086  -1.14013
  Beta  occ. eigenvalues --   -1.13964  -1.13868  -1.13757  -1.13593  -1.13500
  Beta  occ. eigenvalues --   -1.13488  -1.13374  -1.13357  -1.13296  -1.13278
  Beta  occ. eigenvalues --   -1.13275  -1.13223  -1.13185  -1.13164  -1.13155
  Beta  occ. eigenvalues --   -0.20698  -0.13813  -0.12474
  Beta virt. eigenvalues --   -0.07783  -0.05361  -0.04532  -0.03976  -0.02815
  Beta virt. eigenvalues --   -0.02105  -0.01552  -0.01113  -0.00447   0.00097
  Beta virt. eigenvalues --    0.00380   0.00640   0.00724   0.01044   0.01122

 Mulliken charges and spin densities:
               1          2
     1  Na  -0.441623   0.223313
     2  Na   0.321145   0.126953
     3  Na  -0.071605   0.010218
     4  Na  -0.073762   0.011362
     5  Na   0.312634   0.120686
     6  Na   0.305789  -0.001259
     7  Na  -0.352577   0.508726
 Sum of Mulliken charges =  -0.00000   1.00000

 Dipole moment (field-independent basis, Debye):
    X=             -0.1940    Y=              0.0000    Z=              0.4091  Tot=              0.4528
 Quadrupole moment (field-independent basis, Debye-Ang):
   XX=            -57.7860   YY=            -69.9237   ZZ=            -69.4995
   XY=             -0.0094   XZ=             -2.0219   YZ=              0.0077

 Normal termination of Gaussian 16 at Fri Dec  8 17:21:42 2023.
