 Gaussian 16, Revision B.01,
 Gaussian 16:  ES64L-G16RevB.01 20-Dec-2017

 -------------------------
 #P B3LYP/6-311+g(d) force
 -------------------------

 -----
 DPGEN
 -----
 Symbolic Z-matrix:
 Charge =  0 Multiplicity = 2

                         Standard orientation:
 ---------------------------------------------------------------------
 Center     Atomic      Atomic             Coordinates (Angstroms)
 Number     Number       Type             X           Y           Z
 ---------------------------------------------------------------------
      1         11           0       -1.675066    2.105579    0.121998
      2         11           0        2.948478   -1.955398   -0.176646
      3         11           0        2.496252    2.239384   -0.104702
      4         11           0        0.628370    0.050132   -0.391889
      5         11           0       -1.930371   -0.230916   -2.052334
      6         11           0       -1.476402   -2.134705    0.305359
      7         11           0       -0.991261   -0.074076    2.298213
 ---------------------------------------------------------------------

 SCF Done:  E(UB3LYP) =  -1136.10826917     A.U. after   24 cycles

 The electronic state is 2-A.
 Alpha  occ. eigenvalues --  -38.44744 -38.44497 -38.44296 -38.44247 -38.43371
 Alpha  occ. eigenvalues --  -38.43255 -38.42239  -2.20723  -2.20457  -2.20102
 Alpha  occ. eigenvalues --   -2.20027  -2.19343  -2.19183  -2.18483  -1.14426
 Alpha  occ. eigenvalues --   -1.14352  -1.14317  -1.14152  -1.14085  -1.14060
 Alpha  occ. eigenvalues --   -1.13855  -1.13756  -1.13727  -1.13694  -1.13688
 Alpha  occ. eigenvalues --   -1.13644  -1.13059  -1.13025  -1.12921  -1.12893
 Alpha  occ. eigenvalues --   -1.12867  -1.12779  -1.12198  -1.12163  -1.12084
 Alpha  occ. eigenvalues --   -0.19285  -0.12903  -0.12037  -0.11790
 Alpha virt. eigenvalues --   -0.05796  -0.05077  -0.03660  -0.03290  -0.03096
 Alpha virt. eigenvalues --   -0.02905  -0.01449  -0.01104  -0.00437   0.00199
 Alpha virt. eigenvalues --    0.00310   0.00366   0.00750   0.00817   0.00851

  Beta  occ. eigenvalues --  -38.44633 -38.44407 -38.44304 -38.44255 -38.43351
  Beta  occ. eigenvalues --  -38.43240 -38.42219  -2.20521  -2.20290  -2.20118
  Beta  occ. eigenvalues --   -2.20042  -2.19316  -2.19160  -2.18453  -1.14294
  Beta  occ. eigenvalues --   -1.14203  -1.14176  -1.14040  -1.13968  -1.13944
  Beta  occ. eigenvalues --   -1.13864  -1.13763  -1.13737  -1.13707  -1.13696
  Beta  occ. eigenvalues --   -1.13657  -1.13039  -1.12955  -1.12911  -1.12885
  Beta  occ. eigenvalues --   -1.12804  -1.12771  -1.12156  -1.12114  -1.12074
  Beta  occ. eigenvalues --   -0.18433  -0.12743  -0.11552
  Beta virt. eigenvalues --   -0.07860  -0.05754  -0.04811  -0.03361  -0.02659
  Beta virt. eigenvalues --   -0.02323  -0.02115  -0.01409  -0.01089  -0.00136
  Beta virt. eigenvalues --    0.00214   0.00317   0.00420   0.00806   0.00841

 Mulliken charges and spin densities:
               1          2
     1  Na   1.304209   0.062532
     2  Na  -0.127414  -0.131342
     3  Na  -0.206126  -0.124022
     4  Na  -1.336676   0.733242
     5  Na   0.067448   0.094319
     6  Na   1.037865   0.009172
     7  Na  -0.739307   0.356099
 Sum of Mulliken charges =  -0.00000   1.00000

 Dipole moment (field-independent basis, Debye):
    X=              0.1284    Y=              0.0767    Z=              0.1394  Tot=              0.2044
 Quadrupole moment (field-independent basis, Debye-Ang):
   XX=            -59.6613   YY=            -66.0446   ZZ=            -66.0595
   XY=             -0.1356   XZ=              1.6071   YZ=              0.4994

 Normal termination of Gaussian 16 at Thu Dec  7 23:13:55 2023.
