 Gaussian 16, Revision B.01,
 Gaussian 16:  ES64L-G16RevB.01 20-Dec-2017

 -------------------------
 #P B3LYP/6-311+g(d) force
 -------------------------

 -----
 DPGEN
 -----
 Symbolic Z-matrix:
 Charge =  0 Multiplicity = 2

                         Standard orientation:
 ---------------------------------------------------------------------
 Center     Atomic      Atomic             Coordinates (Angstroms)
 Number     Number       Type             X           Y           Z
 ---------------------------------------------------------------------
      1         11           0        3.407550   -0.411301   -1.561397
      2         11           0        2.791018   -0.447498    1.696216
      3         11           0        0.986885    2.276979   -0.047955
      4         11           0       -0.293690   -0.969998   -1.434970
      5         11           0       -0.500743   -0.693355    1.675905
      6         11           0       -3.369764   -1.469277   -0.175303
      7         11           0       -3.021257    1.714451   -0.152496
 ---------------------------------------------------------------------

 SCF Done:  E(UB3LYP) =  -1136.11599822     A.U. after   37 cycles

 The electronic state is 2-A.
 Alpha  occ. eigenvalues --  -38.44896 -38.44720 -38.44633 -38.44373 -38.44200
 Alpha  occ. eigenvalues --  -38.44116 -38.42799  -2.20751  -2.20539  -2.20495
 Alpha  occ. eigenvalues --   -2.20295  -2.20003  -2.19981  -2.18608  -1.14443
 Alpha  occ. eigenvalues --   -1.14396  -1.14382  -1.14269  -1.14201  -1.14176
 Alpha  occ. eigenvalues --   -1.14162  -1.14139  -1.14098  -1.13995  -1.13915
 Alpha  occ. eigenvalues --   -1.13889  -1.13735  -1.13685  -1.13645  -1.13633
 Alpha  occ. eigenvalues --   -1.13610  -1.13587  -1.12310  -1.12284  -1.12218
 Alpha  occ. eigenvalues --   -0.18413  -0.14554  -0.11590  -0.10433
 Alpha virt. eigenvalues --   -0.07318  -0.05202  -0.05124  -0.03257  -0.02943
 Alpha virt. eigenvalues --   -0.02477  -0.02007  -0.01307  -0.01090  -0.00240
 Alpha virt. eigenvalues --    0.00047   0.00244   0.00342   0.00391   0.00662

  Beta  occ. eigenvalues --  -38.44850 -38.44670 -38.44613 -38.44300 -38.44199
  Beta  occ. eigenvalues --  -38.44118 -38.42788  -2.20672  -2.20461  -2.20446
  Beta  occ. eigenvalues --   -2.20163  -2.20002  -2.19986  -2.18589  -1.14362
  Beta  occ. eigenvalues --   -1.14340  -1.14330  -1.14234  -1.14132  -1.14113
  Beta  occ. eigenvalues --   -1.14111  -1.14102  -1.14068  -1.13916  -1.13808
  Beta  occ. eigenvalues --   -1.13793  -1.13735  -1.13680  -1.13642  -1.13634
  Beta  occ. eigenvalues --   -1.13612  -1.13589  -1.12297  -1.12254  -1.12210
  Beta  occ. eigenvalues --   -0.17765  -0.14277  -0.10299
  Beta virt. eigenvalues --   -0.07604  -0.07182  -0.05059  -0.04499  -0.02823
  Beta virt. eigenvalues --   -0.02785  -0.01887  -0.01474  -0.01058  -0.00801
  Beta virt. eigenvalues --   -0.00174   0.00081   0.00341   0.00390   0.00534

 Mulliken charges and spin densities:
               1          2
     1  Na   0.443776   0.090250
     2  Na   0.148053   0.094309
     3  Na  -0.413315   0.194480
     4  Na  -0.968468   0.250518
     5  Na  -0.446147   0.272814
     6  Na   1.525444   0.210973
     7  Na  -0.289344  -0.113344
 Sum of Mulliken charges =  -0.00000   1.00000

 Dipole moment (field-independent basis, Debye):
    X=              0.1317    Y=             -0.3292    Z=              0.0861  Tot=              0.3649
 Quadrupole moment (field-independent basis, Debye-Ang):
   XX=            -45.1137   YY=            -81.5145   ZZ=            -68.6088
   XY=              1.1238   XZ=              0.8120   YZ=             -2.2889

 Normal termination of Gaussian 16 at Thu Dec  7 22:25:20 2023.
