 Gaussian 16, Revision B.01,
 Gaussian 16:  ES64L-G16RevB.01 20-Dec-2017

 -------------------------
 #P B3LYP/6-311+g(d) force
 -------------------------

 -----
 DPGEN
 -----
 Symbolic Z-matrix:
 Charge =  0 Multiplicity = 2

                         Standard orientation:
 ---------------------------------------------------------------------
 Center     Atomic      Atomic             Coordinates (Angstroms)
 Number     Number       Type             X           Y           Z
 ---------------------------------------------------------------------
      1         11           0       -0.181751   -0.166383   -1.644891
      2         11           0        2.167999    1.482021    0.392162
      3         11           0       -0.729737   -2.631542    0.142842
      4         11           0       -3.374929   -0.201367   -0.106143
      5         11           0       -0.517329    2.912595   -0.454544
      6         11           0       -0.234804    0.106614    2.071831
      7         11           0        2.870552   -1.501937   -0.401258
 ---------------------------------------------------------------------

 SCF Done:  E(UB3LYP) =  -1136.13408409     A.U. after   20 cycles

 The electronic state is 2-A.
 Alpha  occ. eigenvalues --  -38.44536 -38.43753 -38.43659 -38.43582 -38.43281
 Alpha  occ. eigenvalues --  -38.43254 -38.43244  -2.20324  -2.19662  -2.19493
 Alpha  occ. eigenvalues --   -2.19459  -2.19269  -2.19198  -2.19106  -1.14001
 Alpha  occ. eigenvalues --   -1.13974  -1.13966  -1.13343  -1.13306  -1.13274
 Alpha  occ. eigenvalues --   -1.13212  -1.13199  -1.13153  -1.13132  -1.13122
 Alpha  occ. eigenvalues --   -1.13047  -1.12962  -1.12924  -1.12890  -1.12872
 Alpha  occ. eigenvalues --   -1.12868  -1.12833  -1.12766  -1.12739  -1.12717
 Alpha  occ. eigenvalues --   -0.18798  -0.13043  -0.12352  -0.10992
 Alpha virt. eigenvalues --   -0.05940  -0.04683  -0.04591  -0.03306  -0.02889
 Alpha virt. eigenvalues --   -0.02687  -0.01794  -0.00996  -0.00235  -0.00098
 Alpha virt. eigenvalues --    0.00028   0.00342   0.00792   0.00896   0.00926

  Beta  occ. eigenvalues --  -38.44535 -38.43655 -38.43655 -38.43573 -38.43243
  Beta  occ. eigenvalues --  -38.43236 -38.43218  -2.20325  -2.19489  -2.19480
  Beta  occ. eigenvalues --   -2.19447  -2.19182  -2.19154  -2.19094  -1.13987
  Beta  occ. eigenvalues --   -1.13977  -1.13966  -1.13233  -1.13199  -1.13197
  Beta  occ. eigenvalues --   -1.13168  -1.13149  -1.13133  -1.13122  -1.13088
  Beta  occ. eigenvalues --   -1.13042  -1.12918  -1.12865  -1.12845  -1.12839
  Beta  occ. eigenvalues --   -1.12806  -1.12783  -1.12734  -1.12727  -1.12708
  Beta  occ. eigenvalues --   -0.18049  -0.12823  -0.12100
  Beta virt. eigenvalues --   -0.07038  -0.05916  -0.04632  -0.04544  -0.02503
  Beta virt. eigenvalues --   -0.02166  -0.01728  -0.01612  -0.00924  -0.00218
  Beta virt. eigenvalues --   -0.00115   0.00117   0.00362   0.00809   0.00923

 Mulliken charges and spin densities:
               1          2
     1  Na  -0.359616   0.508855
     2  Na   0.397899   0.171026
     3  Na   0.199281   0.011244
     4  Na   0.028455  -0.108536
     5  Na   0.026130  -0.061462
     6  Na  -0.305158   0.526694
     7  Na   0.013008  -0.047822
 Sum of Mulliken charges =  -0.00000   1.00000

 Dipole moment (field-independent basis, Debye):
    X=             -0.6784    Y=             -0.1928    Z=              0.0971  Tot=              0.7119
 Quadrupole moment (field-independent basis, Debye-Ang):
   XX=            -55.6625   YY=            -64.5229   ZZ=            -73.2305
   XY=             -1.3255   XZ=             -0.0681   YZ=             -0.4900

 Normal termination of Gaussian 16 at Fri Dec  8 02:37:29 2023.
