 Gaussian 16, Revision B.01,
 Gaussian 16:  ES64L-G16RevB.01 20-Dec-2017

 -------------------------
 #P B3LYP/6-311+g(d) force
 -------------------------

 -----
 DPGEN
 -----
 Symbolic Z-matrix:
 Charge =  0 Multiplicity = 2

                         Standard orientation:
 ---------------------------------------------------------------------
 Center     Atomic      Atomic             Coordinates (Angstroms)
 Number     Number       Type             X           Y           Z
 ---------------------------------------------------------------------
      1         11           0        1.682626   -2.611539    0.961695
      2         11           0        4.955855   -0.926738   -0.067810
      3         11           0       -5.214771   -0.277440   -0.285840
      4         11           0       -2.656827    0.928695    0.964992
      5         11           0        0.206203    3.481095    0.123149
      6         11           0       -1.863332   -2.315481   -0.982022
      7         11           0        2.890247    1.721408   -0.714164
 ---------------------------------------------------------------------

 SCF Done:  E(UB3LYP) =  -1136.11084251     A.U. after   22 cycles

 The electronic state is 2-A.
 Alpha  occ. eigenvalues --  -38.45433 -38.45136 -38.44896 -38.44646 -38.44258
 Alpha  occ. eigenvalues --  -38.44029 -38.42758  -2.21184  -2.20936  -2.20616
 Alpha  occ. eigenvalues --   -2.20478  -2.20042  -2.19826  -2.18551  -1.14866
 Alpha  occ. eigenvalues --   -1.14851  -1.14783  -1.14642  -1.14606  -1.14574
 Alpha  occ. eigenvalues --   -1.14312  -1.14292  -1.14236  -1.14135  -1.14117
 Alpha  occ. eigenvalues --   -1.14080  -1.13735  -1.13719  -1.13683  -1.13482
 Alpha  occ. eigenvalues --   -1.13475  -1.13443  -1.12213  -1.12210  -1.12196
 Alpha  occ. eigenvalues --   -0.15910  -0.14169  -0.12167  -0.10955
 Alpha virt. eigenvalues --   -0.06958  -0.05531  -0.04515  -0.03635  -0.03239
 Alpha virt. eigenvalues --   -0.02344  -0.02100  -0.01572  -0.01186  -0.00946
 Alpha virt. eigenvalues --   -0.00678  -0.00444   0.00355   0.00430   0.00601

  Beta  occ. eigenvalues --  -38.45385 -38.45124 -38.44890 -38.44585 -38.44256
  Beta  occ. eigenvalues --  -38.43975 -38.42741  -2.21096  -2.20920  -2.20609
  Beta  occ. eigenvalues --   -2.20363  -2.20041  -2.19727  -2.18519  -1.14808
  Beta  occ. eigenvalues --   -1.14791  -1.14708  -1.14620  -1.14588  -1.14551
  Beta  occ. eigenvalues --   -1.14310  -1.14288  -1.14211  -1.14053  -1.14039
  Beta  occ. eigenvalues --   -1.14010  -1.13738  -1.13719  -1.13659  -1.13415
  Beta  occ. eigenvalues --   -1.13402  -1.13384  -1.12193  -1.12191  -1.12172
  Beta  occ. eigenvalues --   -0.15335  -0.13648  -0.11681
  Beta virt. eigenvalues --   -0.07670  -0.06912  -0.04948  -0.04220  -0.03428
  Beta virt. eigenvalues --   -0.02866  -0.02231  -0.01786  -0.01107  -0.00853
  Beta virt. eigenvalues --   -0.00704  -0.00552  -0.00297   0.00402   0.00538

 Mulliken charges and spin densities:
               1          2
     1  Na  -0.217633   0.016584
     2  Na   0.473278   0.171229
     3  Na   0.622872   0.292064
     4  Na  -0.696585   0.066259
     5  Na   0.327511   0.150347
     6  Na   0.003488   0.245390
     7  Na  -0.512931   0.058125
 Sum of Mulliken charges =  -0.00000   1.00000

 Dipole moment (field-independent basis, Debye):
    X=             -1.4227    Y=             -1.2729    Z=             -0.2187  Tot=              1.9215
 Quadrupole moment (field-independent basis, Debye-Ang):
   XX=            -56.0116   YY=            -73.1527   ZZ=            -68.2948
   XY=              0.2798   XZ=              2.0441   YZ=              1.0335

 Normal termination of Gaussian 16 at Sun Dec  3 12:50:56 2023.
