 Gaussian 16, Revision B.01,
 Gaussian 16:  ES64L-G16RevB.01 20-Dec-2017

 -------------------------
 #P B3LYP/6-311+g(d) force
 -------------------------

 -----
 DPGEN
 -----
 Symbolic Z-matrix:
 Charge =  0 Multiplicity = 2

                         Standard orientation:
 ---------------------------------------------------------------------
 Center     Atomic      Atomic             Coordinates (Angstroms)
 Number     Number       Type             X           Y           Z
 ---------------------------------------------------------------------
      1         11           0       -0.100591    1.546217    0.564114
      2         11           0       -0.761308   -1.932559   -0.744827
      3         11           0       -3.970455   -2.614674   -0.388829
      4         11           0        3.189368   -0.179755   -0.424589
      5         11           0        5.614753   -1.664679    0.545803
      6         11           0       -3.759959    0.211606    1.034213
      7         11           0       -0.211808    4.633844   -0.585886
 ---------------------------------------------------------------------

 SCF Done:  E(UB3LYP) =  -1136.11033180     A.U. after   20 cycles

 The electronic state is 2-A.
 Alpha  occ. eigenvalues --  -38.45308 -38.45073 -38.44928 -38.44366 -38.43778
 Alpha  occ. eigenvalues --  -38.43588 -38.43261  -2.21121  -2.20902  -2.20679
 Alpha  occ. eigenvalues --   -2.20193  -2.19594  -2.19412  -2.19073  -1.14793
 Alpha  occ. eigenvalues --   -1.14772  -1.14759  -1.14566  -1.14559  -1.14534
 Alpha  occ. eigenvalues --   -1.14344  -1.14341  -1.14324  -1.13858  -1.13846
 Alpha  occ. eigenvalues --   -1.13795  -1.13277  -1.13272  -1.13220  -1.13122
 Alpha  occ. eigenvalues --   -1.13044  -1.13042  -1.12745  -1.12732  -1.12707
 Alpha  occ. eigenvalues --   -0.16663  -0.13735  -0.12403  -0.10681
 Alpha virt. eigenvalues --   -0.07495  -0.05345  -0.04250  -0.03840  -0.02862
 Alpha virt. eigenvalues --   -0.02404  -0.02076  -0.01667  -0.01340  -0.00921
 Alpha virt. eigenvalues --   -0.00508  -0.00042   0.00225   0.00319   0.00413

  Beta  occ. eigenvalues --  -38.45247 -38.45067 -38.44930 -38.44287 -38.43766
  Beta  occ. eigenvalues --  -38.43534 -38.43267  -2.21007  -2.20896  -2.20683
  Beta  occ. eigenvalues --   -2.20046  -2.19575  -2.19311  -2.19091  -1.14718
  Beta  occ. eigenvalues --   -1.14699  -1.14676  -1.14559  -1.14545  -1.14508
  Beta  occ. eigenvalues --   -1.14347  -1.14344  -1.14327  -1.13758  -1.13743
  Beta  occ. eigenvalues --   -1.13698  -1.13266  -1.13263  -1.13187  -1.13062
  Beta  occ. eigenvalues --   -1.12975  -1.12973  -1.12763  -1.12747  -1.12675
  Beta  occ. eigenvalues --   -0.15984  -0.13403  -0.12043
  Beta virt. eigenvalues --   -0.07394  -0.07121  -0.04877  -0.03918  -0.03554
  Beta virt. eigenvalues --   -0.02643  -0.02031  -0.01992  -0.01356  -0.01152
  Beta virt. eigenvalues --   -0.00705  -0.00338   0.00260   0.00320   0.00455

 Mulliken charges and spin densities:
               1          2
     1  Na  -0.672017  -0.004850
     2  Na  -0.318385   0.345629
     3  Na   0.707965   0.058719
     4  Na  -0.330466  -0.002483
     5  Na   0.344676   0.227637
     6  Na  -0.057216   0.368414
     7  Na   0.325442   0.006933
 Sum of Mulliken charges =  -0.00000   1.00000

 Dipole moment (field-independent basis, Debye):
    X=             -2.1853    Y=             -0.1388    Z=             -0.3390  Tot=              2.2158
 Quadrupole moment (field-independent basis, Debye-Ang):
   XX=            -67.2185   YY=            -55.7518   ZZ=            -70.8806
   XY=              4.4056   XZ=              2.4989   YZ=             -1.9693

 Normal termination of Gaussian 16 at Sun Dec  3 22:47:23 2023.
