 Gaussian 16, Revision B.01,
 Gaussian 16:  ES64L-G16RevB.01 20-Dec-2017

 -------------------------
 #P B3LYP/6-311+g(d) force
 -------------------------

 -----
 DPGEN
 -----
 Symbolic Z-matrix:
 Charge =  0 Multiplicity = 2

                         Standard orientation:
 ---------------------------------------------------------------------
 Center     Atomic      Atomic             Coordinates (Angstroms)
 Number     Number       Type             X           Y           Z
 ---------------------------------------------------------------------
      1         11           0       -1.447708    2.970115   -0.530157
      2         11           0        0.093951    0.171763   -1.723231
      3         11           0        3.678669    1.193147   -0.141011
      4         11           0        1.895663   -2.386901    0.367884
      5         11           0       -1.268701   -2.416576   -0.609600
      6         11           0        0.223031    0.835998    2.004672
      7         11           0       -3.174905   -0.367546    0.631442
 ---------------------------------------------------------------------

 SCF Done:  E(UB3LYP) =  -1136.12331804     A.U. after   22 cycles

 The electronic state is 2-A.
 Alpha  occ. eigenvalues --  -38.45202 -38.44525 -38.44242 -38.44107 -38.43856
 Alpha  occ. eigenvalues --  -38.43485 -38.42916  -2.20920  -2.20349  -2.20037
 Alpha  occ. eigenvalues --   -2.19917  -2.19650  -2.19396  -2.18833  -1.14601
 Alpha  occ. eigenvalues --   -1.14584  -1.14554  -1.14053  -1.14004  -1.13965
 Alpha  occ. eigenvalues --   -1.13720  -1.13708  -1.13666  -1.13596  -1.13563
 Alpha  occ. eigenvalues --   -1.13526  -1.13331  -1.13303  -1.13285  -1.13093
 Alpha  occ. eigenvalues --   -1.13045  -1.13004  -1.12512  -1.12493  -1.12466
 Alpha  occ. eigenvalues --   -0.17904  -0.12753  -0.12195  -0.10631
 Alpha virt. eigenvalues --   -0.06751  -0.05413  -0.04215  -0.03229  -0.03016
 Alpha virt. eigenvalues --   -0.02569  -0.02127  -0.01374  -0.00694  -0.00260
 Alpha virt. eigenvalues --   -0.00052   0.00315   0.00425   0.00653   0.00770

  Beta  occ. eigenvalues --  -38.45212 -38.44504 -38.44240 -38.44039 -38.43841
  Beta  occ. eigenvalues --  -38.43409 -38.42906  -2.20940  -2.20312  -2.20034
  Beta  occ. eigenvalues --   -2.19791  -2.19625  -2.19258  -2.18818  -1.14606
  Beta  occ. eigenvalues --   -1.14598  -1.14568  -1.14030  -1.13960  -1.13942
  Beta  occ. eigenvalues --   -1.13718  -1.13692  -1.13666  -1.13512  -1.13472
  Beta  occ. eigenvalues --   -1.13434  -1.13301  -1.13286  -1.13265  -1.12999
  Beta  occ. eigenvalues --   -1.12945  -1.12905  -1.12500  -1.12472  -1.12443
  Beta  occ. eigenvalues --   -0.17192  -0.12595  -0.11951
  Beta virt. eigenvalues --   -0.06865  -0.06656  -0.05238  -0.04157  -0.02610
  Beta virt. eigenvalues --   -0.02333  -0.02119  -0.01501  -0.01244  -0.00719
  Beta virt. eigenvalues --   -0.00210   0.00063   0.00344   0.00538   0.00696

 Mulliken charges and spin densities:
               1          2
     1  Na  -0.057743  -0.007684
     2  Na   0.245043   0.367660
     3  Na  -0.042888  -0.069625
     4  Na  -0.175445  -0.000699
     5  Na   0.279838   0.097208
     6  Na  -0.099845   0.509093
     7  Na  -0.148960   0.104046
 Sum of Mulliken charges =  -0.00000   1.00000

 Dipole moment (field-independent basis, Debye):
    X=              0.6382    Y=              0.4717    Z=              0.2491  Tot=              0.8317
 Quadrupole moment (field-independent basis, Debye-Ang):
   XX=            -53.9315   YY=            -64.6816   ZZ=            -74.5114
   XY=             -0.0345   XZ=             -0.8668   YZ=             -1.6059

 Normal termination of Gaussian 16 at Thu Dec  7 16:44:45 2023.
