 Gaussian 16, Revision B.01,
 Gaussian 16:  ES64L-G16RevB.01 20-Dec-2017

 -------------------------
 #P B3LYP/6-311+g(d) force
 -------------------------

 -----
 DPGEN
 -----
 Symbolic Z-matrix:
 Charge =  0 Multiplicity = 2

                         Standard orientation:
 ---------------------------------------------------------------------
 Center     Atomic      Atomic             Coordinates (Angstroms)
 Number     Number       Type             X           Y           Z
 ---------------------------------------------------------------------
      1         11           0        2.528939   -1.189765   -0.229192
      2         11           0        1.867894    1.978217    0.060644
      3         11           0       -0.015953    0.082016   -1.763689
      4         11           0        0.427792   -0.062533    1.873820
      5         11           0       -0.451890   -2.561054   -0.042895
      6         11           0       -1.476400    2.303548   -0.064792
      7         11           0       -2.880382   -0.550429    0.166105
 ---------------------------------------------------------------------

 SCF Done:  E(UB3LYP) =  -1136.13411960     A.U. after   18 cycles

 The electronic state is 2-A.
 Alpha  occ. eigenvalues --  -38.43658 -38.43494 -38.43484 -38.43296 -38.43284
 Alpha  occ. eigenvalues --  -38.43225 -38.43019  -2.19555  -2.19501  -2.19449
 Alpha  occ. eigenvalues --   -2.19343  -2.19254  -2.19146  -2.18977  -1.13262
 Alpha  occ. eigenvalues --   -1.13241  -1.13236  -1.13206  -1.13176  -1.13152
 Alpha  occ. eigenvalues --   -1.13136  -1.13094  -1.13056  -1.13046  -1.13003
 Alpha  occ. eigenvalues --   -1.12970  -1.12909  -1.12883  -1.12872  -1.12802
 Alpha  occ. eigenvalues --   -1.12795  -1.12760  -1.12652  -1.12630  -1.12598
 Alpha  occ. eigenvalues --   -0.19821  -0.13328  -0.12782  -0.11251
 Alpha virt. eigenvalues --   -0.05209  -0.04921  -0.04440  -0.03337  -0.03039
 Alpha virt. eigenvalues --   -0.02667  -0.01211  -0.00871  -0.00027   0.00137
 Alpha virt. eigenvalues --    0.00194   0.00370   0.00920   0.00995   0.01010

  Beta  occ. eigenvalues --  -38.43655 -38.43483 -38.43398 -38.43287 -38.43219
  Beta  occ. eigenvalues --  -38.43202 -38.43011  -2.19553  -2.19435  -2.19343
  Beta  occ. eigenvalues --   -2.19241  -2.19194  -2.19140  -2.18966  -1.13241
  Beta  occ. eigenvalues --   -1.13238  -1.13210  -1.13179  -1.13108  -1.13094
  Beta  occ. eigenvalues --   -1.13072  -1.13036  -1.12979  -1.12967  -1.12911
  Beta  occ. eigenvalues --   -1.12900  -1.12870  -1.12859  -1.12818  -1.12784
  Beta  occ. eigenvalues --   -1.12761  -1.12753  -1.12644  -1.12597  -1.12581
  Beta  occ. eigenvalues --   -0.19048  -0.13053  -0.12483
  Beta virt. eigenvalues --   -0.07238  -0.05179  -0.04922  -0.04450  -0.02485
  Beta virt. eigenvalues --   -0.02182  -0.01573  -0.01137  -0.00816   0.00070
  Beta virt. eigenvalues --    0.00115   0.00141   0.00385   0.00975   0.00985

 Mulliken charges and spin densities:
               1          2
     1  Na   0.472794  -0.039011
     2  Na   0.425272  -0.049293
     3  Na  -0.656631   0.564054
     4  Na  -0.742286   0.677025
     5  Na   0.300553  -0.034925
     6  Na   0.236544  -0.061528
     7  Na  -0.036246  -0.056320
 Sum of Mulliken charges =  -0.00000   1.00000

 Dipole moment (field-independent basis, Debye):
    X=             -0.0147    Y=              0.0281    Z=              0.0972  Tot=              0.1022
 Quadrupole moment (field-independent basis, Debye-Ang):
   XX=            -58.6111   YY=            -64.4340   ZZ=            -71.9262
   XY=             -0.1220   XZ=             -1.0405   YZ=              0.2987

 Normal termination of Gaussian 16 at Sat Dec  9 06:46:30 2023.
