 Gaussian 16, Revision B.01,
 Gaussian 16:  ES64L-G16RevB.01 20-Dec-2017

 -------------------------
 #P B3LYP/6-311+g(d) force
 -------------------------

 -----
 DPGEN
 -----
 Symbolic Z-matrix:
 Charge =  0 Multiplicity = 2

                         Standard orientation:
 ---------------------------------------------------------------------
 Center     Atomic      Atomic             Coordinates (Angstroms)
 Number     Number       Type             X           Y           Z
 ---------------------------------------------------------------------
      1         11           0       -1.459495   -0.398401    2.250530
      2         11           0       -0.262192   -0.370763   -1.177061
      3         11           0       -2.004643    2.110730   -0.408293
      4         11           0       -3.534829   -1.102735   -0.962171
      5         11           0        3.496916   -0.067574   -1.121986
      6         11           0        1.825488   -1.968177    0.628040
      7         11           0        1.938756    1.796921    0.790941
 ---------------------------------------------------------------------

 SCF Done:  E(UB3LYP) =  -1136.11789441     A.U. after   28 cycles

 The electronic state is 2-A.
 Alpha  occ. eigenvalues --  -38.44784 -38.44694 -38.44514 -38.43938 -38.43505
 Alpha  occ. eigenvalues --  -38.43372 -38.43364  -2.20678  -2.20508  -2.20341
 Alpha  occ. eigenvalues --   -2.19906  -2.19352  -2.19251  -2.19214  -1.14361
 Alpha  occ. eigenvalues --   -1.14323  -1.14316  -1.14181  -1.14148  -1.14138
 Alpha  occ. eigenvalues --   -1.14001  -1.13969  -1.13959  -1.13626  -1.13595
 Alpha  occ. eigenvalues --   -1.13523  -1.13059  -1.13009  -1.12955  -1.12945
 Alpha  occ. eigenvalues --   -1.12903  -1.12897  -1.12893  -1.12877  -1.12845
 Alpha  occ. eigenvalues --   -0.18422  -0.14531  -0.11246  -0.10595
 Alpha virt. eigenvalues --   -0.06662  -0.05423  -0.04939  -0.03039  -0.02718
 Alpha virt. eigenvalues --   -0.02426  -0.02236  -0.01165  -0.00805  -0.00262
 Alpha virt. eigenvalues --    0.00153   0.00248   0.00351   0.00565   0.00673

  Beta  occ. eigenvalues --  -38.44764 -38.44658 -38.44422 -38.43919 -38.43493
  Beta  occ. eigenvalues --  -38.43373 -38.43358  -2.20640  -2.20443  -2.20171
  Beta  occ. eigenvalues --   -2.19876  -2.19334  -2.19242  -2.19218  -1.14339
  Beta  occ. eigenvalues --   -1.14299  -1.14289  -1.14131  -1.14100  -1.14096
  Beta  occ. eigenvalues --   -1.13882  -1.13851  -1.13837  -1.13584  -1.13573
  Beta  occ. eigenvalues --   -1.13502  -1.13045  -1.12992  -1.12942  -1.12930
  Beta  occ. eigenvalues --   -1.12905  -1.12889  -1.12870  -1.12859  -1.12850
  Beta  occ. eigenvalues --   -0.17792  -0.14197  -0.10440
  Beta virt. eigenvalues --   -0.07403  -0.06460  -0.05289  -0.04365  -0.02795
  Beta virt. eigenvalues --   -0.02429  -0.01792  -0.01640  -0.00951  -0.00492
  Beta virt. eigenvalues --   -0.00170   0.00196   0.00272   0.00470   0.00666

 Mulliken charges and spin densities:
               1          2
     1  Na  -0.140761   0.483328
     2  Na  -0.834779   0.034186
     3  Na   0.006032   0.084250
     4  Na   0.336185   0.128188
     5  Na   1.064668   0.011658
     6  Na  -0.087858   0.222803
     7  Na  -0.343487   0.035586
 Sum of Mulliken charges =  -0.00000   1.00000

 Dipole moment (field-independent basis, Debye):
    X=             -0.2986    Y=             -0.1415    Z=             -0.0055  Tot=              0.3305
 Quadrupole moment (field-independent basis, Debye-Ang):
   XX=            -48.2312   YY=            -78.4624   ZZ=            -67.2394
   XY=              0.3013   XZ=             -2.3705   YZ=             -0.3257

 Normal termination of Gaussian 16 at Tue Dec  5 12:29:20 2023.
