 Gaussian 16, Revision B.01,
 Gaussian 16:  ES64L-G16RevB.01 20-Dec-2017

 -------------------------
 #P B3LYP/6-311+g(d) force
 -------------------------

 -----
 DPGEN
 -----
 Symbolic Z-matrix:
 Charge =  0 Multiplicity = 2

                         Standard orientation:
 ---------------------------------------------------------------------
 Center     Atomic      Atomic             Coordinates (Angstroms)
 Number     Number       Type             X           Y           Z
 ---------------------------------------------------------------------
      1         11           0       -0.322320    0.354045    1.887484
      2         11           0        1.829579   -2.171163    0.059793
      3         11           0       -1.623052   -2.538022    0.116214
      4         11           0        3.101074    0.721835    0.026435
      5         11           0       -3.056183    0.624458   -0.302379
      6         11           0        0.186788   -0.047023   -1.736694
      7         11           0       -0.115887    3.055870   -0.050853
 ---------------------------------------------------------------------

 SCF Done:  E(UB3LYP) =  -1136.13903244     A.U. after   19 cycles

 The electronic state is 2-A.
 Alpha  occ. eigenvalues --  -38.44188 -38.44068 -38.43593 -38.43386 -38.43360
 Alpha  occ. eigenvalues --  -38.43280 -38.43205  -2.20013  -2.19905  -2.19417
 Alpha  occ. eigenvalues --   -2.19257  -2.19231  -2.19195  -2.19159  -1.13688
 Alpha  occ. eigenvalues --   -1.13679  -1.13644  -1.13596  -1.13570  -1.13539
 Alpha  occ. eigenvalues --   -1.13108  -1.13089  -1.13044  -1.12982  -1.12923
 Alpha  occ. eigenvalues --   -1.12916  -1.12897  -1.12892  -1.12867  -1.12856
 Alpha  occ. eigenvalues --   -1.12827  -1.12818  -1.12811  -1.12779  -1.12771
 Alpha  occ. eigenvalues --   -0.18666  -0.13093  -0.12474  -0.10556
 Alpha virt. eigenvalues --   -0.05809  -0.04988  -0.04872  -0.03187  -0.02851
 Alpha virt. eigenvalues --   -0.02378  -0.01583  -0.01154  -0.00491  -0.00301
 Alpha virt. eigenvalues --    0.00001   0.00370   0.00809   0.00862   0.00916

  Beta  occ. eigenvalues --  -38.44180 -38.44066 -38.43589 -38.43382 -38.43354
  Beta  occ. eigenvalues --  -38.43198 -38.43133  -2.20002  -2.19905  -2.19413
  Beta  occ. eigenvalues --   -2.19250  -2.19227  -2.19044  -2.19027  -1.13674
  Beta  occ. eigenvalues --   -1.13655  -1.13641  -1.13599  -1.13553  -1.13536
  Beta  occ. eigenvalues --   -1.13100  -1.13066  -1.13045  -1.12965  -1.12920
  Beta  occ. eigenvalues --   -1.12893  -1.12883  -1.12869  -1.12854  -1.12774
  Beta  occ. eigenvalues --   -1.12737  -1.12711  -1.12704  -1.12689  -1.12676
  Beta  occ. eigenvalues --   -0.17938  -0.12865  -0.12236
  Beta virt. eigenvalues --   -0.06672  -0.05786  -0.04992  -0.04811  -0.02397
  Beta virt. eigenvalues --   -0.02082  -0.01491  -0.01344  -0.01080  -0.00550
  Beta virt. eigenvalues --   -0.00352   0.00139   0.00390   0.00826   0.00873

 Mulliken charges and spin densities:
               1          2
     1  Na  -0.382593   0.751459
     2  Na   0.158877  -0.015501
     3  Na   0.103197  -0.039694
     4  Na   0.144004  -0.090767
     5  Na   0.151271  -0.069674
     6  Na  -0.246746   0.628390
     7  Na   0.071990  -0.164213
 Sum of Mulliken charges =  -0.00000   1.00000

 Dipole moment (field-independent basis, Debye):
    X=             -0.1019    Y=              0.2864    Z=              0.0112  Tot=              0.3042
 Quadrupole moment (field-independent basis, Debye-Ang):
   XX=            -56.0649   YY=            -61.6610   ZZ=            -75.2187
   XY=              0.6453   XZ=              1.1522   YZ=             -0.9967

 Normal termination of Gaussian 16 at Thu Dec  7 20:32:41 2023.
