 Gaussian 16, Revision B.01,
 Gaussian 16:  ES64L-G16RevB.01 20-Dec-2017

 -------------------------
 #P B3LYP/6-311+g(d) force
 -------------------------

 -----
 DPGEN
 -----
 Symbolic Z-matrix:
 Charge =  0 Multiplicity = 2

                         Standard orientation:
 ---------------------------------------------------------------------
 Center     Atomic      Atomic             Coordinates (Angstroms)
 Number     Number       Type             X           Y           Z
 ---------------------------------------------------------------------
      1         11           0       -2.884307    0.571572    0.096941
      2         11           0        0.074460   -0.082310    1.965221
      3         11           0        2.539892   -1.700524    0.058843
      4         11           0       -1.487200   -2.544658   -0.032883
      5         11           0       -0.198543   -0.374313   -1.791667
      6         11           0       -0.421468    2.752455   -0.101449
      7         11           0        2.377165    1.377778   -0.195006
 ---------------------------------------------------------------------

 SCF Done:  E(UB3LYP) =  -1136.13732046     A.U. after   19 cycles

 The electronic state is 2-A.
 Alpha  occ. eigenvalues --  -38.43849 -38.43780 -38.43561 -38.43549 -38.43435
 Alpha  occ. eigenvalues --  -38.43355 -38.42952  -2.19729  -2.19641  -2.19482
 Alpha  occ. eigenvalues --   -2.19435  -2.19369  -2.19335  -2.18858  -1.13413
 Alpha  occ. eigenvalues --   -1.13397  -1.13372  -1.13363  -1.13303  -1.13279
 Alpha  occ. eigenvalues --   -1.13197  -1.13157  -1.13130  -1.13099  -1.13077
 Alpha  occ. eigenvalues --   -1.13057  -1.13051  -1.13019  -1.13005  -1.12986
 Alpha  occ. eigenvalues --   -1.12945  -1.12937  -1.12527  -1.12509  -1.12504
 Alpha  occ. eigenvalues --   -0.19177  -0.13277  -0.12522  -0.11035
 Alpha virt. eigenvalues --   -0.05522  -0.05028  -0.04489  -0.03380  -0.02949
 Alpha virt. eigenvalues --   -0.02695  -0.01368  -0.01004  -0.00181  -0.00023
 Alpha virt. eigenvalues --    0.00014   0.00378   0.00871   0.00909   0.00959

  Beta  occ. eigenvalues --  -38.43844 -38.43776 -38.43555 -38.43459 -38.43427
  Beta  occ. eigenvalues --  -38.43279 -38.42947  -2.19723  -2.19639  -2.19429
  Beta  occ. eigenvalues --   -2.19359  -2.19318  -2.19197  -2.18852  -1.13410
  Beta  occ. eigenvalues --   -1.13375  -1.13364  -1.13362  -1.13282  -1.13272
  Beta  occ. eigenvalues --   -1.13169  -1.13078  -1.13071  -1.13052  -1.13032
  Beta  occ. eigenvalues --   -1.13008  -1.12994  -1.12980  -1.12962  -1.12903
  Beta  occ. eigenvalues --   -1.12851  -1.12846  -1.12526  -1.12510  -1.12471
  Beta  occ. eigenvalues --   -0.18413  -0.13024  -0.12267
  Beta virt. eigenvalues --   -0.07086  -0.05511  -0.04991  -0.04483  -0.02526
  Beta virt. eigenvalues --   -0.02152  -0.01622  -0.01283  -0.00936  -0.00245
  Beta virt. eigenvalues --   -0.00035   0.00115   0.00395   0.00900   0.00927

 Mulliken charges and spin densities:
               1          2
     1  Na   0.226994  -0.013519
     2  Na  -0.538891   0.684299
     3  Na   0.258519  -0.094073
     4  Na   0.266338  -0.138541
     5  Na  -0.416166   0.563885
     6  Na   0.060855  -0.031334
     7  Na   0.142352   0.029283
 Sum of Mulliken charges =  -0.00000   1.00000

 Dipole moment (field-independent basis, Debye):
    X=             -0.1324    Y=             -0.3615    Z=              0.1185  Tot=              0.4028
 Quadrupole moment (field-independent basis, Debye-Ang):
   XX=            -58.5148   YY=            -63.4137   ZZ=            -72.8114
   XY=             -0.7093   XZ=             -0.6239   YZ=             -0.7106

 Normal termination of Gaussian 16 at Tue Dec  5 13:38:24 2023.
