 Gaussian 16, Revision B.01,
 Gaussian 16:  ES64L-G16RevB.01 20-Dec-2017

 -------------------------
 #P B3LYP/6-311+g(d) force
 -------------------------

 -----
 DPGEN
 -----
 Symbolic Z-matrix:
 Charge =  0 Multiplicity = 2

                         Standard orientation:
 ---------------------------------------------------------------------
 Center     Atomic      Atomic             Coordinates (Angstroms)
 Number     Number       Type             X           Y           Z
 ---------------------------------------------------------------------
      1         11           0       -2.244048    1.805807    0.076913
      2         11           0        3.254502    0.221931   -0.270656
      3         11           0        1.960476   -2.629463    0.174937
      4         11           0       -3.909321   -1.173262   -0.184407
      5         11           0       -0.218387   -0.319575   -1.731285
      6         11           0       -0.325476   -0.400457    1.801113
      7         11           0        1.482253    2.495020    0.133386
 ---------------------------------------------------------------------

 SCF Done:  E(UB3LYP) =  -1136.12200493     A.U. after   24 cycles

 The electronic state is 2-A.
 Alpha  occ. eigenvalues --  -38.45445 -38.44655 -38.44652 -38.44115 -38.43500
 Alpha  occ. eigenvalues --  -38.43063 -38.42796  -2.21205  -2.20553  -2.20500
 Alpha  occ. eigenvalues --   -2.19975  -2.19388  -2.18907  -2.18669  -1.14877
 Alpha  occ. eigenvalues --   -1.14868  -1.14830  -1.14276  -1.14210  -1.14198
 Alpha  occ. eigenvalues --   -1.14186  -1.14149  -1.14105  -1.13667  -1.13656
 Alpha  occ. eigenvalues --   -1.13582  -1.13073  -1.13008  -1.13003  -1.12586
 Alpha  occ. eigenvalues --   -1.12556  -1.12555  -1.12387  -1.12309  -1.12295
 Alpha  occ. eigenvalues --   -0.18348  -0.13968  -0.11582  -0.10403
 Alpha virt. eigenvalues --   -0.07187  -0.05518  -0.04004  -0.03462  -0.02799
 Alpha virt. eigenvalues --   -0.02305  -0.02270  -0.01479  -0.00621  -0.00227
 Alpha virt. eigenvalues --   -0.00125   0.00147   0.00499   0.00577   0.00716

  Beta  occ. eigenvalues --  -38.45438 -38.44646 -38.44602 -38.44105 -38.43406
  Beta  occ. eigenvalues --  -38.43061 -38.42794  -2.21193  -2.20538  -2.20408
  Beta  occ. eigenvalues --   -2.19960  -2.19215  -2.18906  -2.18669  -1.14871
  Beta  occ. eigenvalues --   -1.14848  -1.14823  -1.14273  -1.14180  -1.14169
  Beta  occ. eigenvalues --   -1.14138  -1.14084  -1.14036  -1.13660  -1.13621
  Beta  occ. eigenvalues --   -1.13568  -1.12957  -1.12888  -1.12874  -1.12590
  Beta  occ. eigenvalues --   -1.12557  -1.12534  -1.12390  -1.12303  -1.12278
  Beta  occ. eigenvalues --   -0.17655  -0.13743  -0.11369
  Beta virt. eigenvalues --   -0.07073  -0.06571  -0.05463  -0.03874  -0.02870
  Beta virt. eigenvalues --   -0.02579  -0.01659  -0.01473  -0.01325  -0.00584
  Beta virt. eigenvalues --   -0.00151   0.00004   0.00190   0.00633   0.00692

 Mulliken charges and spin densities:
               1          2
     1  Na   0.233252   0.090035
     2  Na   0.253142   0.102466
     3  Na   0.162300   0.006318
     4  Na   0.113582   0.029750
     5  Na  -0.256053   0.359992
     6  Na  -0.270082   0.470017
     7  Na  -0.236140  -0.058578
 Sum of Mulliken charges =  -0.00000   1.00000

 Dipole moment (field-independent basis, Debye):
    X=             -1.2537    Y=             -0.3839    Z=             -0.0556  Tot=              1.3124
 Quadrupole moment (field-independent basis, Debye-Ang):
   XX=            -49.5754   YY=            -68.9561   ZZ=            -75.3681
   XY=              1.3063   XZ=             -0.2390   YZ=              0.3590

 Normal termination of Gaussian 16 at Tue Dec  5 15:19:34 2023.
