 Gaussian 16, Revision B.01,
 Gaussian 16:  ES64L-G16RevB.01 20-Dec-2017

 -------------------------
 #P B3LYP/6-311+g(d) force
 -------------------------

 -----
 DPGEN
 -----
 Symbolic Z-matrix:
 Charge =  0 Multiplicity = 2

                         Standard orientation:
 ---------------------------------------------------------------------
 Center     Atomic      Atomic             Coordinates (Angstroms)
 Number     Number       Type             X           Y           Z
 ---------------------------------------------------------------------
      1         11           0       -3.348410   -2.804523    0.139314
      2         11           0        0.745608   -2.340677   -0.672875
      3         11           0        4.275041   -1.115042   -0.664062
      4         11           0        2.471027    0.794429    1.230947
      5         11           0       -2.854453    2.265896   -0.944778
      6         11           0        0.412223    3.345259   -0.180310
      7         11           0       -1.701035   -0.145342    1.091762
 ---------------------------------------------------------------------

 SCF Done:  E(UB3LYP) =  -1136.11903523     A.U. after   21 cycles

 The electronic state is 2-A.
 Alpha  occ. eigenvalues --  -38.45524 -38.44757 -38.44321 -38.44032 -38.43955
 Alpha  occ. eigenvalues --  -38.43629 -38.43155  -2.21268  -2.20531  -2.20163
 Alpha  occ. eigenvalues --   -2.19811  -2.19769  -2.19472  -2.18990  -1.14976
 Alpha  occ. eigenvalues --   -1.14970  -1.14843  -1.14212  -1.14193  -1.14159
 Alpha  occ. eigenvalues --   -1.13862  -1.13859  -1.13756  -1.13499  -1.13473
 Alpha  occ. eigenvalues --   -1.13450  -1.13448  -1.13424  -1.13391  -1.13152
 Alpha  occ. eigenvalues --   -1.13133  -1.13082  -1.12646  -1.12634  -1.12600
 Alpha  occ. eigenvalues --   -0.16680  -0.13682  -0.12752  -0.09872
 Alpha virt. eigenvalues --   -0.06678  -0.06115  -0.04149  -0.03756  -0.02733
 Alpha virt. eigenvalues --   -0.02506  -0.02054  -0.01396  -0.01131  -0.00648
 Alpha virt. eigenvalues --   -0.00314   0.00001   0.00292   0.00503   0.00519

  Beta  occ. eigenvalues --  -38.45512 -38.44753 -38.44313 -38.44022 -38.43919
  Beta  occ. eigenvalues --  -38.43586 -38.43081  -2.21248  -2.20524  -2.20152
  Beta  occ. eigenvalues --   -2.19799  -2.19703  -2.19395  -2.18851  -1.14964
  Beta  occ. eigenvalues --   -1.14953  -1.14816  -1.14207  -1.14186  -1.14154
  Beta  occ. eigenvalues --   -1.13856  -1.13830  -1.13751  -1.13497  -1.13462
  Beta  occ. eigenvalues --   -1.13411  -1.13403  -1.13379  -1.13342  -1.13101
  Beta  occ. eigenvalues --   -1.13083  -1.13008  -1.12551  -1.12539  -1.12513
  Beta  occ. eigenvalues --   -0.16259  -0.13230  -0.12265
  Beta virt. eigenvalues --   -0.06622  -0.06452  -0.05967  -0.03701  -0.03443
  Beta virt. eigenvalues --   -0.02436  -0.02270  -0.01789  -0.01203  -0.00808
  Beta virt. eigenvalues --   -0.00462   0.00018   0.00188   0.00321   0.00592

 Mulliken charges and spin densities:
               1          2
     1  Na   0.355104   0.004513
     2  Na  -0.414958   0.135400
     3  Na   0.416161   0.161868
     4  Na  -0.197932   0.218815
     5  Na   0.108021   0.331892
     6  Na   0.017777   0.033290
     7  Na  -0.284172   0.114222
 Sum of Mulliken charges =  -0.00000   1.00000

 Dipole moment (field-independent basis, Debye):
    X=             -0.2740    Y=             -1.1895    Z=             -0.3758  Tot=              1.2772
 Quadrupole moment (field-independent basis, Debye-Ang):
   XX=            -59.8767   YY=            -67.4146   ZZ=            -70.6273
   XY=              9.1492   XZ=             -0.5058   YZ=              0.4321

 Normal termination of Gaussian 16 at Mon Dec  4 01:47:13 2023.
