 Gaussian 16, Revision B.01,
 Gaussian 16:  ES64L-G16RevB.01 20-Dec-2017

 -------------------------
 #P B3LYP/6-311+g(d) force
 -------------------------

 -----
 DPGEN
 -----
 Symbolic Z-matrix:
 Charge =  0 Multiplicity = 2

                         Standard orientation:
 ---------------------------------------------------------------------
 Center     Atomic      Atomic             Coordinates (Angstroms)
 Number     Number       Type             X           Y           Z
 ---------------------------------------------------------------------
      1         11           0       -1.042563    0.285486    1.921909
      2         11           0        3.886033   -0.217438   -0.761089
      3         11           0        1.410119    2.510785    0.523421
      4         11           0       -3.208453   -1.703378   -0.407805
      5         11           0       -0.148327   -0.446853   -1.580375
      6         11           0        1.395517   -2.416557    0.915748
      7         11           0       -2.292326    1.987955   -0.611809
 ---------------------------------------------------------------------

 SCF Done:  E(UB3LYP) =  -1136.12721422     A.U. after   22 cycles

 The electronic state is 2-A.
 Alpha  occ. eigenvalues --  -38.44667 -38.44388 -38.44120 -38.43987 -38.43855
 Alpha  occ. eigenvalues --  -38.43494 -38.43452  -2.20423  -2.20171  -2.19992
 Alpha  occ. eigenvalues --   -2.19833  -2.19645  -2.19391  -2.19233  -1.14098
 Alpha  occ. eigenvalues --   -1.14075  -1.14051  -1.13850  -1.13821  -1.13817
 Alpha  occ. eigenvalues --   -1.13694  -1.13664  -1.13600  -1.13525  -1.13507
 Alpha  occ. eigenvalues --   -1.13429  -1.13322  -1.13313  -1.13263  -1.13065
 Alpha  occ. eigenvalues --   -1.13038  -1.12992  -1.12917  -1.12904  -1.12855
 Alpha  occ. eigenvalues --   -0.17884  -0.13223  -0.11546  -0.10718
 Alpha virt. eigenvalues --   -0.06488  -0.05601  -0.04440  -0.03161  -0.02740
 Alpha virt. eigenvalues --   -0.02509  -0.02164  -0.01320  -0.00847  -0.00222
 Alpha virt. eigenvalues --   -0.00098   0.00218   0.00439   0.00621   0.00694

  Beta  occ. eigenvalues --  -38.44649 -38.44386 -38.44082 -38.43974 -38.43830
  Beta  occ. eigenvalues --  -38.43449 -38.43413  -2.20389  -2.20168  -2.19924
  Beta  occ. eigenvalues --   -2.19810  -2.19601  -2.19243  -2.19229  -1.14071
  Beta  occ. eigenvalues --   -1.14052  -1.14030  -1.13842  -1.13819  -1.13807
  Beta  occ. eigenvalues --   -1.13645  -1.13611  -1.13551  -1.13500  -1.13487
  Beta  occ. eigenvalues --   -1.13407  -1.13294  -1.13274  -1.13226  -1.12969
  Beta  occ. eigenvalues --   -1.12933  -1.12911  -1.12900  -1.12878  -1.12847
  Beta  occ. eigenvalues --   -0.17204  -0.12969  -0.11343
  Beta virt. eigenvalues --   -0.07003  -0.06217  -0.05569  -0.04157  -0.02792
  Beta virt. eigenvalues --   -0.02140  -0.02026  -0.01555  -0.01278  -0.00684
  Beta virt. eigenvalues --   -0.00079  -0.00026   0.00260   0.00594   0.00702

 Mulliken charges and spin densities:
               1          2
     1  Na   0.134831   0.629299
     2  Na   0.084474   0.113194
     3  Na  -0.245870  -0.100214
     4  Na   0.109927  -0.045847
     5  Na  -0.184254   0.383125
     6  Na  -0.078818  -0.029142
     7  Na   0.179711   0.049584
 Sum of Mulliken charges =  -0.00000   1.00000

 Dipole moment (field-independent basis, Debye):
    X=             -0.1864    Y=             -0.1292    Z=             -0.1679  Tot=              0.2821
 Quadrupole moment (field-independent basis, Debye-Ang):
   XX=            -51.2471   YY=            -69.1486   ZZ=            -72.5706
   XY=              0.6916   XZ=             -0.3468   YZ=             -1.7252

 Normal termination of Gaussian 16 at Tue Dec  5 17:35:07 2023.
