 Gaussian 16, Revision B.01,
 Gaussian 16:  ES64L-G16RevB.01 20-Dec-2017

 -------------------------
 #P B3LYP/6-311+g(d) force
 -------------------------

 -----
 DPGEN
 -----
 Symbolic Z-matrix:
 Charge =  0 Multiplicity = 2

                         Standard orientation:
 ---------------------------------------------------------------------
 Center     Atomic      Atomic             Coordinates (Angstroms)
 Number     Number       Type             X           Y           Z
 ---------------------------------------------------------------------
      1         11           0        0.404861   -1.920254    0.635221
      2         11           0        3.644285   -2.680576   -0.354357
      3         11           0        3.086895    0.116811   -0.223860
      4         11           0        1.081764    3.905734   -0.654129
      5         11           0        0.033773    1.800707    1.375922
      6         11           0       -2.269555   -0.380560   -0.612100
      7         11           0       -5.982023   -0.841862   -0.166697
 ---------------------------------------------------------------------

 SCF Done:  E(UB3LYP) =  -1136.11657540     A.U. after   19 cycles

 The electronic state is 2-A.
 Alpha  occ. eigenvalues --  -38.44631 -38.44450 -38.44253 -38.44179 -38.44044
 Alpha  occ. eigenvalues --  -38.43927 -38.43356  -2.20512  -2.20231  -2.20131
 Alpha  occ. eigenvalues --   -2.20026  -2.19846  -2.19803  -2.19150  -1.14260
 Alpha  occ. eigenvalues --   -1.14185  -1.14175  -1.13867  -1.13866  -1.13833
 Alpha  occ. eigenvalues --   -1.13767  -1.13759  -1.13744  -1.13735  -1.13700
 Alpha  occ. eigenvalues --   -1.13662  -1.13499  -1.13494  -1.13489  -1.13481
 Alpha  occ. eigenvalues --   -1.13458  -1.13396  -1.12842  -1.12828  -1.12791
 Alpha  occ. eigenvalues --   -0.17157  -0.13546  -0.12743  -0.10902
 Alpha virt. eigenvalues --   -0.06035  -0.05508  -0.05120  -0.03464  -0.02684
 Alpha virt. eigenvalues --   -0.02493  -0.01869  -0.01446  -0.01246  -0.00729
 Alpha virt. eigenvalues --   -0.00672  -0.00149   0.00345   0.00448   0.00513

  Beta  occ. eigenvalues --  -38.44615 -38.44328 -38.44237 -38.44171 -38.44029
  Beta  occ. eigenvalues --  -38.43885 -38.43367  -2.20484  -2.20101  -2.20014
  Beta  occ. eigenvalues --   -2.20004  -2.19817  -2.19727  -2.19178  -1.14238
  Beta  occ. eigenvalues --   -1.14167  -1.14146  -1.13740  -1.13736  -1.13731
  Beta  occ. eigenvalues --   -1.13721  -1.13712  -1.13711  -1.13696  -1.13683
  Beta  occ. eigenvalues --   -1.13641  -1.13479  -1.13473  -1.13441  -1.13439
  Beta  occ. eigenvalues --   -1.13427  -1.13340  -1.12866  -1.12852  -1.12766
  Beta  occ. eigenvalues --   -0.16759  -0.13221  -0.11987
  Beta virt. eigenvalues --   -0.07448  -0.05808  -0.05301  -0.04698  -0.03158
  Beta virt. eigenvalues --   -0.02586  -0.02207  -0.01759  -0.00942  -0.00846
  Beta virt. eigenvalues --   -0.00489  -0.00289   0.00099   0.00426   0.00560

 Mulliken charges and spin densities:
               1          2
     1  Na  -0.501210   0.060436
     2  Na   0.943888   0.059362
     3  Na  -0.617548   0.207679
     4  Na   0.109627   0.095315
     5  Na   0.163205   0.062502
     6  Na  -0.104977  -0.073004
     7  Na   0.007015   0.587710
 Sum of Mulliken charges =  -0.00000   1.00000

 Dipole moment (field-independent basis, Debye):
    X=              1.4318    Y=             -0.2689    Z=              0.0368  Tot=              1.4573
 Quadrupole moment (field-independent basis, Debye-Ang):
   XX=            -70.8626   YY=            -62.1263   ZZ=            -67.7301
   XY=             -5.3310   XZ=             -2.5536   YZ=             -2.3828

 Normal termination of Gaussian 16 at Wed Nov 29 03:54:42 2023.
