 Gaussian 16, Revision B.01,
 Gaussian 16:  ES64L-G16RevB.01 20-Dec-2017

 -------------------------
 #P B3LYP/6-311+g(d) force
 -------------------------

 -----
 DPGEN
 -----
 Symbolic Z-matrix:
 Charge =  0 Multiplicity = 2

                         Standard orientation:
 ---------------------------------------------------------------------
 Center     Atomic      Atomic             Coordinates (Angstroms)
 Number     Number       Type             X           Y           Z
 ---------------------------------------------------------------------
      1         11           0        1.777477   -1.854200    0.923780
      2         11           0        5.208848   -2.008046   -0.240773
      3         11           0        2.584670    0.925291   -0.893380
      4         11           0        1.630870    3.760644    0.400942
      5         11           0       -0.216683    0.456960    0.142395
      6         11           0       -4.198356   -1.298766   -0.371475
      7         11           0       -6.786825    0.018117    0.038511
 ---------------------------------------------------------------------

 SCF Done:  E(UB3LYP) =  -1136.11154544     A.U. after   19 cycles

 The electronic state is 2-A.
 Alpha  occ. eigenvalues --  -38.44467 -38.44305 -38.44263 -38.44198 -38.44082
 Alpha  occ. eigenvalues --  -38.44018 -38.43956  -2.20378  -2.20218  -2.20081
 Alpha  occ. eigenvalues --   -2.20057  -2.19894  -2.19824  -2.19735  -1.14173
 Alpha  occ. eigenvalues --   -1.14069  -1.13967  -1.13919  -1.13880  -1.13837
 Alpha  occ. eigenvalues --   -1.13788  -1.13728  -1.13718  -1.13717  -1.13716
 Alpha  occ. eigenvalues --   -1.13656  -1.13558  -1.13547  -1.13503  -1.13477
 Alpha  occ. eigenvalues --   -1.13472  -1.13438  -1.13396  -1.13393  -1.13344
 Alpha  occ. eigenvalues --   -0.17134  -0.13531  -0.12385  -0.11253
 Alpha virt. eigenvalues --   -0.06009  -0.05758  -0.04448  -0.03641  -0.02781
 Alpha virt. eigenvalues --   -0.02354  -0.02167  -0.02081  -0.01058  -0.00929
 Alpha virt. eigenvalues --   -0.00587  -0.00188   0.00218   0.00399   0.00622

  Beta  occ. eigenvalues --  -38.44451 -38.44246 -38.44238 -38.44170 -38.44043
  Beta  occ. eigenvalues --  -38.44023 -38.43910  -2.20352  -2.20113  -2.20034
  Beta  occ. eigenvalues --   -2.20010  -2.19838  -2.19822  -2.19647  -1.14131
  Beta  occ. eigenvalues --   -1.14051  -1.13945  -1.13842  -1.13816  -1.13812
  Beta  occ. eigenvalues --   -1.13717  -1.13701  -1.13686  -1.13685  -1.13678
  Beta  occ. eigenvalues --   -1.13582  -1.13503  -1.13496  -1.13488  -1.13482
  Beta  occ. eigenvalues --   -1.13462  -1.13424  -1.13336  -1.13330  -1.13290
  Beta  occ. eigenvalues --   -0.16432  -0.13253  -0.11948
  Beta virt. eigenvalues --   -0.07762  -0.05615  -0.05425  -0.04152  -0.03392
  Beta virt. eigenvalues --   -0.02483  -0.02261  -0.01929  -0.01662  -0.00795
  Beta virt. eigenvalues --   -0.00601  -0.00353  -0.00070   0.00341   0.00543

 Mulliken charges and spin densities:
               1          2
     1  Na   0.404617   0.060767
     2  Na   0.172481   0.244543
     3  Na  -0.010219   0.307067
     4  Na   0.550069   0.198415
     5  Na  -0.959982   0.127791
     6  Na  -0.481128  -0.025034
     7  Na   0.324163   0.086451
 Sum of Mulliken charges =  -0.00000   1.00000

 Dipole moment (field-independent basis, Debye):
    X=              0.0803    Y=              0.6607    Z=              0.4094  Tot=              0.7814
 Quadrupole moment (field-independent basis, Debye-Ang):
   XX=            -60.3098   YY=            -65.3628   ZZ=            -70.6024
   XY=             -4.4387   XZ=             -2.1012   YZ=              1.6085

 Normal termination of Gaussian 16 at Mon Nov 27 04:21:37 2023.
