 Gaussian 16, Revision B.01,
 Gaussian 16:  ES64L-G16RevB.01 20-Dec-2017

 -------------------------
 #P B3LYP/6-311+g(d) force
 -------------------------

 -----
 DPGEN
 -----
 Symbolic Z-matrix:
 Charge =  0 Multiplicity = 2

                         Standard orientation:
 ---------------------------------------------------------------------
 Center     Atomic      Atomic             Coordinates (Angstroms)
 Number     Number       Type             X           Y           Z
 ---------------------------------------------------------------------
      1         11           0       -2.701111    1.580472   -0.053763
      2         11           0        0.612165    2.827303    0.027299
      3         11           0       -0.420627   -0.238641    1.984662
      4         11           0       -0.255295   -0.028669   -1.686030
      5         11           0        3.338527    0.380161   -0.066330
      6         11           0        1.695579   -2.294431   -0.000810
      7         11           0       -2.269239   -2.226195   -0.205027
 ---------------------------------------------------------------------

 SCF Done:  E(UB3LYP) =  -1136.13728098     A.U. after   20 cycles

 The electronic state is 2-A.
 Alpha  occ. eigenvalues --  -38.44138 -38.44130 -38.43815 -38.43567 -38.43429
 Alpha  occ. eigenvalues --  -38.43335 -38.43220  -2.19977  -2.19946  -2.19645
 Alpha  occ. eigenvalues --   -2.19431  -2.19326  -2.19179  -2.19165  -1.13660
 Alpha  occ. eigenvalues --   -1.13645  -1.13641  -1.13606  -1.13604  -1.13585
 Alpha  occ. eigenvalues --   -1.13328  -1.13309  -1.13279  -1.13117  -1.13101
 Alpha  occ. eigenvalues --   -1.13058  -1.12993  -1.12952  -1.12943  -1.12878
 Alpha  occ. eigenvalues --   -1.12846  -1.12832  -1.12809  -1.12793  -1.12787
 Alpha  occ. eigenvalues --   -0.18540  -0.13155  -0.12342  -0.10589
 Alpha virt. eigenvalues --   -0.05773  -0.05519  -0.04522  -0.03157  -0.02800
 Alpha virt. eigenvalues --   -0.02478  -0.01630  -0.01301  -0.00518  -0.00296
 Alpha virt. eigenvalues --   -0.00018   0.00343   0.00770   0.00842   0.00887

  Beta  occ. eigenvalues --  -38.44132 -38.44132 -38.43808 -38.43562 -38.43338
  Beta  occ. eigenvalues --  -38.43332 -38.43151  -2.19970  -2.19951  -2.19636
  Beta  occ. eigenvalues --   -2.19425  -2.19163  -2.19156  -2.19054  -1.13650
  Beta  occ. eigenvalues --   -1.13647  -1.13617  -1.13604  -1.13596  -1.13590
  Beta  occ. eigenvalues --   -1.13315  -1.13284  -1.13276  -1.13113  -1.13069
  Beta  occ. eigenvalues --   -1.13058  -1.12885  -1.12854  -1.12833  -1.12825
  Beta  occ. eigenvalues --   -1.12809  -1.12795  -1.12768  -1.12718  -1.12704
  Beta  occ. eigenvalues --   -0.17814  -0.12951  -0.12107
  Beta virt. eigenvalues --   -0.06668  -0.05722  -0.05516  -0.04494  -0.02404
  Beta virt. eigenvalues --   -0.02025  -0.01555  -0.01406  -0.01246  -0.00565
  Beta virt. eigenvalues --   -0.00346   0.00131   0.00372   0.00828   0.00840

 Mulliken charges and spin densities:
               1          2
     1  Na   0.242899  -0.085673
     2  Na   0.004525  -0.082453
     3  Na  -0.407069   0.788855
     4  Na  -0.235208   0.628946
     5  Na  -0.125231  -0.065613
     6  Na   0.257163  -0.064307
     7  Na   0.262922  -0.119754
 Sum of Mulliken charges =  -0.00000   1.00000

 Dipole moment (field-independent basis, Debye):
    X=             -0.2341    Y=              0.0108    Z=              0.0640  Tot=              0.2429
 Quadrupole moment (field-independent basis, Debye-Ang):
   XX=            -54.4411   YY=            -63.2964   ZZ=            -75.4277
   XY=              0.7676   XZ=              0.3144   YZ=              0.4940

 Normal termination of Gaussian 16 at Thu Dec  7 12:56:04 2023.
