 Gaussian 16, Revision B.01,
 Gaussian 16:  ES64L-G16RevB.01 20-Dec-2017

 -------------------------
 #P B3LYP/6-311+g(d) force
 -------------------------

 -----
 DPGEN
 -----
 Symbolic Z-matrix:
 Charge =  0 Multiplicity = 2

                         Standard orientation:
 ---------------------------------------------------------------------
 Center     Atomic      Atomic             Coordinates (Angstroms)
 Number     Number       Type             X           Y           Z
 ---------------------------------------------------------------------
      1         11           0       -2.667573   -1.723752   -0.004531
      2         11           0        0.814223    2.838984    0.062420
      3         11           0        3.129075    0.255208   -0.148987
      4         11           0        1.117842   -2.872042   -0.240252
      5         11           0        0.009432   -0.059339   -1.479315
      6         11           0       -2.468136    1.815434   -0.224159
      7         11           0        0.065137   -0.254491    2.034824
 ---------------------------------------------------------------------

 SCF Done:  E(UB3LYP) =  -1136.13965578     A.U. after   18 cycles

 The electronic state is 2-A.
 Alpha  occ. eigenvalues --  -38.44003 -38.43965 -38.43779 -38.43649 -38.43362
 Alpha  occ. eigenvalues --  -38.43345 -38.42872  -2.19815  -2.19795  -2.19608
 Alpha  occ. eigenvalues --   -2.19491  -2.19232  -2.19218  -2.18883  -1.13491
 Alpha  occ. eigenvalues --   -1.13480  -1.13477  -1.13456  -1.13452  -1.13433
 Alpha  occ. eigenvalues --   -1.13303  -1.13271  -1.13231  -1.13179  -1.13151
 Alpha  occ. eigenvalues --   -1.13128  -1.12914  -1.12898  -1.12881  -1.12854
 Alpha  occ. eigenvalues --   -1.12851  -1.12842  -1.12574  -1.12518  -1.12506
 Alpha  occ. eigenvalues --   -0.18593  -0.12890  -0.12606  -0.10443
 Alpha virt. eigenvalues --   -0.05677  -0.05197  -0.04931  -0.02938  -0.02835
 Alpha virt. eigenvalues --   -0.02344  -0.01535  -0.01299  -0.00557  -0.00439
 Alpha virt. eigenvalues --    0.00010   0.00349   0.00804   0.00837   0.00875

  Beta  occ. eigenvalues --  -38.44000 -38.43960 -38.43772 -38.43644 -38.43358
  Beta  occ. eigenvalues --  -38.43246 -38.42817  -2.19813  -2.19790  -2.19599
  Beta  occ. eigenvalues --   -2.19485  -2.19214  -2.19049  -2.18783  -1.13484
  Beta  occ. eigenvalues --   -1.13469  -1.13466  -1.13453  -1.13438  -1.13431
  Beta  occ. eigenvalues --   -1.13290  -1.13248  -1.13226  -1.13171  -1.13133
  Beta  occ. eigenvalues --   -1.13126  -1.12900  -1.12860  -1.12851  -1.12783
  Beta  occ. eigenvalues --   -1.12724  -1.12713  -1.12498  -1.12445  -1.12433
  Beta  occ. eigenvalues --   -0.17881  -0.12660  -0.12374
  Beta virt. eigenvalues --   -0.06527  -0.05681  -0.05171  -0.04890  -0.02186
  Beta virt. eigenvalues --   -0.02067  -0.01455  -0.01267  -0.01221  -0.00618
  Beta virt. eigenvalues --   -0.00486   0.00157   0.00383   0.00822   0.00859

 Mulliken charges and spin densities:
               1          2
     1  Na   0.173330  -0.057469
     2  Na   0.171419   0.000649
     3  Na   0.224835  -0.027260
     4  Na   0.187314  -0.078276
     5  Na  -0.420706   0.362307
     6  Na   0.175182  -0.012954
     7  Na  -0.511374   0.813003
 Sum of Mulliken charges =  -0.00000   1.00000

 Dipole moment (field-independent basis, Debye):
    X=              0.0086    Y=             -0.2450    Z=              0.1230  Tot=              0.2742
 Quadrupole moment (field-independent basis, Debye-Ang):
   XX=            -56.1200   YY=            -59.6564   ZZ=            -76.2401
   XY=              0.2986   XZ=             -0.1142   YZ=              0.4307

 Normal termination of Gaussian 16 at Thu Dec  7 15:44:54 2023.
