 Gaussian 16, Revision B.01,
 Gaussian 16:  ES64L-G16RevB.01 20-Dec-2017

 -------------------------
 #P B3LYP/6-311+g(d) force
 -------------------------

 -----
 DPGEN
 -----
 Symbolic Z-matrix:
 Charge =  0 Multiplicity = 2

                         Standard orientation:
 ---------------------------------------------------------------------
 Center     Atomic      Atomic             Coordinates (Angstroms)
 Number     Number       Type             X           Y           Z
 ---------------------------------------------------------------------
      1         11           0        2.944475    0.973230   -0.242365
      2         11           0       -2.698731   -2.139628   -0.150294
      3         11           0        0.288447    0.028355    2.219870
      4         11           0        2.291952   -2.239882    0.057395
      5         11           0        0.051907    2.736394   -0.339701
      6         11           0        0.172315   -0.527370   -1.600756
      7         11           0       -3.050366    1.168900    0.055849
 ---------------------------------------------------------------------

 SCF Done:  E(UB3LYP) =  -1136.13180597     A.U. after   21 cycles

 The electronic state is 2-A.
 Alpha  occ. eigenvalues --  -38.44404 -38.44316 -38.44066 -38.43983 -38.43830
 Alpha  occ. eigenvalues --  -38.43563 -38.42623  -2.20210  -2.20187  -2.19855
 Alpha  occ. eigenvalues --   -2.19824  -2.19683  -2.19491  -2.18482  -1.13885
 Alpha  occ. eigenvalues --   -1.13871  -1.13864  -1.13860  -1.13848  -1.13834
 Alpha  occ. eigenvalues --   -1.13524  -1.13509  -1.13504  -1.13481  -1.13451
 Alpha  occ. eigenvalues --   -1.13441  -1.13389  -1.13328  -1.13326  -1.13173
 Alpha  occ. eigenvalues --   -1.13130  -1.13105  -1.12165  -1.12139  -1.12130
 Alpha  occ. eigenvalues --   -0.18329  -0.13496  -0.11868  -0.10780
 Alpha virt. eigenvalues --   -0.06023  -0.05859  -0.04147  -0.03409  -0.02761
 Alpha virt. eigenvalues --   -0.02598  -0.01837  -0.01285  -0.00710  -0.00242
 Alpha virt. eigenvalues --   -0.00060   0.00316   0.00662   0.00764   0.00821

  Beta  occ. eigenvalues --  -38.44405 -38.44307 -38.44068 -38.43876 -38.43825
  Beta  occ. eigenvalues --  -38.43510 -38.42616  -2.20214  -2.20174  -2.19860
  Beta  occ. eigenvalues --   -2.19677  -2.19626  -2.19394  -2.18473  -1.13878
  Beta  occ. eigenvalues --   -1.13873  -1.13864  -1.13854  -1.13830  -1.13811
  Beta  occ. eigenvalues --   -1.13517  -1.13513  -1.13507  -1.13381  -1.13347
  Beta  occ. eigenvalues --   -1.13328  -1.13314  -1.13309  -1.13287  -1.13107
  Beta  occ. eigenvalues --   -1.13061  -1.13032  -1.12158  -1.12130  -1.12108
  Beta  occ. eigenvalues --   -0.17598  -0.13338  -0.11662
  Beta virt. eigenvalues --   -0.06803  -0.05926  -0.05837  -0.04117  -0.02682
  Beta virt. eigenvalues --   -0.01951  -0.01756  -0.01600  -0.01182  -0.00767
  Beta virt. eigenvalues --   -0.00264   0.00121   0.00357   0.00751   0.00768

 Mulliken charges and spin densities:
               1          2
     1  Na   0.321808   0.121882
     2  Na   0.111035  -0.047232
     3  Na  -0.463006   0.670105
     4  Na   0.184108   0.028207
     5  Na  -0.167533   0.023236
     6  Na   0.019815   0.204834
     7  Na  -0.006228  -0.001032
 Sum of Mulliken charges =  -0.00000   1.00000

 Dipole moment (field-independent basis, Debye):
    X=             -0.0083    Y=             -0.2750    Z=              0.1647  Tot=              0.3207
 Quadrupole moment (field-independent basis, Debye-Ang):
   XX=            -53.7349   YY=            -66.1503   ZZ=            -74.6640
   XY=             -0.4370   XZ=             -0.5698   YZ=             -0.9266

 Normal termination of Gaussian 16 at Thu Dec  7 18:50:59 2023.
