 Gaussian 16, Revision B.01,
 Gaussian 16:  ES64L-G16RevB.01 20-Dec-2017

 -------------------------
 #P B3LYP/6-311+g(d) force
 -------------------------

 -----
 DPGEN
 -----
 Symbolic Z-matrix:
 Charge =  0 Multiplicity = 2

                         Standard orientation:
 ---------------------------------------------------------------------
 Center     Atomic      Atomic             Coordinates (Angstroms)
 Number     Number       Type             X           Y           Z
 ---------------------------------------------------------------------
      1         11           0        1.897475    1.541272    0.178239
      2         11           0       -1.564444    0.325045    0.024576
      3         11           0       -1.076975   -3.228184   -0.400366
      4         11           0        1.482840   -1.801464    0.686861
      5         11           0        4.323720   -0.416059   -0.391876
      6         11           0       -4.410007   -0.243112    0.031583
      7         11           0       -0.652609    3.822502   -0.129017
 ---------------------------------------------------------------------

 SCF Done:  E(UB3LYP) =  -1136.12416656     A.U. after   21 cycles

 The electronic state is 2-A.
 Alpha  occ. eigenvalues --  -38.44380 -38.44157 -38.43872 -38.43788 -38.43672
 Alpha  occ. eigenvalues --  -38.43477 -38.43363  -2.20237  -2.19986  -2.19736
 Alpha  occ. eigenvalues --   -2.19582  -2.19576  -2.19370  -2.19279  -1.13962
 Alpha  occ. eigenvalues --   -1.13848  -1.13823  -1.13684  -1.13643  -1.13602
 Alpha  occ. eigenvalues --   -1.13410  -1.13379  -1.13369  -1.13276  -1.13249
 Alpha  occ. eigenvalues --   -1.13246  -1.13242  -1.13215  -1.13179  -1.13079
 Alpha  occ. eigenvalues --   -1.13059  -1.13007  -1.12970  -1.12952  -1.12851
 Alpha  occ. eigenvalues --   -0.17249  -0.14059  -0.12831  -0.10789
 Alpha virt. eigenvalues --   -0.05960  -0.05120  -0.04532  -0.03652  -0.02401
 Alpha virt. eigenvalues --   -0.02179  -0.01753  -0.01523  -0.01116  -0.00772
 Alpha virt. eigenvalues --   -0.00144  -0.00041   0.00527   0.00633   0.00783

  Beta  occ. eigenvalues --  -38.44273 -38.44126 -38.43816 -38.43774 -38.43655
  Beta  occ. eigenvalues --  -38.43469 -38.43355  -2.20039  -2.19933  -2.19630
  Beta  occ. eigenvalues --   -2.19557  -2.19549  -2.19360  -2.19272  -1.13830
  Beta  occ. eigenvalues --   -1.13713  -1.13690  -1.13630  -1.13609  -1.13570
  Beta  occ. eigenvalues --   -1.13338  -1.13316  -1.13296  -1.13262  -1.13232
  Beta  occ. eigenvalues --   -1.13229  -1.13224  -1.13197  -1.13127  -1.13070
  Beta  occ. eigenvalues --   -1.13057  -1.12971  -1.12947  -1.12916  -1.12859
  Beta  occ. eigenvalues --   -0.16863  -0.13149  -0.12316
  Beta virt. eigenvalues --   -0.07469  -0.05664  -0.05082  -0.04275  -0.03073
  Beta virt. eigenvalues --   -0.02062  -0.01981  -0.01510  -0.01168  -0.00946
  Beta virt. eigenvalues --   -0.00394   0.00083   0.00284   0.00587   0.00664

 Mulliken charges and spin densities:
               1          2
     1  Na  -0.630183   0.209300
     2  Na  -2.664633   0.426292
     3  Na   0.706120   0.105466
     4  Na  -0.400848   0.107063
     5  Na   1.149189   0.216989
     6  Na   1.702734  -0.075005
     7  Na   0.137622   0.009895
 Sum of Mulliken charges =  -0.00000   1.00000

 Dipole moment (field-independent basis, Debye):
    X=              0.0970    Y=             -0.3811    Z=             -0.3827  Tot=              0.5487
 Quadrupole moment (field-independent basis, Debye-Ang):
   XX=            -62.0994   YY=            -59.9879   ZZ=            -71.1051
   XY=             -0.2324   XZ=             -0.6600   YZ=              0.8822

 Normal termination of Gaussian 16 at Tue Nov 28 20:20:28 2023.
