 Gaussian 16, Revision B.01,
 Gaussian 16:  ES64L-G16RevB.01 20-Dec-2017

 -------------------------
 #P B3LYP/6-311+g(d) force
 -------------------------

 -----
 DPGEN
 -----
 Symbolic Z-matrix:
 Charge =  0 Multiplicity = 2

                         Standard orientation:
 ---------------------------------------------------------------------
 Center     Atomic      Atomic             Coordinates (Angstroms)
 Number     Number       Type             X           Y           Z
 ---------------------------------------------------------------------
      1         11           0        2.195623   -1.843725   -1.178534
      2         11           0       -3.927813    0.010249   -0.536635
      3         11           0        2.854711    2.010168   -0.224379
      4         11           0       -0.394008    2.199635   -1.229683
      5         11           0       -1.604271    0.482639    2.070226
      6         11           0       -0.738642   -1.957637   -0.927659
      7         11           0        1.614399   -0.901329    2.026664
 ---------------------------------------------------------------------

 SCF Done:  E(UB3LYP) =  -1136.12376702     A.U. after   21 cycles

 The electronic state is 2-A.
 Alpha  occ. eigenvalues --  -38.44810 -38.44710 -38.44492 -38.43921 -38.43651
 Alpha  occ. eigenvalues --  -38.43555 -38.43411  -2.20583  -2.20534  -2.20331
 Alpha  occ. eigenvalues --   -2.19699  -2.19526  -2.19418  -2.19194  -1.14260
 Alpha  occ. eigenvalues --   -1.14242  -1.14220  -1.14213  -1.14182  -1.14138
 Alpha  occ. eigenvalues --   -1.14004  -1.13968  -1.13953  -1.13386  -1.13375
 Alpha  occ. eigenvalues --   -1.13340  -1.13311  -1.13166  -1.13141  -1.13083
 Alpha  occ. eigenvalues --   -1.13066  -1.12983  -1.12867  -1.12845  -1.12843
 Alpha  occ. eigenvalues --   -0.17667  -0.13288  -0.11772  -0.11528
 Alpha virt. eigenvalues --   -0.06397  -0.05065  -0.04825  -0.03552  -0.03024
 Alpha virt. eigenvalues --   -0.02748  -0.02077  -0.00924  -0.00866  -0.00221
 Alpha virt. eigenvalues --    0.00144   0.00161   0.00252   0.00649   0.00736

  Beta  occ. eigenvalues --  -38.44806 -38.44643 -38.44427 -38.43902 -38.43632
  Beta  occ. eigenvalues --  -38.43529 -38.43411  -2.20576  -2.20412  -2.20213
  Beta  occ. eigenvalues --   -2.19663  -2.19492  -2.19372  -2.19196  -1.14247
  Beta  occ. eigenvalues --   -1.14237  -1.14213  -1.14128  -1.14102  -1.14040
  Beta  occ. eigenvalues --   -1.13917  -1.13886  -1.13866  -1.13358  -1.13350
  Beta  occ. eigenvalues --   -1.13307  -1.13285  -1.13140  -1.13117  -1.13049
  Beta  occ. eigenvalues --   -1.13026  -1.12953  -1.12861  -1.12847  -1.12845
  Beta  occ. eigenvalues --   -0.16946  -0.13213  -0.11316
  Beta virt. eigenvalues --   -0.07742  -0.06208  -0.04814  -0.04362  -0.03250
  Beta virt. eigenvalues --   -0.02391  -0.02077  -0.01991  -0.00873  -0.00410
  Beta virt. eigenvalues --   -0.00065   0.00168   0.00267   0.00358   0.00750

 Mulliken charges and spin densities:
               1          2
     1  Na   0.367685   0.151487
     2  Na   0.730888   0.041787
     3  Na  -0.035255  -0.012938
     4  Na  -0.358473   0.125561
     5  Na  -0.016353   0.221508
     6  Na  -0.692598   0.206288
     7  Na   0.004107   0.266307
 Sum of Mulliken charges =  -0.00000   1.00000

 Dipole moment (field-independent basis, Debye):
    X=             -0.8615    Y=             -0.1165    Z=              0.1799  Tot=              0.8877
 Quadrupole moment (field-independent basis, Debye-Ang):
   XX=            -51.5183   YY=            -78.1358   ZZ=            -67.1667
   XY=             -2.3267   XZ=              2.4035   YZ=              0.5007

 Normal termination of Gaussian 16 at Sun Dec  3 17:41:25 2023.
