 Gaussian 16, Revision B.01,
 Gaussian 16:  ES64L-G16RevB.01 20-Dec-2017

 -------------------------
 #P B3LYP/6-311+g(d) force
 -------------------------

 -----
 DPGEN
 -----
 Symbolic Z-matrix:
 Charge =  0 Multiplicity = 2

                         Standard orientation:
 ---------------------------------------------------------------------
 Center     Atomic      Atomic             Coordinates (Angstroms)
 Number     Number       Type             X           Y           Z
 ---------------------------------------------------------------------
      1         11           0        2.720665    1.056517   -1.172157
      2         11           0        3.375068   -2.002038    0.674074
      3         11           0        0.248283   -1.223040    0.371400
      4         11           0       -1.193645    1.020726   -1.619876
      5         11           0       -2.517329    0.485617    1.895782
      6         11           0       -3.159399   -1.703456   -1.014468
      7         11           0        0.526358    2.365674    0.865245
 ---------------------------------------------------------------------

 SCF Done:  E(UB3LYP) =  -1136.12972738     A.U. after   20 cycles

 The electronic state is 2-A.
 Alpha  occ. eigenvalues --  -38.44473 -38.44446 -38.44100 -38.43866 -38.43420
 Alpha  occ. eigenvalues --  -38.43166 -38.43014  -2.20310  -2.20279  -2.19920
 Alpha  occ. eigenvalues --   -2.19775  -2.19334  -2.18977  -2.18895  -1.13983
 Alpha  occ. eigenvalues --   -1.13975  -1.13947  -1.13946  -1.13919  -1.13879
 Alpha  occ. eigenvalues --   -1.13592  -1.13581  -1.13548  -1.13490  -1.13433
 Alpha  occ. eigenvalues --   -1.13358  -1.13054  -1.13015  -1.12949  -1.12643
 Alpha  occ. eigenvalues --   -1.12632  -1.12609  -1.12572  -1.12558  -1.12531
 Alpha  occ. eigenvalues --   -0.18283  -0.13708  -0.11595  -0.11092
 Alpha virt. eigenvalues --   -0.06103  -0.05355  -0.04801  -0.03117  -0.02775
 Alpha virt. eigenvalues --   -0.02304  -0.02094  -0.01181  -0.00871  -0.00004
 Alpha virt. eigenvalues --    0.00158   0.00187   0.00333   0.00438   0.00739

  Beta  occ. eigenvalues --  -38.44433 -38.44399 -38.44074 -38.43818 -38.43406
  Beta  occ. eigenvalues --  -38.43162 -38.43005  -2.20255  -2.20175  -2.19873
  Beta  occ. eigenvalues --   -2.19687  -2.19310  -2.18970  -2.18883  -1.13959
  Beta  occ. eigenvalues --   -1.13929  -1.13884  -1.13860  -1.13857  -1.13822
  Beta  occ. eigenvalues --   -1.13551  -1.13542  -1.13517  -1.13435  -1.13361
  Beta  occ. eigenvalues --   -1.13290  -1.13017  -1.12988  -1.12939  -1.12635
  Beta  occ. eigenvalues --   -1.12628  -1.12606  -1.12568  -1.12554  -1.12491
  Beta  occ. eigenvalues --   -0.17623  -0.13462  -0.11291
  Beta virt. eigenvalues --   -0.07343  -0.05916  -0.05136  -0.04325  -0.02891
  Beta virt. eigenvalues --   -0.02188  -0.01997  -0.01608  -0.01003  -0.00444
  Beta virt. eigenvalues --    0.00018   0.00232   0.00286   0.00455   0.00562

 Mulliken charges and spin densities:
               1          2
     1  Na   0.433871   0.037688
     2  Na  -0.107167  -0.075104
     3  Na  -0.962300   0.304449
     4  Na  -0.166348   0.352945
     5  Na  -0.010754   0.266383
     6  Na   0.664976   0.032427
     7  Na   0.147722   0.081214
 Sum of Mulliken charges =  -0.00000   1.00000

 Dipole moment (field-independent basis, Debye):
    X=             -0.5367    Y=              0.4605    Z=             -0.2071  Tot=              0.7368
 Quadrupole moment (field-independent basis, Debye-Ang):
   XX=            -53.4457   YY=            -72.0910   ZZ=            -68.0764
   XY=              4.0118   XZ=             -1.9740   YZ=              0.6219

 Normal termination of Gaussian 16 at Tue Dec  5 10:53:39 2023.
