 Gaussian 16, Revision B.01,
 Gaussian 16:  ES64L-G16RevB.01 20-Dec-2017

 -------------------------
 #P B3LYP/6-311+g(d) force
 -------------------------

 -----
 DPGEN
 -----
 Symbolic Z-matrix:
 Charge =  0 Multiplicity = 2

                         Standard orientation:
 ---------------------------------------------------------------------
 Center     Atomic      Atomic             Coordinates (Angstroms)
 Number     Number       Type             X           Y           Z
 ---------------------------------------------------------------------
      1         11           0        3.011527   -1.207888   -0.339551
      2         11           0       -1.991544    2.234550    0.224973
      3         11           0       -3.051684   -1.194393   -0.325635
      4         11           0        1.619953    2.414874   -0.437550
      5         11           0       -0.170017   -2.524409    0.192263
      6         11           0        0.562754    0.177362    2.216744
      7         11           0        0.019010    0.099905   -1.531245
 ---------------------------------------------------------------------

 SCF Done:  E(UB3LYP) =  -1136.13566084     A.U. after   19 cycles

 The electronic state is 2-A.
 Alpha  occ. eigenvalues --  -38.44043 -38.43835 -38.43788 -38.43686 -38.43631
 Alpha  occ. eigenvalues --  -38.43175 -38.43044  -2.19863  -2.19707  -2.19606
 Alpha  occ. eigenvalues --   -2.19520  -2.19497  -2.19203  -2.18963  -1.13539
 Alpha  occ. eigenvalues --   -1.13516  -1.13509  -1.13370  -1.13338  -1.13317
 Alpha  occ. eigenvalues --   -1.13292  -1.13275  -1.13262  -1.13236  -1.13201
 Alpha  occ. eigenvalues --   -1.13184  -1.13156  -1.13145  -1.13097  -1.12911
 Alpha  occ. eigenvalues --   -1.12850  -1.12802  -1.12645  -1.12626  -1.12571
 Alpha  occ. eigenvalues --   -0.18692  -0.12896  -0.12481  -0.10963
 Alpha virt. eigenvalues --   -0.05598  -0.05279  -0.04378  -0.03092  -0.03002
 Alpha virt. eigenvalues --   -0.02754  -0.01617  -0.01149  -0.00320  -0.00102
 Alpha virt. eigenvalues --    0.00006   0.00332   0.00775   0.00860   0.00928

  Beta  occ. eigenvalues --  -38.44038 -38.43785 -38.43730 -38.43685 -38.43619
  Beta  occ. eigenvalues --  -38.43120 -38.43035  -2.19856  -2.19603  -2.19521
  Beta  occ. eigenvalues --   -2.19512  -2.19479  -2.19104  -2.18951  -1.13526
  Beta  occ. eigenvalues --   -1.13508  -1.13498  -1.13289  -1.13261  -1.13250
  Beta  occ. eigenvalues --   -1.13236  -1.13229  -1.13203  -1.13202  -1.13175
  Beta  occ. eigenvalues --   -1.13172  -1.13157  -1.13117  -1.13085  -1.12846
  Beta  occ. eigenvalues --   -1.12786  -1.12727  -1.12632  -1.12585  -1.12564
  Beta  occ. eigenvalues --   -0.17968  -0.12678  -0.12254
  Beta virt. eigenvalues --   -0.06972  -0.05566  -0.05232  -0.04342  -0.02396
  Beta virt. eigenvalues --   -0.02196  -0.01652  -0.01537  -0.01094  -0.00337
  Beta virt. eigenvalues --   -0.00085   0.00120   0.00366   0.00826   0.00876

 Mulliken charges and spin densities:
               1          2
     1  Na   0.221263  -0.021660
     2  Na   0.098889   0.043776
     3  Na   0.038709  -0.028290
     4  Na   0.217984  -0.019468
     5  Na   0.336437   0.121055
     6  Na  -0.567226   0.652036
     7  Na  -0.346057   0.252553
 Sum of Mulliken charges =  -0.00000   1.00000

 Dipole moment (field-independent basis, Debye):
    X=              0.1887    Y=              0.2209    Z=              0.2018  Tot=              0.3538
 Quadrupole moment (field-independent basis, Debye-Ang):
   XX=            -55.1317   YY=            -64.8741   ZZ=            -73.3166
   XY=             -0.7749   XZ=             -0.9319   YZ=              0.3694

 Normal termination of Gaussian 16 at Fri Dec  8 07:42:32 2023.
