 Gaussian 16, Revision B.01,
 Gaussian 16:  ES64L-G16RevB.01 20-Dec-2017

 -------------------------
 #P B3LYP/6-311+g(d) force
 -------------------------

 -----
 DPGEN
 -----
 Symbolic Z-matrix:
 Charge =  0 Multiplicity = 2

                         Standard orientation:
 ---------------------------------------------------------------------
 Center     Atomic      Atomic             Coordinates (Angstroms)
 Number     Number       Type             X           Y           Z
 ---------------------------------------------------------------------
      1         11           0       -0.162453    3.681857   -0.862480
      2         11           0       -2.190512   -3.137232   -0.002257
      3         11           0        3.789773    1.788562    0.122653
      4         11           0        4.518741   -1.327515    0.596797
      5         11           0       -4.283307   -0.831350   -0.105701
      6         11           0        1.443350   -2.447412   -0.653096
      7         11           0       -3.115593    2.273089    0.904084
 ---------------------------------------------------------------------

 SCF Done:  E(UB3LYP) =  -1136.10476392     A.U. after   23 cycles

 The electronic state is 2-A.
 Alpha  occ. eigenvalues --  -38.45892 -38.44891 -38.44726 -38.44695 -38.44367
 Alpha  occ. eigenvalues --  -38.43881 -38.43837  -2.21657  -2.20631  -2.20509
 Alpha  occ. eigenvalues --   -2.20504  -2.20149  -2.19672  -2.19643  -1.15327
 Alpha  occ. eigenvalues --   -1.15306  -1.15294  -1.14323  -1.14311  -1.14270
 Alpha  occ. eigenvalues --   -1.14186  -1.14171  -1.14165  -1.14162  -1.14159
 Alpha  occ. eigenvalues --   -1.14095  -1.13853  -1.13825  -1.13802  -1.13320
 Alpha  occ. eigenvalues --   -1.13317  -1.13304  -1.13301  -1.13292  -1.13264
 Alpha  occ. eigenvalues --   -0.15580  -0.14253  -0.12745  -0.10670
 Alpha virt. eigenvalues --   -0.07775  -0.05052  -0.04702  -0.03544  -0.03248
 Alpha virt. eigenvalues --   -0.02705  -0.02245  -0.01838  -0.01177  -0.00839
 Alpha virt. eigenvalues --   -0.00479  -0.00196  -0.00099   0.00407   0.00513

  Beta  occ. eigenvalues --  -38.45854 -38.44907 -38.44678 -38.44659 -38.44384
  Beta  occ. eigenvalues --  -38.43817 -38.43793  -2.21590  -2.20664  -2.20481
  Beta  occ. eigenvalues --   -2.20382  -2.20184  -2.19588  -2.19524  -1.15284
  Beta  occ. eigenvalues --   -1.15266  -1.15222  -1.14349  -1.14336  -1.14265
  Beta  occ. eigenvalues --   -1.14152  -1.14148  -1.14126  -1.14090  -1.14084
  Beta  occ. eigenvalues --   -1.14012  -1.13873  -1.13853  -1.13800  -1.13273
  Beta  occ. eigenvalues --   -1.13259  -1.13251  -1.13220  -1.13210  -1.13188
  Beta  occ. eigenvalues --   -0.15036  -0.13855  -0.12070
  Beta virt. eigenvalues --   -0.07808  -0.07417  -0.04585  -0.04272  -0.03274
  Beta virt. eigenvalues --   -0.02919  -0.02475  -0.02177  -0.01686  -0.00985
  Beta virt. eigenvalues --   -0.00571  -0.00293   0.00120   0.00137   0.00401

 Mulliken charges and spin densities:
               1          2
     1  Na   0.035393   0.321246
     2  Na   0.248728  -0.128040
     3  Na  -0.092430   0.226523
     4  Na   0.606256   0.070195
     5  Na  -0.188852   0.243728
     6  Na  -0.597400   0.361046
     7  Na  -0.011696  -0.094698
 Sum of Mulliken charges =  -0.00000   1.00000

 Dipole moment (field-independent basis, Debye):
    X=              1.4702    Y=             -0.2418    Z=              0.3329  Tot=              1.5267
 Quadrupole moment (field-independent basis, Debye-Ang):
   XX=            -59.6120   YY=            -68.4814   ZZ=            -71.7496
   XY=              0.1228   XZ=             -0.3012   YZ=             -0.5494

 Normal termination of Gaussian 16 at Sun Dec  3 13:40:55 2023.
