 Gaussian 16, Revision B.01,
 Gaussian 16:  ES64L-G16RevB.01 20-Dec-2017

 -------------------------
 #P B3LYP/6-311+g(d) force
 -------------------------

 -----
 DPGEN
 -----
 Symbolic Z-matrix:
 Charge =  0 Multiplicity = 2

                         Standard orientation:
 ---------------------------------------------------------------------
 Center     Atomic      Atomic             Coordinates (Angstroms)
 Number     Number       Type             X           Y           Z
 ---------------------------------------------------------------------
      1         11           0       -0.333734    0.561702    1.814633
      2         11           0        1.319278    3.365970   -0.185937
      3         11           0        0.361722   -0.488756   -1.744928
      4         11           0        3.159151    0.072884    0.003978
      5         11           0       -2.055382   -1.621695   -0.076564
      6         11           0        1.313139   -2.905974    0.398419
      7         11           0       -3.764173    1.015868   -0.209600
 ---------------------------------------------------------------------

 SCF Done:  E(UB3LYP) =  -1136.12544212     A.U. after   21 cycles

 The electronic state is 2-A.
 Alpha  occ. eigenvalues --  -38.44907 -38.44671 -38.43931 -38.43675 -38.43576
 Alpha  occ. eigenvalues --  -38.43461 -38.43452  -2.20688  -2.20486  -2.19680
 Alpha  occ. eigenvalues --   -2.19594  -2.19428  -2.19381  -2.19301  -1.14371
 Alpha  occ. eigenvalues --   -1.14342  -1.14323  -1.14182  -1.14156  -1.14099
 Alpha  occ. eigenvalues --   -1.13354  -1.13346  -1.13318  -1.13317  -1.13245
 Alpha  occ. eigenvalues --   -1.13206  -1.13135  -1.13070  -1.13056  -1.13049
 Alpha  occ. eigenvalues --   -1.13016  -1.12997  -1.12961  -1.12953  -1.12945
 Alpha  occ. eigenvalues --   -0.18100  -0.13295  -0.12006  -0.10196
 Alpha virt. eigenvalues --   -0.06653  -0.05368  -0.04633  -0.03232  -0.02728
 Alpha virt. eigenvalues --   -0.02143  -0.02082  -0.01354  -0.00978  -0.00322
 Alpha virt. eigenvalues --   -0.00067   0.00272   0.00618   0.00688   0.00742

  Beta  occ. eigenvalues --  -38.44908 -38.44665 -38.43935 -38.43609 -38.43498
  Beta  occ. eigenvalues --  -38.43451 -38.43437  -2.20691  -2.20477  -2.19690
  Beta  occ. eigenvalues --   -2.19474  -2.19360  -2.19287  -2.19282  -1.14375
  Beta  occ. eigenvalues --   -1.14336  -1.14324  -1.14168  -1.14134  -1.14098
  Beta  occ. eigenvalues --   -1.13359  -1.13346  -1.13324  -1.13243  -1.13157
  Beta  occ. eigenvalues --   -1.13125  -1.13068  -1.13014  -1.12991  -1.12982
  Beta  occ. eigenvalues --   -1.12952  -1.12942  -1.12936  -1.12931  -1.12916
  Beta  occ. eigenvalues --   -0.17374  -0.13092  -0.11851
  Beta virt. eigenvalues --   -0.06579  -0.06371  -0.05230  -0.04603  -0.02534
  Beta virt. eigenvalues --   -0.02064  -0.02028  -0.01379  -0.01102  -0.00962
  Beta virt. eigenvalues --   -0.00337   0.00115   0.00312   0.00685   0.00769

 Mulliken charges and spin densities:
               1          2
     1  Na  -0.308531   0.480674
     2  Na  -0.172254  -0.127793
     3  Na   0.097552   0.383909
     4  Na   0.112429  -0.010373
     5  Na   0.250547   0.289637
     6  Na  -0.031419   0.096500
     7  Na   0.051675  -0.112554
 Sum of Mulliken charges =  -0.00000   1.00000

 Dipole moment (field-independent basis, Debye):
    X=             -0.1391    Y=              0.3568    Z=              0.0155  Tot=              0.3833
 Quadrupole moment (field-independent basis, Debye-Ang):
   XX=            -53.8821   YY=            -61.5309   ZZ=            -76.8261
   XY=             -4.5619   XZ=              1.5391   YZ=             -2.5322

 Normal termination of Gaussian 16 at Thu Dec  7 19:59:48 2023.
