 Gaussian 16, Revision B.01,
 Gaussian 16:  ES64L-G16RevB.01 20-Dec-2017

 -------------------------
 #P B3LYP/6-311+g(d) force
 -------------------------

 -----
 DPGEN
 -----
 Symbolic Z-matrix:
 Charge =  0 Multiplicity = 2

                         Standard orientation:
 ---------------------------------------------------------------------
 Center     Atomic      Atomic             Coordinates (Angstroms)
 Number     Number       Type             X           Y           Z
 ---------------------------------------------------------------------
      1         11           0        0.458384   -2.941301    0.202166
      2         11           0        3.183274   -0.450688   -0.115954
      3         11           0       -2.094335    2.185856    0.457458
      4         11           0       -3.446005   -0.790103   -0.147277
      5         11           0       -0.402671   -0.489842   -1.704990
      6         11           0        0.533120   -0.036366    1.840686
      7         11           0        1.768232    2.522444   -0.532090
 ---------------------------------------------------------------------

 SCF Done:  E(UB3LYP) =  -1136.13302536     A.U. after   21 cycles

 The electronic state is 2-A.
 Alpha  occ. eigenvalues --  -38.44710 -38.44540 -38.43753 -38.43486 -38.43383
 Alpha  occ. eigenvalues --  -38.43334 -38.43215  -2.20506  -2.20384  -2.19568
 Alpha  occ. eigenvalues --   -2.19391  -2.19300  -2.19155  -2.19068  -1.14179
 Alpha  occ. eigenvalues --   -1.14166  -1.14149  -1.14072  -1.14048  -1.14011
 Alpha  occ. eigenvalues --   -1.13242  -1.13230  -1.13206  -1.13089  -1.13041
 Alpha  occ. eigenvalues --   -1.13008  -1.12975  -1.12939  -1.12924  -1.12822
 Alpha  occ. eigenvalues --   -1.12816  -1.12799  -1.12740  -1.12733  -1.12688
 Alpha  occ. eigenvalues --   -0.18259  -0.13385  -0.12097  -0.10451
 Alpha virt. eigenvalues --   -0.06296  -0.05167  -0.04612  -0.03314  -0.02804
 Alpha virt. eigenvalues --   -0.02265  -0.01989  -0.01106  -0.00601  -0.00408
 Alpha virt. eigenvalues --   -0.00042   0.00328   0.00708   0.00775   0.00799

  Beta  occ. eigenvalues --  -38.44710 -38.44534 -38.43741 -38.43425 -38.43322
  Beta  occ. eigenvalues --  -38.43303 -38.43209  -2.20508  -2.20375  -2.19548
  Beta  occ. eigenvalues --   -2.19278  -2.19154  -2.19134  -2.19061  -1.14175
  Beta  occ. eigenvalues --   -1.14160  -1.14152  -1.14063  -1.14026  -1.14003
  Beta  occ. eigenvalues --   -1.13224  -1.13206  -1.13195  -1.13013  -1.12964
  Beta  occ. eigenvalues --   -1.12924  -1.12880  -1.12841  -1.12821  -1.12803
  Beta  occ. eigenvalues --   -1.12798  -1.12773  -1.12729  -1.12706  -1.12676
  Beta  occ. eigenvalues --   -0.17576  -0.13165  -0.11833
  Beta virt. eigenvalues --   -0.06688  -0.06208  -0.05080  -0.04532  -0.02616
  Beta virt. eigenvalues --   -0.02088  -0.01912  -0.01297  -0.01022  -0.00627
  Beta virt. eigenvalues --   -0.00417   0.00117   0.00368   0.00787   0.00827

 Mulliken charges and spin densities:
               1          2
     1  Na  -0.024612  -0.183342
     2  Na   0.280694   0.013412
     3  Na  -0.080295   0.028889
     4  Na   0.100328  -0.111391
     5  Na  -0.053367   0.604879
     6  Na  -0.023867   0.596045
     7  Na  -0.198883   0.051507
 Sum of Mulliken charges =  -0.00000   1.00000

 Dipole moment (field-independent basis, Debye):
    X=             -0.2543    Y=             -0.2948    Z=              0.0083  Tot=              0.3894
 Quadrupole moment (field-independent basis, Debye-Ang):
   XX=            -53.0104   YY=            -64.6248   ZZ=            -75.5295
   XY=              0.0216   XZ=             -1.4003   YZ=             -0.8341

 Normal termination of Gaussian 16 at Thu Dec  7 21:06:47 2023.
