 Gaussian 16, Revision B.01,
 Gaussian 16:  ES64L-G16RevB.01 20-Dec-2017

 -------------------------
 #P B3LYP/6-311+g(d) force
 -------------------------

 -----
 DPGEN
 -----
 Symbolic Z-matrix:
 Charge =  0 Multiplicity = 2

                         Standard orientation:
 ---------------------------------------------------------------------
 Center     Atomic      Atomic             Coordinates (Angstroms)
 Number     Number       Type             X           Y           Z
 ---------------------------------------------------------------------
      1         11           0       -1.626128    2.808889    0.233027
      2         11           0       -2.970104   -0.357348   -0.557728
      3         11           0       -0.863624   -2.734645    0.239300
      4         11           0        0.120349   -0.145620    2.118475
      5         11           0        2.406162    2.033875   -0.176635
      6         11           0        0.358383   -0.181112   -1.750177
      7         11           0        2.574962   -1.424039   -0.106262
 ---------------------------------------------------------------------

 SCF Done:  E(UB3LYP) =  -1136.13564515     A.U. after   19 cycles

 The electronic state is 2-A.
 Alpha  occ. eigenvalues --  -38.43984 -38.43894 -38.43783 -38.43704 -38.43695
 Alpha  occ. eigenvalues --  -38.43581 -38.43202  -2.19797  -2.19773  -2.19676
 Alpha  occ. eigenvalues --   -2.19548  -2.19542  -2.19467  -2.19087  -1.13494
 Alpha  occ. eigenvalues --   -1.13473  -1.13448  -1.13438  -1.13428  -1.13405
 Alpha  occ. eigenvalues --   -1.13391  -1.13324  -1.13279  -1.13239  -1.13215
 Alpha  occ. eigenvalues --   -1.13198  -1.13192  -1.13159  -1.13143  -1.13141
 Alpha  occ. eigenvalues --   -1.13117  -1.13110  -1.12765  -1.12746  -1.12721
 Alpha  occ. eigenvalues --   -0.18559  -0.13047  -0.12251  -0.11046
 Alpha virt. eigenvalues --   -0.05572  -0.05147  -0.04725  -0.03327  -0.02955
 Alpha virt. eigenvalues --   -0.02842  -0.01353  -0.01127  -0.00450  -0.00253
 Alpha virt. eigenvalues --   -0.00023   0.00368   0.00814   0.00864   0.00904

  Beta  occ. eigenvalues --  -38.43982 -38.43796 -38.43774 -38.43696 -38.43694
  Beta  occ. eigenvalues --  -38.43515 -38.43195  -2.19795  -2.19665  -2.19591
  Beta  occ. eigenvalues --   -2.19530  -2.19471  -2.19421  -2.19078  -1.13483
  Beta  occ. eigenvalues --   -1.13460  -1.13432  -1.13419  -1.13328  -1.13303
  Beta  occ. eigenvalues --   -1.13275  -1.13269  -1.13250  -1.13216  -1.13199
  Beta  occ. eigenvalues --   -1.13181  -1.13134  -1.13123  -1.13119  -1.13112
  Beta  occ. eigenvalues --   -1.13079  -1.13057  -1.12759  -1.12723  -1.12704
  Beta  occ. eigenvalues --   -0.17808  -0.12798  -0.12042
  Beta virt. eigenvalues --   -0.07113  -0.05577  -0.05061  -0.04650  -0.02550
  Beta virt. eigenvalues --   -0.02212  -0.01793  -0.01268  -0.01059  -0.00464
  Beta virt. eigenvalues --   -0.00298   0.00110   0.00398   0.00841   0.00906

 Mulliken charges and spin densities:
               1          2
     1  Na  -0.134300  -0.070653
     2  Na   0.000779  -0.008737
     3  Na   0.284990   0.025425
     4  Na  -0.434522   0.759268
     5  Na  -0.095079  -0.111572
     6  Na  -0.017477   0.443000
     7  Na   0.395609  -0.036732
 Sum of Mulliken charges =  -0.00000   1.00000

 Dipole moment (field-independent basis, Debye):
    X=              0.3117    Y=              0.1027    Z=              0.1025  Tot=              0.3438
 Quadrupole moment (field-independent basis, Debye-Ang):
   XX=            -59.4817   YY=            -62.5380   ZZ=            -72.8112
   XY=              0.6837   XZ=              0.7511   YZ=              0.1182

 Normal termination of Gaussian 16 at Tue Dec  5 21:44:03 2023.
