 Gaussian 16, Revision B.01,
 Gaussian 16:  ES64L-G16RevB.01 20-Dec-2017

 -------------------------
 #P B3LYP/6-311+g(d) force
 -------------------------

 -----
 DPGEN
 -----
 Symbolic Z-matrix:
 Charge =  0 Multiplicity = 2

                         Standard orientation:
 ---------------------------------------------------------------------
 Center     Atomic      Atomic             Coordinates (Angstroms)
 Number     Number       Type             X           Y           Z
 ---------------------------------------------------------------------
      1         11           0        2.489224    0.912114   -1.310252
      2         11           0       -3.058402   -2.007971   -0.776185
      3         11           0        3.232350   -1.814775    0.616603
      4         11           0       -0.500722    2.629648   -0.891170
      5         11           0       -0.322732   -1.478735   -0.438214
      6         11           0       -2.718391    0.904177    1.154469
      7         11           0        0.878672    0.855544    1.644748
 ---------------------------------------------------------------------

 SCF Done:  E(UB3LYP) =  -1136.12791658     A.U. after   21 cycles

 The electronic state is 2-A.
 Alpha  occ. eigenvalues --  -38.44274 -38.44232 -38.43975 -38.43792 -38.43570
 Alpha  occ. eigenvalues --  -38.43520 -38.43177  -2.20115  -2.20044  -2.19858
 Alpha  occ. eigenvalues --   -2.19711  -2.19512  -2.19393  -2.19030  -1.13798
 Alpha  occ. eigenvalues --   -1.13777  -1.13730  -1.13715  -1.13704  -1.13680
 Alpha  occ. eigenvalues --   -1.13538  -1.13531  -1.13460  -1.13441  -1.13389
 Alpha  occ. eigenvalues --   -1.13366  -1.13291  -1.13185  -1.13157  -1.13011
 Alpha  occ. eigenvalues --   -1.13004  -1.12927  -1.12700  -1.12692  -1.12669
 Alpha  occ. eigenvalues --   -0.18333  -0.13830  -0.12125  -0.10621
 Alpha virt. eigenvalues --   -0.06186  -0.05346  -0.04669  -0.03338  -0.02824
 Alpha virt. eigenvalues --   -0.02123  -0.01951  -0.01257  -0.00626  -0.00094
 Alpha virt. eigenvalues --    0.00042   0.00209   0.00421   0.00577   0.00774

  Beta  occ. eigenvalues --  -38.44248 -38.44219 -38.43926 -38.43744 -38.43554
  Beta  occ. eigenvalues --  -38.43504 -38.43161  -2.20069  -2.20021  -2.19769
  Beta  occ. eigenvalues --   -2.19625  -2.19485  -2.19364  -2.19004  -1.13760
  Beta  occ. eigenvalues --   -1.13747  -1.13697  -1.13695  -1.13682  -1.13662
  Beta  occ. eigenvalues --   -1.13483  -1.13465  -1.13396  -1.13384  -1.13355
  Beta  occ. eigenvalues --   -1.13291  -1.13226  -1.13148  -1.13135  -1.12989
  Beta  occ. eigenvalues --   -1.12982  -1.12909  -1.12684  -1.12679  -1.12622
  Beta  occ. eigenvalues --   -0.17722  -0.13604  -0.11752
  Beta virt. eigenvalues --   -0.06968  -0.06024  -0.05210  -0.04233  -0.02971
  Beta virt. eigenvalues --   -0.02252  -0.02005  -0.01340  -0.01036  -0.00317
  Beta virt. eigenvalues --   -0.00028   0.00157   0.00263   0.00564   0.00651

 Mulliken charges and spin densities:
               1          2
     1  Na   0.299283   0.230593
     2  Na  -0.044054   0.002492
     3  Na   1.263410   0.041419
     4  Na  -0.157458   0.110759
     5  Na  -1.512086   0.182930
     6  Na   0.351418   0.079297
     7  Na  -0.200513   0.352510
 Sum of Mulliken charges =  -0.00000   1.00000

 Dipole moment (field-independent basis, Debye):
    X=              0.2913    Y=              0.1452    Z=              0.2555  Tot=              0.4138
 Quadrupole moment (field-independent basis, Debye-Ang):
   XX=            -51.7759   YY=            -70.6026   ZZ=            -71.2979
   XY=             -4.5412   XZ=             -0.4272   YZ=             -1.0095

 Normal termination of Gaussian 16 at Fri Dec  8 05:18:04 2023.
