 Gaussian 16, Revision B.01,
 Gaussian 16:  ES64L-G16RevB.01 20-Dec-2017

 -------------------------
 #P B3LYP/6-311+g(d) force
 -------------------------

 -----
 DPGEN
 -----
 Symbolic Z-matrix:
 Charge =  0 Multiplicity = 2

                         Standard orientation:
 ---------------------------------------------------------------------
 Center     Atomic      Atomic             Coordinates (Angstroms)
 Number     Number       Type             X           Y           Z
 ---------------------------------------------------------------------
      1         11           0       -2.029556    1.534330    0.464626
      2         11           0        0.703891   -0.059995    2.014714
      3         11           0        1.008893    2.853074   -0.049284
      4         11           0        0.563155   -2.808218    0.336700
      5         11           0       -0.161589    0.133447   -1.777617
      6         11           0       -3.195177   -1.113487   -0.344825
      7         11           0        3.110383   -0.539151   -0.644314
 ---------------------------------------------------------------------

 SCF Done:  E(UB3LYP) =  -1136.13471718     A.U. after   20 cycles

 The electronic state is 2-A.
 Alpha  occ. eigenvalues --  -38.44369 -38.43793 -38.43676 -38.43636 -38.43556
 Alpha  occ. eigenvalues --  -38.43319 -38.43100  -2.20187  -2.19630  -2.19588
 Alpha  occ. eigenvalues --   -2.19572  -2.19392  -2.19265  -2.18950  -1.13865
 Alpha  occ. eigenvalues --   -1.13841  -1.13815  -1.13376  -1.13293  -1.13280
 Alpha  occ. eigenvalues --   -1.13264  -1.13253  -1.13225  -1.13219  -1.13214
 Alpha  occ. eigenvalues --   -1.13184  -1.13066  -1.13049  -1.13006  -1.12937
 Alpha  occ. eigenvalues --   -1.12920  -1.12882  -1.12622  -1.12608  -1.12591
 Alpha  occ. eigenvalues --   -0.18628  -0.13161  -0.12213  -0.11083
 Alpha virt. eigenvalues --   -0.05808  -0.04731  -0.04611  -0.03480  -0.02909
 Alpha virt. eigenvalues --   -0.02764  -0.01637  -0.01036  -0.00363  -0.00032
 Alpha virt. eigenvalues --    0.00026   0.00355   0.00802   0.00828   0.00924

  Beta  occ. eigenvalues --  -38.44351 -38.43793 -38.43589 -38.43570 -38.43546
  Beta  occ. eigenvalues --  -38.43308 -38.43098  -2.20156  -2.19632  -2.19454
  Beta  occ. eigenvalues --   -2.19428  -2.19378  -2.19248  -2.18951  -1.13829
  Beta  occ. eigenvalues --   -1.13822  -1.13793  -1.13378  -1.13274  -1.13256
  Beta  occ. eigenvalues --   -1.13198  -1.13175  -1.13137  -1.13117  -1.13106
  Beta  occ. eigenvalues --   -1.13094  -1.13035  -1.13015  -1.13000  -1.12925
  Beta  occ. eigenvalues --   -1.12893  -1.12861  -1.12620  -1.12601  -1.12580
  Beta  occ. eigenvalues --   -0.17890  -0.12932  -0.11980
  Beta virt. eigenvalues --   -0.07164  -0.05715  -0.04700  -0.04541  -0.02750
  Beta virt. eigenvalues --   -0.02186  -0.01762  -0.01483  -0.00987  -0.00332
  Beta virt. eigenvalues --    0.00005   0.00090   0.00385   0.00826   0.00922

 Mulliken charges and spin densities:
               1          2
     1  Na   0.195449   0.105511
     2  Na  -0.161142   0.472638
     3  Na   0.102925  -0.073921
     4  Na   0.017431  -0.026744
     5  Na  -0.280866   0.586851
     6  Na   0.072851  -0.054118
     7  Na   0.053353  -0.010216
 Sum of Mulliken charges =  -0.00000   1.00000

 Dipole moment (field-independent basis, Debye):
    X=              0.4583    Y=             -0.2611    Z=             -0.0835  Tot=              0.5340
 Quadrupole moment (field-independent basis, Debye-Ang):
   XX=            -57.5109   YY=            -64.7571   ZZ=            -72.1395
   XY=              1.8615   XZ=             -1.4946   YZ=              0.7255

 Normal termination of Gaussian 16 at Sun Dec  3 23:41:14 2023.
