 Gaussian 16, Revision B.01,
 Gaussian 16:  ES64L-G16RevB.01 20-Dec-2017

 -------------------------
 #P B3LYP/6-311+g(d) force
 -------------------------

 -----
 DPGEN
 -----
 Symbolic Z-matrix:
 Charge =  0 Multiplicity = 2

                         Standard orientation:
 ---------------------------------------------------------------------
 Center     Atomic      Atomic             Coordinates (Angstroms)
 Number     Number       Type             X           Y           Z
 ---------------------------------------------------------------------
      1         11           0        1.911045    2.354124   -0.277977
      2         11           0       -3.209885   -0.991039   -0.014338
      3         11           0        0.230739   -0.252999   -1.491754
      4         11           0       -0.084229   -2.681127    0.252667
      5         11           0        2.979949   -1.110183   -0.291692
      6         11           0       -2.304844    2.091489   -0.305489
      7         11           0        0.477225    0.589734    2.128582
 ---------------------------------------------------------------------

 SCF Done:  E(UB3LYP) =  -1136.13227122     A.U. after   20 cycles

 The electronic state is 2-A.
 Alpha  occ. eigenvalues --  -38.44325 -38.44194 -38.43942 -38.43597 -38.43560
 Alpha  occ. eigenvalues --  -38.43291 -38.43045  -2.20188  -2.20010  -2.19753
 Alpha  occ. eigenvalues --   -2.19447  -2.19433  -2.19306  -2.18932  -1.13896
 Alpha  occ. eigenvalues --   -1.13838  -1.13810  -1.13695  -1.13676  -1.13655
 Alpha  occ. eigenvalues --   -1.13425  -1.13413  -1.13383  -1.13161  -1.13136
 Alpha  occ. eigenvalues --   -1.13084  -1.13076  -1.13050  -1.13040  -1.13034
 Alpha  occ. eigenvalues --   -1.12947  -1.12924  -1.12619  -1.12579  -1.12542
 Alpha  occ. eigenvalues --   -0.18556  -0.13356  -0.12202  -0.10645
 Alpha virt. eigenvalues --   -0.05917  -0.05565  -0.04282  -0.03167  -0.02922
 Alpha virt. eigenvalues --   -0.02409  -0.01787  -0.01187  -0.00534  -0.00267
 Alpha virt. eigenvalues --   -0.00032   0.00316   0.00739   0.00828   0.00891

  Beta  occ. eigenvalues --  -38.44314 -38.44196 -38.43938 -38.43590 -38.43461
  Beta  occ. eigenvalues --  -38.43241 -38.43036  -2.20171  -2.20015  -2.19746
  Beta  occ. eigenvalues --   -2.19438  -2.19248  -2.19215  -2.18919  -1.13876
  Beta  occ. eigenvalues --   -1.13807  -1.13803  -1.13699  -1.13668  -1.13658
  Beta  occ. eigenvalues --   -1.13411  -1.13406  -1.13379  -1.13141  -1.13094
  Beta  occ. eigenvalues --   -1.13070  -1.12985  -1.12956  -1.12927  -1.12913
  Beta  occ. eigenvalues --   -1.12890  -1.12851  -1.12604  -1.12548  -1.12535
  Beta  occ. eigenvalues --   -0.17856  -0.13140  -0.11977
  Beta virt. eigenvalues --   -0.06717  -0.05836  -0.05543  -0.04237  -0.02485
  Beta virt. eigenvalues --   -0.02108  -0.01705  -0.01382  -0.01139  -0.00564
  Beta virt. eigenvalues --   -0.00278   0.00141   0.00364   0.00807   0.00835

 Mulliken charges and spin densities:
               1          2
     1  Na   0.202416  -0.075105
     2  Na  -0.035762  -0.019825
     3  Na  -0.341164   0.247883
     4  Na   0.130860   0.095149
     5  Na   0.494690   0.084171
     6  Na   0.141592  -0.037260
     7  Na  -0.592632   0.704987
 Sum of Mulliken charges =  -0.00000   1.00000

 Dipole moment (field-independent basis, Debye):
    X=              0.0872    Y=              0.0832    Z=              0.1284  Tot=              0.1761
 Quadrupole moment (field-independent basis, Debye-Ang):
   XX=            -53.6667   YY=            -64.9897   ZZ=            -74.8612
   XY=              0.1161   XZ=             -0.7360   YZ=             -1.8437

 Normal termination of Gaussian 16 at Fri Dec  8 06:54:31 2023.
