 Gaussian 16, Revision B.01,
 Gaussian 16:  ES64L-G16RevB.01 20-Dec-2017

 -------------------------
 #P B3LYP/6-311+g(d) force
 -------------------------

 -----
 DPGEN
 -----
 Symbolic Z-matrix:
 Charge =  0 Multiplicity = 2

                         Standard orientation:
 ---------------------------------------------------------------------
 Center     Atomic      Atomic             Coordinates (Angstroms)
 Number     Number       Type             X           Y           Z
 ---------------------------------------------------------------------
      1         11           0       -2.456841   -0.223526    0.870649
      2         11           0       -3.901737   -2.807585   -0.629660
      3         11           0        2.717942    0.226344    1.239150
      4         11           0       -2.776166    2.900107   -0.827984
      5         11           0        5.900805   -0.378645   -1.027556
      6         11           0        0.658501   -2.238383    0.165579
      7         11           0       -0.142504    2.521688    0.209822
 ---------------------------------------------------------------------

 SCF Done:  E(UB3LYP) =  -1136.11290038     A.U. after   19 cycles

 The electronic state is 2-A.
 Alpha  occ. eigenvalues --  -38.45037 -38.44791 -38.44216 -38.44143 -38.44099
 Alpha  occ. eigenvalues --  -38.44013 -38.43745  -2.20804  -2.20575  -2.20082
 Alpha  occ. eigenvalues --   -2.20006  -2.19869  -2.19848  -2.19533  -1.14488
 Alpha  occ. eigenvalues --   -1.14474  -1.14407  -1.14206  -1.14205  -1.14173
 Alpha  occ. eigenvalues --   -1.13946  -1.13723  -1.13717  -1.13660  -1.13644
 Alpha  occ. eigenvalues --   -1.13569  -1.13544  -1.13536  -1.13530  -1.13519
 Alpha  occ. eigenvalues --   -1.13506  -1.13429  -1.13213  -1.13205  -1.13179
 Alpha  occ. eigenvalues --   -0.16527  -0.13613  -0.12422  -0.11060
 Alpha virt. eigenvalues --   -0.06334  -0.05607  -0.04880  -0.03771  -0.02592
 Alpha virt. eigenvalues --   -0.02285  -0.02003  -0.01773  -0.01170  -0.00765
 Alpha virt. eigenvalues --   -0.00597  -0.00318  -0.00057   0.00264   0.00558

  Beta  occ. eigenvalues --  -38.45011 -38.44648 -38.44208 -38.44139 -38.44081
  Beta  occ. eigenvalues --  -38.44012 -38.43749  -2.20756  -2.20308  -2.20068
  Beta  occ. eigenvalues --   -2.20000  -2.19847  -2.19837  -2.19545  -1.14454
  Beta  occ. eigenvalues --   -1.14435  -1.14379  -1.14024  -1.14024  -1.13994
  Beta  occ. eigenvalues --   -1.13938  -1.13714  -1.13707  -1.13655  -1.13637
  Beta  occ. eigenvalues --   -1.13557  -1.13535  -1.13527  -1.13510  -1.13501
  Beta  occ. eigenvalues --   -1.13489  -1.13424  -1.13227  -1.13218  -1.13151
  Beta  occ. eigenvalues --   -0.16237  -0.12870  -0.12233
  Beta virt. eigenvalues --   -0.07276  -0.06087  -0.05451  -0.04452  -0.03639
  Beta virt. eigenvalues --   -0.02420  -0.02008  -0.01631  -0.01339  -0.00888
  Beta virt. eigenvalues --   -0.00604  -0.00168  -0.00003   0.00130   0.00455

 Mulliken charges and spin densities:
               1          2
     1  Na  -0.438695  -0.000916
     2  Na   0.145325   0.104906
     3  Na  -0.062349  -0.112770
     4  Na   0.712410   0.110730
     5  Na  -0.014066   0.756773
     6  Na   0.007131   0.121295
     7  Na  -0.349755   0.019983
 Sum of Mulliken charges =  -0.00000   1.00000

 Dipole moment (field-independent basis, Debye):
    X=             -1.0948    Y=             -0.0299    Z=             -0.5725  Tot=              1.2358
 Quadrupole moment (field-independent basis, Debye-Ang):
   XX=            -69.5707   YY=            -64.3562   ZZ=            -68.8005
   XY=             -0.7740   XZ=              3.9227   YZ=              2.3197

 Normal termination of Gaussian 16 at Tue Nov 28 22:02:22 2023.
