 Gaussian 16, Revision B.01,
 Gaussian 16:  ES64L-G16RevB.01 20-Dec-2017

 -------------------------
 #P B3LYP/6-311+g(d) force
 -------------------------

 -----
 DPGEN
 -----
 Symbolic Z-matrix:
 Charge =  0 Multiplicity = 2

                         Standard orientation:
 ---------------------------------------------------------------------
 Center     Atomic      Atomic             Coordinates (Angstroms)
 Number     Number       Type             X           Y           Z
 ---------------------------------------------------------------------
      1         11           0        1.132829    0.396919    1.880145
      2         11           0       -0.085223    2.986088   -0.518871
      3         11           0        2.857972    0.944338   -1.592749
      4         11           0       -3.869577   -0.795901   -1.120618
      5         11           0       -1.990304    1.123766    1.306511
      6         11           0        3.111850   -2.137499    0.162724
      7         11           0       -1.157546   -2.517711   -0.117142
 ---------------------------------------------------------------------

 SCF Done:  E(UB3LYP) =  -1136.12556563     A.U. after   19 cycles

 The electronic state is 2-A.
 Alpha  occ. eigenvalues --  -38.44518 -38.44375 -38.44046 -38.44040 -38.44026
 Alpha  occ. eigenvalues --  -38.43752 -38.43679  -2.20275  -2.20175  -2.19907
 Alpha  occ. eigenvalues --   -2.19844  -2.19804  -2.19630  -2.19492  -1.13971
 Alpha  occ. eigenvalues --   -1.13954  -1.13898  -1.13843  -1.13817  -1.13791
 Alpha  occ. eigenvalues --   -1.13613  -1.13557  -1.13523  -1.13504  -1.13493
 Alpha  occ. eigenvalues --   -1.13477  -1.13471  -1.13456  -1.13448  -1.13327
 Alpha  occ. eigenvalues --   -1.13316  -1.13238  -1.13163  -1.13142  -1.13120
 Alpha  occ. eigenvalues --   -0.17197  -0.13539  -0.12159  -0.10885
 Alpha virt. eigenvalues --   -0.06121  -0.05568  -0.04842  -0.03682  -0.03047
 Alpha virt. eigenvalues --   -0.02372  -0.01739  -0.01275  -0.00649  -0.00493
 Alpha virt. eigenvalues --   -0.00349   0.00236   0.00306   0.00421   0.00579

  Beta  occ. eigenvalues --  -38.44522 -38.44306 -38.44025 -38.44007 -38.43984
  Beta  occ. eigenvalues --  -38.43730 -38.43671  -2.20286  -2.20046  -2.19804
  Beta  occ. eigenvalues --   -2.19794  -2.19781  -2.19593  -2.19479  -1.13977
  Beta  occ. eigenvalues --   -1.13959  -1.13895  -1.13756  -1.13734  -1.13697
  Beta  occ. eigenvalues --   -1.13532  -1.13481  -1.13471  -1.13460  -1.13459
  Beta  occ. eigenvalues --   -1.13450  -1.13448  -1.13432  -1.13425  -1.13309
  Beta  occ. eigenvalues --   -1.13273  -1.13203  -1.13154  -1.13134  -1.13095
  Beta  occ. eigenvalues --   -0.16573  -0.13138  -0.11967
  Beta virt. eigenvalues --   -0.07327  -0.05955  -0.05320  -0.04281  -0.03476
  Beta virt. eigenvalues --   -0.02508  -0.01858  -0.01536  -0.01140  -0.00479
  Beta virt. eigenvalues --   -0.00372  -0.00094   0.00369   0.00473   0.00505

 Mulliken charges and spin densities:
               1          2
     1  Na  -0.157261   0.373065
     2  Na  -0.227828   0.057585
     3  Na  -0.109514   0.347642
     4  Na   0.385870   0.170787
     5  Na   0.299529   0.114177
     6  Na   0.324839  -0.008036
     7  Na  -0.515635  -0.055220
 Sum of Mulliken charges =  -0.00000   1.00000

 Dipole moment (field-independent basis, Debye):
    X=             -0.1025    Y=             -0.1898    Z=             -0.2488  Tot=              0.3293
 Quadrupole moment (field-independent basis, Debye-Ang):
   XX=            -60.5543   YY=            -67.9500   ZZ=            -69.6732
   XY=             -5.1137   XZ=              1.3221   YZ=             -1.1095

 Normal termination of Gaussian 16 at Sun Dec  3 23:25:39 2023.
