 Gaussian 16, Revision B.01,
 Gaussian 16:  ES64L-G16RevB.01 20-Dec-2017

 -------------------------
 #P B3LYP/6-311+g(d) force
 -------------------------

 -----
 DPGEN
 -----
 Symbolic Z-matrix:
 Charge =  0 Multiplicity = 2

                         Standard orientation:
 ---------------------------------------------------------------------
 Center     Atomic      Atomic             Coordinates (Angstroms)
 Number     Number       Type             X           Y           Z
 ---------------------------------------------------------------------
      1         11           0       -3.603107    1.830185    0.373436
      2         11           0        4.269516   -0.369622   -0.139739
      3         11           0        2.218813   -2.739316    1.026326
      4         11           0       -0.780141   -2.635819   -0.723317
      5         11           0       -0.501826    2.977743    0.601657
      6         11           0        2.362976    2.749818   -0.807755
      7         11           0       -3.966231   -1.812989   -0.330608
 ---------------------------------------------------------------------

 SCF Done:  E(UB3LYP) =  -1136.11001903     A.U. after   23 cycles

 The electronic state is 2-A.
 Alpha  occ. eigenvalues --  -38.45783 -38.44916 -38.44478 -38.44307 -38.44214
 Alpha  occ. eigenvalues --  -38.43988 -38.43544  -2.21541  -2.20699  -2.20272
 Alpha  occ. eigenvalues --   -2.20111  -2.20022  -2.19800  -2.19364  -1.15224
 Alpha  occ. eigenvalues --   -1.15202  -1.15182  -1.14379  -1.14369  -1.14337
 Alpha  occ. eigenvalues --   -1.13933  -1.13923  -1.13911  -1.13794  -1.13767
 Alpha  occ. eigenvalues --   -1.13734  -1.13701  -1.13691  -1.13659  -1.13452
 Alpha  occ. eigenvalues --   -1.13451  -1.13442  -1.13018  -1.13011  -1.12992
 Alpha  occ. eigenvalues --   -0.15836  -0.13954  -0.13453  -0.10580
 Alpha virt. eigenvalues --   -0.07774  -0.04768  -0.04280  -0.03730  -0.03499
 Alpha virt. eigenvalues --   -0.02427  -0.02257  -0.01639  -0.01038  -0.00816
 Alpha virt. eigenvalues --   -0.00536  -0.00242   0.00098   0.00496   0.00681

  Beta  occ. eigenvalues --  -38.45772 -38.44895 -38.44449 -38.44245 -38.44207
  Beta  occ. eigenvalues --  -38.43950 -38.43491  -2.21527  -2.20665  -2.20220
  Beta  occ. eigenvalues --   -2.20015  -2.19998  -2.19730  -2.19263  -1.15218
  Beta  occ. eigenvalues --   -1.15197  -1.15138  -1.14359  -1.14350  -1.14288
  Beta  occ. eigenvalues --   -1.13900  -1.13886  -1.13865  -1.13722  -1.13702
  Beta  occ. eigenvalues --   -1.13691  -1.13688  -1.13658  -1.13602  -1.13406
  Beta  occ. eigenvalues --   -1.13405  -1.13392  -1.12956  -1.12941  -1.12924
  Beta  occ. eigenvalues --   -0.15354  -0.13218  -0.12747
  Beta virt. eigenvalues --   -0.07946  -0.07403  -0.04389  -0.03734  -0.03544
  Beta virt. eigenvalues --   -0.03139  -0.02259  -0.02070  -0.01350  -0.00866
  Beta virt. eigenvalues --   -0.00499  -0.00345  -0.00097   0.00269   0.00587

 Mulliken charges and spin densities:
               1          2
     1  Na   0.119975   0.245159
     2  Na   0.027040   0.079173
     3  Na   0.311695   0.178863
     4  Na  -0.662268   0.159417
     5  Na  -0.491700   0.029394
     6  Na   0.370091   0.235998
     7  Na   0.325166   0.071996
 Sum of Mulliken charges =  -0.00000   1.00000

 Dipole moment (field-independent basis, Debye):
    X=              0.2643    Y=             -0.7427    Z=             -0.0344  Tot=              0.7891
 Quadrupole moment (field-independent basis, Debye-Ang):
   XX=            -52.9737   YY=            -74.9165   ZZ=            -71.5504
   XY=              0.4771   XZ=             -1.1749   YZ=             -0.5775

 Normal termination of Gaussian 16 at Sun Dec  3 11:59:45 2023.
