 Gaussian 16, Revision B.01,
 Gaussian 16:  ES64L-G16RevB.01 20-Dec-2017

 -------------------------
 #P B3LYP/6-311+g(d) force
 -------------------------

 -----
 DPGEN
 -----
 Symbolic Z-matrix:
 Charge =  0 Multiplicity = 2

                         Standard orientation:
 ---------------------------------------------------------------------
 Center     Atomic      Atomic             Coordinates (Angstroms)
 Number     Number       Type             X           Y           Z
 ---------------------------------------------------------------------
      1         11           0       -3.696545   -1.691026   -0.138291
      2         11           0        3.065427   -2.000909   -0.308536
      3         11           0        1.870327    0.943570    1.827101
      4         11           0       -0.057905   -1.914845    0.124086
      5         11           0       -1.770512    0.807858    0.954788
      6         11           0       -0.245561    3.499841   -0.710701
      7         11           0        0.834769    0.355511   -1.748447
 ---------------------------------------------------------------------

 SCF Done:  E(UB3LYP) =  -1136.13071751     A.U. after   19 cycles

 The electronic state is 2-A.
 Alpha  occ. eigenvalues --  -38.44125 -38.44092 -38.43846 -38.43833 -38.43561
 Alpha  occ. eigenvalues --  -38.43482 -38.43362  -2.19953  -2.19929  -2.19746
 Alpha  occ. eigenvalues --   -2.19635  -2.19429  -2.19364  -2.19254  -1.13627
 Alpha  occ. eigenvalues --   -1.13623  -1.13598  -1.13582  -1.13570  -1.13547
 Alpha  occ. eigenvalues --   -1.13498  -1.13388  -1.13332  -1.13313  -1.13298
 Alpha  occ. eigenvalues --   -1.13270  -1.13158  -1.13112  -1.13039  -1.13025
 Alpha  occ. eigenvalues --   -1.13002  -1.12995  -1.12959  -1.12927  -1.12831
 Alpha  occ. eigenvalues --   -0.18245  -0.13021  -0.12369  -0.10778
 Alpha virt. eigenvalues --   -0.06024  -0.05362  -0.04462  -0.03174  -0.02782
 Alpha virt. eigenvalues --   -0.02453  -0.01885  -0.01570  -0.00540  -0.00287
 Alpha virt. eigenvalues --    0.00132   0.00262   0.00593   0.00702   0.00768

  Beta  occ. eigenvalues --  -38.44091 -38.44037 -38.43853 -38.43769 -38.43549
  Beta  occ. eigenvalues --  -38.43469 -38.43347  -2.19930  -2.19790  -2.19649
  Beta  occ. eigenvalues --   -2.19629  -2.19410  -2.19344  -2.19228  -1.13629
  Beta  occ. eigenvalues --   -1.13578  -1.13554  -1.13507  -1.13483  -1.13439
  Beta  occ. eigenvalues --   -1.13424  -1.13322  -1.13306  -1.13305  -1.13278
  Beta  occ. eigenvalues --   -1.13246  -1.13142  -1.13059  -1.13027  -1.12997
  Beta  occ. eigenvalues --   -1.12994  -1.12983  -1.12943  -1.12888  -1.12820
  Beta  occ. eigenvalues --   -0.17539  -0.12873  -0.12151
  Beta virt. eigenvalues --   -0.06841  -0.05875  -0.05165  -0.04374  -0.02499
  Beta virt. eigenvalues --   -0.02313  -0.01946  -0.01595  -0.01295  -0.00379
  Beta virt. eigenvalues --   -0.00123   0.00215   0.00380   0.00725   0.00749

 Mulliken charges and spin densities:
               1          2
     1  Na   0.344414  -0.133988
     2  Na   1.253308   0.081719
     3  Na  -0.404126   0.370321
     4  Na  -0.871444   0.188244
     5  Na   0.003836   0.312213
     6  Na   0.027769  -0.090148
     7  Na  -0.353756   0.271639
 Sum of Mulliken charges =  -0.00000   1.00000

 Dipole moment (field-independent basis, Debye):
    X=              0.3811    Y=             -0.1077    Z=             -0.1984  Tot=              0.4429
 Quadrupole moment (field-independent basis, Debye-Ang):
   XX=            -55.5757   YY=            -62.4979   ZZ=            -73.4654
   XY=             -1.6125   XZ=              1.2886   YZ=              0.8852

 Normal termination of Gaussian 16 at Fri Dec  8 00:08:56 2023.
