 Gaussian 16, Revision B.01,
 Gaussian 16:  ES64L-G16RevB.01 20-Dec-2017

 -------------------------
 #P B3LYP/6-311+g(d) force
 -------------------------

 -----
 DPGEN
 -----
 Symbolic Z-matrix:
 Charge =  0 Multiplicity = 2

                         Standard orientation:
 ---------------------------------------------------------------------
 Center     Atomic      Atomic             Coordinates (Angstroms)
 Number     Number       Type             X           Y           Z
 ---------------------------------------------------------------------
      1         11           0        1.754656    1.473504    1.247498
      2         11           0        3.343258    0.103003   -1.782965
      3         11           0       -0.078047   -0.815137   -1.316580
      4         11           0        1.602526   -1.988808    1.168191
      5         11           0       -1.476518    2.660442   -0.123855
      6         11           0       -3.835214   -0.888729   -1.058775
      7         11           0       -1.310661   -0.544276    1.866486
 ---------------------------------------------------------------------

 SCF Done:  E(UB3LYP) =  -1136.12365676     A.U. after   28 cycles

 The electronic state is 2-A.
 Alpha  occ. eigenvalues --  -38.44935 -38.44548 -38.44412 -38.43850 -38.43822
 Alpha  occ. eigenvalues --  -38.43183 -38.43051  -2.20734  -2.20303  -2.20285
 Alpha  occ. eigenvalues --   -2.19741  -2.19708  -2.19021  -2.18829  -1.14400
 Alpha  occ. eigenvalues --   -1.14372  -1.14342  -1.14001  -1.13979  -1.13956
 Alpha  occ. eigenvalues --   -1.13932  -1.13915  -1.13894  -1.13493  -1.13405
 Alpha  occ. eigenvalues --   -1.13388  -1.13360  -1.13350  -1.13295  -1.12714
 Alpha  occ. eigenvalues --   -1.12693  -1.12640  -1.12518  -1.12485  -1.12456
 Alpha  occ. eigenvalues --   -0.18173  -0.13271  -0.11913  -0.10812
 Alpha virt. eigenvalues --   -0.06290  -0.05314  -0.04698  -0.03157  -0.02737
 Alpha virt. eigenvalues --   -0.02580  -0.02172  -0.01288  -0.00728  -0.00187
 Alpha virt. eigenvalues --    0.00128   0.00180   0.00309   0.00561   0.00612

  Beta  occ. eigenvalues --  -38.44871 -38.44529 -38.44362 -38.43806 -38.43804
  Beta  occ. eigenvalues --  -38.43175 -38.43049  -2.20614  -2.20267  -2.20198
  Beta  occ. eigenvalues --   -2.19680  -2.19661  -2.19010  -2.18824  -1.14311
  Beta  occ. eigenvalues --   -1.14289  -1.14267  -1.13952  -1.13940  -1.13932
  Beta  occ. eigenvalues --   -1.13903  -1.13839  -1.13831  -1.13452  -1.13363
  Beta  occ. eigenvalues --   -1.13339  -1.13319  -1.13291  -1.13261  -1.12699
  Beta  occ. eigenvalues --   -1.12667  -1.12639  -1.12512  -1.12483  -1.12451
  Beta  occ. eigenvalues --   -0.17406  -0.12897  -0.10679
  Beta virt. eigenvalues --   -0.08092  -0.06032  -0.04747  -0.04535  -0.02877
  Beta virt. eigenvalues --   -0.02175  -0.02093  -0.01858  -0.00924  -0.00616
  Beta virt. eigenvalues --   -0.00047   0.00213   0.00317   0.00346   0.00616

 Mulliken charges and spin densities:
               1          2
     1  Na  -0.145325   0.136225
     2  Na   0.125571   0.118105
     3  Na  -0.487469   0.344362
     4  Na   0.269816   0.212907
     5  Na  -0.252277  -0.055673
     6  Na   0.218406   0.103891
     7  Na   0.271278   0.140184
 Sum of Mulliken charges =  -0.00000   1.00000

 Dipole moment (field-independent basis, Debye):
    X=              0.1927    Y=             -0.3577    Z=             -0.2486  Tot=              0.4764
 Quadrupole moment (field-independent basis, Debye-Ang):
   XX=            -51.3859   YY=            -77.3394   ZZ=            -64.5652
   XY=             -0.2836   XZ=             -0.6150   YZ=             -4.8745

 Normal termination of Gaussian 16 at Tue Dec  5 13:15:01 2023.
