 Gaussian 16, Revision B.01,
 Gaussian 16:  ES64L-G16RevB.01 20-Dec-2017

 -------------------------
 #P B3LYP/6-311+g(d) force
 -------------------------

 -----
 DPGEN
 -----
 Symbolic Z-matrix:
 Charge =  0 Multiplicity = 2

                         Standard orientation:
 ---------------------------------------------------------------------
 Center     Atomic      Atomic             Coordinates (Angstroms)
 Number     Number       Type             X           Y           Z
 ---------------------------------------------------------------------
      1         11           0       -1.440986   -0.707979   -1.629830
      2         11           0        0.920553   -2.500501   -0.533237
      3         11           0        1.412243    1.940458   -0.946909
      4         11           0        3.716085   -0.332447    0.255958
      5         11           0        0.380071    0.240723    2.239716
      6         11           0       -3.388098   -1.040461    0.749365
      7         11           0       -1.599868    2.400208   -0.135063
 ---------------------------------------------------------------------

 SCF Done:  E(UB3LYP) =  -1136.12558996     A.U. after   21 cycles

 The electronic state is 2-A.
 Alpha  occ. eigenvalues --  -38.44984 -38.44822 -38.44646 -38.43682 -38.43399
 Alpha  occ. eigenvalues --  -38.43223 -38.43106  -2.20780  -2.20604  -2.20453
 Alpha  occ. eigenvalues --   -2.19499  -2.19325  -2.19087  -2.18966  -1.14474
 Alpha  occ. eigenvalues --   -1.14423  -1.14414  -1.14283  -1.14261  -1.14241
 Alpha  occ. eigenvalues --   -1.14118  -1.14090  -1.14066  -1.13236  -1.13162
 Alpha  occ. eigenvalues --   -1.13111  -1.12990  -1.12981  -1.12936  -1.12805
 Alpha  occ. eigenvalues --   -1.12744  -1.12734  -1.12630  -1.12619  -1.12584
 Alpha  occ. eigenvalues --   -0.18012  -0.13363  -0.11799  -0.11008
 Alpha virt. eigenvalues --   -0.06805  -0.04984  -0.04320  -0.03549  -0.02894
 Alpha virt. eigenvalues --   -0.02759  -0.02213  -0.00961  -0.00578  -0.00212
 Alpha virt. eigenvalues --    0.00036   0.00210   0.00321   0.00743   0.00799

  Beta  occ. eigenvalues --  -38.44973 -38.44826 -38.44560 -38.43666 -38.43357
  Beta  occ. eigenvalues --  -38.43203 -38.43101  -2.20759  -2.20612  -2.20292
  Beta  occ. eigenvalues --   -2.19471  -2.19248  -2.19051  -2.18960  -1.14458
  Beta  occ. eigenvalues --   -1.14407  -1.14393  -1.14285  -1.14262  -1.14247
  Beta  occ. eigenvalues --   -1.14010  -1.13980  -1.13948  -1.13206  -1.13130
  Beta  occ. eigenvalues --   -1.13095  -1.12937  -1.12926  -1.12879  -1.12786
  Beta  occ. eigenvalues --   -1.12716  -1.12698  -1.12621  -1.12603  -1.12572
  Beta  occ. eigenvalues --   -0.17306  -0.13259  -0.11538
  Beta virt. eigenvalues --   -0.07216  -0.06552  -0.04980  -0.03906  -0.03187
  Beta virt. eigenvalues --   -0.02255  -0.02005  -0.01802  -0.00897  -0.00431
  Beta virt. eigenvalues --   -0.00115   0.00043   0.00272   0.00475   0.00823

 Mulliken charges and spin densities:
               1          2
     1  Na   0.314258   0.118930
     2  Na  -0.203927   0.032833
     3  Na  -0.286453   0.090999
     4  Na   0.367267   0.015163
     5  Na  -0.395737   0.627776
     6  Na   0.084163   0.077277
     7  Na   0.120429   0.037020
 Sum of Mulliken charges =  -0.00000   1.00000

 Dipole moment (field-independent basis, Debye):
    X=              0.1753    Y=             -0.2009    Z=              0.5987  Tot=              0.6554
 Quadrupole moment (field-independent basis, Debye-Ang):
   XX=            -50.0894   YY=            -73.3822   ZZ=            -71.1718
   XY=             -0.0808   XZ=             -2.1288   YZ=             -1.4370

 Normal termination of Gaussian 16 at Thu Dec  7 23:26:22 2023.
