 Gaussian 16, Revision B.01,
 Gaussian 16:  ES64L-G16RevB.01 20-Dec-2017

 -------------------------
 #P B3LYP/6-311+g(d) force
 -------------------------

 -----
 DPGEN
 -----
 Symbolic Z-matrix:
 Charge =  0 Multiplicity = 2

                         Standard orientation:
 ---------------------------------------------------------------------
 Center     Atomic      Atomic             Coordinates (Angstroms)
 Number     Number       Type             X           Y           Z
 ---------------------------------------------------------------------
      1         11           0       -0.510661    3.669926   -0.114111
      2         11           0       -3.218903    0.592838   -0.192444
      3         11           0        0.915280   -1.769974    0.995086
      4         11           0       -3.547243   -2.926238   -0.735318
      5         11           0        3.957284   -2.102949   -0.152405
      6         11           0        2.348335    1.396984   -1.572522
      7         11           0        0.055908    1.139414    1.771714
 ---------------------------------------------------------------------

 SCF Done:  E(UB3LYP) =  -1136.11272262     A.U. after   21 cycles

 The electronic state is 2-A.
 Alpha  occ. eigenvalues --  -38.45180 -38.44952 -38.44430 -38.44304 -38.44094
 Alpha  occ. eigenvalues --  -38.44015 -38.43832  -2.20935  -2.20717  -2.20179
 Alpha  occ. eigenvalues --   -2.20105  -2.19988  -2.19863  -2.19584  -1.14617
 Alpha  occ. eigenvalues --   -1.14588  -1.14529  -1.14392  -1.14384  -1.14353
 Alpha  occ. eigenvalues --   -1.13876  -1.13855  -1.13816  -1.13792  -1.13762
 Alpha  occ. eigenvalues --   -1.13745  -1.13719  -1.13617  -1.13597  -1.13518
 Alpha  occ. eigenvalues --   -1.13507  -1.13462  -1.13249  -1.13242  -1.13207
 Alpha  occ. eigenvalues --   -0.16916  -0.13188  -0.12289  -0.10741
 Alpha virt. eigenvalues --   -0.06993  -0.05655  -0.04865  -0.03358  -0.03179
 Alpha virt. eigenvalues --   -0.02351  -0.01773  -0.01537  -0.01455  -0.00903
 Alpha virt. eigenvalues --   -0.00170   0.00040   0.00244   0.00442   0.00556

  Beta  occ. eigenvalues --  -38.45109 -38.44956 -38.44432 -38.44305 -38.44025
  Beta  occ. eigenvalues --  -38.43971 -38.43804  -2.20803  -2.20725  -2.20183
  Beta  occ. eigenvalues --   -2.20107  -2.19864  -2.19785  -2.19531  -1.14528
  Beta  occ. eigenvalues --   -1.14498  -1.14434  -1.14398  -1.14386  -1.14354
  Beta  occ. eigenvalues --   -1.13878  -1.13858  -1.13803  -1.13789  -1.13764
  Beta  occ. eigenvalues --   -1.13739  -1.13634  -1.13538  -1.13514  -1.13463
  Beta  occ. eigenvalues --   -1.13433  -1.13412  -1.13213  -1.13205  -1.13173
  Beta  occ. eigenvalues --   -0.16249  -0.13125  -0.11793
  Beta virt. eigenvalues --   -0.07245  -0.06672  -0.05437  -0.04478  -0.03002
  Beta virt. eigenvalues --   -0.02652  -0.02220  -0.01479  -0.01364  -0.01291
  Beta virt. eigenvalues --   -0.00601   0.00000   0.00174   0.00347   0.00573

 Mulliken charges and spin densities:
               1          2
     1  Na   0.348846   0.112149
     2  Na  -0.363467  -0.048384
     3  Na  -0.772081   0.160220
     4  Na   0.275935   0.166677
     5  Na   0.326413  -0.037783
     6  Na  -0.157497   0.400841
     7  Na   0.341851   0.246279
 Sum of Mulliken charges =  -0.00000   1.00000

 Dipole moment (field-independent basis, Debye):
    X=              1.2470    Y=              0.4378    Z=             -0.1449  Tot=              1.3296
 Quadrupole moment (field-independent basis, Debye-Ang):
   XX=            -65.6461   YY=            -57.9632   ZZ=            -73.6387
   XY=             -8.3669   XZ=             -0.6438   YZ=              0.4011

 Normal termination of Gaussian 16 at Sun Dec  3 12:38:27 2023.
