 Gaussian 16, Revision B.01,
 Gaussian 16:  ES64L-G16RevB.01 20-Dec-2017

 -------------------------
 #P B3LYP/6-311+g(d) force
 -------------------------

 -----
 DPGEN
 -----
 Symbolic Z-matrix:
 Charge =  0 Multiplicity = 2

                         Standard orientation:
 ---------------------------------------------------------------------
 Center     Atomic      Atomic             Coordinates (Angstroms)
 Number     Number       Type             X           Y           Z
 ---------------------------------------------------------------------
      1         11           0        1.814942    2.176874   -0.732862
      2         11           0       -2.895690    0.214739   -0.421037
      3         11           0       -0.825431    2.377231    0.710558
      4         11           0        0.802642    0.092197    1.812406
      5         11           0       -0.354223   -0.567193   -1.767922
      6         11           0       -1.253584   -2.522201    0.621692
      7         11           0        2.711345   -1.771648   -0.222835
 ---------------------------------------------------------------------

 SCF Done:  E(UB3LYP) =  -1136.13017304     A.U. after   19 cycles

 The electronic state is 2-A.
 Alpha  occ. eigenvalues --  -38.43958 -38.43925 -38.43894 -38.43548 -38.43478
 Alpha  occ. eigenvalues --  -38.43420 -38.43148  -2.19819  -2.19801  -2.19695
 Alpha  occ. eigenvalues --   -2.19470  -2.19448  -2.19388  -2.19113  -1.13521
 Alpha  occ. eigenvalues --   -1.13517  -1.13492  -1.13452  -1.13437  -1.13429
 Alpha  occ. eigenvalues --   -1.13381  -1.13355  -1.13331  -1.13290  -1.13137
 Alpha  occ. eigenvalues --   -1.13122  -1.13104  -1.13083  -1.13066  -1.13019
 Alpha  occ. eigenvalues --   -1.13006  -1.13005  -1.12765  -1.12753  -1.12725
 Alpha  occ. eigenvalues --   -0.19015  -0.12973  -0.12590  -0.11174
 Alpha virt. eigenvalues --   -0.05591  -0.04935  -0.04314  -0.03537  -0.03179
 Alpha virt. eigenvalues --   -0.02672  -0.01306  -0.01117  -0.00206   0.00099
 Alpha virt. eigenvalues --    0.00181   0.00402   0.00805   0.00870   0.00928

  Beta  occ. eigenvalues --  -38.43944 -38.43908 -38.43893 -38.43540 -38.43412
  Beta  occ. eigenvalues --  -38.43349 -38.43131  -2.19795  -2.19771  -2.19695
  Beta  occ. eigenvalues --   -2.19455  -2.19333  -2.19259  -2.19086  -1.13505
  Beta  occ. eigenvalues --   -1.13501  -1.13455  -1.13421  -1.13413  -1.13409
  Beta  occ. eigenvalues --   -1.13373  -1.13351  -1.13328  -1.13248  -1.13116
  Beta  occ. eigenvalues --   -1.13074  -1.13044  -1.13019  -1.12985  -1.12941
  Beta  occ. eigenvalues --   -1.12929  -1.12909  -1.12740  -1.12724  -1.12688
  Beta  occ. eigenvalues --   -0.18266  -0.12757  -0.12363
  Beta virt. eigenvalues --   -0.07223  -0.05562  -0.04790  -0.04286  -0.02792
  Beta virt. eigenvalues --   -0.02460  -0.01651  -0.01229  -0.01018  -0.00087
  Beta virt. eigenvalues --    0.00110   0.00200   0.00437   0.00832   0.00922

 Mulliken charges and spin densities:
               1          2
     1  Na  -0.197651   0.103788
     2  Na   0.263176   0.091376
     3  Na   0.286943   0.078637
     4  Na   0.071761   0.425630
     5  Na  -0.128011   0.416140
     6  Na  -0.139923  -0.045310
     7  Na  -0.156295  -0.070260
 Sum of Mulliken charges =  -0.00000   1.00000

 Dipole moment (field-independent basis, Debye):
    X=              0.2930    Y=             -0.3969    Z=             -0.1093  Tot=              0.5053
 Quadrupole moment (field-independent basis, Debye-Ang):
   XX=            -60.0098   YY=            -63.3127   ZZ=            -71.3148
   XY=              0.0602   XZ=             -2.5387   YZ=             -1.8534

 Normal termination of Gaussian 16 at Sun Dec  3 14:23:16 2023.
