 Gaussian 16, Revision B.01,
 Gaussian 16:  ES64L-G16RevB.01 20-Dec-2017

 -------------------------
 #P B3LYP/6-311+g(d) force
 -------------------------

 -----
 DPGEN
 -----
 Symbolic Z-matrix:
 Charge =  0 Multiplicity = 2

                         Standard orientation:
 ---------------------------------------------------------------------
 Center     Atomic      Atomic             Coordinates (Angstroms)
 Number     Number       Type             X           Y           Z
 ---------------------------------------------------------------------
      1         11           0       -0.832615   -0.953956    1.438833
      2         11           0       -0.539718   -0.885679   -1.479696
      3         11           0       -3.102772    0.074381   -0.127639
      4         11           0       -0.550682    1.876074   -0.071292
      5         11           0        1.588938   -1.636281    0.107314
      6         11           0        1.566326    0.860782    1.493238
      7         11           0        1.870524    0.664679   -1.360758
 ---------------------------------------------------------------------

 SCF Done:  E(UB3LYP) =  -1136.07964300     A.U. after   24 cycles

 The electronic state is 2-A.
 Alpha  occ. eigenvalues --  -38.44457 -38.44407 -38.44188 -38.43944 -38.43905
 Alpha  occ. eigenvalues --  -38.43396 -38.42486  -2.20635  -2.20367  -2.20354
 Alpha  occ. eigenvalues --   -2.20152  -2.20124  -2.19599  -2.18620  -1.14530
 Alpha  occ. eigenvalues --   -1.14378  -1.14270  -1.14175  -1.14151  -1.14059
 Alpha  occ. eigenvalues --   -1.14029  -1.14016  -1.13983  -1.13913  -1.13797
 Alpha  occ. eigenvalues --   -1.13750  -1.13745  -1.13700  -1.13632  -1.13214
 Alpha  occ. eigenvalues --   -1.13192  -1.13138  -1.12338  -1.12287  -1.12205
 Alpha  occ. eigenvalues --   -0.21630  -0.14194  -0.13055  -0.11862
 Alpha virt. eigenvalues --   -0.05845  -0.04240  -0.03826  -0.03732  -0.02930
 Alpha virt. eigenvalues --   -0.02835  -0.01377  -0.00444  -0.00181   0.00281
 Alpha virt. eigenvalues --    0.00632   0.00843   0.01019   0.01058   0.01083

  Beta  occ. eigenvalues --  -38.44406 -38.44401 -38.44130 -38.43881 -38.43843
  Beta  occ. eigenvalues --  -38.43378 -38.42469  -2.20538  -2.20366  -2.20253
  Beta  occ. eigenvalues --   -2.20043  -2.20013  -2.19574  -2.18596  -1.14475
  Beta  occ. eigenvalues --   -1.14279  -1.14202  -1.14151  -1.14077  -1.14033
  Beta  occ. eigenvalues --   -1.13985  -1.13966  -1.13946  -1.13833  -1.13726
  Beta  occ. eigenvalues --   -1.13685  -1.13646  -1.13623  -1.13533  -1.13202
  Beta  occ. eigenvalues --   -1.13134  -1.13093  -1.12329  -1.12220  -1.12191
  Beta  occ. eigenvalues --   -0.20724  -0.13998  -0.11607
  Beta virt. eigenvalues --   -0.08505  -0.05739  -0.03768  -0.03515  -0.03327
  Beta virt. eigenvalues --   -0.02163  -0.01980  -0.01315  -0.00184  -0.00125
  Beta virt. eigenvalues --    0.00322   0.00699   0.01013   0.01056   0.01096

 Mulliken charges and spin densities:
               1          2
     1  Na  -0.552381   0.207358
     2  Na  -0.373217   0.402860
     3  Na   0.803701  -0.038646
     4  Na  -0.784986   0.188129
     5  Na   0.315295  -0.043077
     6  Na   0.400758   0.226246
     7  Na   0.190830   0.057130
 Sum of Mulliken charges =  -0.00000   1.00000

 Dipole moment (field-independent basis, Debye):
    X=             -0.5921    Y=              0.1738    Z=              0.0293  Tot=              0.6178
 Quadrupole moment (field-independent basis, Debye-Ang):
   XX=            -55.9055   YY=            -77.2027   ZZ=            -63.8358
   XY=             -0.1367   XZ=              0.1730   YZ=             -1.1252

 Normal termination of Gaussian 16 at Fri Dec  8 19:01:24 2023.
