 Gaussian 16, Revision B.01,
 Gaussian 16:  ES64L-G16RevB.01 20-Dec-2017

 -------------------------
 #P B3LYP/6-311+g(d) force
 -------------------------

 -----
 DPGEN
 -----
 Symbolic Z-matrix:
 Charge =  0 Multiplicity = 2

                         Standard orientation:
 ---------------------------------------------------------------------
 Center     Atomic      Atomic             Coordinates (Angstroms)
 Number     Number       Type             X           Y           Z
 ---------------------------------------------------------------------
      1         11           0       -2.511653   -1.257473    0.432480
      2         11           0       -5.389957    0.315414   -0.288806
      3         11           0        3.937325   -1.234247   -0.346942
      4         11           0        0.613984   -0.498704    2.106598
      5         11           0       -0.398712    1.859288   -0.681970
      6         11           0        2.758880    2.058638    0.305072
      7         11           0        0.990133   -1.242916   -1.526432
 ---------------------------------------------------------------------

 SCF Done:  E(UB3LYP) =  -1136.10792146     A.U. after   27 cycles

 The electronic state is 2-A.
 Alpha  occ. eigenvalues --  -38.46262 -38.45197 -38.44735 -38.43698 -38.43597
 Alpha  occ. eigenvalues --  -38.43580 -38.43077  -2.22073  -2.21035  -2.20532
 Alpha  occ. eigenvalues --   -2.19527  -2.19426  -2.19414  -2.18919  -1.15730
 Alpha  occ. eigenvalues --   -1.15715  -1.15691  -1.14710  -1.14693  -1.14676
 Alpha  occ. eigenvalues --   -1.14171  -1.14166  -1.14151  -1.13253  -1.13183
 Alpha  occ. eigenvalues --   -1.13162  -1.13110  -1.13105  -1.13081  -1.13067
 Alpha  occ. eigenvalues --   -1.13067  -1.13032  -1.12591  -1.12569  -1.12559
 Alpha  occ. eigenvalues --   -0.17928  -0.13965  -0.11345  -0.10855
 Alpha virt. eigenvalues --   -0.08209  -0.05032  -0.04271  -0.03398  -0.03072
 Alpha virt. eigenvalues --   -0.02350  -0.02258  -0.02045  -0.01344  -0.01042
 Alpha virt. eigenvalues --   -0.00221   0.00118   0.00156   0.00613   0.00687

  Beta  occ. eigenvalues --  -38.46198 -38.45189 -38.44638 -38.43711 -38.43592
  Beta  occ. eigenvalues --  -38.43551 -38.43057  -2.21958  -2.21022  -2.20351
  Beta  occ. eigenvalues --   -2.19553  -2.19414  -2.19373  -2.18883  -1.15641
  Beta  occ. eigenvalues --   -1.15637  -1.15609  -1.14709  -1.14688  -1.14643
  Beta  occ. eigenvalues --   -1.14048  -1.14042  -1.14032  -1.13272  -1.13194
  Beta  occ. eigenvalues --   -1.13172  -1.13118  -1.13091  -1.13071  -1.13034
  Beta  occ. eigenvalues --   -1.13004  -1.12998  -1.12564  -1.12547  -1.12529
  Beta  occ. eigenvalues --   -0.17456  -0.13138  -0.10706
  Beta virt. eigenvalues --   -0.07983  -0.07806  -0.04546  -0.04009  -0.03164
  Beta virt. eigenvalues --   -0.02897  -0.02126  -0.02002  -0.01435  -0.00918
  Beta virt. eigenvalues --   -0.00732  -0.00085   0.00191   0.00263   0.00680

 Mulliken charges and spin densities:
               1          2
     1  Na  -0.147609   0.139691
     2  Na   0.108764   0.419140
     3  Na  -0.045907   0.044503
     4  Na   0.047145   0.152501
     5  Na  -0.335129  -0.134198
     6  Na   0.216064   0.296699
     7  Na   0.156672   0.081664
 Sum of Mulliken charges =  -0.00000   1.00000

 Dipole moment (field-independent basis, Debye):
    X=             -0.0692    Y=              0.2652    Z=              0.9520  Tot=              0.9906
 Quadrupole moment (field-independent basis, Debye-Ang):
   XX=            -63.8917   YY=            -80.8607   ZZ=            -60.6484
   XY=              0.4294   XZ=              6.1399   YZ=             -2.7354

 Normal termination of Gaussian 16 at Thu Dec  7 14:09:15 2023.
