 Gaussian 16, Revision B.01,
 Gaussian 16:  ES64L-G16RevB.01 20-Dec-2017

 -------------------------
 #P B3LYP/6-311+g(d) force
 -------------------------

 -----
 DPGEN
 -----
 Symbolic Z-matrix:
 Charge =  0 Multiplicity = 2

                         Standard orientation:
 ---------------------------------------------------------------------
 Center     Atomic      Atomic             Coordinates (Angstroms)
 Number     Number       Type             X           Y           Z
 ---------------------------------------------------------------------
      1         11           0       -3.312155   -0.430236   -0.209748
      2         11           0        2.078724    1.943553    0.060909
      3         11           0       -0.766308   -2.757141   -0.063308
      4         11           0       -1.225016    2.846894   -0.163292
      5         11           0        0.099576    0.022727   -1.418174
      6         11           0        2.919897   -1.384714   -0.477732
      7         11           0        0.205282   -0.241084    2.271346
 ---------------------------------------------------------------------

 SCF Done:  E(UB3LYP) =  -1136.13596193     A.U. after   19 cycles

 The electronic state is 2-A.
 Alpha  occ. eigenvalues --  -38.44224 -38.43844 -38.43824 -38.43555 -38.43515
 Alpha  occ. eigenvalues --  -38.43416 -38.43041  -2.20014  -2.19681  -2.19674
 Alpha  occ. eigenvalues --   -2.19445  -2.19371  -2.19238  -2.19067  -1.13690
 Alpha  occ. eigenvalues --   -1.13668  -1.13659  -1.13362  -1.13337  -1.13327
 Alpha  occ. eigenvalues --   -1.13312  -1.13305  -1.13295  -1.13172  -1.13105
 Alpha  occ. eigenvalues --   -1.13086  -1.13062  -1.13036  -1.12983  -1.12927
 Alpha  occ. eigenvalues --   -1.12897  -1.12870  -1.12751  -1.12709  -1.12676
 Alpha  occ. eigenvalues --   -0.18501  -0.12938  -0.12409  -0.10784
 Alpha virt. eigenvalues --   -0.05708  -0.05149  -0.04748  -0.03080  -0.02791
 Alpha virt. eigenvalues --   -0.02666  -0.01657  -0.01150  -0.00460  -0.00363
 Alpha virt. eigenvalues --   -0.00040   0.00318   0.00764   0.00853   0.00878

  Beta  occ. eigenvalues --  -38.44223 -38.43833 -38.43711 -38.43548 -38.43510
  Beta  occ. eigenvalues --  -38.43415 -38.42995  -2.20014  -2.19657  -2.19471
  Beta  occ. eigenvalues --   -2.19436  -2.19364  -2.19239  -2.18985  -1.13679
  Beta  occ. eigenvalues --   -1.13668  -1.13661  -1.13342  -1.13313  -1.13296
  Beta  occ. eigenvalues --   -1.13198  -1.13168  -1.13153  -1.13151  -1.13078
  Beta  occ. eigenvalues --   -1.13070  -1.13060  -1.13006  -1.12984  -1.12921
  Beta  occ. eigenvalues --   -1.12889  -1.12872  -1.12690  -1.12654  -1.12612
  Beta  occ. eigenvalues --   -0.17795  -0.12725  -0.12195
  Beta virt. eigenvalues --   -0.06787  -0.05666  -0.05134  -0.04692  -0.02316
  Beta virt. eigenvalues --   -0.02065  -0.01598  -0.01530  -0.01094  -0.00486
  Beta virt. eigenvalues --   -0.00404   0.00133   0.00364   0.00820   0.00870

 Mulliken charges and spin densities:
               1          2
     1  Na   0.050796  -0.024361
     2  Na   0.349492   0.113219
     3  Na   0.252680   0.021646
     4  Na   0.055845  -0.019721
     5  Na  -0.465151   0.148967
     6  Na   0.309849   0.055078
     7  Na  -0.553512   0.705172
 Sum of Mulliken charges =  -0.00000   1.00000

 Dipole moment (field-independent basis, Debye):
    X=             -0.1308    Y=             -0.1397    Z=              0.2112  Tot=              0.2850
 Quadrupole moment (field-independent basis, Debye-Ang):
   XX=            -55.6475   YY=            -62.7648   ZZ=            -74.7021
   XY=             -0.9371   XZ=             -0.2875   YZ=              0.7349

 Normal termination of Gaussian 16 at Fri Dec  8 07:22:33 2023.
