 Gaussian 16, Revision B.01,
 Gaussian 16:  ES64L-G16RevB.01 20-Dec-2017

 -------------------------
 #P B3LYP/6-311+g(d) force
 -------------------------

 -----
 DPGEN
 -----
 Symbolic Z-matrix:
 Charge =  0 Multiplicity = 2

                         Standard orientation:
 ---------------------------------------------------------------------
 Center     Atomic      Atomic             Coordinates (Angstroms)
 Number     Number       Type             X           Y           Z
 ---------------------------------------------------------------------
      1         11           0       -2.576749    1.643549    0.131134
      2         11           0        0.009928    0.143320   -1.594546
      3         11           0        0.175012    2.720310   -0.177070
      4         11           0        3.083755    0.949565    0.463417
      5         11           0       -2.677428   -2.131071   -0.125949
      6         11           0        2.031345   -2.421056   -0.636337
      7         11           0       -0.045864   -0.904617    1.939351
 ---------------------------------------------------------------------

 SCF Done:  E(UB3LYP) =  -1136.12906890     A.U. after   20 cycles

 The electronic state is 2-A.
 Alpha  occ. eigenvalues --  -38.44283 -38.44244 -38.44134 -38.44045 -38.43625
 Alpha  occ. eigenvalues --  -38.43249 -38.43109  -2.20056  -2.20048  -2.19944
 Alpha  occ. eigenvalues --   -2.19913  -2.19473  -2.19230  -2.19050  -1.13731
 Alpha  occ. eigenvalues --   -1.13716  -1.13712  -1.13708  -1.13707  -1.13688
 Alpha  occ. eigenvalues --   -1.13643  -1.13622  -1.13597  -1.13571  -1.13570
 Alpha  occ. eigenvalues --   -1.13533  -1.13151  -1.13117  -1.13083  -1.13024
 Alpha  occ. eigenvalues --   -1.12883  -1.12832  -1.12700  -1.12677  -1.12657
 Alpha  occ. eigenvalues --   -0.18363  -0.13038  -0.12453  -0.10435
 Alpha virt. eigenvalues --   -0.06121  -0.05503  -0.04437  -0.03201  -0.02948
 Alpha virt. eigenvalues --   -0.02270  -0.01750  -0.01429  -0.00612  -0.00245
 Alpha virt. eigenvalues --   -0.00002   0.00328   0.00683   0.00775   0.00833

  Beta  occ. eigenvalues --  -38.44287 -38.44231 -38.44113 -38.44043 -38.43555
  Beta  occ. eigenvalues --  -38.43183 -38.43103  -2.20064  -2.20026  -2.19912
  Beta  occ. eigenvalues --   -2.19906  -2.19343  -2.19112  -2.19042  -1.13722
  Beta  occ. eigenvalues --   -1.13715  -1.13712  -1.13701  -1.13681  -1.13674
  Beta  occ. eigenvalues --   -1.13645  -1.13586  -1.13563  -1.13555  -1.13547
  Beta  occ. eigenvalues --   -1.13530  -1.13064  -1.13024  -1.12987  -1.12957
  Beta  occ. eigenvalues --   -1.12802  -1.12751  -1.12694  -1.12650  -1.12623
  Beta  occ. eigenvalues --   -0.17689  -0.12809  -0.12218
  Beta virt. eigenvalues --   -0.06653  -0.06041  -0.05395  -0.04398  -0.02493
  Beta virt. eigenvalues --   -0.02256  -0.01679  -0.01336  -0.01236  -0.00639
  Beta virt. eigenvalues --   -0.00243   0.00143   0.00369   0.00718   0.00817

 Mulliken charges and spin densities:
               1          2
     1  Na   0.047538  -0.002059
     2  Na  -0.022302   0.311208
     3  Na   0.219612   0.100731
     4  Na   0.056909   0.129171
     5  Na   0.098347  -0.078611
     6  Na   0.056483  -0.011862
     7  Na  -0.456587   0.551422
 Sum of Mulliken charges =  -0.00000   1.00000

 Dipole moment (field-independent basis, Debye):
    X=             -0.0280    Y=             -0.4795    Z=              0.1570  Tot=              0.5053
 Quadrupole moment (field-independent basis, Debye-Ang):
   XX=            -54.6441   YY=            -62.9267   ZZ=            -75.4484
   XY=              0.3159   XZ=              0.6268   YZ=              2.3061

 Normal termination of Gaussian 16 at Thu Dec  7 20:45:16 2023.
