 Gaussian 16, Revision B.01,
 Gaussian 16:  ES64L-G16RevB.01 20-Dec-2017

 -------------------------
 #P B3LYP/6-311+g(d) force
 -------------------------

 -----
 DPGEN
 -----
 Symbolic Z-matrix:
 Charge =  0 Multiplicity = 2

                         Standard orientation:
 ---------------------------------------------------------------------
 Center     Atomic      Atomic             Coordinates (Angstroms)
 Number     Number       Type             X           Y           Z
 ---------------------------------------------------------------------
      1         11           0       -1.682995   -2.492493   -0.811554
      2         11           0       -1.658099    0.139594    1.685805
      3         11           0        1.019371   -2.179847    1.423720
      4         11           0       -2.024400    0.949543   -1.406310
      5         11           0       -0.044278    3.140479    0.871404
      6         11           0        3.625818   -0.006470   -0.518046
      7         11           0        0.764583    0.449195   -1.245017
 ---------------------------------------------------------------------

 SCF Done:  E(UB3LYP) =  -1136.12695808     A.U. after   21 cycles

 The electronic state is 2-A.
 Alpha  occ. eigenvalues --  -38.44134 -38.43917 -38.43886 -38.43886 -38.43767
 Alpha  occ. eigenvalues --  -38.43554 -38.43051  -2.19943  -2.19847  -2.19824
 Alpha  occ. eigenvalues --   -2.19704  -2.19597  -2.19370  -2.19071  -1.13668
 Alpha  occ. eigenvalues --   -1.13618  -1.13593  -1.13577  -1.13556  -1.13507
 Alpha  occ. eigenvalues --   -1.13431  -1.13421  -1.13399  -1.13384  -1.13369
 Alpha  occ. eigenvalues --   -1.13310  -1.13268  -1.13247  -1.13233  -1.13127
 Alpha  occ. eigenvalues --   -1.13011  -1.12991  -1.12725  -1.12712  -1.12659
 Alpha  occ. eigenvalues --   -0.18512  -0.12589  -0.12382  -0.11513
 Alpha virt. eigenvalues --   -0.05433  -0.05197  -0.04453  -0.03385  -0.03001
 Alpha virt. eigenvalues --   -0.02830  -0.01418  -0.01132  -0.00436   0.00095
 Alpha virt. eigenvalues --    0.00261   0.00341   0.00553   0.00706   0.00818

  Beta  occ. eigenvalues --  -38.44110 -38.43862 -38.43855 -38.43839 -38.43757
  Beta  occ. eigenvalues --  -38.43552 -38.43011  -2.19900  -2.19764  -2.19723
  Beta  occ. eigenvalues --   -2.19648  -2.19583  -2.19367  -2.19001  -1.13606
  Beta  occ. eigenvalues --   -1.13579  -1.13559  -1.13547  -1.13495  -1.13435
  Beta  occ. eigenvalues --   -1.13367  -1.13356  -1.13337  -1.13335  -1.13319
  Beta  occ. eigenvalues --   -1.13269  -1.13254  -1.13234  -1.13204  -1.13115
  Beta  occ. eigenvalues --   -1.13008  -1.12989  -1.12680  -1.12645  -1.12616
  Beta  occ. eigenvalues --   -0.17768  -0.12369  -0.12166
  Beta virt. eigenvalues --   -0.07568  -0.05332  -0.04909  -0.04226  -0.02845
  Beta virt. eigenvalues --   -0.02577  -0.01886  -0.01288  -0.01028  -0.00178
  Beta virt. eigenvalues --    0.00154   0.00311   0.00385   0.00652   0.00789

 Mulliken charges and spin densities:
               1          2
     1  Na  -0.097367   0.008333
     2  Na  -0.039389   0.687503
     3  Na  -0.321037  -0.014711
     4  Na   1.517341  -0.082676
     5  Na  -0.235761  -0.015960
     6  Na   0.349434   0.052160
     7  Na  -1.173220   0.365350
 Sum of Mulliken charges =  -0.00000   1.00000

 Dipole moment (field-independent basis, Debye):
    X=             -0.3142    Y=              0.1008    Z=              0.4905  Tot=              0.5912
 Quadrupole moment (field-independent basis, Debye-Ang):
   XX=            -63.0710   YY=            -61.8332   ZZ=            -68.6644
   XY=              1.0213   XZ=              2.9884   YZ=              1.8895

 Normal termination of Gaussian 16 at Tue Dec  5 16:39:53 2023.
