 Gaussian 16, Revision B.01,
 Gaussian 16:  ES64L-G16RevB.01 20-Dec-2017

 -------------------------
 #P B3LYP/6-311+g(d) force
 -------------------------

 -----
 DPGEN
 -----
 Symbolic Z-matrix:
 Charge =  0 Multiplicity = 2

                         Standard orientation:
 ---------------------------------------------------------------------
 Center     Atomic      Atomic             Coordinates (Angstroms)
 Number     Number       Type             X           Y           Z
 ---------------------------------------------------------------------
      1         11           0        0.094442   -2.469045   -0.006173
      2         11           0       -1.509626    2.074936   -0.043947
      3         11           0       -2.732416   -0.839177    0.169820
      4         11           0       -0.389858    0.017842   -1.648943
      5         11           0        0.223215   -0.027934    1.745373
      6         11           0        1.599387    2.052791    0.042517
      7         11           0        2.714856   -0.809413   -0.258647
 ---------------------------------------------------------------------

 SCF Done:  E(UB3LYP) =  -1136.12221335     A.U. after   19 cycles

 The electronic state is 2-A.
 Alpha  occ. eigenvalues --  -38.43675 -38.43673 -38.43318 -38.43284 -38.43281
 Alpha  occ. eigenvalues --  -38.43203 -38.43066  -2.19628  -2.19626  -2.19472
 Alpha  occ. eigenvalues --   -2.19396  -2.19304  -2.19204  -2.19082  -1.13413
 Alpha  occ. eigenvalues --   -1.13348  -1.13319  -1.13310  -1.13284  -1.13271
 Alpha  occ. eigenvalues --   -1.13270  -1.13169  -1.13131  -1.13083  -1.13047
 Alpha  occ. eigenvalues --   -1.13010  -1.12955  -1.12912  -1.12886  -1.12841
 Alpha  occ. eigenvalues --   -1.12828  -1.12786  -1.12740  -1.12717  -1.12675
 Alpha  occ. eigenvalues --   -0.20409  -0.13576  -0.12917  -0.11263
 Alpha virt. eigenvalues --   -0.05321  -0.04732  -0.04369  -0.03345  -0.02977
 Alpha virt. eigenvalues --   -0.02410  -0.01317  -0.00776   0.00004   0.00295
 Alpha virt. eigenvalues --    0.00347   0.00374   0.00937   0.01036   0.01043

  Beta  occ. eigenvalues --  -38.43667 -38.43665 -38.43270 -38.43239 -38.43198
  Beta  occ. eigenvalues --  -38.43194 -38.43054  -2.19619  -2.19616  -2.19336
  Beta  occ. eigenvalues --   -2.19283  -2.19240  -2.19191  -2.19066  -1.13386
  Beta  occ. eigenvalues --   -1.13338  -1.13313  -1.13286  -1.13244  -1.13239
  Beta  occ. eigenvalues --   -1.13230  -1.13093  -1.13051  -1.12988  -1.12963
  Beta  occ. eigenvalues --   -1.12938  -1.12919  -1.12854  -1.12826  -1.12816
  Beta  occ. eigenvalues --   -1.12784  -1.12769  -1.12716  -1.12672  -1.12653
  Beta  occ. eigenvalues --   -0.19636  -0.13280  -0.12587
  Beta virt. eigenvalues --   -0.07206  -0.05308  -0.04721  -0.04386  -0.02475
  Beta virt. eigenvalues --   -0.02096  -0.01333  -0.01240  -0.00724   0.00129
  Beta virt. eigenvalues --    0.00258   0.00297   0.00385   0.00975   0.01030

 Mulliken charges and spin densities:
               1          2
     1  Na   0.433517  -0.028494
     2  Na   0.510098  -0.014579
     3  Na   0.286200  -0.044891
     4  Na  -0.904929   0.530403
     5  Na  -0.834658   0.592461
     6  Na   0.418717  -0.008936
     7  Na   0.091054  -0.025965
 Sum of Mulliken charges =  -0.00000   1.00000

 Dipole moment (field-independent basis, Debye):
    X=             -0.0192    Y=             -0.1035    Z=              0.0748  Tot=              0.1291
 Quadrupole moment (field-independent basis, Debye-Ang):
   XX=            -57.0240   YY=            -65.2977   ZZ=            -72.4004
   XY=              0.2559   XZ=             -1.4812   YZ=              0.1071

 Normal termination of Gaussian 16 at Tue Dec  5 22:25:03 2023.
