 Gaussian 16, Revision B.01,
 Gaussian 16:  ES64L-G16RevB.01 20-Dec-2017

 -------------------------
 #P B3LYP/6-311+g(d) force
 -------------------------

 -----
 DPGEN
 -----
 Symbolic Z-matrix:
 Charge =  0 Multiplicity = 2

                         Standard orientation:
 ---------------------------------------------------------------------
 Center     Atomic      Atomic             Coordinates (Angstroms)
 Number     Number       Type             X           Y           Z
 ---------------------------------------------------------------------
      1         11           0       -0.253758   -0.064736    2.076988
      2         11           0        2.537776    1.698423    0.010278
      3         11           0       -0.936559    2.743729    0.148137
      4         11           0       -0.193784   -2.779786    0.463095
      5         11           0        2.672800   -1.192291   -0.512980
      6         11           0       -0.456886   -0.162984   -1.807173
      7         11           0       -3.369589   -0.242354   -0.378345
 ---------------------------------------------------------------------

 SCF Done:  E(UB3LYP) =  -1136.13335803     A.U. after   19 cycles

 The electronic state is 2-A.
 Alpha  occ. eigenvalues --  -38.44582 -38.43883 -38.43747 -38.43632 -38.43612
 Alpha  occ. eigenvalues --  -38.43455 -38.43189  -2.20382  -2.19784  -2.19669
 Alpha  occ. eigenvalues --   -2.19511  -2.19482  -2.19282  -2.19063  -1.14076
 Alpha  occ. eigenvalues --   -1.14025  -1.14014  -1.13459  -1.13421  -1.13400
 Alpha  occ. eigenvalues --   -1.13364  -1.13342  -1.13306  -1.13304  -1.13166
 Alpha  occ. eigenvalues --   -1.13148  -1.13123  -1.13106  -1.13048  -1.12963
 Alpha  occ. eigenvalues --   -1.12957  -1.12899  -1.12757  -1.12716  -1.12681
 Alpha  occ. eigenvalues --   -0.18572  -0.13120  -0.12269  -0.11195
 Alpha virt. eigenvalues --   -0.05974  -0.04769  -0.04490  -0.03374  -0.03052
 Alpha virt. eigenvalues --   -0.02898  -0.01777  -0.00905  -0.00257  -0.00188
 Alpha virt. eigenvalues --   -0.00021   0.00337   0.00805   0.00859   0.00901

  Beta  occ. eigenvalues --  -38.44570 -38.43785 -38.43684 -38.43632 -38.43602
  Beta  occ. eigenvalues --  -38.43450 -38.43174  -2.20364  -2.19606  -2.19554
  Beta  occ. eigenvalues --   -2.19501  -2.19478  -2.19275  -2.19041  -1.14048
  Beta  occ. eigenvalues --   -1.14009  -1.14004  -1.13361  -1.13340  -1.13289
  Beta  occ. eigenvalues --   -1.13280  -1.13265  -1.13228  -1.13218  -1.13147
  Beta  occ. eigenvalues --   -1.13136  -1.13110  -1.13099  -1.13043  -1.12955
  Beta  occ. eigenvalues --   -1.12938  -1.12895  -1.12733  -1.12680  -1.12671
  Beta  occ. eigenvalues --   -0.17854  -0.12843  -0.12017
  Beta virt. eigenvalues --   -0.07300  -0.05890  -0.04746  -0.04416  -0.02656
  Beta virt. eigenvalues --   -0.02270  -0.01873  -0.01651  -0.00835  -0.00258
  Beta virt. eigenvalues --   -0.00200   0.00087   0.00383   0.00839   0.00914

 Mulliken charges and spin densities:
               1          2
     1  Na  -0.264578   0.594784
     2  Na  -0.091539  -0.038617
     3  Na   0.000485  -0.064246
     4  Na   0.190745  -0.001129
     5  Na   0.186903   0.039736
     6  Na  -0.182054   0.557164
     7  Na   0.160038  -0.087690
 Sum of Mulliken charges =  -0.00000   1.00000

 Dipole moment (field-independent basis, Debye):
    X=             -0.6917    Y=              0.0154    Z=              0.0166  Tot=              0.6921
 Quadrupole moment (field-independent basis, Debye-Ang):
   XX=            -57.1545   YY=            -65.9121   ZZ=            -72.1263
   XY=              0.1236   XZ=             -0.4737   YZ=              0.2262

 Normal termination of Gaussian 16 at Tue Dec  5 19:20:35 2023.
