 Gaussian 16, Revision B.01,
 Gaussian 16:  ES64L-G16RevB.01 20-Dec-2017

 -------------------------
 #P B3LYP/6-311+g(d) force
 -------------------------

 -----
 DPGEN
 -----
 Symbolic Z-matrix:
 Charge =  0 Multiplicity = 2

                         Standard orientation:
 ---------------------------------------------------------------------
 Center     Atomic      Atomic             Coordinates (Angstroms)
 Number     Number       Type             X           Y           Z
 ---------------------------------------------------------------------
      1         11           0       -0.235072    0.065771    0.144537
      2         11           0        1.481750    2.334770   -0.602836
      3         11           0       -1.768089    3.157229   -0.238629
      4         11           0       -3.788955   -0.582530    0.721577
      5         11           0       -1.578816   -2.969033   -0.181182
      6         11           0        3.753696   -0.291891    1.618459
      7         11           0        2.135485   -1.714315   -1.461927
 ---------------------------------------------------------------------

 SCF Done:  E(UB3LYP) =  -1136.12426932     A.U. after   20 cycles

 The electronic state is 2-A.
 Alpha  occ. eigenvalues --  -38.44405 -38.44144 -38.44086 -38.44055 -38.43858
 Alpha  occ. eigenvalues --  -38.43711 -38.43398  -2.20266  -2.19948  -2.19896
 Alpha  occ. eigenvalues --   -2.19854  -2.19666  -2.19515  -2.19386  -1.14040
 Alpha  occ. eigenvalues --   -1.13926  -1.13844  -1.13631  -1.13612  -1.13587
 Alpha  occ. eigenvalues --   -1.13572  -1.13568  -1.13527  -1.13525  -1.13515
 Alpha  occ. eigenvalues --   -1.13491  -1.13330  -1.13308  -1.13289  -1.13165
 Alpha  occ. eigenvalues --   -1.13159  -1.13111  -1.13092  -1.13056  -1.12993
 Alpha  occ. eigenvalues --   -0.17314  -0.13450  -0.12751  -0.10095
 Alpha virt. eigenvalues --   -0.06012  -0.05490  -0.05226  -0.03472  -0.02356
 Alpha virt. eigenvalues --   -0.02116  -0.01702  -0.01562  -0.00980  -0.00827
 Alpha virt. eigenvalues --   -0.00377   0.00170   0.00363   0.00485   0.00654

  Beta  occ. eigenvalues --  -38.44397 -38.44118 -38.44083 -38.44061 -38.43819
  Beta  occ. eigenvalues --  -38.43606 -38.43389  -2.20254  -2.19903  -2.19894
  Beta  occ. eigenvalues --   -2.19866  -2.19591  -2.19372  -2.19319  -1.14032
  Beta  occ. eigenvalues --   -1.13908  -1.13834  -1.13595  -1.13589  -1.13582
  Beta  occ. eigenvalues --   -1.13573  -1.13535  -1.13524  -1.13522  -1.13499
  Beta  occ. eigenvalues --   -1.13491  -1.13278  -1.13258  -1.13244  -1.13065
  Beta  occ. eigenvalues --   -1.13050  -1.13031  -1.13023  -1.12986  -1.12981
  Beta  occ. eigenvalues --   -0.16946  -0.12962  -0.12433
  Beta virt. eigenvalues --   -0.06565  -0.05928  -0.05138  -0.04992  -0.03005
  Beta virt. eigenvalues --   -0.02002  -0.01945  -0.01493  -0.01170  -0.00869
  Beta virt. eigenvalues --   -0.00587  -0.00009   0.00310   0.00590   0.00682

 Mulliken charges and spin densities:
               1          2
     1  Na  -3.362107   0.037851
     2  Na   2.100087   0.075321
     3  Na  -0.078357  -0.047291
     4  Na  -0.335101   0.197726
     5  Na   0.330880   0.020736
     6  Na   0.291428   0.581335
     7  Na   1.053169   0.134323
 Sum of Mulliken charges =  -0.00000   1.00000

 Dipole moment (field-independent basis, Debye):
    X=             -0.7746    Y=              0.2145    Z=             -0.9316  Tot=              1.2304
 Quadrupole moment (field-independent basis, Debye-Ang):
   XX=            -65.1048   YY=            -59.4765   ZZ=            -71.9508
   XY=             -2.4933   XZ=             -4.8757   YZ=              0.0200

 Normal termination of Gaussian 16 at Wed Nov 29 16:54:55 2023.
