 Gaussian 16, Revision B.01,
 Gaussian 16:  ES64L-G16RevB.01 20-Dec-2017

 -------------------------
 #P B3LYP/6-311+g(d) force
 -------------------------

 -----
 DPGEN
 -----
 Symbolic Z-matrix:
 Charge =  0 Multiplicity = 2

                         Standard orientation:
 ---------------------------------------------------------------------
 Center     Atomic      Atomic             Coordinates (Angstroms)
 Number     Number       Type             X           Y           Z
 ---------------------------------------------------------------------
      1         11           0       -0.499573   -2.607203    0.495214
      2         11           0        2.791540   -1.190850   -0.342602
      3         11           0       -2.922052   -0.442080   -0.397291
      4         11           0       -1.323854    2.366164   -0.081974
      5         11           0       -0.077454    0.212372    1.977192
      6         11           0        2.037003    1.903572    0.038301
      7         11           0       -0.005610   -0.241974   -1.688839
 ---------------------------------------------------------------------

 SCF Done:  E(UB3LYP) =  -1136.13708417     A.U. after   18 cycles

 The electronic state is 2-A.
 Alpha  occ. eigenvalues --  -38.43753 -38.43707 -38.43606 -38.43315 -38.43284
 Alpha  occ. eigenvalues --  -38.43096 -38.43020  -2.19657  -2.19581  -2.19575
 Alpha  occ. eigenvalues --   -2.19320  -2.19227  -2.19004  -2.18948  -1.13366
 Alpha  occ. eigenvalues --   -1.13310  -1.13298  -1.13285  -1.13252  -1.13243
 Alpha  occ. eigenvalues --   -1.13229  -1.13211  -1.13194  -1.13002  -1.12971
 Alpha  occ. eigenvalues --   -1.12944  -1.12895  -1.12881  -1.12856  -1.12691
 Alpha  occ. eigenvalues --   -1.12661  -1.12626  -1.12616  -1.12610  -1.12571
 Alpha  occ. eigenvalues --   -0.19429  -0.13285  -0.12516  -0.11273
 Alpha virt. eigenvalues --   -0.05379  -0.04863  -0.04345  -0.03344  -0.03064
 Alpha virt. eigenvalues --   -0.02762  -0.01398  -0.00874  -0.00115   0.00112
 Alpha virt. eigenvalues --    0.00127   0.00369   0.00870   0.00972   0.00975

  Beta  occ. eigenvalues --  -38.43742 -38.43701 -38.43511 -38.43310 -38.43217
  Beta  occ. eigenvalues --  -38.43080 -38.43012  -2.19641  -2.19569  -2.19404
  Beta  occ. eigenvalues --   -2.19221  -2.19198  -2.18980  -2.18940  -1.13346
  Beta  occ. eigenvalues --   -1.13299  -1.13273  -1.13269  -1.13234  -1.13198
  Beta  occ. eigenvalues --   -1.13141  -1.13098  -1.13079  -1.12932  -1.12907
  Beta  occ. eigenvalues --   -1.12877  -1.12862  -1.12850  -1.12830  -1.12669
  Beta  occ. eigenvalues --   -1.12622  -1.12617  -1.12604  -1.12584  -1.12554
  Beta  occ. eigenvalues --   -0.18678  -0.12993  -0.12241
  Beta virt. eigenvalues --   -0.07288  -0.05335  -0.04868  -0.04328  -0.02539
  Beta virt. eigenvalues --   -0.02245  -0.01668  -0.01295  -0.00824  -0.00031
  Beta virt. eigenvalues --    0.00073   0.00141   0.00391   0.00924   0.00964

 Mulliken charges and spin densities:
               1          2
     1  Na   0.211119   0.035885
     2  Na   0.148702  -0.043581
     3  Na   0.271610  -0.011914
     4  Na   0.224427  -0.033954
     5  Na  -0.502476   0.608093
     6  Na   0.171829  -0.042197
     7  Na  -0.525211   0.487668
 Sum of Mulliken charges =  -0.00000   1.00000

 Dipole moment (field-independent basis, Debye):
    X=              0.0345    Y=             -0.0978    Z=              0.0723  Tot=              0.1264
 Quadrupole moment (field-independent basis, Debye-Ang):
   XX=            -57.4755   YY=            -65.2257   ZZ=            -71.8195
   XY=             -0.2096   XZ=              0.3104   YZ=             -0.6949

 Normal termination of Gaussian 16 at Fri Dec  8 05:49:32 2023.
