 Gaussian 16, Revision B.01,
 Gaussian 16:  ES64L-G16RevB.01 20-Dec-2017

 -------------------------
 #P B3LYP/6-311+g(d) force
 -------------------------

 -----
 DPGEN
 -----
 Symbolic Z-matrix:
 Charge =  0 Multiplicity = 2

                         Standard orientation:
 ---------------------------------------------------------------------
 Center     Atomic      Atomic             Coordinates (Angstroms)
 Number     Number       Type             X           Y           Z
 ---------------------------------------------------------------------
      1         11           0       -3.544899    1.380267   -0.687319
      2         11           0       -3.308063   -1.777150   -0.611883
      3         11           0        1.836844    1.233270    1.169456
      4         11           0       -0.599583   -2.226020    1.697820
      5         11           0        4.432649    0.624484   -0.844297
      6         11           0       -0.767229    3.255334    0.160701
      7         11           0        1.950280   -2.490186   -0.884479
 ---------------------------------------------------------------------

 SCF Done:  E(UB3LYP) =  -1136.11402311     A.U. after   22 cycles

 The electronic state is 2-A.
 Alpha  occ. eigenvalues --  -38.45908 -38.44305 -38.44268 -38.44249 -38.44114
 Alpha  occ. eigenvalues --  -38.43986 -38.43643  -2.21633  -2.20115  -2.20071
 Alpha  occ. eigenvalues --   -2.20054  -2.19901  -2.19800  -2.19433  -1.15329
 Alpha  occ. eigenvalues --   -1.15295  -1.15254  -1.13809  -1.13781  -1.13776
 Alpha  occ. eigenvalues --   -1.13753  -1.13744  -1.13718  -1.13701  -1.13683
 Alpha  occ. eigenvalues --   -1.13654  -1.13560  -1.13544  -1.13542  -1.13467
 Alpha  occ. eigenvalues --   -1.13456  -1.13435  -1.13098  -1.13092  -1.13072
 Alpha  occ. eigenvalues --   -0.16243  -0.13853  -0.12451  -0.10751
 Alpha virt. eigenvalues --   -0.07064  -0.05102  -0.04924  -0.03530  -0.03196
 Alpha virt. eigenvalues --   -0.02077  -0.01838  -0.01755  -0.01064  -0.00870
 Alpha virt. eigenvalues --   -0.00529  -0.00009   0.00207   0.00444   0.00630

  Beta  occ. eigenvalues --  -38.45902 -38.44276 -38.44250 -38.44178 -38.44074
  Beta  occ. eigenvalues --  -38.43962 -38.43623  -2.21625  -2.20063  -2.20042
  Beta  occ. eigenvalues --   -2.19921  -2.19828  -2.19758  -2.19396  -1.15326
  Beta  occ. eigenvalues --   -1.15290  -1.15229  -1.13767  -1.13748  -1.13743
  Beta  occ. eigenvalues --   -1.13721  -1.13697  -1.13682  -1.13611  -1.13595
  Beta  occ. eigenvalues --   -1.13576  -1.13508  -1.13498  -1.13489  -1.13440
  Beta  occ. eigenvalues --   -1.13430  -1.13391  -1.13074  -1.13064  -1.13045
  Beta  occ. eigenvalues --   -0.15706  -0.13126  -0.12131
  Beta virt. eigenvalues --   -0.07448  -0.07106  -0.04748  -0.04340  -0.03299
  Beta virt. eigenvalues --   -0.02820  -0.01849  -0.01563  -0.01406  -0.00939
  Beta virt. eigenvalues --   -0.00669  -0.00354   0.00181   0.00356   0.00569

 Mulliken charges and spin densities:
               1          2
     1  Na   0.033223   0.108462
     2  Na   0.019569   0.151930
     3  Na  -0.487537   0.067039
     4  Na  -0.079609   0.213528
     5  Na   0.277681   0.400889
     6  Na   0.179976   0.045170
     7  Na   0.056696   0.012982
 Sum of Mulliken charges =  -0.00000   1.00000

 Dipole moment (field-independent basis, Debye):
    X=              0.6140    Y=             -0.9770    Z=             -0.4643  Tot=              1.2438
 Quadrupole moment (field-independent basis, Debye-Ang):
   XX=            -67.1623   YY=            -66.2950   ZZ=            -67.3661
   XY=             -0.6240   XZ=             -1.6298   YZ=              1.9092

 Normal termination of Gaussian 16 at Sun Dec  3 18:10:42 2023.
