 Gaussian 16, Revision B.01,
 Gaussian 16:  ES64L-G16RevB.01 20-Dec-2017

 -------------------------
 #P B3LYP/6-311+g(d) force
 -------------------------

 -----
 DPGEN
 -----
 Symbolic Z-matrix:
 Charge =  0 Multiplicity = 2

                         Standard orientation:
 ---------------------------------------------------------------------
 Center     Atomic      Atomic             Coordinates (Angstroms)
 Number     Number       Type             X           Y           Z
 ---------------------------------------------------------------------
      1         11           0       -0.307923   -0.019531   -1.443713
      2         11           0        0.509675   -0.181918    2.353543
      3         11           0        1.913188   -2.257979   -0.539883
      4         11           0        3.088760    0.821745   -0.053063
      5         11           0        0.179588    2.959208   -0.386645
      6         11           0       -3.404886    0.895544    0.168136
      7         11           0       -1.978402   -2.217069   -0.098375
 ---------------------------------------------------------------------

 SCF Done:  E(UB3LYP) =  -1136.13136713     A.U. after   20 cycles

 The electronic state is 2-A.
 Alpha  occ. eigenvalues --  -38.44740 -38.44304 -38.44088 -38.43699 -38.43399
 Alpha  occ. eigenvalues --  -38.43196 -38.43166  -2.20517  -2.20132  -2.19915
 Alpha  occ. eigenvalues --   -2.19551  -2.19253  -2.19166  -2.19013  -1.14190
 Alpha  occ. eigenvalues --   -1.14172  -1.14159  -1.13805  -1.13799  -1.13772
 Alpha  occ. eigenvalues --   -1.13560  -1.13538  -1.13535  -1.13295  -1.13207
 Alpha  occ. eigenvalues --   -1.13162  -1.12963  -1.12901  -1.12891  -1.12862
 Alpha  occ. eigenvalues --   -1.12836  -1.12771  -1.12685  -1.12666  -1.12632
 Alpha  occ. eigenvalues --   -0.18240  -0.13248  -0.11982  -0.10784
 Alpha virt. eigenvalues --   -0.06232  -0.05235  -0.04378  -0.03358  -0.02757
 Alpha virt. eigenvalues --   -0.02617  -0.01889  -0.01147  -0.00491  -0.00416
 Alpha virt. eigenvalues --   -0.00063   0.00314   0.00698   0.00811   0.00824

  Beta  occ. eigenvalues --  -38.44741 -38.44301 -38.43977 -38.43696 -38.43387
  Beta  occ. eigenvalues --  -38.43190 -38.43118  -2.20520  -2.20130  -2.19709
  Beta  occ. eigenvalues --   -2.19548  -2.19233  -2.19081  -2.19005  -1.14183
  Beta  occ. eigenvalues --   -1.14176  -1.14162  -1.13803  -1.13781  -1.13770
  Beta  occ. eigenvalues --   -1.13421  -1.13395  -1.13390  -1.13286  -1.13189
  Beta  occ. eigenvalues --   -1.13162  -1.12939  -1.12880  -1.12871  -1.12810
  Beta  occ. eigenvalues --   -1.12779  -1.12712  -1.12657  -1.12653  -1.12629
  Beta  occ. eigenvalues --   -0.17550  -0.13085  -0.11758
  Beta virt. eigenvalues --   -0.06815  -0.06106  -0.05238  -0.04327  -0.02636
  Beta virt. eigenvalues --   -0.01946  -0.01773  -0.01633  -0.01083  -0.00518
  Beta virt. eigenvalues --   -0.00449   0.00130   0.00359   0.00792   0.00835

 Mulliken charges and spin densities:
               1          2
     1  Na   0.046634   0.132090
     2  Na  -0.654748   0.757093
     3  Na   0.227634   0.039090
     4  Na   0.237815   0.067352
     5  Na   0.010109  -0.020508
     6  Na  -0.031167   0.016414
     7  Na   0.163723   0.008468
 Sum of Mulliken charges =  -0.00000   1.00000

 Dipole moment (field-independent basis, Debye):
    X=             -0.3281    Y=              0.0477    Z=              0.3004  Tot=              0.4474
 Quadrupole moment (field-independent basis, Debye-Ang):
   XX=            -52.6999   YY=            -65.8553   ZZ=            -74.8315
   XY=             -0.6754   XZ=             -1.8892   YZ=              0.6857

 Normal termination of Gaussian 16 at Thu Dec  7 22:01:19 2023.
