 Gaussian 16, Revision B.01,
 Gaussian 16:  ES64L-G16RevB.01 20-Dec-2017

 -------------------------
 #P B3LYP/6-311+g(d) force
 -------------------------

 -----
 DPGEN
 -----
 Symbolic Z-matrix:
 Charge =  0 Multiplicity = 2

                         Standard orientation:
 ---------------------------------------------------------------------
 Center     Atomic      Atomic             Coordinates (Angstroms)
 Number     Number       Type             X           Y           Z
 ---------------------------------------------------------------------
      1         11           0       -0.610749    1.671685    1.035215
      2         11           0        1.367386    3.511346   -0.640138
      3         11           0        3.351892    0.514102    0.007701
      4         11           0        0.518659   -1.544130    0.011836
      5         11           0       -2.946057   -1.039723    0.817530
      6         11           0        4.409455   -2.545467   -0.344796
      7         11           0       -6.090586   -0.567813   -0.887349
 ---------------------------------------------------------------------

 SCF Done:  E(UB3LYP) =  -1136.12354404     A.U. after   20 cycles

 The electronic state is 2-A.
 Alpha  occ. eigenvalues --  -38.44809 -38.44694 -38.44221 -38.44172 -38.44169
 Alpha  occ. eigenvalues --  -38.43396 -38.43343  -2.20599  -2.20514  -2.20016
 Alpha  occ. eigenvalues --   -2.20011  -2.20008  -2.19221  -2.19145  -1.14231
 Alpha  occ. eigenvalues --   -1.14230  -1.14216  -1.14205  -1.14204  -1.14085
 Alpha  occ. eigenvalues --   -1.13711  -1.13710  -1.13708  -1.13704  -1.13696
 Alpha  occ. eigenvalues --   -1.13672  -1.13647  -1.13636  -1.13559  -1.12887
 Alpha  occ. eigenvalues --   -1.12873  -1.12851  -1.12841  -1.12828  -1.12785
 Alpha  occ. eigenvalues --   -0.16769  -0.13817  -0.12460  -0.11345
 Alpha virt. eigenvalues --   -0.06018  -0.05157  -0.05045  -0.03770  -0.02567
 Alpha virt. eigenvalues --   -0.02201  -0.02160  -0.01708  -0.01478  -0.00749
 Alpha virt. eigenvalues --   -0.00446  -0.00035   0.00099   0.00373   0.00620

  Beta  occ. eigenvalues --  -38.44684 -38.44650 -38.44215 -38.44163 -38.44155
  Beta  occ. eigenvalues --  -38.43378 -38.43346  -2.20435  -2.20367  -2.20003
  Beta  occ. eigenvalues --   -2.20000  -2.19984  -2.19188  -2.19161  -1.14166
  Beta  occ. eigenvalues --   -1.14152  -1.14073  -1.14072  -1.14051  -1.14016
  Beta  occ. eigenvalues --   -1.13703  -1.13697  -1.13692  -1.13689  -1.13685
  Beta  occ. eigenvalues --   -1.13664  -1.13639  -1.13615  -1.13542  -1.12866
  Beta  occ. eigenvalues --   -1.12860  -1.12851  -1.12847  -1.12829  -1.12735
  Beta  occ. eigenvalues --   -0.16320  -0.13130  -0.12080
  Beta virt. eigenvalues --   -0.07778  -0.05858  -0.04949  -0.04530  -0.03601
  Beta virt. eigenvalues --   -0.02315  -0.01997  -0.01608  -0.01554  -0.01142
  Beta virt. eigenvalues --   -0.00295  -0.00277   0.00126   0.00247   0.00507

 Mulliken charges and spin densities:
               1          2
     1  Na  -0.507087  -0.007937
     2  Na   0.455173   0.099627
     3  Na  -0.416695   0.171251
     4  Na  -0.841577   0.219023
     5  Na   0.030362  -0.153841
     6  Na   1.081673   0.043506
     7  Na   0.198150   0.628371
 Sum of Mulliken charges =  -0.00000   1.00000

 Dipole moment (field-independent basis, Debye):
    X=              0.8771    Y=             -0.2640    Z=             -0.3339  Tot=              0.9749
 Quadrupole moment (field-independent basis, Debye-Ang):
   XX=            -61.5758   YY=            -64.7628   ZZ=            -70.0499
   XY=             -5.8401   XZ=              0.1743   YZ=              0.0363

 Normal termination of Gaussian 16 at Tue Nov 28 23:47:24 2023.
