 Gaussian 16, Revision B.01,
 Gaussian 16:  ES64L-G16RevB.01 20-Dec-2017

 -------------------------
 #P B3LYP/6-311+g(d) force
 -------------------------

 -----
 DPGEN
 -----
 Symbolic Z-matrix:
 Charge =  0 Multiplicity = 2

                         Standard orientation:
 ---------------------------------------------------------------------
 Center     Atomic      Atomic             Coordinates (Angstroms)
 Number     Number       Type             X           Y           Z
 ---------------------------------------------------------------------
      1         11           0        2.687918   -1.508723   -0.480295
      2         11           0        0.081880   -0.648941    2.261557
      3         11           0        2.231583    1.853754    0.115346
      4         11           0        0.014997    0.059226   -1.668058
      5         11           0       -3.094965    0.215879   -0.291391
      6         11           0       -1.084951   -2.668113   -0.097181
      7         11           0       -0.836462    2.696918    0.160023
 ---------------------------------------------------------------------

 SCF Done:  E(UB3LYP) =  -1136.13773698     A.U. after   19 cycles

 The electronic state is 2-A.
 Alpha  occ. eigenvalues --  -38.44046 -38.43815 -38.43812 -38.43522 -38.43477
 Alpha  occ. eigenvalues --  -38.43290 -38.43128  -2.19899  -2.19653  -2.19648
 Alpha  occ. eigenvalues --   -2.19381  -2.19354  -2.19285  -2.19011  -1.13555
 Alpha  occ. eigenvalues --   -1.13531  -1.13518  -1.13342  -1.13333  -1.13316
 Alpha  occ. eigenvalues --   -1.13307  -1.13292  -1.13279  -1.13080  -1.13066
 Alpha  occ. eigenvalues --   -1.13058  -1.13017  -1.12998  -1.12996  -1.12956
 Alpha  occ. eigenvalues --   -1.12919  -1.12898  -1.12682  -1.12663  -1.12648
 Alpha  occ. eigenvalues --   -0.18678  -0.12923  -0.12567  -0.11101
 Alpha virt. eigenvalues --   -0.05502  -0.05028  -0.04606  -0.03286  -0.03154
 Alpha virt. eigenvalues --   -0.02816  -0.01409  -0.01003  -0.00292  -0.00110
 Alpha virt. eigenvalues --   -0.00059   0.00359   0.00812   0.00895   0.00931

  Beta  occ. eigenvalues --  -38.43944 -38.43808 -38.43805 -38.43516 -38.43473
  Beta  occ. eigenvalues --  -38.43230 -38.43124  -2.19711  -2.19647  -2.19632
  Beta  occ. eigenvalues --   -2.19375  -2.19350  -2.19176  -2.19007  -1.13431
  Beta  occ. eigenvalues --   -1.13395  -1.13389  -1.13325  -1.13318  -1.13304
  Beta  occ. eigenvalues --   -1.13289  -1.13289  -1.13267  -1.13071  -1.13061
  Beta  occ. eigenvalues --   -1.13022  -1.12999  -1.12997  -1.12988  -1.12888
  Beta  occ. eigenvalues --   -1.12848  -1.12820  -1.12676  -1.12652  -1.12636
  Beta  occ. eigenvalues --   -0.17961  -0.12692  -0.12326
  Beta virt. eigenvalues --   -0.07151  -0.05488  -0.04987  -0.04524  -0.02454
  Beta virt. eigenvalues --   -0.02399  -0.01782  -0.01319  -0.00932  -0.00337
  Beta virt. eigenvalues --   -0.00152   0.00108   0.00395   0.00872   0.00906

 Mulliken charges and spin densities:
               1          2
     1  Na   0.289363  -0.009400
     2  Na  -0.682067   0.663453
     3  Na   0.114736   0.056336
     4  Na  -0.257476   0.269900
     5  Na   0.206719   0.004104
     6  Na   0.292281  -0.032493
     7  Na   0.036445   0.048101
 Sum of Mulliken charges =  -0.00000   1.00000

 Dipole moment (field-independent basis, Debye):
    X=              0.0116    Y=             -0.2889    Z=              0.1901  Tot=              0.3460
 Quadrupole moment (field-independent basis, Debye-Ang):
   XX=            -58.5164   YY=            -64.1998   ZZ=            -72.2202
   XY=             -0.3753   XZ=              0.0479   YZ=              1.5308

 Normal termination of Gaussian 16 at Thu Dec  7 05:09:56 2023.
