 Gaussian 16, Revision B.01,
 Gaussian 16:  ES64L-G16RevB.01 20-Dec-2017

 -------------------------
 #P B3LYP/6-311+g(d) force
 -------------------------

 -----
 DPGEN
 -----
 Symbolic Z-matrix:
 Charge =  0 Multiplicity = 2

                         Standard orientation:
 ---------------------------------------------------------------------
 Center     Atomic      Atomic             Coordinates (Angstroms)
 Number     Number       Type             X           Y           Z
 ---------------------------------------------------------------------
      1         11           0       -0.527880   -0.169113    1.951971
      2         11           0        2.081441    1.370659    0.889516
      3         11           0       -2.473748    1.204017   -0.168212
      4         11           0        0.176075    2.895859   -0.909272
      5         11           0        3.544337   -2.026943   -0.292104
      6         11           0        0.055082   -0.906802   -1.458393
      7         11           0       -2.855306   -2.367677   -0.013507
 ---------------------------------------------------------------------

 SCF Done:  E(UB3LYP) =  -1136.12468581     A.U. after   20 cycles

 The electronic state is 2-A.
 Alpha  occ. eigenvalues --  -38.44417 -38.44162 -38.44162 -38.43964 -38.43884
 Alpha  occ. eigenvalues --  -38.43825 -38.43281  -2.20211  -2.20063  -2.19898
 Alpha  occ. eigenvalues --   -2.19887  -2.19775  -2.19688  -2.19169  -1.13880
 Alpha  occ. eigenvalues --   -1.13880  -1.13846  -1.13790  -1.13744  -1.13666
 Alpha  occ. eigenvalues --   -1.13588  -1.13573  -1.13569  -1.13529  -1.13524
 Alpha  occ. eigenvalues --   -1.13508  -1.13480  -1.13420  -1.13391  -1.13369
 Alpha  occ. eigenvalues --   -1.13341  -1.13288  -1.12846  -1.12811  -1.12794
 Alpha  occ. eigenvalues --   -0.18478  -0.13153  -0.11999  -0.10874
 Alpha virt. eigenvalues --   -0.06232  -0.05862  -0.04110  -0.03305  -0.02770
 Alpha virt. eigenvalues --   -0.02473  -0.01918  -0.01661  -0.00486  -0.00270
 Alpha virt. eigenvalues --    0.00087   0.00248   0.00479   0.00661   0.00761

  Beta  occ. eigenvalues --  -38.44417 -38.44167 -38.44146 -38.43870 -38.43860
  Beta  occ. eigenvalues --  -38.43780 -38.43262  -2.20213  -2.20038  -2.19907
  Beta  occ. eigenvalues --   -2.19735  -2.19715  -2.19605  -2.19136  -1.13883
  Beta  occ. eigenvalues --   -1.13869  -1.13847  -1.13764  -1.13697  -1.13653
  Beta  occ. eigenvalues --   -1.13579  -1.13571  -1.13535  -1.13496  -1.13452
  Beta  occ. eigenvalues --   -1.13418  -1.13398  -1.13351  -1.13329  -1.13317
  Beta  occ. eigenvalues --   -1.13276  -1.13229  -1.12821  -1.12787  -1.12761
  Beta  occ. eigenvalues --   -0.17718  -0.12986  -0.11765
  Beta virt. eigenvalues --   -0.06978  -0.06144  -0.05747  -0.03856  -0.02693
  Beta virt. eigenvalues --   -0.02194  -0.01897  -0.01785  -0.01243  -0.00490
  Beta virt. eigenvalues --   -0.00111   0.00162   0.00291   0.00633   0.00679

 Mulliken charges and spin densities:
               1          2
     1  Na  -0.090487   0.249435
     2  Na   0.394046   0.245330
     3  Na   0.346281   0.302081
     4  Na  -0.183535  -0.103278
     5  Na  -0.075689  -0.092870
     6  Na  -0.526472   0.448076
     7  Na   0.135854  -0.048775
 Sum of Mulliken charges =  -0.00000   1.00000

 Dipole moment (field-independent basis, Debye):
    X=             -0.6922    Y=             -0.5497    Z=              0.0318  Tot=              0.8845
 Quadrupole moment (field-independent basis, Debye-Ang):
   XX=            -56.3476   YY=            -63.2338   ZZ=            -73.6864
   XY=              2.9070   XZ=              0.6889   YZ=             -0.9229

 Normal termination of Gaussian 16 at Fri Dec  8 02:03:54 2023.
