 Gaussian 16, Revision B.01,
 Gaussian 16:  ES64L-G16RevB.01 20-Dec-2017

 -------------------------
 #P B3LYP/6-311+g(d) force
 -------------------------

 -----
 DPGEN
 -----
 Symbolic Z-matrix:
 Charge =  0 Multiplicity = 2

                         Standard orientation:
 ---------------------------------------------------------------------
 Center     Atomic      Atomic             Coordinates (Angstroms)
 Number     Number       Type             X           Y           Z
 ---------------------------------------------------------------------
      1         11           0        2.027457   -1.934609   -0.163118
      2         11           0       -0.245418    2.846130   -0.450242
      3         11           0        0.049004   -0.492243   -1.803011
      4         11           0       -1.257792   -2.597818    0.286051
      5         11           0       -3.116889    0.660606   -0.208132
      6         11           0        2.923099    1.214956    0.274633
      7         11           0       -0.379461    0.302978    2.063820
 ---------------------------------------------------------------------

 SCF Done:  E(UB3LYP) =  -1136.13702732     A.U. after   18 cycles

 The electronic state is 2-A.
 Alpha  occ. eigenvalues --  -38.44053 -38.43772 -38.43701 -38.43548 -38.43539
 Alpha  occ. eigenvalues --  -38.43427 -38.43405  -2.19862  -2.19650  -2.19521
 Alpha  occ. eigenvalues --   -2.19508  -2.19375  -2.19343  -2.19280  -1.13538
 Alpha  occ. eigenvalues --   -1.13522  -1.13504  -1.13322  -1.13306  -1.13285
 Alpha  occ. eigenvalues --   -1.13269  -1.13204  -1.13183  -1.13167  -1.13159
 Alpha  occ. eigenvalues --   -1.13133  -1.13052  -1.13040  -1.12998  -1.12992
 Alpha  occ. eigenvalues --   -1.12973  -1.12962  -1.12942  -1.12937  -1.12889
 Alpha  occ. eigenvalues --   -0.18638  -0.12876  -0.12547  -0.10977
 Alpha virt. eigenvalues --   -0.05584  -0.04990  -0.04709  -0.03302  -0.03128
 Alpha virt. eigenvalues --   -0.02708  -0.01432  -0.01025  -0.00296  -0.00194
 Alpha virt. eigenvalues --   -0.00023   0.00376   0.00821   0.00907   0.00909

  Beta  occ. eigenvalues --  -38.44049 -38.43699 -38.43686 -38.43538 -38.43469
  Beta  occ. eigenvalues --  -38.43420 -38.43397  -2.19859  -2.19518  -2.19491
  Beta  occ. eigenvalues --   -2.19382  -2.19360  -2.19332  -2.19268  -1.13522
  Beta  occ. eigenvalues --   -1.13517  -1.13500  -1.13249  -1.13212  -1.13202
  Beta  occ. eigenvalues --   -1.13175  -1.13168  -1.13166  -1.13148  -1.13081
  Beta  occ. eigenvalues --   -1.13059  -1.13026  -1.13017  -1.12989  -1.12974
  Beta  occ. eigenvalues --   -1.12955  -1.12929  -1.12920  -1.12903  -1.12882
  Beta  occ. eigenvalues --   -0.17897  -0.12648  -0.12322
  Beta virt. eigenvalues --   -0.07072  -0.05558  -0.04971  -0.04597  -0.02517
  Beta virt. eigenvalues --   -0.02368  -0.01678  -0.01352  -0.00954  -0.00323
  Beta virt. eigenvalues --   -0.00230   0.00107   0.00399   0.00858   0.00903

 Mulliken charges and spin densities:
               1          2
     1  Na   0.390908   0.039869
     2  Na   0.010798  -0.019744
     3  Na  -0.191423   0.476055
     4  Na   0.193973  -0.054654
     5  Na   0.104494  -0.106529
     6  Na  -0.038021  -0.046358
     7  Na  -0.470730   0.711361
 Sum of Mulliken charges =  -0.00000   1.00000

 Dipole moment (field-independent basis, Debye):
    X=             -0.3102    Y=              0.1450    Z=              0.1263  Tot=              0.3650
 Quadrupole moment (field-independent basis, Debye-Ang):
   XX=            -58.1899   YY=            -63.7815   ZZ=            -72.5801
   XY=              0.5436   XZ=              1.0488   YZ=             -1.4846

 Normal termination of Gaussian 16 at Wed Nov 29 15:44:06 2023.
