 Gaussian 16, Revision B.01,
 Gaussian 16:  ES64L-G16RevB.01 20-Dec-2017

 -------------------------
 #P B3LYP/6-311+g(d) force
 -------------------------

 -----
 DPGEN
 -----
 Symbolic Z-matrix:
 Charge =  0 Multiplicity = 2

                         Standard orientation:
 ---------------------------------------------------------------------
 Center     Atomic      Atomic             Coordinates (Angstroms)
 Number     Number       Type             X           Y           Z
 ---------------------------------------------------------------------
      1         11           0       -4.297114    0.165609    0.873720
      2         11           0       -2.061281    2.870315   -0.120655
      3         11           0        1.114748    3.745466   -0.422850
      4         11           0        4.031986    1.322743    0.076560
      5         11           0        3.793154   -2.245638    0.652715
      6         11           0        0.614203   -3.434285   -0.575659
      7         11           0       -3.195695   -2.424209   -0.483831
 ---------------------------------------------------------------------

 SCF Done:  E(UB3LYP) =  -1136.10626222     A.U. after   24 cycles

 The electronic state is 2-A.
 Alpha  occ. eigenvalues --  -38.45397 -38.45002 -38.44952 -38.44789 -38.44192
 Alpha  occ. eigenvalues --  -38.44130 -38.44085  -2.21173  -2.20783  -2.20695
 Alpha  occ. eigenvalues --   -2.20556  -2.20019  -2.19907  -2.19860  -1.14856
 Alpha  occ. eigenvalues --   -1.14841  -1.14821  -1.14456  -1.14449  -1.14411
 Alpha  occ. eigenvalues --   -1.14384  -1.14368  -1.14343  -1.14222  -1.14205
 Alpha  occ. eigenvalues --   -1.14169  -1.13679  -1.13662  -1.13654  -1.13578
 Alpha  occ. eigenvalues --   -1.13574  -1.13550  -1.13520  -1.13512  -1.13475
 Alpha  occ. eigenvalues --   -0.15473  -0.13938  -0.13386  -0.10807
 Alpha virt. eigenvalues --   -0.07984  -0.04835  -0.04711  -0.03592  -0.03423
 Alpha virt. eigenvalues --   -0.02411  -0.02114  -0.01862  -0.01434  -0.01039
 Alpha virt. eigenvalues --   -0.00785  -0.00081   0.00012   0.00305   0.00593

  Beta  occ. eigenvalues --  -38.45386 -38.44967 -38.44966 -38.44728 -38.44152
  Beta  occ. eigenvalues --  -38.44121 -38.44012  -2.21159  -2.20726  -2.20721
  Beta  occ. eigenvalues --   -2.20442  -2.19945  -2.19895  -2.19724  -1.14846
  Beta  occ. eigenvalues --   -1.14836  -1.14777  -1.14418  -1.14410  -1.14408
  Beta  occ. eigenvalues --   -1.14392  -1.14349  -1.14333  -1.14145  -1.14130
  Beta  occ. eigenvalues --   -1.14093  -1.13626  -1.13611  -1.13605  -1.13573
  Beta  occ. eigenvalues --   -1.13567  -1.13522  -1.13427  -1.13419  -1.13387
  Beta  occ. eigenvalues --   -0.14927  -0.13369  -0.12643
  Beta virt. eigenvalues --   -0.08125  -0.07611  -0.04340  -0.04206  -0.03408
  Beta virt. eigenvalues --   -0.03089  -0.02235  -0.01990  -0.01745  -0.01288
  Beta virt. eigenvalues --   -0.00719  -0.00449   0.00095   0.00195   0.00369

 Mulliken charges and spin densities:
               1          2
     1  Na  -0.032907   0.192810
     2  Na  -0.310516   0.161434
     3  Na   0.417527  -0.013063
     4  Na  -0.224575   0.335196
     5  Na   0.286328  -0.070987
     6  Na  -0.233622   0.310464
     7  Na   0.097766   0.084146
 Sum of Mulliken charges =  -0.00000   1.00000

 Dipole moment (field-independent basis, Debye):
    X=             -0.4250    Y=              0.0193    Z=              0.1270  Tot=              0.4440
 Quadrupole moment (field-independent basis, Debye-Ang):
   XX=            -60.5826   YY=            -67.0037   ZZ=            -72.3252
   XY=              0.2330   XZ=              0.4568   YZ=              0.1765

 Normal termination of Gaussian 16 at Mon Dec  4 01:52:50 2023.
