 Gaussian 16, Revision B.01,
 Gaussian 16:  ES64L-G16RevB.01 20-Dec-2017

 -------------------------
 #P B3LYP/6-311+g(d) force
 -------------------------

 -----
 DPGEN
 -----
 Symbolic Z-matrix:
 Charge =  0 Multiplicity = 2

                         Standard orientation:
 ---------------------------------------------------------------------
 Center     Atomic      Atomic             Coordinates (Angstroms)
 Number     Number       Type             X           Y           Z
 ---------------------------------------------------------------------
      1         11           0        1.258858    0.193468    2.415832
      2         11           0        2.735101   -2.421953   -0.172426
      3         11           0        0.062965    3.692390   -0.735353
      4         11           0        1.828410    0.984701   -0.422208
      5         11           0       -1.989564    0.579295    0.203987
      6         11           0        0.145402   -1.608933   -1.566413
      7         11           0       -4.041171   -1.418968    0.276581
 ---------------------------------------------------------------------

 SCF Done:  E(UB3LYP) =  -1136.11846059     A.U. after   20 cycles

 The electronic state is 2-A.
 Alpha  occ. eigenvalues --  -38.44747 -38.44365 -38.44232 -38.43987 -38.43806
 Alpha  occ. eigenvalues --  -38.43512 -38.43172  -2.20609  -2.20250  -2.20074
 Alpha  occ. eigenvalues --   -2.19810  -2.19609  -2.19485  -2.19075  -1.14305
 Alpha  occ. eigenvalues --   -1.14230  -1.14187  -1.13959  -1.13940  -1.13874
 Alpha  occ. eigenvalues --   -1.13736  -1.13708  -1.13690  -1.13571  -1.13446
 Alpha  occ. eigenvalues --   -1.13432  -1.13293  -1.13259  -1.13243  -1.13211
 Alpha  occ. eigenvalues --   -1.13176  -1.13042  -1.12762  -1.12743  -1.12681
 Alpha  occ. eigenvalues --   -0.18098  -0.13165  -0.12423  -0.11163
 Alpha virt. eigenvalues --   -0.06228  -0.05351  -0.04249  -0.03283  -0.03162
 Alpha virt. eigenvalues --   -0.02433  -0.01864  -0.01570  -0.00536  -0.00288
 Alpha virt. eigenvalues --    0.00072   0.00151   0.00517   0.00708   0.00722

  Beta  occ. eigenvalues --  -38.44628 -38.44319 -38.44232 -38.43988 -38.43783
  Beta  occ. eigenvalues --  -38.43497 -38.43167  -2.20389  -2.20167  -2.20078
  Beta  occ. eigenvalues --   -2.19812  -2.19567  -2.19464  -2.19067  -1.14159
  Beta  occ. eigenvalues --   -1.14079  -1.14038  -1.13919  -1.13885  -1.13810
  Beta  occ. eigenvalues --   -1.13741  -1.13696  -1.13669  -1.13572  -1.13446
  Beta  occ. eigenvalues --   -1.13433  -1.13263  -1.13226  -1.13218  -1.13175
  Beta  occ. eigenvalues --   -1.13133  -1.13034  -1.12757  -1.12721  -1.12680
  Beta  occ. eigenvalues --   -0.17405  -0.12988  -0.12085
  Beta virt. eigenvalues --   -0.07352  -0.06021  -0.05142  -0.03983  -0.02709
  Beta virt. eigenvalues --   -0.02560  -0.01902  -0.01679  -0.01418  -0.00526
  Beta virt. eigenvalues --   -0.00033   0.00176   0.00273   0.00680   0.00737

 Mulliken charges and spin densities:
               1          2
     1  Na  -0.101039   0.358806
     2  Na   0.677522   0.055816
     3  Na   0.896660  -0.055266
     4  Na  -0.410688   0.483246
     5  Na  -1.211339   0.209430
     6  Na  -0.327031   0.028858
     7  Na   0.475915  -0.080890
 Sum of Mulliken charges =  -0.00000   1.00000

 Dipole moment (field-independent basis, Debye):
    X=              0.3826    Y=             -0.6625    Z=              0.2128  Tot=              0.7941
 Quadrupole moment (field-independent basis, Debye-Ang):
   XX=            -61.4636   YY=            -61.8127   ZZ=            -70.9390
   XY=             -1.7117   XZ=              0.2944   YZ=             -1.4326

 Normal termination of Gaussian 16 at Wed Nov 29 16:40:30 2023.
