 Gaussian 16, Revision B.01,
 Gaussian 16:  ES64L-G16RevB.01 20-Dec-2017

 -------------------------
 #P B3LYP/6-311+g(d) force
 -------------------------

 -----
 DPGEN
 -----
 Symbolic Z-matrix:
 Charge =  0 Multiplicity = 2

                         Standard orientation:
 ---------------------------------------------------------------------
 Center     Atomic      Atomic             Coordinates (Angstroms)
 Number     Number       Type             X           Y           Z
 ---------------------------------------------------------------------
      1         11           0       -0.371487    3.114497    0.099714
      2         11           0        2.249618   -2.297688    0.091868
      3         11           0       -1.555799   -2.608383   -0.267600
      4         11           0       -3.146976    0.341406   -0.083071
      5         11           0        2.615746    1.267639   -0.309390
      6         11           0        0.076925   -0.041471    1.815110
      7         11           0        0.131973    0.224001   -1.346632
 ---------------------------------------------------------------------

 SCF Done:  E(UB3LYP) =  -1136.13520689     A.U. after   20 cycles

 The electronic state is 2-A.
 Alpha  occ. eigenvalues --  -38.43903 -38.43801 -38.43789 -38.43754 -38.43750
 Alpha  occ. eigenvalues --  -38.42959 -38.42844  -2.19728  -2.19712  -2.19606
 Alpha  occ. eigenvalues --   -2.19593  -2.19590  -2.18922  -2.18908  -1.13501
 Alpha  occ. eigenvalues --   -1.13406  -1.13397  -1.13373  -1.13356  -1.13319
 Alpha  occ. eigenvalues --   -1.13277  -1.13274  -1.13272  -1.13262  -1.13252
 Alpha  occ. eigenvalues --   -1.13250  -1.13247  -1.13221  -1.13213  -1.12697
 Alpha  occ. eigenvalues --   -1.12566  -1.12541  -1.12523  -1.12518  -1.12501
 Alpha  occ. eigenvalues --   -0.18820  -0.13068  -0.12664  -0.10139
 Alpha virt. eigenvalues --   -0.05406  -0.05371  -0.05153  -0.02864  -0.02686
 Alpha virt. eigenvalues --   -0.01934  -0.01548  -0.01424  -0.00543  -0.00493
 Alpha virt. eigenvalues --    0.00047   0.00336   0.00812   0.00838   0.00853

  Beta  occ. eigenvalues --  -38.43900 -38.43786 -38.43785 -38.43747 -38.43746
  Beta  occ. eigenvalues --  -38.42869 -38.42791  -2.19726  -2.19688  -2.19604
  Beta  occ. eigenvalues --   -2.19587  -2.19581  -2.18826  -2.18743  -1.13478
  Beta  occ. eigenvalues --   -1.13403  -1.13387  -1.13364  -1.13315  -1.13309
  Beta  occ. eigenvalues --   -1.13269  -1.13267  -1.13253  -1.13252  -1.13246
  Beta  occ. eigenvalues --   -1.13234  -1.13231  -1.13215  -1.13207  -1.12605
  Beta  occ. eigenvalues --   -1.12492  -1.12450  -1.12442  -1.12408  -1.12382
  Beta  occ. eigenvalues --   -0.18121  -0.12783  -0.12437
  Beta virt. eigenvalues --   -0.06274  -0.05406  -0.05350  -0.05087  -0.02098
  Beta virt. eigenvalues --   -0.01966  -0.01465  -0.01343  -0.00947  -0.00583
  Beta virt. eigenvalues --   -0.00523   0.00187   0.00386   0.00836   0.00852

 Mulliken charges and spin densities:
               1          2
     1  Na   0.194656  -0.034209
     2  Na   0.134136  -0.036028
     3  Na   0.053530  -0.033469
     4  Na   0.086381  -0.050154
     5  Na   0.503362   0.037116
     6  Na  -0.359377   0.809709
     7  Na  -0.612688   0.307035
 Sum of Mulliken charges =  -0.00000   1.00000

 Dipole moment (field-independent basis, Debye):
    X=             -0.1020    Y=             -0.0075    Z=              0.1803  Tot=              0.2073
 Quadrupole moment (field-independent basis, Debye-Ang):
   XX=            -56.6661   YY=            -56.3600   ZZ=            -77.6383
   XY=             -1.4188   XZ=              0.0975   YZ=              0.6547

 Normal termination of Gaussian 16 at Thu Dec  7 01:54:09 2023.
