 Gaussian 16, Revision B.01,
 Gaussian 16:  ES64L-G16RevB.01 20-Dec-2017

 -------------------------
 #P B3LYP/6-311+g(d) force
 -------------------------

 -----
 DPGEN
 -----
 Symbolic Z-matrix:
 Charge =  0 Multiplicity = 2

                         Standard orientation:
 ---------------------------------------------------------------------
 Center     Atomic      Atomic             Coordinates (Angstroms)
 Number     Number       Type             X           Y           Z
 ---------------------------------------------------------------------
      1         11           0       -3.370359    0.461031   -0.726025
      2         11           0       -0.392574    2.538474    0.185473
      3         11           0       -0.153338    0.565673    1.932415
      4         11           0        3.434238    0.832796   -0.475492
      5         11           0       -1.755778   -2.039388    0.467236
      6         11           0        1.979596   -1.855830    0.425672
      7         11           0        0.258215   -0.502756   -1.809279
 ---------------------------------------------------------------------

 SCF Done:  E(UB3LYP) =  -1136.12149307     A.U. after   21 cycles

 The electronic state is 2-A.
 Alpha  occ. eigenvalues --  -38.44888 -38.44816 -38.44227 -38.43753 -38.43455
 Alpha  occ. eigenvalues --  -38.43081 -38.42952  -2.20692  -2.20633  -2.20132
 Alpha  occ. eigenvalues --   -2.19745  -2.19362  -2.18973  -2.18861  -1.14379
 Alpha  occ. eigenvalues --   -1.14347  -1.14315  -1.14313  -1.14285  -1.14253
 Alpha  occ. eigenvalues --   -1.13843  -1.13784  -1.13739  -1.13640  -1.13359
 Alpha  occ. eigenvalues --   -1.13320  -1.13051  -1.13021  -1.12985  -1.12653
 Alpha  occ. eigenvalues --   -1.12633  -1.12611  -1.12543  -1.12482  -1.12421
 Alpha  occ. eigenvalues --   -0.18778  -0.13625  -0.11690  -0.11184
 Alpha virt. eigenvalues --   -0.06585  -0.04928  -0.03738  -0.03561  -0.02942
 Alpha virt. eigenvalues --   -0.02615  -0.02304  -0.01065  -0.00190  -0.00013
 Alpha virt. eigenvalues --    0.00037   0.00270   0.00641   0.00793   0.00889

  Beta  occ. eigenvalues --  -38.44877 -38.44792 -38.44180 -38.43668 -38.43444
  Beta  occ. eigenvalues --  -38.43068 -38.42946  -2.20673  -2.20589  -2.20046
  Beta  occ. eigenvalues --   -2.19591  -2.19345  -2.18954  -2.18854  -1.14367
  Beta  occ. eigenvalues --   -1.14324  -1.14303  -1.14284  -1.14246  -1.14225
  Beta  occ. eigenvalues --   -1.13782  -1.13726  -1.13673  -1.13538  -1.13249
  Beta  occ. eigenvalues --   -1.13217  -1.13041  -1.13002  -1.12952  -1.12643
  Beta  occ. eigenvalues --   -1.12611  -1.12577  -1.12516  -1.12460  -1.12420
  Beta  occ. eigenvalues --   -0.18049  -0.13348  -0.11443
  Beta virt. eigenvalues --   -0.07375  -0.06402  -0.04792  -0.03603  -0.03062
  Beta virt. eigenvalues --   -0.02264  -0.02062  -0.01655  -0.00934  -0.00124
  Beta virt. eigenvalues --    0.00012   0.00080   0.00332   0.00750   0.00858

 Mulliken charges and spin densities:
               1          2
     1  Na  -0.033351   0.145051
     2  Na   0.302566   0.095411
     3  Na  -0.383951   0.155356
     4  Na   0.051096   0.007782
     5  Na   0.293535   0.097810
     6  Na   0.366883   0.053852
     7  Na  -0.596778   0.444737
 Sum of Mulliken charges =  -0.00000   1.00000

 Dipole moment (field-independent basis, Debye):
    X=              0.2640    Y=              0.0587    Z=             -0.4564  Tot=              0.5305
 Quadrupole moment (field-independent basis, Debye-Ang):
   XX=            -50.3479   YY=            -72.7616   ZZ=            -70.9656
   XY=              0.7365   XZ=              1.0963   YZ=             -4.0971

 Normal termination of Gaussian 16 at Thu Dec  7 21:36:10 2023.
