 Gaussian 16, Revision B.01,
 Gaussian 16:  ES64L-G16RevB.01 20-Dec-2017

 -------------------------
 #P B3LYP/6-311+g(d) force
 -------------------------

 -----
 DPGEN
 -----
 Symbolic Z-matrix:
 Charge =  0 Multiplicity = 2

                         Standard orientation:
 ---------------------------------------------------------------------
 Center     Atomic      Atomic             Coordinates (Angstroms)
 Number     Number       Type             X           Y           Z
 ---------------------------------------------------------------------
      1         11           0       -4.566342    0.484103   -0.065857
      2         11           0       -2.084036   -1.856680    0.051958
      3         11           0        1.668972    2.238735    0.252498
      4         11           0        1.205699   -1.023439    1.992187
      5         11           0        3.993922   -0.395488   -0.384491
      6         11           0       -1.149084    1.488611   -0.114643
      7         11           0        0.930868   -0.935843   -1.731652
 ---------------------------------------------------------------------

 SCF Done:  E(UB3LYP) =  -1136.11315238     A.U. after   30 cycles

 The electronic state is 2-A.
 Alpha  occ. eigenvalues --  -38.45613 -38.45125 -38.44920 -38.44513 -38.43440
 Alpha  occ. eigenvalues --  -38.42799 -38.42456  -2.21439  -2.20937  -2.20725
 Alpha  occ. eigenvalues --   -2.20355  -2.19281  -2.18722  -2.18358  -1.15130
 Alpha  occ. eigenvalues --   -1.15091  -1.15071  -1.14599  -1.14580  -1.14565
 Alpha  occ. eigenvalues --   -1.14379  -1.14371  -1.14344  -1.14017  -1.13984
 Alpha  occ. eigenvalues --   -1.13980  -1.12980  -1.12963  -1.12898  -1.12463
 Alpha  occ. eigenvalues --   -1.12413  -1.12369  -1.12017  -1.12006  -1.11975
 Alpha  occ. eigenvalues --   -0.18256  -0.14332  -0.10980  -0.10855
 Alpha virt. eigenvalues --   -0.08113  -0.05015  -0.04158  -0.03473  -0.03165
 Alpha virt. eigenvalues --   -0.02293  -0.02111  -0.01537  -0.01075  -0.00804
 Alpha virt. eigenvalues --   -0.00232   0.00174   0.00234   0.00631   0.00745

  Beta  occ. eigenvalues --  -38.45603 -38.45071 -38.44865 -38.44448 -38.43436
  Beta  occ. eigenvalues --  -38.42795 -38.42448  -2.21424  -2.20840  -2.20620
  Beta  occ. eigenvalues --   -2.20234  -2.19276  -2.18717  -2.18346  -1.15111
  Beta  occ. eigenvalues --   -1.15088  -1.15045  -1.14521  -1.14515  -1.14497
  Beta  occ. eigenvalues --   -1.14307  -1.14299  -1.14277  -1.13924  -1.13906
  Beta  occ. eigenvalues --   -1.13900  -1.12983  -1.12958  -1.12869  -1.12450
  Beta  occ. eigenvalues --   -1.12404  -1.12361  -1.12012  -1.11988  -1.11957
  Beta  occ. eigenvalues --   -0.17731  -0.13726  -0.10763
  Beta virt. eigenvalues --   -0.07876  -0.07259  -0.04872  -0.03562  -0.03158
  Beta virt. eigenvalues --   -0.03020  -0.01948  -0.01805  -0.01151  -0.00605
  Beta virt. eigenvalues --   -0.00466  -0.00148   0.00236   0.00351   0.00693

 Mulliken charges and spin densities:
               1          2
     1  Na   0.538732   0.244532
     2  Na   0.160801   0.067121
     3  Na   0.169769   0.171143
     4  Na  -0.187949   0.218186
     5  Na   0.240044   0.316779
     6  Na  -1.079172  -0.125770
     7  Na   0.157775   0.108009
 Sum of Mulliken charges =  -0.00000   1.00000

 Dipole moment (field-independent basis, Debye):
    X=             -0.0679    Y=             -0.7243    Z=              0.6714  Tot=              0.9900
 Quadrupole moment (field-independent basis, Debye-Ang):
   XX=            -53.5160   YY=            -81.0322   ZZ=            -63.8427
   XY=              0.6072   XZ=              3.6120   YZ=             -1.1401

 Normal termination of Gaussian 16 at Thu Dec  7 20:37:49 2023.
