 Gaussian 16, Revision B.01,
 Gaussian 16:  ES64L-G16RevB.01 20-Dec-2017

 -------------------------
 #P B3LYP/6-311+g(d) force
 -------------------------

 -----
 DPGEN
 -----
 Symbolic Z-matrix:
 Charge =  0 Multiplicity = 2

                         Standard orientation:
 ---------------------------------------------------------------------
 Center     Atomic      Atomic             Coordinates (Angstroms)
 Number     Number       Type             X           Y           Z
 ---------------------------------------------------------------------
      1         11           0        0.989924   -0.261032   -1.851199
      2         11           0       -0.272595    2.604290   -0.160117
      3         11           0        2.697373    1.376681    0.431547
      4         11           0        2.012980   -1.939827    0.389735
      5         11           0       -0.981132   -0.188243    1.937251
      6         11           0       -1.350951   -2.265643   -0.327893
      7         11           0       -3.095600    0.673774   -0.419323
 ---------------------------------------------------------------------

 SCF Done:  E(UB3LYP) =  -1136.13444780     A.U. after   19 cycles

 The electronic state is 2-A.
 Alpha  occ. eigenvalues --  -38.44147 -38.43809 -38.43699 -38.43580 -38.43573
 Alpha  occ. eigenvalues --  -38.43283 -38.43067  -2.19998  -2.19681  -2.19626
 Alpha  occ. eigenvalues --   -2.19544  -2.19479  -2.19196  -2.18938  -1.13675
 Alpha  occ. eigenvalues --   -1.13656  -1.13646  -1.13394  -1.13348  -1.13336
 Alpha  occ. eigenvalues --   -1.13327  -1.13320  -1.13264  -1.13237  -1.13192
 Alpha  occ. eigenvalues --   -1.13149  -1.13122  -1.13095  -1.13071  -1.12877
 Alpha  occ. eigenvalues --   -1.12860  -1.12806  -1.12619  -1.12610  -1.12569
 Alpha  occ. eigenvalues --   -0.18923  -0.13475  -0.12405  -0.10905
 Alpha virt. eigenvalues --   -0.05664  -0.05179  -0.04357  -0.03710  -0.02955
 Alpha virt. eigenvalues --   -0.02547  -0.01403  -0.00859  -0.00113  -0.00081
 Alpha virt. eigenvalues --   -0.00036   0.00384   0.00812   0.00911   0.00946

  Beta  occ. eigenvalues --  -38.44141 -38.43801 -38.43629 -38.43563 -38.43514
  Beta  occ. eigenvalues --  -38.43272 -38.43061  -2.19989  -2.19669  -2.19497
  Beta  occ. eigenvalues --   -2.19469  -2.19420  -2.19179  -2.18930  -1.13667
  Beta  occ. eigenvalues --   -1.13643  -1.13632  -1.13374  -1.13338  -1.13308
  Beta  occ. eigenvalues --   -1.13287  -1.13244  -1.13174  -1.13143  -1.13117
  Beta  occ. eigenvalues --   -1.13098  -1.13089  -1.13053  -1.13016  -1.12865
  Beta  occ. eigenvalues --   -1.12811  -1.12799  -1.12616  -1.12578  -1.12566
  Beta  occ. eigenvalues --   -0.18190  -0.13293  -0.12158
  Beta virt. eigenvalues --   -0.07048  -0.05513  -0.05150  -0.04256  -0.03008
  Beta virt. eigenvalues --   -0.02197  -0.01550  -0.01314  -0.00803  -0.00123
  Beta virt. eigenvalues --   -0.00061   0.00091   0.00429   0.00907   0.00924

 Mulliken charges and spin densities:
               1          2
     1  Na  -0.436021   0.489911
     2  Na   0.046308  -0.066983
     3  Na   0.084860   0.015742
     4  Na   0.365974   0.032216
     5  Na  -0.589257   0.549439
     6  Na   0.348261  -0.018300
     7  Na   0.179876  -0.002024
 Sum of Mulliken charges =  -0.00000   1.00000

 Dipole moment (field-independent basis, Debye):
    X=             -0.1370    Y=              0.0182    Z=              0.0569  Tot=              0.1495
 Quadrupole moment (field-independent basis, Debye-Ang):
   XX=            -56.5975   YY=            -67.6700   ZZ=            -71.1185
   XY=             -0.2867   XZ=              3.2533   YZ=             -0.1753

 Normal termination of Gaussian 16 at Tue Dec  5 16:46:38 2023.
