 Gaussian 16, Revision B.01,
 Gaussian 16:  ES64L-G16RevB.01 20-Dec-2017

 -------------------------
 #P B3LYP/6-311+g(d) force
 -------------------------

 -----
 DPGEN
 -----
 Symbolic Z-matrix:
 Charge =  0 Multiplicity = 2

                         Standard orientation:
 ---------------------------------------------------------------------
 Center     Atomic      Atomic             Coordinates (Angstroms)
 Number     Number       Type             X           Y           Z
 ---------------------------------------------------------------------
      1         11           0       -3.312882    0.391759    0.301159
      2         11           0        2.028827   -2.511952   -0.434050
      3         11           0       -0.605838    0.434596   -1.722737
      4         11           0       -0.250311    3.184214   -0.033963
      5         11           0        3.204976    1.210091   -0.028424
      6         11           0       -1.484707   -2.474835   -0.058686
      7         11           0        0.419934   -0.233872    1.976701
 ---------------------------------------------------------------------

 SCF Done:  E(UB3LYP) =  -1136.13307882     A.U. after   19 cycles

 The electronic state is 2-A.
 Alpha  occ. eigenvalues --  -38.44651 -38.44322 -38.43968 -38.43816 -38.43562
 Alpha  occ. eigenvalues --  -38.43437 -38.43358  -2.20401  -2.20131  -2.19761
 Alpha  occ. eigenvalues --   -2.19608  -2.19414  -2.19296  -2.19264  -1.14083
 Alpha  occ. eigenvalues --   -1.14056  -1.14041  -1.13806  -1.13788  -1.13775
 Alpha  occ. eigenvalues --   -1.13463  -1.13423  -1.13384  -1.13278  -1.13269
 Alpha  occ. eigenvalues --   -1.13253  -1.13091  -1.13047  -1.13033  -1.12992
 Alpha  occ. eigenvalues --   -1.12962  -1.12936  -1.12925  -1.12891  -1.12886
 Alpha  occ. eigenvalues --   -0.17941  -0.12777  -0.12452  -0.10282
 Alpha virt. eigenvalues --   -0.06136  -0.05322  -0.04992  -0.03131  -0.02901
 Alpha virt. eigenvalues --   -0.02278  -0.01750  -0.01278  -0.00874  -0.00586
 Alpha virt. eigenvalues --   -0.00034   0.00343   0.00703   0.00780   0.00810

  Beta  occ. eigenvalues --  -38.44653 -38.44316 -38.43965 -38.43806 -38.43479
  Beta  occ. eigenvalues --  -38.43429 -38.43298  -2.20406  -2.20123  -2.19758
  Beta  occ. eigenvalues --   -2.19591  -2.19286  -2.19262  -2.19153  -1.14071
  Beta  occ. eigenvalues --   -1.14060  -1.14047  -1.13797  -1.13773  -1.13767
  Beta  occ. eigenvalues --   -1.13453  -1.13410  -1.13386  -1.13259  -1.13253
  Beta  occ. eigenvalues --   -1.13239  -1.13000  -1.12972  -1.12948  -1.12928
  Beta  occ. eigenvalues --   -1.12919  -1.12911  -1.12862  -1.12814  -1.12808
  Beta  occ. eigenvalues --   -0.17249  -0.12603  -0.12217
  Beta virt. eigenvalues --   -0.06529  -0.06080  -0.05251  -0.04873  -0.02437
  Beta virt. eigenvalues --   -0.02179  -0.01662  -0.01331  -0.01166  -0.00901
  Beta virt. eigenvalues --   -0.00632   0.00126   0.00383   0.00732   0.00833

 Mulliken charges and spin densities:
               1          2
     1  Na   0.152395  -0.033196
     2  Na  -0.090982  -0.006477
     3  Na   0.032968   0.577654
     4  Na  -0.004501  -0.187302
     5  Na  -0.027325  -0.117404
     6  Na   0.177500   0.054403
     7  Na  -0.240055   0.712322
 Sum of Mulliken charges =  -0.00000   1.00000

 Dipole moment (field-independent basis, Debye):
    X=              0.0932    Y=              0.3499    Z=              0.0692  Tot=              0.3686
 Quadrupole moment (field-independent basis, Debye-Ang):
   XX=            -54.7399   YY=            -61.8906   ZZ=            -76.1791
   XY=             -0.1365   XZ=             -2.3796   YZ=              1.5939

 Normal termination of Gaussian 16 at Tue Dec  5 16:54:57 2023.
