 Gaussian 16, Revision B.01,
 Gaussian 16:  ES64L-G16RevB.01 20-Dec-2017

 -------------------------
 #P B3LYP/6-311+g(d) force
 -------------------------

 -----
 DPGEN
 -----
 Symbolic Z-matrix:
 Charge =  0 Multiplicity = 2

                         Standard orientation:
 ---------------------------------------------------------------------
 Center     Atomic      Atomic             Coordinates (Angstroms)
 Number     Number       Type             X           Y           Z
 ---------------------------------------------------------------------
      1         11           0        3.683965   -0.517010    0.311415
      2         11           0        0.552609   -2.002139   -0.949822
      3         11           0        1.344880    1.613381   -0.828022
      4         11           0       -1.586955    0.436099   -1.493452
      5         11           0        0.113012   -0.390420    1.860464
      6         11           0       -2.805127   -1.795120    0.437335
      7         11           0       -1.302385    2.655210    0.662083
 ---------------------------------------------------------------------

 SCF Done:  E(UB3LYP) =  -1136.13385135     A.U. after   19 cycles

 The electronic state is 2-A.
 Alpha  occ. eigenvalues --  -38.44256 -38.43869 -38.43764 -38.43567 -38.43155
 Alpha  occ. eigenvalues --  -38.43065 -38.43062  -2.20054  -2.19708  -2.19679
 Alpha  occ. eigenvalues --   -2.19465  -2.19163  -2.19006  -2.18958  -1.13732
 Alpha  occ. eigenvalues --   -1.13717  -1.13684  -1.13404  -1.13392  -1.13364
 Alpha  occ. eigenvalues --   -1.13339  -1.13320  -1.13274  -1.13184  -1.13140
 Alpha  occ. eigenvalues --   -1.13039  -1.12885  -1.12853  -1.12779  -1.12703
 Alpha  occ. eigenvalues --   -1.12688  -1.12638  -1.12599  -1.12594  -1.12547
 Alpha  occ. eigenvalues --   -0.18942  -0.13117  -0.12232  -0.11097
 Alpha virt. eigenvalues --   -0.06084  -0.04718  -0.04101  -0.03287  -0.03032
 Alpha virt. eigenvalues --   -0.02603  -0.01907  -0.01001  -0.00426   0.00172
 Alpha virt. eigenvalues --    0.00231   0.00320   0.00729   0.00845   0.00871

  Beta  occ. eigenvalues --  -38.44258 -38.43864 -38.43685 -38.43539 -38.43104
  Beta  occ. eigenvalues --  -38.43054 -38.43042  -2.20058  -2.19702  -2.19534
  Beta  occ. eigenvalues --   -2.19417  -2.19073  -2.18974  -2.18940  -1.13736
  Beta  occ. eigenvalues --   -1.13711  -1.13688  -1.13398  -1.13351  -1.13333
  Beta  occ. eigenvalues --   -1.13291  -1.13218  -1.13172  -1.13144  -1.13076
  Beta  occ. eigenvalues --   -1.13009  -1.12834  -1.12779  -1.12724  -1.12678
  Beta  occ. eigenvalues --   -1.12650  -1.12606  -1.12575  -1.12564  -1.12529
  Beta  occ. eigenvalues --   -0.18147  -0.12971  -0.12021
  Beta virt. eigenvalues --   -0.07053  -0.05978  -0.04675  -0.04002  -0.02713
  Beta virt. eigenvalues --   -0.02321  -0.01837  -0.01550  -0.00933  -0.00126
  Beta virt. eigenvalues --    0.00138   0.00252   0.00366   0.00817   0.00890

 Mulliken charges and spin densities:
               1          2
     1  Na   0.492707  -0.066832
     2  Na  -0.321582   0.097872
     3  Na  -0.400266   0.133104
     4  Na   0.611628   0.267483
     5  Na  -0.334452   0.708663
     6  Na  -0.063925  -0.085861
     7  Na   0.015889  -0.054430
 Sum of Mulliken charges =  -0.00000   1.00000

 Dipole moment (field-independent basis, Debye):
    X=              0.2672    Y=             -0.3557    Z=              0.3400  Tot=              0.5599
 Quadrupole moment (field-independent basis, Debye-Ang):
   XX=            -53.1896   YY=            -68.3941   ZZ=            -70.9835
   XY=             -0.2115   XZ=             -0.7128   YZ=              0.9203

 Normal termination of Gaussian 16 at Thu Dec  7 17:15:54 2023.
