 Gaussian 16, Revision B.01,
 Gaussian 16:  ES64L-G16RevB.01 20-Dec-2017

 -------------------------
 #P B3LYP/6-311+g(d) force
 -------------------------

 -----
 DPGEN
 -----
 Symbolic Z-matrix:
 Charge =  0 Multiplicity = 2

                         Standard orientation:
 ---------------------------------------------------------------------
 Center     Atomic      Atomic             Coordinates (Angstroms)
 Number     Number       Type             X           Y           Z
 ---------------------------------------------------------------------
      1         11           0        1.452618   -0.629824    1.944959
      2         11           0       -1.652010   -1.384348    1.283308
      3         11           0       -2.196431    1.884150    0.878316
      4         11           0       -3.330289   -0.516751   -1.504022
      5         11           0        2.623127    1.968383   -0.349162
      6         11           0        3.221915   -1.279643   -0.938988
      7         11           0       -0.118930   -0.041966   -1.314412
 ---------------------------------------------------------------------

 SCF Done:  E(UB3LYP) =  -1136.12040493     A.U. after   26 cycles

 The electronic state is 2-A.
 Alpha  occ. eigenvalues --  -38.45103 -38.45033 -38.44559 -38.43821 -38.43731
 Alpha  occ. eigenvalues --  -38.42855 -38.42381  -2.20934  -2.20867  -2.20389
 Alpha  occ. eigenvalues --   -2.19687  -2.19664  -2.18785  -2.18255  -1.14607
 Alpha  occ. eigenvalues --   -1.14580  -1.14564  -1.14533  -1.14516  -1.14476
 Alpha  occ. eigenvalues --   -1.14055  -1.14042  -1.14010  -1.13400  -1.13371
 Alpha  occ. eigenvalues --   -1.13353  -1.13338  -1.13320  -1.13246  -1.12487
 Alpha  occ. eigenvalues --   -1.12450  -1.12403  -1.11940  -1.11927  -1.11885
 Alpha  occ. eigenvalues --   -0.18432  -0.14624  -0.10944  -0.10583
 Alpha virt. eigenvalues --   -0.06488  -0.06112  -0.04899  -0.03063  -0.02461
 Alpha virt. eigenvalues --   -0.02268  -0.02133  -0.01386  -0.00645  -0.00383
 Alpha virt. eigenvalues --    0.00185   0.00224   0.00356   0.00392   0.00495

  Beta  occ. eigenvalues --  -38.45085 -38.44972 -38.44523 -38.43801 -38.43706
  Beta  occ. eigenvalues --  -38.42845 -38.42381  -2.20900  -2.20752  -2.20321
  Beta  occ. eigenvalues --   -2.19651  -2.19625  -2.18770  -2.18257  -1.14580
  Beta  occ. eigenvalues --   -1.14558  -1.14539  -1.14450  -1.14436  -1.14397
  Beta  occ. eigenvalues --   -1.14005  -1.13995  -1.13961  -1.13366  -1.13331
  Beta  occ. eigenvalues --   -1.13316  -1.13300  -1.13288  -1.13223  -1.12480
  Beta  occ. eigenvalues --   -1.12421  -1.12392  -1.11943  -1.11907  -1.11889
  Beta  occ. eigenvalues --   -0.17792  -0.14399  -0.10442
  Beta virt. eigenvalues --   -0.07372  -0.06164  -0.05301  -0.04796  -0.02790
  Beta virt. eigenvalues --   -0.02336  -0.01726  -0.01637  -0.00812  -0.00506
  Beta virt. eigenvalues --   -0.00172   0.00228   0.00360   0.00451   0.00527

 Mulliken charges and spin densities:
               1          2
     1  Na  -0.131785   0.177961
     2  Na  -0.031978  -0.048355
     3  Na  -0.335319   0.372762
     4  Na   0.694730  -0.005100
     5  Na  -0.001719   0.190152
     6  Na   0.579525  -0.130112
     7  Na  -0.773453   0.442692
 Sum of Mulliken charges =  -0.00000   1.00000

 Dipole moment (field-independent basis, Debye):
    X=              0.3757    Y=              0.2469    Z=             -0.1205  Tot=              0.4654
 Quadrupole moment (field-independent basis, Debye-Ang):
   XX=            -48.9735   YY=            -66.2440   ZZ=            -78.7667
   XY=             -1.9233   XZ=             -1.1759   YZ=              6.3518

 Normal termination of Gaussian 16 at Tue Dec  5 14:02:40 2023.
