 Gaussian 16, Revision B.01,
 Gaussian 16:  ES64L-G16RevB.01 20-Dec-2017

 -------------------------
 #P B3LYP/6-311+g(d) force
 -------------------------

 -----
 DPGEN
 -----
 Symbolic Z-matrix:
 Charge =  0 Multiplicity = 2

                         Standard orientation:
 ---------------------------------------------------------------------
 Center     Atomic      Atomic             Coordinates (Angstroms)
 Number     Number       Type             X           Y           Z
 ---------------------------------------------------------------------
      1         11           0        2.833861   -1.468243   -0.147749
      2         11           0       -0.545699   -2.705634    0.256359
      3         11           0       -1.167275    2.665062   -0.367070
      4         11           0       -3.278605   -0.558492    0.007065
      5         11           0       -0.197820   -0.386828   -1.686993
      6         11           0        2.061637    1.791177   -0.424345
      7         11           0        0.293901    0.662958    2.362735
 ---------------------------------------------------------------------

 SCF Done:  E(UB3LYP) =  -1136.13644437     A.U. after   18 cycles

 The electronic state is 2-A.
 Alpha  occ. eigenvalues --  -38.44172 -38.44099 -38.43656 -38.43482 -38.43452
 Alpha  occ. eigenvalues --  -38.43387 -38.43380  -2.20006  -2.19896  -2.19481
 Alpha  occ. eigenvalues --   -2.19424  -2.19346  -2.19281  -2.19222  -1.13651
 Alpha  occ. eigenvalues --   -1.13638  -1.13624  -1.13570  -1.13554  -1.13540
 Alpha  occ. eigenvalues --   -1.13212  -1.13164  -1.13142  -1.13132  -1.13104
 Alpha  occ. eigenvalues --   -1.13031  -1.13003  -1.12985  -1.12957  -1.12946
 Alpha  occ. eigenvalues --   -1.12943  -1.12926  -1.12889  -1.12877  -1.12840
 Alpha  occ. eigenvalues --   -0.18448  -0.12823  -0.12454  -0.11092
 Alpha virt. eigenvalues --   -0.05615  -0.05029  -0.04618  -0.03379  -0.03054
 Alpha virt. eigenvalues --   -0.02881  -0.01505  -0.01006  -0.00245  -0.00205
 Alpha virt. eigenvalues --   -0.00095   0.00351   0.00766   0.00893   0.00920

  Beta  occ. eigenvalues --  -38.44100 -38.44067 -38.43654 -38.43476 -38.43397
  Beta  occ. eigenvalues --  -38.43376 -38.43373  -2.19899  -2.19810  -2.19481
  Beta  occ. eigenvalues --   -2.19341  -2.19322  -2.19266  -2.19214  -1.13560
  Beta  occ. eigenvalues --   -1.13557  -1.13545  -1.13521  -1.13500  -1.13486
  Beta  occ. eigenvalues --   -1.13173  -1.13159  -1.13129  -1.13126  -1.13049
  Beta  occ. eigenvalues --   -1.12983  -1.12969  -1.12957  -1.12940  -1.12928
  Beta  occ. eigenvalues --   -1.12919  -1.12896  -1.12873  -1.12855  -1.12837
  Beta  occ. eigenvalues --   -0.17722  -0.12639  -0.12253
  Beta virt. eigenvalues --   -0.07096  -0.05589  -0.05032  -0.04465  -0.02594
  Beta virt. eigenvalues --   -0.02322  -0.01827  -0.01436  -0.00946  -0.00275
  Beta virt. eigenvalues --   -0.00251   0.00098   0.00384   0.00854   0.00880

 Mulliken charges and spin densities:
               1          2
     1  Na   0.126483   0.005766
     2  Na   0.070421   0.084027
     3  Na   0.154669  -0.021340
     4  Na   0.081286  -0.033859
     5  Na  -0.030628   0.201923
     6  Na   0.346584   0.069073
     7  Na  -0.748815   0.694409
 Sum of Mulliken charges =  -0.00000   1.00000

 Dipole moment (field-independent basis, Debye):
    X=             -0.2441    Y=             -0.0570    Z=              0.2454  Tot=              0.3508
 Quadrupole moment (field-independent basis, Debye-Ang):
   XX=            -57.7111   YY=            -65.3207   ZZ=            -71.8873
   XY=             -1.0977   XZ=             -0.8436   YZ=             -1.7553

 Normal termination of Gaussian 16 at Thu Dec  7 20:44:14 2023.
