 Gaussian 16, Revision B.01,
 Gaussian 16:  ES64L-G16RevB.01 20-Dec-2017

 -------------------------
 #P B3LYP/6-311+g(d) force
 -------------------------

 -----
 DPGEN
 -----
 Symbolic Z-matrix:
 Charge =  0 Multiplicity = 2

                         Standard orientation:
 ---------------------------------------------------------------------
 Center     Atomic      Atomic             Coordinates (Angstroms)
 Number     Number       Type             X           Y           Z
 ---------------------------------------------------------------------
      1         11           0       -0.021905   -0.377818    1.955182
      2         11           0        0.367047   -0.018752   -1.769873
      3         11           0       -1.179852   -2.360847    0.065875
      4         11           0        2.376310   -1.502352   -0.126916
      5         11           0       -3.027468    0.273752   -0.458899
      6         11           0        2.463242    1.600822    0.002769
      7         11           0       -0.977373    2.385194    0.331862
 ---------------------------------------------------------------------

 SCF Done:  E(UB3LYP) =  -1136.13107665     A.U. after   19 cycles

 The electronic state is 2-A.
 Alpha  occ. eigenvalues --  -38.44064 -38.43704 -38.43657 -38.43638 -38.43576
 Alpha  occ. eigenvalues --  -38.43019 -38.42944  -2.19953  -2.19655  -2.19644
 Alpha  occ. eigenvalues --   -2.19601  -2.19543  -2.18956  -2.18859  -1.13648
 Alpha  occ. eigenvalues --   -1.13609  -1.13595  -1.13493  -1.13365  -1.13354
 Alpha  occ. eigenvalues --   -1.13303  -1.13286  -1.13275  -1.13245  -1.13225
 Alpha  occ. eigenvalues --   -1.13183  -1.13176  -1.13157  -1.13148  -1.12649
 Alpha  occ. eigenvalues --   -1.12613  -1.12563  -1.12541  -1.12519  -1.12491
 Alpha  occ. eigenvalues --   -0.19564  -0.13614  -0.12314  -0.11322
 Alpha virt. eigenvalues --   -0.05599  -0.05011  -0.04034  -0.03595  -0.02949
 Alpha virt. eigenvalues --   -0.02763  -0.01471  -0.00835  -0.00096   0.00113
 Alpha virt. eigenvalues --    0.00180   0.00371   0.00847   0.00960   0.00994

  Beta  occ. eigenvalues --  -38.44056 -38.43694 -38.43634 -38.43564 -38.43503
  Beta  occ. eigenvalues --  -38.43010 -38.42934  -2.19940  -2.19641  -2.19540
  Beta  occ. eigenvalues --   -2.19475  -2.19469  -2.18946  -2.18847  -1.13643
  Beta  occ. eigenvalues --   -1.13599  -1.13569  -1.13459  -1.13335  -1.13279
  Beta  occ. eigenvalues --   -1.13243  -1.13228  -1.13175  -1.13159  -1.13153
  Beta  occ. eigenvalues --   -1.13143  -1.13124  -1.13104  -1.13087  -1.12635
  Beta  occ. eigenvalues --   -1.12574  -1.12561  -1.12535  -1.12491  -1.12476
  Beta  occ. eigenvalues --   -0.18800  -0.13336  -0.12036
  Beta virt. eigenvalues --   -0.07344  -0.05537  -0.05014  -0.04015  -0.02757
  Beta virt. eigenvalues --   -0.02127  -0.01689  -0.01371  -0.00797  -0.00004
  Beta virt. eigenvalues --    0.00126   0.00143   0.00391   0.00916   0.00945

 Mulliken charges and spin densities:
               1          2
     1  Na  -0.664043   0.617174
     2  Na  -0.641459   0.503202
     3  Na   0.498642  -0.027567
     4  Na   0.536861  -0.056040
     5  Na  -0.092799  -0.005923
     6  Na   0.113295  -0.039991
     7  Na   0.249502   0.009146
 Sum of Mulliken charges =  -0.00000   1.00000

 Dipole moment (field-independent basis, Debye):
    X=              0.0756    Y=             -0.0302    Z=              0.0004  Tot=              0.0814
 Quadrupole moment (field-independent basis, Debye-Ang):
   XX=            -56.2461   YY=            -67.6532   ZZ=            -71.3696
   XY=              0.4677   XZ=              1.3703   YZ=              0.8331

 Normal termination of Gaussian 16 at Thu Dec  7 05:14:41 2023.
