 Gaussian 16, Revision B.01,
 Gaussian 16:  ES64L-G16RevB.01 20-Dec-2017

 -------------------------
 #P B3LYP/6-311+g(d) force
 -------------------------

 -----
 DPGEN
 -----
 Symbolic Z-matrix:
 Charge =  0 Multiplicity = 2

                         Standard orientation:
 ---------------------------------------------------------------------
 Center     Atomic      Atomic             Coordinates (Angstroms)
 Number     Number       Type             X           Y           Z
 ---------------------------------------------------------------------
      1         11           0       -2.473804   -1.517043   -0.518478
      2         11           0        4.182374   -0.818469    0.533515
      3         11           0        1.065758   -1.386888   -1.456940
      4         11           0        0.255851   -0.399947    2.064532
      5         11           0       -4.516252    0.630792    0.518697
      6         11           0        2.835564    2.105427   -0.403120
      7         11           0       -1.349491    1.386127   -0.738206
 ---------------------------------------------------------------------

 SCF Done:  E(UB3LYP) =  -1136.10666797     A.U. after   36 cycles

 The electronic state is 2-A.
 Alpha  occ. eigenvalues --  -38.46599 -38.44440 -38.44309 -38.44268 -38.43741
 Alpha  occ. eigenvalues --  -38.43569 -38.42917  -2.22356  -2.20240  -2.20220
 Alpha  occ. eigenvalues --   -2.20156  -2.19537  -2.19404  -2.18765  -1.16054
 Alpha  occ. eigenvalues --   -1.15983  -1.15967  -1.13989  -1.13918  -1.13903
 Alpha  occ. eigenvalues --   -1.13880  -1.13876  -1.13865  -1.13816  -1.13779
 Alpha  occ. eigenvalues --   -1.13732  -1.13220  -1.13190  -1.13168  -1.13087
 Alpha  occ. eigenvalues --   -1.13061  -1.13035  -1.12450  -1.12411  -1.12397
 Alpha  occ. eigenvalues --   -0.17871  -0.14335  -0.10778  -0.10428
 Alpha virt. eigenvalues --   -0.08101  -0.05495  -0.04550  -0.03506  -0.02988
 Alpha virt. eigenvalues --   -0.02279  -0.02186  -0.01636  -0.01361  -0.00504
 Alpha virt. eigenvalues --   -0.00388   0.00080   0.00171   0.00519   0.00561

  Beta  occ. eigenvalues --  -38.46563 -38.44416 -38.44301 -38.44221 -38.43716
  Beta  occ. eigenvalues --  -38.43557 -38.42906  -2.22289  -2.20207  -2.20193
  Beta  occ. eigenvalues --   -2.20071  -2.19492  -2.19385  -2.18743  -1.15995
  Beta  occ. eigenvalues --   -1.15936  -1.15922  -1.13968  -1.13886  -1.13883
  Beta  occ. eigenvalues --   -1.13852  -1.13839  -1.13811  -1.13803  -1.13730
  Beta  occ. eigenvalues --   -1.13655  -1.13192  -1.13162  -1.13119  -1.13052
  Beta  occ. eigenvalues --   -1.13044  -1.13027  -1.12432  -1.12395  -1.12386
  Beta  occ. eigenvalues --   -0.17266  -0.14113  -0.10321
  Beta virt. eigenvalues --   -0.07747  -0.07110  -0.05228  -0.04193  -0.03224
  Beta virt. eigenvalues --   -0.02736  -0.01778  -0.01639  -0.01359  -0.01038
  Beta virt. eigenvalues --   -0.00434  -0.00322   0.00117   0.00339   0.00605

 Mulliken charges and spin densities:
               1          2
     1  Na   0.444708   0.094139
     2  Na   0.319523   0.195984
     3  Na  -0.192531   0.095698
     4  Na  -0.164748   0.256526
     5  Na   0.456988   0.098296
     6  Na  -0.232083   0.069554
     7  Na  -0.631857   0.189803
 Sum of Mulliken charges =  -0.00000   1.00000

 Dipole moment (field-independent basis, Debye):
    X=              0.3448    Y=             -1.0808    Z=              0.5521  Tot=              1.2617
 Quadrupole moment (field-independent basis, Debye-Ang):
   XX=            -71.1263   YY=            -71.0507   ZZ=            -65.8643
   XY=             -1.5480   XZ=             -1.6457   YZ=              3.9635

 Normal termination of Gaussian 16 at Fri Dec  8 00:59:35 2023.
