 Gaussian 16, Revision B.01,
 Gaussian 16:  ES64L-G16RevB.01 20-Dec-2017

 -------------------------
 #P B3LYP/6-311+g(d) force
 -------------------------

 -----
 DPGEN
 -----
 Symbolic Z-matrix:
 Charge =  0 Multiplicity = 2

                         Standard orientation:
 ---------------------------------------------------------------------
 Center     Atomic      Atomic             Coordinates (Angstroms)
 Number     Number       Type             X           Y           Z
 ---------------------------------------------------------------------
      1         11           0       -1.044096    2.156710   -0.528959
      2         11           0        3.172026   -1.565603   -0.169438
      3         11           0        3.087462    1.442189    0.262077
      4         11           0        0.612493   -0.077047   -0.354656
      5         11           0       -1.990462    0.518443    1.758925
      6         11           0       -2.453410   -0.392154   -1.453779
      7         11           0       -1.384013   -2.082537    0.485830
 ---------------------------------------------------------------------

 SCF Done:  E(UB3LYP) =  -1136.09546434     A.U. after   22 cycles

 The electronic state is 2-A.
 Alpha  occ. eigenvalues --  -38.45036 -38.44832 -38.44226 -38.43870 -38.43421
 Alpha  occ. eigenvalues --  -38.43231 -38.42874  -2.20914  -2.20709  -2.20273
 Alpha  occ. eigenvalues --   -2.19894  -2.19674  -2.19261  -2.18894  -1.14674
 Alpha  occ. eigenvalues --   -1.14566  -1.14554  -1.14417  -1.14340  -1.14304
 Alpha  occ. eigenvalues --   -1.14037  -1.13932  -1.13885  -1.13601  -1.13563
 Alpha  occ. eigenvalues --   -1.13508  -1.13445  -1.13382  -1.13305  -1.12911
 Alpha  occ. eigenvalues --   -1.12890  -1.12848  -1.12575  -1.12523  -1.12486
 Alpha  occ. eigenvalues --   -0.19715  -0.14860  -0.11627  -0.10906
 Alpha virt. eigenvalues --   -0.06475  -0.05760  -0.03516  -0.03413  -0.02457
 Alpha virt. eigenvalues --   -0.02243  -0.01923  -0.01090  -0.00402  -0.00181
 Alpha virt. eigenvalues --    0.00112   0.00302   0.00705   0.00793   0.00823

  Beta  occ. eigenvalues --  -38.45039 -38.44836 -38.44160 -38.43783 -38.43400
  Beta  occ. eigenvalues --  -38.43207 -38.42852  -2.20919  -2.20717  -2.20154
  Beta  occ. eigenvalues --   -2.19736  -2.19643  -2.19225  -2.18861  -1.14678
  Beta  occ. eigenvalues --   -1.14573  -1.14554  -1.14422  -1.14343  -1.14312
  Beta  occ. eigenvalues --   -1.13964  -1.13840  -1.13788  -1.13510  -1.13452
  Beta  occ. eigenvalues --   -1.13419  -1.13397  -1.13363  -1.13224  -1.12893
  Beta  occ. eigenvalues --   -1.12851  -1.12783  -1.12558  -1.12488  -1.12427
  Beta  occ. eigenvalues --   -0.18965  -0.14717  -0.11347
  Beta virt. eigenvalues --   -0.06689  -0.06253  -0.05724  -0.03446  -0.03086
  Beta virt. eigenvalues --   -0.02182  -0.01522  -0.01098  -0.00931  -0.00204
  Beta virt. eigenvalues --    0.00044   0.00145   0.00377   0.00783   0.00854

 Mulliken charges and spin densities:
               1          2
     1  Na   0.295683   0.071151
     2  Na   0.345343  -0.156572
     3  Na   0.692180  -0.110903
     4  Na  -1.611845   0.699211
     5  Na  -0.174952   0.277309
     6  Na   0.009513   0.041452
     7  Na   0.444079   0.178353
 Sum of Mulliken charges =  -0.00000   1.00000

 Dipole moment (field-independent basis, Debye):
    X=              1.4448    Y=              0.0978    Z=              0.1712  Tot=              1.4582
 Quadrupole moment (field-independent basis, Debye-Ang):
   XX=            -49.4147   YY=            -69.7034   ZZ=            -72.9140
   XY=             -0.2554   XZ=              1.7255   YZ=              0.8398

 Normal termination of Gaussian 16 at Fri Dec  8 20:17:20 2023.
