 Gaussian 16, Revision B.01,
 Gaussian 16:  ES64L-G16RevB.01 20-Dec-2017

 -------------------------
 #P B3LYP/6-311+g(d) force
 -------------------------

 -----
 DPGEN
 -----
 Symbolic Z-matrix:
 Charge =  0 Multiplicity = 2

                         Standard orientation:
 ---------------------------------------------------------------------
 Center     Atomic      Atomic             Coordinates (Angstroms)
 Number     Number       Type             X           Y           Z
 ---------------------------------------------------------------------
      1         11           0        2.331977    1.057271    1.428746
      2         11           0        3.899463   -1.466428   -0.591595
      3         11           0        0.412365   -0.934670   -1.161895
      4         11           0       -0.145044    2.660267   -0.690491
      5         11           0       -1.461800    0.543767    1.950026
      6         11           0       -2.571574   -2.192194    0.941779
      7         11           0       -2.465388    0.331988   -1.876570
 ---------------------------------------------------------------------

 SCF Done:  E(UB3LYP) =  -1136.12776303     A.U. after   23 cycles

 The electronic state is 2-A.
 Alpha  occ. eigenvalues --  -38.44687 -38.44441 -38.44312 -38.44004 -38.43676
 Alpha  occ. eigenvalues --  -38.43448 -38.42756  -2.20551  -2.20324  -2.20118
 Alpha  occ. eigenvalues --   -2.19878  -2.19457  -2.19285  -2.18595  -1.14256
 Alpha  occ. eigenvalues --   -1.14182  -1.14145  -1.14003  -1.13970  -1.13939
 Alpha  occ. eigenvalues --   -1.13811  -1.13784  -1.13721  -1.13573  -1.13543
 Alpha  occ. eigenvalues --   -1.13493  -1.13126  -1.13119  -1.13088  -1.12978
 Alpha  occ. eigenvalues --   -1.12935  -1.12903  -1.12276  -1.12262  -1.12239
 Alpha  occ. eigenvalues --   -0.18094  -0.13320  -0.12014  -0.11402
 Alpha virt. eigenvalues --   -0.05861  -0.05336  -0.04634  -0.03328  -0.03047
 Alpha virt. eigenvalues --   -0.02765  -0.01881  -0.01080  -0.00811  -0.00029
 Alpha virt. eigenvalues --    0.00064   0.00253   0.00299   0.00501   0.00745

  Beta  occ. eigenvalues --  -38.44626 -38.44365 -38.44290 -38.43967 -38.43672
  Beta  occ. eigenvalues --  -38.43429 -38.42758  -2.20440  -2.20184  -2.20078
  Beta  occ. eigenvalues --   -2.19813  -2.19449  -2.19253  -2.18603  -1.14167
  Beta  occ. eigenvalues --   -1.14112  -1.14068  -1.13909  -1.13874  -1.13830
  Beta  occ. eigenvalues --   -1.13780  -1.13761  -1.13687  -1.13517  -1.13494
  Beta  occ. eigenvalues --   -1.13447  -1.13118  -1.13113  -1.13084  -1.12940
  Beta  occ. eigenvalues --   -1.12916  -1.12880  -1.12281  -1.12273  -1.12218
  Beta  occ. eigenvalues --   -0.17328  -0.13100  -0.11184
  Beta virt. eigenvalues --   -0.08066  -0.05642  -0.04960  -0.04340  -0.02814
  Beta virt. eigenvalues --   -0.02451  -0.02366  -0.01657  -0.00906  -0.00480
  Beta virt. eigenvalues --    0.00056   0.00169   0.00302   0.00422   0.00624

 Mulliken charges and spin densities:
               1          2
     1  Na   0.090437   0.002132
     2  Na   0.136795   0.035152
     3  Na  -0.876567   0.543497
     4  Na   0.093600  -0.071662
     5  Na  -0.317330   0.541707
     6  Na   0.140458  -0.061126
     7  Na   0.732607   0.010301
 Sum of Mulliken charges =  -0.00000   1.00000

 Dipole moment (field-independent basis, Debye):
    X=             -0.3252    Y=              0.2311    Z=              0.0002  Tot=              0.3990
 Quadrupole moment (field-independent basis, Debye-Ang):
   XX=            -58.3393   YY=            -71.4311   ZZ=            -65.9449
   XY=              0.3561   XZ=              3.3301   YZ=              0.7625

 Normal termination of Gaussian 16 at Tue Dec  5 21:01:14 2023.
