 Gaussian 16, Revision B.01,
 Gaussian 16:  ES64L-G16RevB.01 20-Dec-2017

 -------------------------
 #P B3LYP/6-311+g(d) force
 -------------------------

 -----
 DPGEN
 -----
 Symbolic Z-matrix:
 Charge =  0 Multiplicity = 2

                         Standard orientation:
 ---------------------------------------------------------------------
 Center     Atomic      Atomic             Coordinates (Angstroms)
 Number     Number       Type             X           Y           Z
 ---------------------------------------------------------------------
      1         11           0        0.046886   -0.198448   -1.833135
      2         11           0       -2.907280   -0.386549    0.066738
      3         11           0       -1.378137    2.183383   -0.151974
      4         11           0        1.689840    2.018773    0.154076
      5         11           0        0.170881   -0.233560    1.946427
      6         11           0        2.699085   -0.848924   -0.192346
      7         11           0       -0.321275   -2.534674    0.010215
 ---------------------------------------------------------------------

 SCF Done:  E(UB3LYP) =  -1136.13000448     A.U. after   20 cycles

 The electronic state is 2-A.
 Alpha  occ. eigenvalues --  -38.43808 -38.43705 -38.43689 -38.43568 -38.43125
 Alpha  occ. eigenvalues --  -38.43054 -38.43037  -2.19717  -2.19712  -2.19634
 Alpha  occ. eigenvalues --   -2.19620  -2.19098  -2.19020  -2.19008  -1.13445
 Alpha  occ. eigenvalues --   -1.13428  -1.13388  -1.13370  -1.13364  -1.13361
 Alpha  occ. eigenvalues --   -1.13328  -1.13311  -1.13283  -1.13270  -1.13250
 Alpha  occ. eigenvalues --   -1.13194  -1.12834  -1.12754  -1.12739  -1.12693
 Alpha  occ. eigenvalues --   -1.12683  -1.12680  -1.12656  -1.12615  -1.12594
 Alpha  occ. eigenvalues --   -0.19955  -0.13399  -0.12672  -0.11528
 Alpha virt. eigenvalues --   -0.05399  -0.04593  -0.04310  -0.03459  -0.03108
 Alpha virt. eigenvalues --   -0.02914  -0.01314  -0.00702  -0.00067   0.00234
 Alpha virt. eigenvalues --    0.00326   0.00386   0.00942   0.01009   0.01053

  Beta  occ. eigenvalues --  -38.43805 -38.43680 -38.43614 -38.43484 -38.43117
  Beta  occ. eigenvalues --  -38.43048 -38.43026  -2.19714  -2.19621  -2.19546
  Beta  occ. eigenvalues --   -2.19467  -2.19088  -2.19012  -2.18994  -1.13441
  Beta  occ. eigenvalues --   -1.13379  -1.13367  -1.13338  -1.13299  -1.13285
  Beta  occ. eigenvalues --   -1.13252  -1.13242  -1.13205  -1.13179  -1.13165
  Beta  occ. eigenvalues --   -1.13098  -1.12832  -1.12750  -1.12694  -1.12685
  Beta  occ. eigenvalues --   -1.12678  -1.12626  -1.12623  -1.12607  -1.12590
  Beta  occ. eigenvalues --   -0.19162  -0.13116  -0.12368
  Beta virt. eigenvalues --   -0.07497  -0.05382  -0.04601  -0.04312  -0.02584
  Beta virt. eigenvalues --   -0.02232  -0.01803  -0.01238  -0.00652   0.00075
  Beta virt. eigenvalues --    0.00180   0.00282   0.00395   0.00982   0.00998

 Mulliken charges and spin densities:
               1          2
     1  Na  -0.817910   0.545090
     2  Na   0.101829  -0.060893
     3  Na   0.248778  -0.008183
     4  Na   0.241533   0.027802
     5  Na  -0.846665   0.602140
     6  Na   0.499722  -0.036679
     7  Na   0.572715  -0.069277
 Sum of Mulliken charges =  -0.00000   1.00000

 Dipole moment (field-independent basis, Debye):
    X=             -0.0159    Y=             -0.2078    Z=              0.0980  Tot=              0.2302
 Quadrupole moment (field-independent basis, Debye-Ang):
   XX=            -58.3331   YY=            -66.9730   ZZ=            -70.4963
   XY=              0.1148   XZ=             -0.3839   YZ=              0.1039

 Normal termination of Gaussian 16 at Thu Dec  7 02:04:35 2023.
