 Gaussian 16, Revision B.01,
 Gaussian 16:  ES64L-G16RevB.01 20-Dec-2017

 -------------------------
 #P B3LYP/6-311+g(d) force
 -------------------------

 -----
 DPGEN
 -----
 Symbolic Z-matrix:
 Charge =  0 Multiplicity = 2

                         Standard orientation:
 ---------------------------------------------------------------------
 Center     Atomic      Atomic             Coordinates (Angstroms)
 Number     Number       Type             X           Y           Z
 ---------------------------------------------------------------------
      1         11           0       -0.577306   -0.357961    2.377634
      2         11           0       -1.826889   -2.538986   -0.580989
      3         11           0        0.550998    0.348973   -1.534637
      4         11           0        2.101811   -2.276844   -0.142832
      5         11           0        2.991657    1.050717    0.267372
      6         11           0       -0.522477    3.125726   -0.179218
      7         11           0       -2.717794    0.648376   -0.207331
 ---------------------------------------------------------------------

 SCF Done:  E(UB3LYP) =  -1136.13415299     A.U. after   19 cycles

 The electronic state is 2-A.
 Alpha  occ. eigenvalues --  -38.44198 -38.44049 -38.43993 -38.43629 -38.43517
 Alpha  occ. eigenvalues --  -38.43514 -38.43289  -2.20026  -2.19874  -2.19806
 Alpha  occ. eigenvalues --   -2.19440  -2.19397  -2.19350  -2.19256  -1.13737
 Alpha  occ. eigenvalues --   -1.13683  -1.13650  -1.13521  -1.13505  -1.13495
 Alpha  occ. eigenvalues --   -1.13491  -1.13468  -1.13429  -1.13141  -1.13104
 Alpha  occ. eigenvalues --   -1.13099  -1.13082  -1.13066  -1.13041  -1.13029
 Alpha  occ. eigenvalues --   -1.13000  -1.12964  -1.12937  -1.12896  -1.12868
 Alpha  occ. eigenvalues --   -0.18196  -0.13039  -0.12355  -0.10809
 Alpha virt. eigenvalues --   -0.05617  -0.05158  -0.04946  -0.03388  -0.02952
 Alpha virt. eigenvalues --   -0.02653  -0.01333  -0.01250  -0.00532  -0.00402
 Alpha virt. eigenvalues --   -0.00060   0.00349   0.00782   0.00800   0.00864

  Beta  occ. eigenvalues --  -38.44196 -38.43990 -38.43941 -38.43618 -38.43515
  Beta  occ. eigenvalues --  -38.43507 -38.43246  -2.20023  -2.19803  -2.19672
  Beta  occ. eigenvalues --   -2.19421  -2.19389  -2.19350  -2.19180  -1.13732
  Beta  occ. eigenvalues --   -1.13669  -1.13651  -1.13487  -1.13457  -1.13431
  Beta  occ. eigenvalues --   -1.13385  -1.13363  -1.13352  -1.13131  -1.13100
  Beta  occ. eigenvalues --   -1.13072  -1.13070  -1.13035  -1.13029  -1.13021
  Beta  occ. eigenvalues --   -1.12988  -1.12965  -1.12884  -1.12841  -1.12816
  Beta  occ. eigenvalues --   -0.17521  -0.12855  -0.12159
  Beta virt. eigenvalues --   -0.06863  -0.05608  -0.05079  -0.04817  -0.02637
  Beta virt. eigenvalues --   -0.02216  -0.01654  -0.01252  -0.01174  -0.00558
  Beta virt. eigenvalues --   -0.00434   0.00135   0.00399   0.00812   0.00880

 Mulliken charges and spin densities:
               1          2
     1  Na  -0.671120   0.693882
     2  Na   0.011199   0.028622
     3  Na   0.172154   0.167689
     4  Na   0.039977  -0.015533
     5  Na   0.013744   0.032704
     6  Na   0.137662  -0.009778
     7  Na   0.296383   0.102414
 Sum of Mulliken charges =  -0.00000   1.00000

 Dipole moment (field-independent basis, Debye):
    X=              0.4833    Y=             -0.0429    Z=              0.1992  Tot=              0.5245
 Quadrupole moment (field-independent basis, Debye-Ang):
   XX=            -60.4062   YY=            -60.6886   ZZ=            -73.7463
   XY=              0.2777   XZ=              2.2062   YZ=              1.5926

 Normal termination of Gaussian 16 at Thu Dec  7 13:16:53 2023.
