 Gaussian 16, Revision B.01,
 Gaussian 16:  ES64L-G16RevB.01 20-Dec-2017

 -------------------------
 #P B3LYP/6-311+g(d) force
 -------------------------

 -----
 DPGEN
 -----
 Symbolic Z-matrix:
 Charge =  0 Multiplicity = 2

                         Standard orientation:
 ---------------------------------------------------------------------
 Center     Atomic      Atomic             Coordinates (Angstroms)
 Number     Number       Type             X           Y           Z
 ---------------------------------------------------------------------
      1         11           0       -0.669522   -2.456364    0.146150
      2         11           0       -3.126741   -0.681117   -0.387462
      3         11           0        2.525224    1.851363   -0.295850
      4         11           0        2.623684   -1.695185    0.006899
      5         11           0       -1.599732    2.535942    0.256651
      6         11           0        0.121457    0.207519    2.025333
      7         11           0        0.125630    0.237843   -1.751722
 ---------------------------------------------------------------------

 SCF Done:  E(UB3LYP) =  -1136.13638063     A.U. after   19 cycles

 The electronic state is 2-A.
 Alpha  occ. eigenvalues --  -38.44057 -38.44016 -38.43833 -38.43643 -38.43575
 Alpha  occ. eigenvalues --  -38.43474 -38.42789  -2.19907  -2.19845  -2.19671
 Alpha  occ. eigenvalues --   -2.19551  -2.19423  -2.19401  -2.18719  -1.13606
 Alpha  occ. eigenvalues --   -1.13564  -1.13546  -1.13536  -1.13504  -1.13471
 Alpha  occ. eigenvalues --   -1.13346  -1.13335  -1.13311  -1.13227  -1.13189
 Alpha  occ. eigenvalues --   -1.13170  -1.13108  -1.13084  -1.13068  -1.13054
 Alpha  occ. eigenvalues --   -1.13029  -1.13024  -1.12403  -1.12376  -1.12358
 Alpha  occ. eigenvalues --   -0.18745  -0.13177  -0.12248  -0.10960
 Alpha virt. eigenvalues --   -0.05714  -0.05425  -0.04176  -0.03287  -0.02917
 Alpha virt. eigenvalues --   -0.02704  -0.01640  -0.01206  -0.00365  -0.00056
 Alpha virt. eigenvalues --   -0.00000   0.00346   0.00749   0.00851   0.00938

  Beta  occ. eigenvalues --  -38.44051 -38.44008 -38.43832 -38.43568 -38.43548
  Beta  occ. eigenvalues --  -38.43408 -38.42781  -2.19897  -2.19833  -2.19671
  Beta  occ. eigenvalues --   -2.19392  -2.19376  -2.19303  -2.18708  -1.13602
  Beta  occ. eigenvalues --   -1.13541  -1.13529  -1.13527  -1.13488  -1.13463
  Beta  occ. eigenvalues --   -1.13345  -1.13323  -1.13304  -1.13122  -1.13084
  Beta  occ. eigenvalues --   -1.13058  -1.13055  -1.13027  -1.13020  -1.13010
  Beta  occ. eigenvalues --   -1.12972  -1.12947  -1.12399  -1.12361  -1.12328
  Beta  occ. eigenvalues --   -0.18007  -0.12931  -0.11984
  Beta virt. eigenvalues --   -0.07052  -0.05671  -0.05387  -0.04153  -0.02538
  Beta virt. eigenvalues --   -0.02120  -0.01654  -0.01522  -0.01141  -0.00407
  Beta virt. eigenvalues --   -0.00060   0.00101   0.00371   0.00803   0.00862

 Mulliken charges and spin densities:
               1          2
     1  Na   0.190881   0.032097
     2  Na   0.103309   0.003915
     3  Na   0.211011  -0.093969
     4  Na   0.110978  -0.051971
     5  Na   0.104524  -0.081673
     6  Na  -0.393174   0.665083
     7  Na  -0.327529   0.526518
 Sum of Mulliken charges =  -0.00000   1.00000

 Dipole moment (field-independent basis, Debye):
    X=              0.2048    Y=              0.3286    Z=              0.0161  Tot=              0.3875
 Quadrupole moment (field-independent basis, Debye-Ang):
   XX=            -54.7351   YY=            -65.7835   ZZ=            -73.2496
   XY=             -0.4968   XZ=              0.5603   YZ=              0.1450

 Normal termination of Gaussian 16 at Thu Dec  7 02:23:31 2023.
