 Gaussian 16, Revision B.01,
 Gaussian 16:  ES64L-G16RevB.01 20-Dec-2017

 -------------------------
 #P B3LYP/6-311+g(d) force
 -------------------------

 -----
 DPGEN
 -----
 Symbolic Z-matrix:
 Charge =  0 Multiplicity = 2

                         Standard orientation:
 ---------------------------------------------------------------------
 Center     Atomic      Atomic             Coordinates (Angstroms)
 Number     Number       Type             X           Y           Z
 ---------------------------------------------------------------------
      1         11           0       -1.798271   -2.398677    0.095382
      2         11           0        1.676617   -2.333855   -0.270907
      3         11           0        2.785166    0.718676    0.586712
      4         11           0       -0.270163    0.102500    1.613959
      5         11           0        0.161337    2.937452   -0.273668
      6         11           0        0.547416    0.047347   -1.633487
      7         11           0       -3.102102    0.926556   -0.117991
 ---------------------------------------------------------------------

 SCF Done:  E(UB3LYP) =  -1136.13570404     A.U. after   19 cycles

 The electronic state is 2-A.
 Alpha  occ. eigenvalues --  -38.44157 -38.43655 -38.43642 -38.43491 -38.43374
 Alpha  occ. eigenvalues --  -38.43041 -38.42930  -2.19961  -2.19559  -2.19501
 Alpha  occ. eigenvalues --   -2.19358  -2.19294  -2.19078  -2.18940  -1.13641
 Alpha  occ. eigenvalues --   -1.13620  -1.13597  -1.13263  -1.13225  -1.13197
 Alpha  occ. eigenvalues --   -1.13191  -1.13165  -1.13132  -1.13086  -1.13054
 Alpha  occ. eigenvalues --   -1.13022  -1.12975  -1.12932  -1.12907  -1.12756
 Alpha  occ. eigenvalues --   -1.12679  -1.12676  -1.12621  -1.12565  -1.12557
 Alpha  occ. eigenvalues --   -0.19093  -0.13098  -0.12744  -0.10494
 Alpha virt. eigenvalues --   -0.05609  -0.05083  -0.04824  -0.03066  -0.02833
 Alpha virt. eigenvalues --   -0.02091  -0.01473  -0.01195  -0.00350  -0.00298
 Alpha virt. eigenvalues --    0.00064   0.00354   0.00844   0.00897   0.00910

  Beta  occ. eigenvalues --  -38.44157 -38.43652 -38.43621 -38.43481 -38.43363
  Beta  occ. eigenvalues --  -38.42969 -38.42862  -2.19963  -2.19523  -2.19498
  Beta  occ. eigenvalues --   -2.19343  -2.19277  -2.18946  -2.18816  -1.13633
  Beta  occ. eigenvalues --   -1.13622  -1.13596  -1.13242  -1.13190  -1.13173
  Beta  occ. eigenvalues --   -1.13163  -1.13151  -1.13130  -1.13057  -1.13035
  Beta  occ. eigenvalues --   -1.12993  -1.12965  -1.12902  -1.12894  -1.12670
  Beta  occ. eigenvalues --   -1.12590  -1.12584  -1.12534  -1.12476  -1.12459
  Beta  occ. eigenvalues --   -0.18386  -0.12864  -0.12458
  Beta virt. eigenvalues --   -0.06572  -0.05586  -0.05045  -0.04797  -0.02323
  Beta virt. eigenvalues --   -0.02063  -0.01413  -0.01128  -0.01047  -0.00374
  Beta virt. eigenvalues --   -0.00321   0.00179   0.00394   0.00849   0.00910

 Mulliken charges and spin densities:
               1          2
     1  Na  -0.052472  -0.106964
     2  Na   0.310135   0.013867
     3  Na   0.212620   0.087064
     4  Na  -0.115829   0.523485
     5  Na  -0.009295  -0.063296
     6  Na  -0.215571   0.643105
     7  Na  -0.129588  -0.097261
 Sum of Mulliken charges =  -0.00000   1.00000

 Dipole moment (field-independent basis, Debye):
    X=             -0.3437    Y=              0.1295    Z=              0.0253  Tot=              0.3682
 Quadrupole moment (field-independent basis, Debye-Ang):
   XX=            -56.2617   YY=            -59.9986   ZZ=            -75.7738
   XY=             -0.2001   XZ=              1.9293   YZ=             -0.1713

 Normal termination of Gaussian 16 at Tue Nov 28 20:32:11 2023.
