 Gaussian 16, Revision B.01,
 Gaussian 16:  ES64L-G16RevB.01 20-Dec-2017

 -------------------------
 #P B3LYP/6-311+g(d) force
 -------------------------

 -----
 DPGEN
 -----
 Symbolic Z-matrix:
 Charge =  0 Multiplicity = 2

                         Standard orientation:
 ---------------------------------------------------------------------
 Center     Atomic      Atomic             Coordinates (Angstroms)
 Number     Number       Type             X           Y           Z
 ---------------------------------------------------------------------
      1         11           0       -2.198480   -2.342931   -0.025339
      2         11           0        0.235599   -0.399785   -1.730652
      3         11           0        2.754603   -1.774321   -0.346159
      4         11           0        2.479217    1.296661    0.438449
      5         11           0       -2.993280    0.775074    0.038421
      6         11           0        0.087580   -0.377009    2.047559
      7         11           0       -0.365239    2.822312   -0.422279
 ---------------------------------------------------------------------

 SCF Done:  E(UB3LYP) =  -1136.13373893     A.U. after   20 cycles

 The electronic state is 2-A.
 Alpha  occ. eigenvalues --  -38.44268 -38.44028 -38.43990 -38.43790 -38.43710
 Alpha  occ. eigenvalues --  -38.43582 -38.42610  -2.20113  -2.19888  -2.19864
 Alpha  occ. eigenvalues --   -2.19702  -2.19543  -2.19516  -2.18469  -1.13784
 Alpha  occ. eigenvalues --   -1.13779  -1.13767  -1.13597  -1.13565  -1.13544
 Alpha  occ. eigenvalues --   -1.13520  -1.13500  -1.13483  -1.13369  -1.13357
 Alpha  occ. eigenvalues --   -1.13321  -1.13217  -1.13198  -1.13196  -1.13184
 Alpha  occ. eigenvalues --   -1.13147  -1.13132  -1.12142  -1.12130  -1.12120
 Alpha  occ. eigenvalues --   -0.18643  -0.13593  -0.12003  -0.10998
 Alpha virt. eigenvalues --   -0.05889  -0.05458  -0.04190  -0.03605  -0.02776
 Alpha virt. eigenvalues --   -0.02692  -0.01694  -0.01105  -0.00418  -0.00151
 Alpha virt. eigenvalues --    0.00017   0.00348   0.00727   0.00825   0.00863

  Beta  occ. eigenvalues --  -38.44267 -38.44019 -38.43898 -38.43776 -38.43709
  Beta  occ. eigenvalues --  -38.43512 -38.42605  -2.20113  -2.19875  -2.19696
  Beta  occ. eigenvalues --   -2.19681  -2.19544  -2.19389  -2.18463  -1.13783
  Beta  occ. eigenvalues --   -1.13778  -1.13758  -1.13587  -1.13544  -1.13502
  Beta  occ. eigenvalues --   -1.13438  -1.13385  -1.13371  -1.13343  -1.13313
  Beta  occ. eigenvalues --   -1.13301  -1.13211  -1.13197  -1.13182  -1.13105
  Beta  occ. eigenvalues --   -1.13052  -1.13046  -1.12136  -1.12129  -1.12100
  Beta  occ. eigenvalues --   -0.17906  -0.13379  -0.11772
  Beta virt. eigenvalues --   -0.07069  -0.05829  -0.05389  -0.04150  -0.02807
  Beta virt. eigenvalues --   -0.02031  -0.01701  -0.01590  -0.01004  -0.00484
  Beta virt. eigenvalues --   -0.00107   0.00127   0.00379   0.00812   0.00826

 Mulliken charges and spin densities:
               1          2
     1  Na   0.085848  -0.029716
     2  Na  -0.053596   0.381650
     3  Na   0.154601  -0.009457
     4  Na   0.192584   0.227825
     5  Na  -0.021560   0.021565
     6  Na  -0.222998   0.427267
     7  Na  -0.134878  -0.019135
 Sum of Mulliken charges =  -0.00000   1.00000

 Dipole moment (field-independent basis, Debye):
    X=             -0.0278    Y=             -0.5023    Z=              0.1713  Tot=              0.5314
 Quadrupole moment (field-independent basis, Debye-Ang):
   XX=            -55.6737   YY=            -66.1746   ZZ=            -73.2501
   XY=             -0.6094   XZ=              0.2728   YZ=              0.3126

 Normal termination of Gaussian 16 at Thu Dec  7 04:26:31 2023.
