 Gaussian 16, Revision B.01,
 Gaussian 16:  ES64L-G16RevB.01 20-Dec-2017

 -------------------------
 #P B3LYP/6-311+g(d) force
 -------------------------

 -----
 DPGEN
 -----
 Symbolic Z-matrix:
 Charge =  0 Multiplicity = 2

                         Standard orientation:
 ---------------------------------------------------------------------
 Center     Atomic      Atomic             Coordinates (Angstroms)
 Number     Number       Type             X           Y           Z
 ---------------------------------------------------------------------
      1         11           0       -2.123060   -2.079016   -0.595226
      2         11           0       -2.530917    1.299297   -1.461026
      3         11           0        0.756297    2.739437    0.848660
      4         11           0        0.984191    0.096449   -1.338901
      5         11           0       -1.896714    0.151928    1.862373
      6         11           0        0.791579   -1.818831    1.085319
      7         11           0        4.018625   -0.389263   -0.401199
 ---------------------------------------------------------------------

 SCF Done:  E(UB3LYP) =  -1136.12749651     A.U. after   21 cycles

 The electronic state is 2-A.
 Alpha  occ. eigenvalues --  -38.44832 -38.44053 -38.43992 -38.43572 -38.43571
 Alpha  occ. eigenvalues --  -38.43409 -38.43313  -2.20618  -2.19932  -2.19816
 Alpha  occ. eigenvalues --   -2.19508  -2.19353  -2.19281  -2.19209  -1.14302
 Alpha  occ. eigenvalues --   -1.14262  -1.14253  -1.13617  -1.13593  -1.13540
 Alpha  occ. eigenvalues --   -1.13489  -1.13466  -1.13428  -1.13261  -1.13161
 Alpha  occ. eigenvalues --   -1.13125  -1.13022  -1.13012  -1.12975  -1.12961
 Alpha  occ. eigenvalues --   -1.12948  -1.12926  -1.12902  -1.12865  -1.12783
 Alpha  occ. eigenvalues --   -0.18234  -0.13391  -0.11490  -0.11203
 Alpha virt. eigenvalues --   -0.06427  -0.04896  -0.04320  -0.03228  -0.02971
 Alpha virt. eigenvalues --   -0.02543  -0.02238  -0.00846  -0.00701  -0.00185
 Alpha virt. eigenvalues --    0.00175   0.00229   0.00410   0.00701   0.00848

  Beta  occ. eigenvalues --  -38.44828 -38.43995 -38.43945 -38.43549 -38.43548
  Beta  occ. eigenvalues --  -38.43396 -38.43290  -2.20611  -2.19828  -2.19732
  Beta  occ. eigenvalues --   -2.19467  -2.19312  -2.19260  -2.19169  -1.14292
  Beta  occ. eigenvalues --   -1.14258  -1.14250  -1.13537  -1.13518  -1.13465
  Beta  occ. eigenvalues --   -1.13423  -1.13412  -1.13364  -1.13231  -1.13130
  Beta  occ. eigenvalues --   -1.13093  -1.12993  -1.12976  -1.12950  -1.12949
  Beta  occ. eigenvalues --   -1.12935  -1.12891  -1.12873  -1.12818  -1.12752
  Beta  occ. eigenvalues --   -0.17539  -0.13145  -0.11270
  Beta virt. eigenvalues --   -0.07334  -0.06262  -0.04755  -0.03965  -0.02941
  Beta virt. eigenvalues --   -0.02395  -0.02146  -0.01558  -0.00812  -0.00347
  Beta virt. eigenvalues --   -0.00073   0.00198   0.00285   0.00485   0.00795

 Mulliken charges and spin densities:
               1          2
     1  Na   0.273367   0.185536
     2  Na   0.177708   0.113799
     3  Na  -0.216481   0.108604
     4  Na  -0.803706   0.001934
     5  Na  -0.076543   0.357015
     6  Na   0.045464   0.164961
     7  Na   0.600191   0.068152
 Sum of Mulliken charges =  -0.00000   1.00000

 Dipole moment (field-independent basis, Debye):
    X=              0.6534    Y=              0.0002    Z=              0.1273  Tot=              0.6657
 Quadrupole moment (field-independent basis, Debye-Ang):
   XX=            -50.8709   YY=            -72.3398   ZZ=            -69.1075
   XY=              0.3855   XZ=              1.3917   YZ=              1.2376

 Normal termination of Gaussian 16 at Wed Nov 29 16:11:02 2023.
