 Gaussian 16, Revision B.01,
 Gaussian 16:  ES64L-G16RevB.01 20-Dec-2017

 -------------------------
 #P B3LYP/6-311+g(d) force
 -------------------------

 -----
 DPGEN
 -----
 Symbolic Z-matrix:
 Charge =  0 Multiplicity = 2

                         Standard orientation:
 ---------------------------------------------------------------------
 Center     Atomic      Atomic             Coordinates (Angstroms)
 Number     Number       Type             X           Y           Z
 ---------------------------------------------------------------------
      1         11           0       -2.388147   -1.820799   -0.112080
      2         11           0       -0.434879    0.493777   -1.370705
      3         11           0       -3.811142    1.181676   -0.405405
      4         11           0        1.215880   -1.969428    0.107604
      5         11           0        0.173372   -0.066128    2.325515
      6         11           0        3.701959   -0.272838   -0.973607
      7         11           0        1.542957    2.453740    0.428679
 ---------------------------------------------------------------------

 SCF Done:  E(UB3LYP) =  -1136.12059225     A.U. after   24 cycles

 The electronic state is 2-A.
 Alpha  occ. eigenvalues --  -38.45053 -38.44496 -38.44370 -38.44359 -38.43720
 Alpha  occ. eigenvalues --  -38.43062 -38.42460  -2.20871  -2.20282  -2.20269
 Alpha  occ. eigenvalues --   -2.20264  -2.19582  -2.18904  -2.18403  -1.14540
 Alpha  occ. eigenvalues --   -1.14521  -1.14472  -1.13979  -1.13956  -1.13948
 Alpha  occ. eigenvalues --   -1.13942  -1.13938  -1.13932  -1.13898  -1.13869
 Alpha  occ. eigenvalues --   -1.13860  -1.13284  -1.13252  -1.13182  -1.12588
 Alpha  occ. eigenvalues --   -1.12567  -1.12525  -1.12097  -1.12090  -1.12019
 Alpha  occ. eigenvalues --   -0.18390  -0.13827  -0.11498  -0.11117
 Alpha virt. eigenvalues --   -0.06919  -0.05156  -0.03833  -0.03131  -0.03071
 Alpha virt. eigenvalues --   -0.02663  -0.02458  -0.01238  -0.00647  -0.00222
 Alpha virt. eigenvalues --    0.00068   0.00140   0.00596   0.00694   0.00794

  Beta  occ. eigenvalues --  -38.44989 -38.44500 -38.44349 -38.44263 -38.43719
  Beta  occ. eigenvalues --  -38.43041 -38.42449  -2.20753  -2.20291  -2.20248
  Beta  occ. eigenvalues --   -2.20070  -2.19582  -2.18867  -2.18387  -1.14458
  Beta  occ. eigenvalues --   -1.14434  -1.14395  -1.13965  -1.13957  -1.13944
  Beta  occ. eigenvalues --   -1.13938  -1.13927  -1.13861  -1.13813  -1.13764
  Beta  occ. eigenvalues --   -1.13711  -1.13283  -1.13252  -1.13178  -1.12566
  Beta  occ. eigenvalues --   -1.12527  -1.12496  -1.12093  -1.12058  -1.11989
  Beta  occ. eigenvalues --   -0.17749  -0.13425  -0.10973
  Beta virt. eigenvalues --   -0.07611  -0.06579  -0.05112  -0.03383  -0.02929
  Beta virt. eigenvalues --   -0.02628  -0.02013  -0.01743  -0.01201  -0.00417
  Beta virt. eigenvalues --   -0.00117   0.00159   0.00170   0.00652   0.00771

 Mulliken charges and spin densities:
               1          2
     1  Na   0.056977  -0.045866
     2  Na  -0.047521   0.330974
     3  Na   0.132013  -0.029637
     4  Na  -0.384923  -0.009576
     5  Na   0.198545   0.470057
     6  Na   0.414794   0.264483
     7  Na  -0.369886   0.019564
 Sum of Mulliken charges =  -0.00000   1.00000

 Dipole moment (field-independent basis, Debye):
    X=             -0.3593    Y=              0.0939    Z=              0.3517  Tot=              0.5115
 Quadrupole moment (field-independent basis, Debye-Ang):
   XX=            -51.5022   YY=            -74.1153   ZZ=            -69.0303
   XY=             -0.0349   XZ=             -2.7781   YZ=              2.1472

 Normal termination of Gaussian 16 at Fri Dec  8 00:05:32 2023.
