 Gaussian 16, Revision B.01,
 Gaussian 16:  ES64L-G16RevB.01 20-Dec-2017

 -------------------------
 #P B3LYP/6-311+g(d) force
 -------------------------

 -----
 DPGEN
 -----
 Symbolic Z-matrix:
 Charge =  0 Multiplicity = 2

                         Standard orientation:
 ---------------------------------------------------------------------
 Center     Atomic      Atomic             Coordinates (Angstroms)
 Number     Number       Type             X           Y           Z
 ---------------------------------------------------------------------
      1         11           0        1.590084   -1.998048    1.555088
      2         11           0        1.571600    0.907244   -0.848965
      3         11           0       -1.897334    0.951175    0.429395
      4         11           0       -0.795283   -2.045162   -0.413854
      5         11           0       -4.516091   -1.302783   -0.462703
      6         11           0       -0.199643    4.220263    0.369475
      7         11           0        4.246668   -0.732689   -0.628436
 ---------------------------------------------------------------------

 SCF Done:  E(UB3LYP) =  -1136.12276327     A.U. after   20 cycles

 The electronic state is 2-A.
 Alpha  occ. eigenvalues --  -38.44590 -38.44173 -38.44043 -38.43950 -38.43891
 Alpha  occ. eigenvalues --  -38.43730 -38.43709  -2.20444  -2.20025  -2.19927
 Alpha  occ. eigenvalues --   -2.19798  -2.19692  -2.19551  -2.19481  -1.14152
 Alpha  occ. eigenvalues --   -1.14100  -1.14047  -1.13747  -1.13712  -1.13651
 Alpha  occ. eigenvalues --   -1.13623  -1.13608  -1.13524  -1.13442  -1.13435
 Alpha  occ. eigenvalues --   -1.13396  -1.13350  -1.13344  -1.13296  -1.13275
 Alpha  occ. eigenvalues --   -1.13250  -1.13159  -1.13157  -1.13126  -1.13094
 Alpha  occ. eigenvalues --   -0.17417  -0.13762  -0.12245  -0.10700
 Alpha virt. eigenvalues --   -0.06596  -0.05287  -0.04505  -0.03596  -0.02700
 Alpha virt. eigenvalues --   -0.02547  -0.01723  -0.01155  -0.01051  -0.00723
 Alpha virt. eigenvalues --   -0.00586  -0.00220   0.00346   0.00522   0.00644

  Beta  occ. eigenvalues --  -38.44545 -38.44156 -38.44022 -38.43875 -38.43821
  Beta  occ. eigenvalues --  -38.43738 -38.43708  -2.20364  -2.19998  -2.19894
  Beta  occ. eigenvalues --   -2.19661  -2.19561  -2.19549  -2.19496  -1.14079
  Beta  occ. eigenvalues --   -1.14046  -1.13991  -1.13723  -1.13677  -1.13622
  Beta  occ. eigenvalues --   -1.13606  -1.13576  -1.13482  -1.13345  -1.13342
  Beta  occ. eigenvalues --   -1.13312  -1.13274  -1.13259  -1.13254  -1.13241
  Beta  occ. eigenvalues --   -1.13214  -1.13169  -1.13166  -1.13126  -1.13096
  Beta  occ. eigenvalues --   -0.16919  -0.13062  -0.11965
  Beta virt. eigenvalues --   -0.07178  -0.06383  -0.05184  -0.04053  -0.03197
  Beta virt. eigenvalues --   -0.02493  -0.02205  -0.01557  -0.00908  -0.00614
  Beta virt. eigenvalues --   -0.00518  -0.00231   0.00006   0.00433   0.00598

 Mulliken charges and spin densities:
               1          2
     1  Na   0.425529   0.131605
     2  Na  -0.771716   0.232009
     3  Na  -0.731313   0.108329
     4  Na  -0.211355  -0.021064
     5  Na   0.487644   0.342885
     6  Na   0.504767  -0.042619
     7  Na   0.296445   0.248855
 Sum of Mulliken charges =  -0.00000   1.00000

 Dipole moment (field-independent basis, Debye):
    X=              0.4433    Y=             -0.6918    Z=              0.6456  Tot=              1.0449
 Quadrupole moment (field-independent basis, Debye-Ang):
   XX=            -65.3634   YY=            -64.2812   ZZ=            -67.5505
   XY=             -2.6968   XZ=              2.1108   YZ=              1.1842

 Normal termination of Gaussian 16 at Wed Nov 29 01:19:28 2023.
