 Gaussian 16, Revision B.01,
 Gaussian 16:  ES64L-G16RevB.01 20-Dec-2017

 -------------------------
 #P B3LYP/6-311+g(d) force
 -------------------------

 -----
 DPGEN
 -----
 Symbolic Z-matrix:
 Charge =  0 Multiplicity = 2

                         Standard orientation:
 ---------------------------------------------------------------------
 Center     Atomic      Atomic             Coordinates (Angstroms)
 Number     Number       Type             X           Y           Z
 ---------------------------------------------------------------------
      1         11           0       -0.258133    0.001611   -1.713323
      2         11           0       -1.806585    1.307249    0.119377
      3         11           0       -0.024133   -0.000380    1.728637
      4         11           0        2.529197   -0.006877    0.111477
      5         11           0       -1.815581   -1.299651    0.118877
      6         11           0        0.693697    1.740549   -0.181923
      7         11           0        0.681537   -1.742501   -0.183123
 ---------------------------------------------------------------------

 SCF Done:  E(UB3LYP) =  -1135.99499814     A.U. after   22 cycles

 The electronic state is 2-A.
 Alpha  occ. eigenvalues --  -38.45885 -38.45213 -38.44932 -38.44764 -38.44759
 Alpha  occ. eigenvalues --  -38.44632 -38.44629  -2.22383  -2.21669  -2.21254
 Alpha  occ. eigenvalues --   -2.21211  -2.21076  -2.20986  -2.20893  -1.16439
 Alpha  occ. eigenvalues --   -1.16339  -1.16040  -1.15684  -1.15556  -1.15547
 Alpha  occ. eigenvalues --   -1.15386  -1.15346  -1.14982  -1.14876  -1.14871
 Alpha  occ. eigenvalues --   -1.14736  -1.14625  -1.14598  -1.14503  -1.14490
 Alpha  occ. eigenvalues --   -1.14453  -1.14445  -1.14297  -1.14244  -1.14104
 Alpha  occ. eigenvalues --   -0.23187  -0.14443  -0.13188  -0.13091
 Alpha virt. eigenvalues --   -0.05436  -0.04106  -0.03987  -0.03949  -0.03379
 Alpha virt. eigenvalues --   -0.02858  -0.00961  -0.00257  -0.00138   0.00274
 Alpha virt. eigenvalues --    0.00932   0.01091   0.01099   0.01300   0.01304

  Beta  occ. eigenvalues --  -38.45777 -38.45109 -38.44922 -38.44739 -38.44734
  Beta  occ. eigenvalues --  -38.44612 -38.44610  -2.22192  -2.21487  -2.21223
  Beta  occ. eigenvalues --   -2.21178  -2.21055  -2.20960  -2.20867  -1.16344
  Beta  occ. eigenvalues --   -1.16204  -1.15909  -1.15592  -1.15492  -1.15471
  Beta  occ. eigenvalues --   -1.15353  -1.15273  -1.14942  -1.14832  -1.14830
  Beta  occ. eigenvalues --   -1.14647  -1.14538  -1.14515  -1.14464  -1.14435
  Beta  occ. eigenvalues --   -1.14384  -1.14359  -1.14289  -1.14233  -1.14095
  Beta  occ. eigenvalues --   -0.22320  -0.13995  -0.12661
  Beta virt. eigenvalues --   -0.08811  -0.05469  -0.03929  -0.03844  -0.03042
  Beta virt. eigenvalues --   -0.02389  -0.01875  -0.00887  -0.00226   0.00013
  Beta virt. eigenvalues --    0.00291   0.00968   0.01081   0.01133   0.01299

 Mulliken charges and spin densities:
               1          2
     1  Na  -0.107992   0.463904
     2  Na  -0.021328   0.000939
     3  Na   0.050566   0.514855
     4  Na  -0.349404  -0.069659
     5  Na  -0.023592   0.000266
     6  Na   0.224530   0.044738
     7  Na   0.227221   0.044957
 Sum of Mulliken charges =  -0.00000   1.00000

 Dipole moment (field-independent basis, Debye):
    X=              0.2001    Y=              0.0001    Z=              0.1807  Tot=              0.2696
 Quadrupole moment (field-independent basis, Debye-Ang):
   XX=            -61.2106   YY=            -72.9780   ZZ=            -66.8934
   XY=             -0.0024   XZ=             -0.1639   YZ=              0.0016

 Normal termination of Gaussian 16 at Fri Dec  8 18:45:33 2023.
