 Gaussian 16, Revision B.01,
 Gaussian 16:  ES64L-G16RevB.01 20-Dec-2017

 -------------------------
 #P B3LYP/6-311+g(d) force
 -------------------------

 -----
 DPGEN
 -----
 Symbolic Z-matrix:
 Charge =  0 Multiplicity = 2

                         Standard orientation:
 ---------------------------------------------------------------------
 Center     Atomic      Atomic             Coordinates (Angstroms)
 Number     Number       Type             X           Y           Z
 ---------------------------------------------------------------------
      1         11           0        0.224304   -0.063132    1.797224
      2         11           0       -1.048416   -2.100006    0.031337
      3         11           0        1.605638   -1.595562   -0.125528
      4         11           0       -2.310331    0.408412    0.153255
      5         11           0        2.134761    1.001537   -0.118865
      6         11           0       -0.350738    2.310046    0.045209
      7         11           0       -0.255217    0.038705   -1.782631
 ---------------------------------------------------------------------

 SCF Done:  E(UB3LYP) =  -1136.07132700     A.U. after   17 cycles

 The electronic state is 2-A.
 Alpha  occ. eigenvalues --  -38.44226 -38.44212 -38.43970 -38.43808 -38.43762
 Alpha  occ. eigenvalues --  -38.43686 -38.43653  -2.20487  -2.20480  -2.20193
 Alpha  occ. eigenvalues --   -2.19968  -2.19936  -2.19843  -2.19797  -1.14442
 Alpha  occ. eigenvalues --   -1.14299  -1.14246  -1.14206  -1.14166  -1.14149
 Alpha  occ. eigenvalues --   -1.14119  -1.13914  -1.13837  -1.13722  -1.13710
 Alpha  occ. eigenvalues --   -1.13698  -1.13546  -1.13508  -1.13475  -1.13432
 Alpha  occ. eigenvalues --   -1.13398  -1.13388  -1.13346  -1.13333  -1.13209
 Alpha  occ. eigenvalues --   -0.22035  -0.13578  -0.13481  -0.12548
 Alpha virt. eigenvalues --   -0.04963  -0.04276  -0.04229  -0.03615  -0.03523
 Alpha virt. eigenvalues --   -0.02964  -0.00658  -0.00604  -0.00115   0.00349
 Alpha virt. eigenvalues --    0.00925   0.00955   0.01167   0.01200   0.01254

  Beta  occ. eigenvalues --  -38.44129 -38.44116 -38.43953 -38.43794 -38.43748
  Beta  occ. eigenvalues --  -38.43672 -38.43639  -2.20316  -2.20307  -2.20167
  Beta  occ. eigenvalues --   -2.19949  -2.19917  -2.19825  -2.19779  -1.14378
  Beta  occ. eigenvalues --   -1.14230  -1.14181  -1.14096  -1.14067  -1.14031
  Beta  occ. eigenvalues --   -1.14021  -1.13895  -1.13794  -1.13683  -1.13669
  Beta  occ. eigenvalues --   -1.13635  -1.13480  -1.13461  -1.13435  -1.13390
  Beta  occ. eigenvalues --   -1.13356  -1.13340  -1.13328  -1.13318  -1.13204
  Beta  occ. eigenvalues --   -0.21174  -0.13190  -0.13089
  Beta virt. eigenvalues --   -0.08300  -0.04999  -0.04259  -0.04213  -0.02648
  Beta virt. eigenvalues --   -0.02552  -0.01859  -0.00605  -0.00551   0.00035
  Beta virt. eigenvalues --    0.00367   0.00885   0.00916   0.01211   0.01223

 Mulliken charges and spin densities:
               1          2
     1  Na  -0.380126   0.407050
     2  Na   0.140595   0.019957
     3  Na   0.200273   0.071816
     4  Na   0.153423   0.046068
     5  Na   0.111396   0.027244
     6  Na   0.146235   0.034557
     7  Na  -0.371796   0.393308
 Sum of Mulliken charges =  -0.00000   1.00000

 Dipole moment (field-independent basis, Debye):
    X=             -0.0768    Y=              0.0813    Z=              0.0249  Tot=              0.1146
 Quadrupole moment (field-independent basis, Debye-Ang):
   XX=            -65.6037   YY=            -66.1305   ZZ=            -67.6414
   XY=              0.3640   XZ=             -0.8507   YZ=              0.1597

 Normal termination of Gaussian 16 at Fri Dec  8 18:36:48 2023.
