 Gaussian 16, Revision B.01,
 Gaussian 16:  ES64L-G16RevB.01 20-Dec-2017

 -------------------------
 #P B3LYP/6-311+g(d) force
 -------------------------

 -----
 DPGEN
 -----
 Symbolic Z-matrix:
 Charge =  0 Multiplicity = 2

                         Standard orientation:
 ---------------------------------------------------------------------
 Center     Atomic      Atomic             Coordinates (Angstroms)
 Number     Number       Type             X           Y           Z
 ---------------------------------------------------------------------
      1         11           0       -1.529441    2.610098   -0.033346
      2         11           0        1.941694    2.117127    0.044259
      3         11           0        0.259787   -0.033939    1.946361
      4         11           0       -0.135656   -2.761919    0.143058
      5         11           0       -3.270510   -0.785134    0.108035
      6         11           0        3.043756   -1.016099   -0.284374
      7         11           0       -0.309629   -0.130134   -1.923992
 ---------------------------------------------------------------------

 SCF Done:  E(UB3LYP) =  -1136.13879132     A.U. after   19 cycles

 The electronic state is 2-A.
 Alpha  occ. eigenvalues --  -38.44427 -38.43964 -38.43599 -38.43559 -38.43446
 Alpha  occ. eigenvalues --  -38.43354 -38.43258  -2.20207  -2.19790  -2.19498
 Alpha  occ. eigenvalues --   -2.19472  -2.19265  -2.19223  -2.19123  -1.13884
 Alpha  occ. eigenvalues --   -1.13858  -1.13852  -1.13464  -1.13453  -1.13434
 Alpha  occ. eigenvalues --   -1.13183  -1.13147  -1.13142  -1.13128  -1.13111
 Alpha  occ. eigenvalues --   -1.13084  -1.12943  -1.12934  -1.12909  -1.12896
 Alpha  occ. eigenvalues --   -1.12885  -1.12843  -1.12808  -1.12798  -1.12730
 Alpha  occ. eigenvalues --   -0.18488  -0.12905  -0.12364  -0.10801
 Alpha virt. eigenvalues --   -0.05904  -0.05100  -0.04549  -0.03225  -0.02943
 Alpha virt. eigenvalues --   -0.02656  -0.01720  -0.01062  -0.00340  -0.00313
 Alpha virt. eigenvalues --   -0.00046   0.00360   0.00766   0.00876   0.00899

  Beta  occ. eigenvalues --  -38.44428 -38.43959 -38.43521 -38.43474 -38.43444
  Beta  occ. eigenvalues --  -38.43348 -38.43248  -2.20211  -2.19783  -2.19355
  Beta  occ. eigenvalues --   -2.19316  -2.19264  -2.19217  -2.19110  -1.13871
  Beta  occ. eigenvalues --   -1.13862  -1.13856  -1.13461  -1.13432  -1.13427
  Beta  occ. eigenvalues --   -1.13090  -1.13047  -1.13042  -1.13019  -1.13007
  Beta  occ. eigenvalues --   -1.12976  -1.12936  -1.12918  -1.12908  -1.12885
  Beta  occ. eigenvalues --   -1.12854  -1.12843  -1.12799  -1.12755  -1.12726
  Beta  occ. eigenvalues --   -0.17735  -0.12710  -0.12119
  Beta virt. eigenvalues --   -0.06904  -0.05852  -0.05108  -0.04485  -0.02470
  Beta virt. eigenvalues --   -0.02140  -0.01654  -0.01587  -0.01002  -0.00398
  Beta virt. eigenvalues --   -0.00359   0.00095   0.00373   0.00815   0.00877

 Mulliken charges and spin densities:
               1          2
     1  Na   0.010807  -0.142802
     2  Na   0.167730  -0.050197
     3  Na  -0.247948   0.710320
     4  Na   0.177389  -0.104407
     5  Na   0.059373  -0.135672
     6  Na   0.141077  -0.023165
     7  Na  -0.308429   0.745923
 Sum of Mulliken charges =  -0.00000   1.00000

 Dipole moment (field-independent basis, Debye):
    X=             -0.2691    Y=             -0.1374    Z=             -0.0222  Tot=              0.3029
 Quadrupole moment (field-independent basis, Debye-Ang):
   XX=            -54.8343   YY=            -64.9489   ZZ=            -73.7010
   XY=             -0.3660   XZ=             -1.4318   YZ=             -0.0639

 Normal termination of Gaussian 16 at Tue Dec  5 10:48:52 2023.
