 Gaussian 16, Revision B.01,
 Gaussian 16:  ES64L-G16RevB.01 20-Dec-2017

 -------------------------
 #P B3LYP/6-311+g(d) force
 -------------------------

 -----
 DPGEN
 -----
 Symbolic Z-matrix:
 Charge =  0 Multiplicity = 2

                         Standard orientation:
 ---------------------------------------------------------------------
 Center     Atomic      Atomic             Coordinates (Angstroms)
 Number     Number       Type             X           Y           Z
 ---------------------------------------------------------------------
      1         11           0        3.426607    1.431084   -0.952395
      2         11           0        2.064834   -2.013285   -0.388578
      3         11           0       -1.186205   -2.839157    0.601860
      4         11           0       -0.181089    0.561182   -0.856884
      5         11           0       -3.725013   -0.813451   -0.504472
      6         11           0       -2.781007    3.058969    0.437280
      7         11           0        2.381873    0.614659    1.663188
 ---------------------------------------------------------------------

 SCF Done:  E(UB3LYP) =  -1136.11273281     A.U. after   27 cycles

 The electronic state is 2-A.
 Alpha  occ. eigenvalues --  -38.45783 -38.44726 -38.43990 -38.43972 -38.43606
 Alpha  occ. eigenvalues --  -38.43591 -38.43107  -2.21674  -2.20599  -2.19845
 Alpha  occ. eigenvalues --   -2.19723  -2.19482  -2.19416  -2.18923  -1.15374
 Alpha  occ. eigenvalues --   -1.15322  -1.15301  -1.14275  -1.14237  -1.14225
 Alpha  occ. eigenvalues --   -1.13579  -1.13492  -1.13456  -1.13394  -1.13379
 Alpha  occ. eigenvalues --   -1.13339  -1.13166  -1.13136  -1.13088  -1.13087
 Alpha  occ. eigenvalues --   -1.13072  -1.13021  -1.12612  -1.12594  -1.12554
 Alpha  occ. eigenvalues --   -0.17851  -0.14052  -0.11787  -0.09604
 Alpha virt. eigenvalues --   -0.07126  -0.06129  -0.04900  -0.03193  -0.02627
 Alpha virt. eigenvalues --   -0.02099  -0.01767  -0.01559  -0.01397  -0.00710
 Alpha virt. eigenvalues --   -0.00130   0.00080   0.00164   0.00429   0.00568

  Beta  occ. eigenvalues --  -38.45754 -38.44703 -38.43972 -38.43938 -38.43561
  Beta  occ. eigenvalues --  -38.43539 -38.43100  -2.21624  -2.20560  -2.19813
  Beta  occ. eigenvalues --   -2.19660  -2.19427  -2.19295  -2.18915  -1.15343
  Beta  occ. eigenvalues --   -1.15292  -1.15236  -1.14240  -1.14213  -1.14184
  Beta  occ. eigenvalues --   -1.13557  -1.13484  -1.13421  -1.13351  -1.13333
  Beta  occ. eigenvalues --   -1.13299  -1.13128  -1.13092  -1.13062  -1.13008
  Beta  occ. eigenvalues --   -1.12991  -1.12925  -1.12612  -1.12593  -1.12510
  Beta  occ. eigenvalues --   -0.17528  -0.13315  -0.11438
  Beta virt. eigenvalues --   -0.06955  -0.06232  -0.05935  -0.04711  -0.02862
  Beta virt. eigenvalues --   -0.02268  -0.01942  -0.01496  -0.01275  -0.01097
  Beta virt. eigenvalues --   -0.00395  -0.00005   0.00239   0.00370   0.00557

 Mulliken charges and spin densities:
               1          2
     1  Na   0.695364   0.319867
     2  Na   0.252085   0.030728
     3  Na  -0.203339   0.029699
     4  Na  -1.319673  -0.065469
     5  Na   0.536355   0.402193
     6  Na   0.068923   0.105152
     7  Na  -0.029715   0.177829
 Sum of Mulliken charges =  -0.00000   1.00000

 Dipole moment (field-independent basis, Debye):
    X=              1.7666    Y=              0.3508    Z=              0.2274  Tot=              1.8153
 Quadrupole moment (field-independent basis, Debye-Ang):
   XX=            -67.8822   YY=            -74.7969   ZZ=            -61.6621
   XY=             -6.5436   XZ=             -3.7836   YZ=             -0.4565

 Normal termination of Gaussian 16 at Tue Dec  5 12:54:35 2023.
