 Gaussian 16, Revision B.01,
 Gaussian 16:  ES64L-G16RevB.01 20-Dec-2017

 -------------------------
 #P B3LYP/6-311+g(d) force
 -------------------------

 -----
 DPGEN
 -----
 Symbolic Z-matrix:
 Charge =  0 Multiplicity = 2

                         Standard orientation:
 ---------------------------------------------------------------------
 Center     Atomic      Atomic             Coordinates (Angstroms)
 Number     Number       Type             X           Y           Z
 ---------------------------------------------------------------------
      1         11           0       -2.592800    1.494175   -0.343911
      2         11           0        0.775091    2.555808    0.530204
      3         11           0        0.090707   -0.120170   -1.133109
      4         11           0        3.982373   -0.102274   -1.119837
      5         11           0        1.752538   -1.750456    1.298514
      6         11           0       -2.884717   -1.729230   -1.048418
      7         11           0       -1.123192   -0.347854    1.816556
 ---------------------------------------------------------------------

 SCF Done:  E(UB3LYP) =  -1136.12420969     A.U. after   24 cycles

 The electronic state is 2-A.
 Alpha  occ. eigenvalues --  -38.44819 -38.43941 -38.43862 -38.43817 -38.43687
 Alpha  occ. eigenvalues --  -38.43365 -38.42678  -2.20589  -2.19919  -2.19822
 Alpha  occ. eigenvalues --   -2.19786  -2.19540  -2.19223  -2.18515  -1.14255
 Alpha  occ. eigenvalues --   -1.14235  -1.14200  -1.13682  -1.13628  -1.13532
 Alpha  occ. eigenvalues --   -1.13519  -1.13501  -1.13458  -1.13449  -1.13402
 Alpha  occ. eigenvalues --   -1.13364  -1.13228  -1.13191  -1.13148  -1.12892
 Alpha  occ. eigenvalues --   -1.12871  -1.12853  -1.12213  -1.12182  -1.12125
 Alpha  occ. eigenvalues --   -0.18670  -0.13699  -0.11457  -0.11157
 Alpha virt. eigenvalues --   -0.06436  -0.04842  -0.04589  -0.03026  -0.02699
 Alpha virt. eigenvalues --   -0.02357  -0.02214  -0.00947  -0.00878  -0.00183
 Alpha virt. eigenvalues --    0.00169   0.00253   0.00401   0.00640   0.00774

  Beta  occ. eigenvalues --  -38.44771 -38.43865 -38.43851 -38.43801 -38.43649
  Beta  occ. eigenvalues --  -38.43346 -38.42678  -2.20498  -2.19797  -2.19782
  Beta  occ. eigenvalues --   -2.19768  -2.19477  -2.19188  -2.18517  -1.14190
  Beta  occ. eigenvalues --   -1.14173  -1.14143  -1.13617  -1.13546  -1.13504
  Beta  occ. eigenvalues --   -1.13465  -1.13446  -1.13406  -1.13395  -1.13385
  Beta  occ. eigenvalues --   -1.13343  -1.13181  -1.13144  -1.13084  -1.12865
  Beta  occ. eigenvalues --   -1.12845  -1.12828  -1.12216  -1.12171  -1.12126
  Beta  occ. eigenvalues --   -0.18031  -0.13249  -0.11055
  Beta virt. eigenvalues --   -0.07572  -0.06091  -0.04741  -0.04203  -0.02811
  Beta virt. eigenvalues --   -0.02115  -0.01963  -0.01599  -0.00917  -0.00506
  Beta virt. eigenvalues --   -0.00044   0.00242   0.00355   0.00512   0.00721

 Mulliken charges and spin densities:
               1          2
     1  Na   0.892808   0.110248
     2  Na  -0.272994  -0.053998
     3  Na  -1.419701   0.206123
     4  Na   0.303631   0.228307
     5  Na  -0.119898   0.074319
     6  Na   0.314871   0.104031
     7  Na   0.301282   0.330969
 Sum of Mulliken charges =  -0.00000   1.00000

 Dipole moment (field-independent basis, Debye):
    X=              0.1841    Y=              0.1376    Z=              0.0570  Tot=              0.2368
 Quadrupole moment (field-independent basis, Debye-Ang):
   XX=            -52.4786   YY=            -72.6465   ZZ=            -68.0252
   XY=              0.2362   XZ=             -1.1064   YZ=             -0.2531

 Normal termination of Gaussian 16 at Thu Dec  7 09:43:45 2023.
