 Gaussian 16, Revision B.01,
 Gaussian 16:  ES64L-G16RevB.01 20-Dec-2017

 -------------------------
 #P B3LYP/6-311+g(d) force
 -------------------------

 -----
 DPGEN
 -----
 Symbolic Z-matrix:
 Charge =  0 Multiplicity = 2

                         Standard orientation:
 ---------------------------------------------------------------------
 Center     Atomic      Atomic             Coordinates (Angstroms)
 Number     Number       Type             X           Y           Z
 ---------------------------------------------------------------------
      1         11           0        0.904262    2.045335   -0.035030
      2         11           0        0.155012   -1.175163    1.880163
      3         11           0       -3.364982   -1.189967    0.479504
      4         11           0       -2.203141    2.135144   -0.157635
      5         11           0       -0.909009   -0.748940   -1.517700
      6         11           0        1.999010   -1.406887   -1.300655
      7         11           0        3.418848    0.340477    0.651353
 ---------------------------------------------------------------------

 SCF Done:  E(UB3LYP) =  -1136.12062218     A.U. after   22 cycles

 The electronic state is 2-A.
 Alpha  occ. eigenvalues --  -38.45029 -38.44801 -38.44588 -38.43901 -38.43496
 Alpha  occ. eigenvalues --  -38.43212 -38.42620  -2.20922  -2.20619  -2.20413
 Alpha  occ. eigenvalues --   -2.19850  -2.19480  -2.19075  -2.18533  -1.14626
 Alpha  occ. eigenvalues --   -1.14587  -1.14539  -1.14307  -1.14267  -1.14256
 Alpha  occ. eigenvalues --   -1.14099  -1.14065  -1.14013  -1.13613  -1.13479
 Alpha  occ. eigenvalues --   -1.13448  -1.13162  -1.13117  -1.13080  -1.12777
 Alpha  occ. eigenvalues --   -1.12737  -1.12706  -1.12214  -1.12193  -1.12179
 Alpha  occ. eigenvalues --   -0.18876  -0.14247  -0.11509  -0.11229
 Alpha virt. eigenvalues --   -0.06953  -0.05203  -0.04376  -0.03414  -0.02572
 Alpha virt. eigenvalues --   -0.02462  -0.02429  -0.00996  -0.00628  -0.00020
 Alpha virt. eigenvalues --    0.00152   0.00231   0.00339   0.00736   0.00823

  Beta  occ. eigenvalues --  -38.45014 -38.44797 -38.44526 -38.43849 -38.43433
  Beta  occ. eigenvalues --  -38.43213 -38.42615  -2.20895  -2.20613  -2.20297
  Beta  occ. eigenvalues --   -2.19759  -2.19370  -2.19077  -2.18528  -1.14608
  Beta  occ. eigenvalues --   -1.14567  -1.14510  -1.14302  -1.14261  -1.14246
  Beta  occ. eigenvalues --   -1.14022  -1.13983  -1.13926  -1.13526  -1.13420
  Beta  occ. eigenvalues --   -1.13377  -1.13091  -1.13017  -1.13004  -1.12780
  Beta  occ. eigenvalues --   -1.12728  -1.12709  -1.12213  -1.12184  -1.12158
  Beta  occ. eigenvalues --   -0.18159  -0.14092  -0.11217
  Beta virt. eigenvalues --   -0.07306  -0.06762  -0.05157  -0.03742  -0.03181
  Beta virt. eigenvalues --   -0.02358  -0.01865  -0.01598  -0.00944  -0.00304
  Beta virt. eigenvalues --    0.00013   0.00186   0.00265   0.00489   0.00776

 Mulliken charges and spin densities:
               1          2
     1  Na  -0.943040   0.036385
     2  Na  -0.691951   0.387037
     3  Na   0.733219   0.124044
     4  Na  -0.112709  -0.056070
     5  Na  -0.135411   0.269717
     6  Na  -0.144451  -0.010190
     7  Na   1.294343   0.249076
 Sum of Mulliken charges =  -0.00000   1.00000

 Dipole moment (field-independent basis, Debye):
    X=             -0.0218    Y=             -0.5564    Z=              0.6433  Tot=              0.8509
 Quadrupole moment (field-independent basis, Debye-Ang):
   XX=            -46.2883   YY=            -77.4410   ZZ=            -70.9871
   XY=              0.3108   XZ=             -0.0280   YZ=              0.2732

 Normal termination of Gaussian 16 at Thu Dec  7 13:37:06 2023.
