 Gaussian 16, Revision B.01,
 Gaussian 16:  ES64L-G16RevB.01 20-Dec-2017

 -------------------------
 #P B3LYP/6-311+g(d) force
 -------------------------

 -----
 DPGEN
 -----
 Symbolic Z-matrix:
 Charge =  0 Multiplicity = 2

                         Standard orientation:
 ---------------------------------------------------------------------
 Center     Atomic      Atomic             Coordinates (Angstroms)
 Number     Number       Type             X           Y           Z
 ---------------------------------------------------------------------
      1         11           0       -2.728915   -2.139207    1.145357
      2         11           0       -2.281615    2.626399    0.345207
      3         11           0        3.856831   -1.788781   -0.227332
      4         11           0        4.174720    1.223362    0.111981
      5         11           0        0.568825   -2.673809   -0.282728
      6         11           0        0.668551    3.082384   -0.034282
      7         11           0       -4.258397   -0.330347   -1.058202
 ---------------------------------------------------------------------

 SCF Done:  E(UB3LYP) =  -1136.10955508     A.U. after   21 cycles

 The electronic state is 2-A.
 Alpha  occ. eigenvalues --  -38.45000 -38.44655 -38.44555 -38.44517 -38.44238
 Alpha  occ. eigenvalues --  -38.44018 -38.43710  -2.20778  -2.20469  -2.20378
 Alpha  occ. eigenvalues --   -2.20340  -2.20052  -2.19817  -2.19519  -1.14466
 Alpha  occ. eigenvalues --   -1.14447  -1.14434  -1.14153  -1.14113  -1.14106
 Alpha  occ. eigenvalues --   -1.14093  -1.14027  -1.14011  -1.13993  -1.13983
 Alpha  occ. eigenvalues --   -1.13923  -1.13769  -1.13715  -1.13680  -1.13473
 Alpha  occ. eigenvalues --   -1.13463  -1.13436  -1.13181  -1.13172  -1.13150
 Alpha  occ. eigenvalues --   -0.15925  -0.14337  -0.12963  -0.10690
 Alpha virt. eigenvalues --   -0.07333  -0.05325  -0.03997  -0.03512  -0.03350
 Alpha virt. eigenvalues --   -0.02796  -0.02169  -0.01709  -0.00928  -0.00755
 Alpha virt. eigenvalues --   -0.00271  -0.00160   0.00194   0.00389   0.00601

  Beta  occ. eigenvalues --  -38.45006 -38.44591 -38.44514 -38.44495 -38.44221
  Beta  occ. eigenvalues --  -38.43945 -38.43690  -2.20796  -2.20349  -2.20343
  Beta  occ. eigenvalues --   -2.20267  -2.20026  -2.19682  -2.19486  -1.14476
  Beta  occ. eigenvalues --   -1.14464  -1.14412  -1.14102  -1.14029  -1.14026
  Beta  occ. eigenvalues --   -1.14017  -1.14012  -1.13987  -1.13943  -1.13921
  Beta  occ. eigenvalues --   -1.13869  -1.13735  -1.13701  -1.13656  -1.13380
  Beta  occ. eigenvalues --   -1.13370  -1.13351  -1.13154  -1.13151  -1.13119
  Beta  occ. eigenvalues --   -0.15389  -0.13664  -0.12319
  Beta virt. eigenvalues --   -0.07523  -0.07318  -0.04965  -0.03699  -0.03041
  Beta virt. eigenvalues --   -0.02999  -0.02481  -0.01996  -0.01625  -0.00728
  Beta virt. eigenvalues --   -0.00563  -0.00052   0.00088   0.00326   0.00427

 Mulliken charges and spin densities:
               1          2
     1  Na   0.386931  -0.004823
     2  Na  -0.558955  -0.034064
     3  Na   0.559404   0.049235
     4  Na  -0.234778   0.292715
     5  Na  -0.800215   0.278857
     6  Na   0.324395   0.063197
     7  Na   0.323218   0.354884
 Sum of Mulliken charges =  -0.00000   1.00000

 Dipole moment (field-independent basis, Debye):
    X=             -0.5163    Y=             -0.4025    Z=             -0.0017  Tot=              0.6547
 Quadrupole moment (field-independent basis, Debye-Ang):
   XX=            -61.0908   YY=            -71.5997   ZZ=            -68.4697
   XY=             -0.0719   XZ=              0.0324   YZ=             -1.1432

 Normal termination of Gaussian 16 at Sun Dec  3 18:17:12 2023.
