 Gaussian 16, Revision B.01,
 Gaussian 16:  ES64L-G16RevB.01 20-Dec-2017

 -------------------------
 #P B3LYP/6-311+g(d) force
 -------------------------

 -----
 DPGEN
 -----
 Symbolic Z-matrix:
 Charge =  0 Multiplicity = 2

                         Standard orientation:
 ---------------------------------------------------------------------
 Center     Atomic      Atomic             Coordinates (Angstroms)
 Number     Number       Type             X           Y           Z
 ---------------------------------------------------------------------
      1         11           0        1.234814    1.144323   -1.513216
      2         11           0       -1.494198    2.694339   -0.104860
      3         11           0       -4.478491   -1.163401    0.247399
      4         11           0        0.540973    0.210727    2.196312
      5         11           0        3.966229    0.101119    0.415017
      6         11           0        1.902023   -2.268163   -0.584302
      7         11           0       -1.671350   -0.718944   -0.656350
 ---------------------------------------------------------------------

 SCF Done:  E(UB3LYP) =  -1136.11538182     A.U. after   29 cycles

 The electronic state is 2-A.
 Alpha  occ. eigenvalues --  -38.45563 -38.44578 -38.44561 -38.44202 -38.43527
 Alpha  occ. eigenvalues --  -38.43332 -38.43056  -2.21367  -2.20397  -2.20391
 Alpha  occ. eigenvalues --   -2.19978  -2.19338  -2.19229  -2.18975  -1.15046
 Alpha  occ. eigenvalues --   -1.15020  -1.15010  -1.14074  -1.14059  -1.14047
 Alpha  occ. eigenvalues --   -1.14028  -1.14020  -1.13997  -1.13705  -1.13635
 Alpha  occ. eigenvalues --   -1.13633  -1.13011  -1.12999  -1.12982  -1.12930
 Alpha  occ. eigenvalues --   -1.12888  -1.12815  -1.12661  -1.12646  -1.12584
 Alpha  occ. eigenvalues --   -0.18153  -0.13606  -0.11212  -0.10886
 Alpha virt. eigenvalues --   -0.07646  -0.05450  -0.04006  -0.03391  -0.02954
 Alpha virt. eigenvalues --   -0.02582  -0.02285  -0.01321  -0.00954  -0.00546
 Alpha virt. eigenvalues --   -0.00258   0.00106   0.00267   0.00516   0.00629

  Beta  occ. eigenvalues --  -38.45562 -38.44525 -38.44480 -38.44252 -38.43525
  Beta  occ. eigenvalues --  -38.43279 -38.43036  -2.21369  -2.20328  -2.20215
  Beta  occ. eigenvalues --   -2.20070  -2.19334  -2.19133  -2.18938  -1.15044
  Beta  occ. eigenvalues --   -1.15019  -1.14995  -1.14019  -1.13984  -1.13975
  Beta  occ. eigenvalues --   -1.13941  -1.13901  -1.13869  -1.13766  -1.13696
  Beta  occ. eigenvalues --   -1.13694  -1.13006  -1.12984  -1.12982  -1.12855
  Beta  occ. eigenvalues --   -1.12819  -1.12747  -1.12648  -1.12597  -1.12566
  Beta  occ. eigenvalues --   -0.17287  -0.13758  -0.11126
  Beta virt. eigenvalues --   -0.07356  -0.06836  -0.05282  -0.03838  -0.02917
  Beta virt. eigenvalues --   -0.02686  -0.01666  -0.01629  -0.01217  -0.00819
  Beta virt. eigenvalues --   -0.00534  -0.00164   0.00122   0.00433   0.00594

 Mulliken charges and spin densities:
               1          2
     1  Na   0.182116   0.276978
     2  Na   0.215521  -0.013079
     3  Na   0.318944  -0.152412
     4  Na  -0.349817   0.572408
     5  Na   0.328130   0.031378
     6  Na   0.247100   0.104152
     7  Na  -0.941994   0.180575
 Sum of Mulliken charges =  -0.00000   1.00000

 Dipole moment (field-independent basis, Debye):
    X=              1.3277    Y=              0.5774    Z=              0.4578  Tot=              1.5185
 Quadrupole moment (field-independent basis, Debye-Ang):
   XX=            -50.7423   YY=            -69.8931   ZZ=            -74.2636
   XY=             -2.7739   XZ=             -2.0549   YZ=              0.4618

 Normal termination of Gaussian 16 at Tue Dec  5 13:58:37 2023.
