 Gaussian 16, Revision B.01,
 Gaussian 16:  ES64L-G16RevB.01 20-Dec-2017

 -------------------------
 #P B3LYP/6-311+g(d) force
 -------------------------

 -----
 DPGEN
 -----
 Symbolic Z-matrix:
 Charge =  0 Multiplicity = 2

                         Standard orientation:
 ---------------------------------------------------------------------
 Center     Atomic      Atomic             Coordinates (Angstroms)
 Number     Number       Type             X           Y           Z
 ---------------------------------------------------------------------
      1         11           0        2.582207    1.675799   -0.131784
      2         11           0       -1.081165    0.598778    1.544449
      3         11           0       -2.113066   -2.482839   -0.227719
      4         11           0        1.461279   -1.490127   -0.318305
      5         11           0        4.571915   -1.074987    0.023790
      6         11           0       -4.473039   -0.225675   -0.295336
      7         11           0       -0.948131    2.999051   -0.595095
 ---------------------------------------------------------------------

 SCF Done:  E(UB3LYP) =  -1136.12458559     A.U. after   21 cycles

 The electronic state is 2-A.
 Alpha  occ. eigenvalues --  -38.44674 -38.44611 -38.43917 -38.43709 -38.43707
 Alpha  occ. eigenvalues --  -38.43528 -38.43499  -2.20506  -2.20432  -2.19769
 Alpha  occ. eigenvalues --   -2.19534  -2.19503  -2.19417  -2.19322  -1.14202
 Alpha  occ. eigenvalues --   -1.14184  -1.14143  -1.14128  -1.14113  -1.14018
 Alpha  occ. eigenvalues --   -1.13447  -1.13414  -1.13399  -1.13193  -1.13180
 Alpha  occ. eigenvalues --   -1.13177  -1.13169  -1.13157  -1.13128  -1.13103
 Alpha  occ. eigenvalues --   -1.13097  -1.13023  -1.13003  -1.12974  -1.12959
 Alpha  occ. eigenvalues --   -0.17209  -0.14259  -0.12048  -0.10430
 Alpha virt. eigenvalues --   -0.06202  -0.05736  -0.04626  -0.03465  -0.02802
 Alpha virt. eigenvalues --   -0.02281  -0.01935  -0.01420  -0.00898  -0.00600
 Alpha virt. eigenvalues --   -0.00346  -0.00067   0.00497   0.00590   0.00631

  Beta  occ. eigenvalues --  -38.44656 -38.44603 -38.43884 -38.43710 -38.43624
  Beta  occ. eigenvalues --  -38.43491 -38.43488  -2.20477  -2.20419  -2.19706
  Beta  occ. eigenvalues --   -2.19508  -2.19374  -2.19354  -2.19309  -1.14184
  Beta  occ. eigenvalues --   -1.14138  -1.14135  -1.14119  -1.14101  -1.13994
  Beta  occ. eigenvalues --   -1.13408  -1.13371  -1.13352  -1.13184  -1.13173
  Beta  occ. eigenvalues --   -1.13128  -1.13095  -1.13070  -1.13065  -1.13055
  Beta  occ. eigenvalues --   -1.13049  -1.13000  -1.12970  -1.12942  -1.12894
  Beta  occ. eigenvalues --   -0.16638  -0.13736  -0.11816
  Beta virt. eigenvalues --   -0.06844  -0.06082  -0.05546  -0.04140  -0.03082
  Beta virt. eigenvalues --   -0.02603  -0.01989  -0.01606  -0.01125  -0.00698
  Beta virt. eigenvalues --   -0.00417  -0.00087   0.00181   0.00616   0.00669

 Mulliken charges and spin densities:
               1          2
     1  Na  -0.059201   0.111892
     2  Na   0.014295   0.116934
     3  Na   0.242424  -0.167944
     4  Na  -1.494702   0.124328
     5  Na   1.367810   0.342012
     6  Na  -0.043495   0.506556
     7  Na  -0.027131  -0.033778
 Sum of Mulliken charges =  -0.00000   1.00000

 Dipole moment (field-independent basis, Debye):
    X=              1.0606    Y=              0.3702    Z=              0.1199  Tot=              1.1297
 Quadrupole moment (field-independent basis, Debye-Ang):
   XX=            -65.9221   YY=            -68.0551   ZZ=            -66.9575
   XY=             -2.6009   XZ=              1.0209   YZ=             -1.2466

 Normal termination of Gaussian 16 at Tue Nov 28 20:18:08 2023.
