 Gaussian 16, Revision B.01,
 Gaussian 16:  ES64L-G16RevB.01 20-Dec-2017

 -------------------------
 #P B3LYP/6-311+g(d) force
 -------------------------

 -----
 DPGEN
 -----
 Symbolic Z-matrix:
 Charge =  0 Multiplicity = 2

                         Standard orientation:
 ---------------------------------------------------------------------
 Center     Atomic      Atomic             Coordinates (Angstroms)
 Number     Number       Type             X           Y           Z
 ---------------------------------------------------------------------
      1         11           0       -1.645017   -0.928364   -1.660129
      2         11           0        0.009229   -0.407199    1.942888
      3         11           0       -3.787948   -0.640916    0.964183
      4         11           0       -1.546774    2.233938   -0.200352
      5         11           0        3.804218    0.137698    1.006601
      6         11           0        1.695574   -1.949888   -0.961310
      7         11           0        1.470718    1.554731   -1.091881
 ---------------------------------------------------------------------

 SCF Done:  E(UB3LYP) =  -1136.12346918     A.U. after   27 cycles

 The electronic state is 2-A.
 Alpha  occ. eigenvalues --  -38.45250 -38.45109 -38.44489 -38.44304 -38.44010
 Alpha  occ. eigenvalues --  -38.42525 -38.42493  -2.21045  -2.20908  -2.20271
 Alpha  occ. eigenvalues --   -2.20166  -2.19864  -2.18392  -2.18381  -1.14736
 Alpha  occ. eigenvalues --   -1.14709  -1.14643  -1.14576  -1.14566  -1.14530
 Alpha  occ. eigenvalues --   -1.13957  -1.13932  -1.13915  -1.13849  -1.13807
 Alpha  occ. eigenvalues --   -1.13783  -1.13543  -1.13524  -1.13472  -1.12121
 Alpha  occ. eigenvalues --   -1.12072  -1.12058  -1.12044  -1.12033  -1.11961
 Alpha  occ. eigenvalues --   -0.18246  -0.13933  -0.11595  -0.10711
 Alpha virt. eigenvalues --   -0.07080  -0.05138  -0.04706  -0.03263  -0.02815
 Alpha virt. eigenvalues --   -0.02499  -0.02365  -0.01355  -0.00722  -0.00230
 Alpha virt. eigenvalues --    0.00085   0.00173   0.00275   0.00675   0.00689

  Beta  occ. eigenvalues --  -38.45198 -38.45091 -38.44497 -38.44249 -38.43954
  Beta  occ. eigenvalues --  -38.42525 -38.42483  -2.20949  -2.20874  -2.20287
  Beta  occ. eigenvalues --   -2.20067  -2.19766  -2.18391  -2.18365  -1.14666
  Beta  occ. eigenvalues --   -1.14641  -1.14572  -1.14549  -1.14539  -1.14510
  Beta  occ. eigenvalues --   -1.13966  -1.13941  -1.13920  -1.13778  -1.13727
  Beta  occ. eigenvalues --   -1.13716  -1.13477  -1.13453  -1.13385  -1.12125
  Beta  occ. eigenvalues --   -1.12057  -1.12040  -1.12039  -1.12011  -1.11962
  Beta  occ. eigenvalues --   -0.17479  -0.13847  -0.10566
  Beta virt. eigenvalues --   -0.07639  -0.06828  -0.04655  -0.04530  -0.02860
  Beta virt. eigenvalues --   -0.02566  -0.01892  -0.01772  -0.01033  -0.00572
  Beta virt. eigenvalues --   -0.00171   0.00107   0.00284   0.00319   0.00754

 Mulliken charges and spin densities:
               1          2
     1  Na  -0.194456   0.152742
     2  Na  -0.595414   0.424542
     3  Na   0.461173  -0.040690
     4  Na   0.056721   0.070884
     5  Na   0.705415   0.011018
     6  Na   0.093593   0.175854
     7  Na  -0.527032   0.205650
 Sum of Mulliken charges =  -0.00000   1.00000

 Dipole moment (field-independent basis, Debye):
    X=              0.4128    Y=             -0.2521    Z=              0.6322  Tot=              0.7960
 Quadrupole moment (field-independent basis, Debye-Ang):
   XX=            -48.0232   YY=            -78.5632   ZZ=            -68.3193
   XY=             -0.0503   XZ=              1.0933   YZ=              4.8580

 Normal termination of Gaussian 16 at Thu Dec  7 13:46:05 2023.
