 Gaussian 16, Revision B.01,
 Gaussian 16:  ES64L-G16RevB.01 20-Dec-2017

 -------------------------
 #P B3LYP/6-311+g(d) force
 -------------------------

 -----
 DPGEN
 -----
 Symbolic Z-matrix:
 Charge =  0 Multiplicity = 2

                         Standard orientation:
 ---------------------------------------------------------------------
 Center     Atomic      Atomic             Coordinates (Angstroms)
 Number     Number       Type             X           Y           Z
 ---------------------------------------------------------------------
      1         11           0        0.306623    2.705129   -0.400134
      2         11           0       -0.210292   -0.159488   -1.687770
      3         11           0       -0.032177    0.112919    1.964705
      4         11           0        3.168122    0.588772    0.303962
      5         11           0       -3.029986    1.036269    0.006834
      6         11           0       -1.799170   -2.136486    0.239021
      7         11           0        1.596879   -2.147115   -0.426619
 ---------------------------------------------------------------------

 SCF Done:  E(UB3LYP) =  -1136.13544260     A.U. after   19 cycles

 The electronic state is 2-A.
 Alpha  occ. eigenvalues --  -38.44176 -38.44142 -38.43665 -38.43257 -38.43221
 Alpha  occ. eigenvalues --  -38.43146 -38.43128  -2.20007  -2.19974  -2.19587
 Alpha  occ. eigenvalues --   -2.19298  -2.19135  -2.19058  -2.19008  -1.13683
 Alpha  occ. eigenvalues --   -1.13669  -1.13651  -1.13645  -1.13639  -1.13612
 Alpha  occ. eigenvalues --   -1.13270  -1.13224  -1.13199  -1.13064  -1.12966
 Alpha  occ. eigenvalues --   -1.12955  -1.12806  -1.12786  -1.12759  -1.12717
 Alpha  occ. eigenvalues --   -1.12696  -1.12687  -1.12669  -1.12663  -1.12614
 Alpha  occ. eigenvalues --   -0.19090  -0.13247  -0.12310  -0.11025
 Alpha virt. eigenvalues --   -0.05900  -0.04868  -0.04235  -0.03344  -0.02900
 Alpha virt. eigenvalues --   -0.02645  -0.01729  -0.00933  -0.00206  -0.00028
 Alpha virt. eigenvalues --    0.00062   0.00356   0.00832   0.00907   0.00944

  Beta  occ. eigenvalues --  -38.44174 -38.44138 -38.43579 -38.43212 -38.43180
  Beta  occ. eigenvalues --  -38.43136 -38.43116  -2.20006  -2.19970  -2.19429
  Beta  occ. eigenvalues --   -2.19160  -2.19122  -2.19039  -2.18992  -1.13678
  Beta  occ. eigenvalues --   -1.13657  -1.13652  -1.13642  -1.13617  -1.13611
  Beta  occ. eigenvalues --   -1.13167  -1.13111  -1.13084  -1.12984  -1.12883
  Beta  occ. eigenvalues --   -1.12874  -1.12781  -1.12759  -1.12735  -1.12685
  Beta  occ. eigenvalues --   -1.12673  -1.12656  -1.12647  -1.12636  -1.12605
  Beta  occ. eigenvalues --   -0.18344  -0.13009  -0.12023
  Beta virt. eigenvalues --   -0.07077  -0.05853  -0.04869  -0.04214  -0.02561
  Beta virt. eigenvalues --   -0.02093  -0.01635  -0.01568  -0.00878  -0.00210
  Beta virt. eigenvalues --   -0.00028   0.00125   0.00372   0.00875   0.00914

 Mulliken charges and spin densities:
               1          2
     1  Na   0.042143  -0.078649
     2  Na  -0.215238   0.453899
     3  Na  -0.492525   0.705351
     4  Na  -0.003899  -0.006322
     5  Na   0.041672  -0.104307
     6  Na   0.256244   0.015194
     7  Na   0.371604   0.014835
 Sum of Mulliken charges =  -0.00000   1.00000

 Dipole moment (field-independent basis, Debye):
    X=             -0.1382    Y=              0.2530    Z=              0.2842  Tot=              0.4048
 Quadrupole moment (field-independent basis, Debye-Ang):
   XX=            -53.8338   YY=            -66.4329   ZZ=            -73.0894
   XY=              0.0008   XZ=              0.0062   YZ=             -0.4402

 Normal termination of Gaussian 16 at Thu Dec  7 21:27:36 2023.
