 Gaussian 16, Revision B.01,
 Gaussian 16:  ES64L-G16RevB.01 20-Dec-2017

 -------------------------
 #P B3LYP/6-311+g(d) force
 -------------------------

 -----
 DPGEN
 -----
 Symbolic Z-matrix:
 Charge =  0 Multiplicity = 2

                         Standard orientation:
 ---------------------------------------------------------------------
 Center     Atomic      Atomic             Coordinates (Angstroms)
 Number     Number       Type             X           Y           Z
 ---------------------------------------------------------------------
      1         11           0        1.147307   -2.685862   -0.534677
      2         11           0        3.131883    0.182556   -0.145240
      3         11           0        0.968543    2.653802    0.030396
      4         11           0       -0.380845   -0.013231   -1.589599
      5         11           0       -2.987725   -1.390599    0.105333
      6         11           0       -2.184624    1.848599   -0.038713
      7         11           0        0.305462   -0.595264    2.172499
 ---------------------------------------------------------------------

 SCF Done:  E(UB3LYP) =  -1136.13422417     A.U. after   19 cycles

 The electronic state is 2-A.
 Alpha  occ. eigenvalues --  -38.44272 -38.44253 -38.43830 -38.43576 -38.43522
 Alpha  occ. eigenvalues --  -38.43238 -38.42934  -2.20087  -2.20085  -2.19680
 Alpha  occ. eigenvalues --   -2.19485  -2.19369  -2.19241  -2.18815  -1.13760
 Alpha  occ. eigenvalues --   -1.13759  -1.13754  -1.13753  -1.13728  -1.13725
 Alpha  occ. eigenvalues --   -1.13338  -1.13314  -1.13297  -1.13254  -1.13134
 Alpha  occ. eigenvalues --   -1.13107  -1.13080  -1.13022  -1.12994  -1.12908
 Alpha  occ. eigenvalues --   -1.12864  -1.12851  -1.12489  -1.12476  -1.12458
 Alpha  occ. eigenvalues --   -0.18636  -0.13250  -0.12327  -0.10809
 Alpha virt. eigenvalues --   -0.05986  -0.05063  -0.04474  -0.03357  -0.02908
 Alpha virt. eigenvalues --   -0.02597  -0.01690  -0.01015  -0.00433  -0.00156
 Alpha virt. eigenvalues --   -0.00036   0.00351   0.00791   0.00841   0.00901

  Beta  occ. eigenvalues --  -38.44271 -38.44250 -38.43734 -38.43571 -38.43508
  Beta  occ. eigenvalues --  -38.43178 -38.42931  -2.20086  -2.20084  -2.19502
  Beta  occ. eigenvalues --   -2.19479  -2.19347  -2.19134  -2.18812  -1.13761
  Beta  occ. eigenvalues --   -1.13760  -1.13740  -1.13732  -1.13727  -1.13723
  Beta  occ. eigenvalues --   -1.13238  -1.13220  -1.13190  -1.13169  -1.13120
  Beta  occ. eigenvalues --   -1.13101  -1.13053  -1.12989  -1.12980  -1.12836
  Beta  occ. eigenvalues --   -1.12791  -1.12776  -1.12487  -1.12474  -1.12438
  Beta  occ. eigenvalues --   -0.17928  -0.13048  -0.12094
  Beta virt. eigenvalues --   -0.06876  -0.05941  -0.05025  -0.04424  -0.02585
  Beta virt. eigenvalues --   -0.02143  -0.01623  -0.01516  -0.00943  -0.00491
  Beta virt. eigenvalues --   -0.00186   0.00133   0.00386   0.00837   0.00865

 Mulliken charges and spin densities:
               1          2
     1  Na   0.221190  -0.034322
     2  Na   0.209179   0.034090
     3  Na   0.032394   0.008724
     4  Na  -0.205357   0.206104
     5  Na   0.181564  -0.019843
     6  Na   0.245414   0.102073
     7  Na  -0.684383   0.703173
 Sum of Mulliken charges =  -0.00000   1.00000

 Dipole moment (field-independent basis, Debye):
    X=             -0.0907    Y=             -0.4029    Z=              0.2099  Tot=              0.4633
 Quadrupole moment (field-independent basis, Debye-Ang):
   XX=            -55.2700   YY=            -64.8174   ZZ=            -73.9662
   XY=              0.9225   XZ=             -1.2962   YZ=              0.9461

 Normal termination of Gaussian 16 at Fri Dec  8 00:34:53 2023.
