 Gaussian 16, Revision B.01,
 Gaussian 16:  ES64L-G16RevB.01 20-Dec-2017

 -------------------------
 #P B3LYP/6-311+g(d) force
 -------------------------

 -----
 DPGEN
 -----
 Symbolic Z-matrix:
 Charge =  0 Multiplicity = 2

                         Standard orientation:
 ---------------------------------------------------------------------
 Center     Atomic      Atomic             Coordinates (Angstroms)
 Number     Number       Type             X           Y           Z
 ---------------------------------------------------------------------
      1         11           0        1.005647   -0.425625   -2.567416
      2         11           0       -2.839918   -1.133460   -0.218682
      3         11           0       -2.443239    2.105335   -0.264658
      4         11           0       -0.117737   -0.398529    2.745270
      5         11           0        3.219971   -0.252529    0.520346
      6         11           0        0.042138   -2.750125   -0.188304
      7         11           0        1.133138    2.854933   -0.026556
 ---------------------------------------------------------------------

 SCF Done:  E(UB3LYP) =  -1136.12417356     A.U. after   20 cycles

 The electronic state is 2-A.
 Alpha  occ. eigenvalues --  -38.45623 -38.45235 -38.44512 -38.43659 -38.43622
 Alpha  occ. eigenvalues --  -38.43309 -38.43273  -2.21397  -2.21024  -2.20269
 Alpha  occ. eigenvalues --   -2.19445  -2.19417  -2.19140  -2.19065  -1.15037
 Alpha  occ. eigenvalues --   -1.15030  -1.15015  -1.14675  -1.14662  -1.14643
 Alpha  occ. eigenvalues --   -1.13944  -1.13925  -1.13921  -1.13125  -1.13114
 Alpha  occ. eigenvalues --   -1.13105  -1.13101  -1.13088  -1.13051  -1.12824
 Alpha  occ. eigenvalues --   -1.12804  -1.12778  -1.12739  -1.12726  -1.12703
 Alpha  occ. eigenvalues --   -0.17299  -0.12522  -0.11931  -0.11857
 Alpha virt. eigenvalues --   -0.05924  -0.05375  -0.04750  -0.03636  -0.03541
 Alpha virt. eigenvalues --   -0.03175  -0.01273  -0.00711  -0.00683  -0.00373
 Alpha virt. eigenvalues --   -0.00278   0.00045   0.00440   0.00478   0.00735

  Beta  occ. eigenvalues --  -38.45519 -38.45158 -38.44512 -38.43659 -38.43622
  Beta  occ. eigenvalues --  -38.43306 -38.43272  -2.21204  -2.20880  -2.20272
  Beta  occ. eigenvalues --   -2.19446  -2.19419  -2.19139  -2.19062  -1.14908
  Beta  occ. eigenvalues --   -1.14896  -1.14878  -1.14578  -1.14562  -1.14541
  Beta  occ. eigenvalues --   -1.13935  -1.13927  -1.13919  -1.13125  -1.13117
  Beta  occ. eigenvalues --   -1.13095  -1.13092  -1.13090  -1.13055  -1.12822
  Beta  occ. eigenvalues --   -1.12784  -1.12773  -1.12734  -1.12723  -1.12702
  Beta  occ. eigenvalues --   -0.16543  -0.12400  -0.11742
  Beta virt. eigenvalues --   -0.07990  -0.05689  -0.05027  -0.04451  -0.03252
  Beta virt. eigenvalues --   -0.02750  -0.02508  -0.01202  -0.00647  -0.00417
  Beta virt. eigenvalues --   -0.00325  -0.00211   0.00285   0.00512   0.00714

 Mulliken charges and spin densities:
               1          2
     1  Na   0.067403   0.422051
     2  Na   0.005108  -0.033707
     3  Na  -0.005528  -0.037174
     4  Na  -0.094865   0.602859
     5  Na   0.056829   0.018642
     6  Na   0.248742   0.023947
     7  Na  -0.277687   0.003380
 Sum of Mulliken charges =  -0.00000   1.00000

 Dipole moment (field-independent basis, Debye):
    X=              0.7083    Y=             -0.3298    Z=              0.1463  Tot=              0.7949
 Quadrupole moment (field-independent basis, Debye-Ang):
   XX=            -64.6459   YY=            -71.7454   ZZ=            -63.1896
   XY=              0.3555   XZ=              0.5892   YZ=             -0.3940

 Normal termination of Gaussian 16 at Sun Dec  3 22:13:19 2023.
