 Gaussian 16, Revision B.01,
 Gaussian 16:  ES64L-G16RevB.01 20-Dec-2017

 -------------------------
 #P B3LYP/6-311+g(d) force
 -------------------------

 -----
 DPGEN
 -----
 Symbolic Z-matrix:
 Charge =  0 Multiplicity = 2

                         Standard orientation:
 ---------------------------------------------------------------------
 Center     Atomic      Atomic             Coordinates (Angstroms)
 Number     Number       Type             X           Y           Z
 ---------------------------------------------------------------------
      1         11           0       -2.405111    2.365992    0.281223
      2         11           0       -3.188623   -0.778588   -0.906733
      3         11           0        2.594645    2.541654    0.190101
      4         11           0        3.073411   -1.156370   -0.439740
      5         11           0        0.050258   -2.960398    0.332294
      6         11           0       -0.453969   -0.408490    1.981351
      7         11           0        0.329389    0.396199   -1.438497
 ---------------------------------------------------------------------

 SCF Done:  E(UB3LYP) =  -1136.12825684     A.U. after   21 cycles

 The electronic state is 2-A.
 Alpha  occ. eigenvalues --  -38.44500 -38.44305 -38.44286 -38.44197 -38.43683
 Alpha  occ. eigenvalues --  -38.43464 -38.43016  -2.20310  -2.20110  -2.20071
 Alpha  occ. eigenvalues --   -2.19956  -2.19576  -2.19354  -2.18871  -1.14008
 Alpha  occ. eigenvalues --   -1.13969  -1.13922  -1.13779  -1.13771  -1.13749
 Alpha  occ. eigenvalues --   -1.13740  -1.13727  -1.13695  -1.13635  -1.13614
 Alpha  occ. eigenvalues --   -1.13596  -1.13286  -1.13228  -1.13192  -1.13043
 Alpha  occ. eigenvalues --   -1.12996  -1.12964  -1.12558  -1.12515  -1.12502
 Alpha  occ. eigenvalues --   -0.17854  -0.13256  -0.11956  -0.10347
 Alpha virt. eigenvalues --   -0.06118  -0.05784  -0.04607  -0.03249  -0.02732
 Alpha virt. eigenvalues --   -0.02284  -0.01933  -0.01442  -0.00859  -0.00537
 Alpha virt. eigenvalues --   -0.00036   0.00276   0.00647   0.00696   0.00737

  Beta  occ. eigenvalues --  -38.44489 -38.44283 -38.44267 -38.44202 -38.43649
  Beta  occ. eigenvalues --  -38.43373 -38.43009  -2.20291  -2.20068  -2.20041
  Beta  occ. eigenvalues --   -2.19966  -2.19517  -2.19188  -2.18862  -1.13987
  Beta  occ. eigenvalues --   -1.13953  -1.13914  -1.13748  -1.13735  -1.13719
  Beta  occ. eigenvalues --   -1.13716  -1.13699  -1.13672  -1.13640  -1.13619
  Beta  occ. eigenvalues --   -1.13601  -1.13239  -1.13182  -1.13146  -1.12933
  Beta  occ. eigenvalues --   -1.12877  -1.12851  -1.12537  -1.12501  -1.12491
  Beta  occ. eigenvalues --   -0.17205  -0.12994  -0.11768
  Beta virt. eigenvalues --   -0.06653  -0.05994  -0.05590  -0.04506  -0.02666
  Beta virt. eigenvalues --   -0.02109  -0.01804  -0.01507  -0.01184  -0.00841
  Beta virt. eigenvalues --   -0.00479   0.00112   0.00350   0.00701   0.00755

 Mulliken charges and spin densities:
               1          2
     1  Na  -0.028063   0.017327
     2  Na   0.012074   0.192367
     3  Na  -0.144528  -0.034290
     4  Na   0.052055  -0.059267
     5  Na   0.074303   0.004192
     6  Na  -0.134332   0.620166
     7  Na   0.168492   0.259506
 Sum of Mulliken charges =  -0.00000   1.00000

 Dipole moment (field-independent basis, Debye):
    X=              0.1783    Y=              0.2895    Z=              0.0169  Tot=              0.3404
 Quadrupole moment (field-independent basis, Debye-Ang):
   XX=            -55.2205   YY=            -62.0724   ZZ=            -75.8236
   XY=             -0.7893   XZ=              1.2587   YZ=              2.9993

 Normal termination of Gaussian 16 at Tue Dec  5 23:29:36 2023.
