 Gaussian 16, Revision B.01,
 Gaussian 16:  ES64L-G16RevB.01 20-Dec-2017

 -------------------------
 #P B3LYP/6-311+g(d) force
 -------------------------

 -----
 DPGEN
 -----
 Symbolic Z-matrix:
 Charge =  0 Multiplicity = 2

                         Standard orientation:
 ---------------------------------------------------------------------
 Center     Atomic      Atomic             Coordinates (Angstroms)
 Number     Number       Type             X           Y           Z
 ---------------------------------------------------------------------
      1         11           0        2.952137    0.548738   -0.262735
      2         11           0       -0.576438   -0.315717    1.898847
      3         11           0       -2.634282    1.418256   -0.230830
      4         11           0       -2.142589   -2.112932   -0.275330
      5         11           0        1.862241   -2.111860    0.349327
      6         11           0        0.061172   -0.264695   -1.748532
      7         11           0        0.477759    2.838210    0.269253
 ---------------------------------------------------------------------

 SCF Done:  E(UB3LYP) =  -1136.13572363     A.U. after   19 cycles

 The electronic state is 2-A.
 Alpha  occ. eigenvalues --  -38.43948 -38.43812 -38.43680 -38.43624 -38.43439
 Alpha  occ. eigenvalues --  -38.43342 -38.43143  -2.19804  -2.19714  -2.19557
 Alpha  occ. eigenvalues --   -2.19535  -2.19381  -2.19322  -2.18983  -1.13505
 Alpha  occ. eigenvalues --   -1.13481  -1.13481  -1.13435  -1.13377  -1.13348
 Alpha  occ. eigenvalues --   -1.13262  -1.13246  -1.13199  -1.13187  -1.13174
 Alpha  occ. eigenvalues --   -1.13130  -1.13040  -1.13005  -1.12993  -1.12986
 Alpha  occ. eigenvalues --   -1.12945  -1.12941  -1.12654  -1.12646  -1.12627
 Alpha  occ. eigenvalues --   -0.19011  -0.13419  -0.12383  -0.10924
 Alpha virt. eigenvalues --   -0.05525  -0.05287  -0.04472  -0.03433  -0.02872
 Alpha virt. eigenvalues --   -0.02579  -0.01414  -0.01074  -0.00254  -0.00095
 Alpha virt. eigenvalues --    0.00012   0.00375   0.00823   0.00885   0.00928

  Beta  occ. eigenvalues --  -38.43942 -38.43809 -38.43670 -38.43614 -38.43355
  Beta  occ. eigenvalues --  -38.43269 -38.43140  -2.19796  -2.19710  -2.19544
  Beta  occ. eigenvalues --   -2.19520  -2.19228  -2.19187  -2.18980  -1.13505
  Beta  occ. eigenvalues --   -1.13478  -1.13454  -1.13428  -1.13365  -1.13334
  Beta  occ. eigenvalues --   -1.13251  -1.13204  -1.13188  -1.13166  -1.13147
  Beta  occ. eigenvalues --   -1.13123  -1.12945  -1.12901  -1.12899  -1.12880
  Beta  occ. eigenvalues --   -1.12849  -1.12843  -1.12651  -1.12634  -1.12621
  Beta  occ. eigenvalues --   -0.18274  -0.13171  -0.12140
  Beta virt. eigenvalues --   -0.06987  -0.05506  -0.05247  -0.04421  -0.02628
  Beta virt. eigenvalues --   -0.02112  -0.01519  -0.01325  -0.01020  -0.00269
  Beta virt. eigenvalues --   -0.00138   0.00136   0.00405   0.00882   0.00900

 Mulliken charges and spin densities:
               1          2
     1  Na   0.032543   0.002176
     2  Na  -0.342486   0.687427
     3  Na   0.078375  -0.036246
     4  Na   0.279431  -0.091132
     5  Na   0.266959  -0.033565
     6  Na  -0.223897   0.530909
     7  Na  -0.090925  -0.059569
 Sum of Mulliken charges =  -0.00000   1.00000

 Dipole moment (field-independent basis, Debye):
    X=             -0.2939    Y=             -0.1071    Z=              0.0084  Tot=              0.3129
 Quadrupole moment (field-independent basis, Debye-Ang):
   XX=            -57.0656   YY=            -64.1639   ZZ=            -73.3648
   XY=              0.3718   XZ=              1.0638   YZ=             -0.0472

 Normal termination of Gaussian 16 at Thu Dec  7 05:06:30 2023.
