 Gaussian 16, Revision B.01,
 Gaussian 16:  ES64L-G16RevB.01 20-Dec-2017

 -------------------------
 #P B3LYP/6-311+g(d) force
 -------------------------

 -----
 DPGEN
 -----
 Symbolic Z-matrix:
 Charge =  0 Multiplicity = 2

                         Standard orientation:
 ---------------------------------------------------------------------
 Center     Atomic      Atomic             Coordinates (Angstroms)
 Number     Number       Type             X           Y           Z
 ---------------------------------------------------------------------
      1         11           0        1.347645   -2.200479   -0.761022
      2         11           0       -5.393770   -0.609305    0.186154
      3         11           0       -1.821230   -1.233222    0.100556
      4         11           0       -2.975642    2.410725   -0.289251
      5         11           0        0.181051    0.872174   -0.048550
      6         11           0        3.217719   -0.139403    1.374546
      7         11           0        5.444228    0.899510   -0.562435
 ---------------------------------------------------------------------

 SCF Done:  E(UB3LYP) =  -1136.11548994     A.U. after   21 cycles

 The electronic state is 2-A.
 Alpha  occ. eigenvalues --  -38.44204 -38.44198 -38.44170 -38.44114 -38.44067
 Alpha  occ. eigenvalues --  -38.43974 -38.43854  -2.20151  -2.20028  -2.19999
 Alpha  occ. eigenvalues --   -2.19972  -2.19969  -2.19766  -2.19638  -1.13985
 Alpha  occ. eigenvalues --   -1.13829  -1.13761  -1.13715  -1.13699  -1.13677
 Alpha  occ. eigenvalues --   -1.13670  -1.13658  -1.13650  -1.13636  -1.13625
 Alpha  occ. eigenvalues --   -1.13615  -1.13609  -1.13588  -1.13510  -1.13420
 Alpha  occ. eigenvalues --   -1.13416  -1.13370  -1.13297  -1.13296  -1.13279
 Alpha  occ. eigenvalues --   -0.17411  -0.14276  -0.11477  -0.11163
 Alpha virt. eigenvalues --   -0.06222  -0.05872  -0.04741  -0.03255  -0.02934
 Alpha virt. eigenvalues --   -0.02476  -0.01910  -0.01601  -0.01083  -0.00544
 Alpha virt. eigenvalues --   -0.00424  -0.00045   0.00370   0.00454   0.00590

  Beta  occ. eigenvalues --  -38.44167 -38.44167 -38.44147 -38.44095 -38.44048
  Beta  occ. eigenvalues --  -38.43900 -38.43862  -2.20061  -2.20022  -2.19939
  Beta  occ. eigenvalues --   -2.19936  -2.19934  -2.19652  -2.19628  -1.13930
  Beta  occ. eigenvalues --   -1.13773  -1.13711  -1.13702  -1.13684  -1.13650
  Beta  occ. eigenvalues --   -1.13640  -1.13637  -1.13614  -1.13599  -1.13585
  Beta  occ. eigenvalues --   -1.13579  -1.13558  -1.13546  -1.13484  -1.13326
  Beta  occ. eigenvalues --   -1.13316  -1.13307  -1.13305  -1.13287  -1.13285
  Beta  occ. eigenvalues --   -0.16926  -0.13863  -0.11269
  Beta virt. eigenvalues --   -0.07349  -0.06041  -0.05595  -0.04355  -0.03082
  Beta virt. eigenvalues --   -0.02600  -0.01963  -0.01549  -0.01331  -0.00927
  Beta virt. eigenvalues --   -0.00294  -0.00240   0.00128   0.00446   0.00562

 Mulliken charges and spin densities:
               1          2
     1  Na   0.665360   0.047956
     2  Na   0.410798   0.385407
     3  Na  -0.861267   0.117680
     4  Na  -0.050494  -0.057141
     5  Na  -0.982850   0.542515
     6  Na   0.658386   0.000389
     7  Na   0.160066  -0.036807
 Sum of Mulliken charges =  -0.00000   1.00000

 Dipole moment (field-independent basis, Debye):
    X=              0.2784    Y=             -0.2937    Z=             -0.5015  Tot=              0.6444
 Quadrupole moment (field-independent basis, Debye-Ang):
   XX=            -67.6774   YY=            -67.2117   ZZ=            -67.2449
   XY=             -4.5675   XZ=             -4.2841   YZ=             -0.8685

 Normal termination of Gaussian 16 at Tue Nov 28 20:39:29 2023.
