 Gaussian 16, Revision B.01,
 Gaussian 16:  ES64L-G16RevB.01 20-Dec-2017

 -------------------------
 #P B3LYP/6-311+g(d) force
 -------------------------

 -----
 DPGEN
 -----
 Symbolic Z-matrix:
 Charge =  0 Multiplicity = 2

                         Standard orientation:
 ---------------------------------------------------------------------
 Center     Atomic      Atomic             Coordinates (Angstroms)
 Number     Number       Type             X           Y           Z
 ---------------------------------------------------------------------
      1         11           0        0.651765    1.875894   -1.762943
      2         11           0        3.063614   -1.689175   -1.326200
      3         11           0        0.026081    2.411289    1.404985
      4         11           0       -4.018721   -1.964604    0.356481
      5         11           0        3.021100   -0.509891    1.732185
      6         11           0       -2.562236    1.044993   -0.546652
      7         11           0       -0.181604   -1.168506    0.142144
 ---------------------------------------------------------------------

 SCF Done:  E(UB3LYP) =  -1136.12762723     A.U. after   20 cycles

 The electronic state is 2-A.
 Alpha  occ. eigenvalues --  -38.44294 -38.44263 -38.44115 -38.43915 -38.43743
 Alpha  occ. eigenvalues --  -38.43668 -38.43488  -2.20116  -2.20112  -2.19931
 Alpha  occ. eigenvalues --   -2.19790  -2.19600  -2.19516  -2.19261  -1.13839
 Alpha  occ. eigenvalues --   -1.13816  -1.13787  -1.13769  -1.13750  -1.13705
 Alpha  occ. eigenvalues --   -1.13597  -1.13575  -1.13553  -1.13497  -1.13487
 Alpha  occ. eigenvalues --   -1.13371  -1.13282  -1.13265  -1.13221  -1.13185
 Alpha  occ. eigenvalues --   -1.13162  -1.13114  -1.12933  -1.12931  -1.12887
 Alpha  occ. eigenvalues --   -0.17781  -0.13571  -0.11781  -0.10777
 Alpha virt. eigenvalues --   -0.06066  -0.05411  -0.05137  -0.03299  -0.02736
 Alpha virt. eigenvalues --   -0.02363  -0.02145  -0.01344  -0.00814  -0.00269
 Alpha virt. eigenvalues --    0.00049   0.00174   0.00299   0.00485   0.00644

  Beta  occ. eigenvalues --  -38.44251 -38.44250 -38.44089 -38.43911 -38.43697
  Beta  occ. eigenvalues --  -38.43632 -38.43492  -2.20096  -2.20035  -2.19883
  Beta  occ. eigenvalues --   -2.19783  -2.19514  -2.19451  -2.19268  -1.13812
  Beta  occ. eigenvalues --   -1.13785  -1.13732  -1.13728  -1.13689  -1.13688
  Beta  occ. eigenvalues --   -1.13563  -1.13534  -1.13518  -1.13490  -1.13473
  Beta  occ. eigenvalues --   -1.13368  -1.13225  -1.13204  -1.13163  -1.13139
  Beta  occ. eigenvalues --   -1.13112  -1.13058  -1.12938  -1.12935  -1.12892
  Beta  occ. eigenvalues --   -0.17153  -0.13386  -0.11690
  Beta virt. eigenvalues --   -0.07029  -0.05912  -0.05210  -0.04396  -0.03110
  Beta virt. eigenvalues --   -0.02236  -0.02132  -0.01724  -0.01200  -0.00437
  Beta virt. eigenvalues --   -0.00176   0.00185   0.00293   0.00514   0.00598

 Mulliken charges and spin densities:
               1          2
     1  Na   0.022059   0.220381
     2  Na   0.798250  -0.007637
     3  Na   0.009130   0.274094
     4  Na   0.047409  -0.006100
     5  Na   0.197930   0.095299
     6  Na   0.248064  -0.006175
     7  Na  -1.322843   0.430138
 Sum of Mulliken charges =  -0.00000   1.00000

 Dipole moment (field-independent basis, Debye):
    X=              0.5922    Y=              0.3538    Z=             -0.1174  Tot=              0.6998
 Quadrupole moment (field-independent basis, Debye-Ang):
   XX=            -58.1654   YY=            -68.0857   ZZ=            -68.7130
   XY=             -1.4544   XZ=             -1.2622   YZ=              0.4792

 Normal termination of Gaussian 16 at Thu Dec  7 07:04:42 2023.
