 Gaussian 16, Revision B.01,
 Gaussian 16:  ES64L-G16RevB.01 20-Dec-2017

 -------------------------
 #P B3LYP/6-311+g(d) force
 -------------------------

 -----
 DPGEN
 -----
 Symbolic Z-matrix:
 Charge =  0 Multiplicity = 2

                         Standard orientation:
 ---------------------------------------------------------------------
 Center     Atomic      Atomic             Coordinates (Angstroms)
 Number     Number       Type             X           Y           Z
 ---------------------------------------------------------------------
      1         11           0        0.139206    0.071504   -1.834147
      2         11           0        0.782377   -0.179447    2.016901
      3         11           0        2.642647    1.791546   -0.287227
      4         11           0       -1.147440    1.996178    0.624242
      5         11           0       -3.434769    0.109548   -0.611272
      6         11           0       -1.606401   -1.892659    0.516938
      7         11           0        2.624380   -1.896671   -0.425435
 ---------------------------------------------------------------------

 SCF Done:  E(UB3LYP) =  -1136.12770782     A.U. after   21 cycles

 The electronic state is 2-A.
 Alpha  occ. eigenvalues --  -38.44611 -38.44126 -38.44031 -38.43780 -38.43735
 Alpha  occ. eigenvalues --  -38.43347 -38.42905  -2.20501  -2.20046  -2.19855
 Alpha  occ. eigenvalues --   -2.19678  -2.19596  -2.19256  -2.18817  -1.14217
 Alpha  occ. eigenvalues --   -1.14149  -1.14131  -1.13739  -1.13684  -1.13674
 Alpha  occ. eigenvalues --   -1.13537  -1.13511  -1.13481  -1.13381  -1.13308
 Alpha  occ. eigenvalues --   -1.13292  -1.13272  -1.13240  -1.13227  -1.12929
 Alpha  occ. eigenvalues --   -1.12926  -1.12882  -1.12518  -1.12490  -1.12424
 Alpha  occ. eigenvalues --   -0.18949  -0.13910  -0.11479  -0.11275
 Alpha virt. eigenvalues --   -0.06247  -0.05366  -0.04120  -0.03159  -0.02928
 Alpha virt. eigenvalues --   -0.02683  -0.02032  -0.01053  -0.00428   0.00037
 Alpha virt. eigenvalues --    0.00225   0.00292   0.00552   0.00753   0.00846

  Beta  occ. eigenvalues --  -38.44603 -38.44064 -38.44026 -38.43775 -38.43642
  Beta  occ. eigenvalues --  -38.43333 -38.42887  -2.20487  -2.19932  -2.19849
  Beta  occ. eigenvalues --   -2.19589  -2.19509  -2.19235  -2.18789  -1.14210
  Beta  occ. eigenvalues --   -1.14140  -1.14110  -1.13664  -1.13608  -1.13590
  Beta  occ. eigenvalues --   -1.13518  -1.13501  -1.13474  -1.13265  -1.13263
  Beta  occ. eigenvalues --   -1.13251  -1.13222  -1.13174  -1.13157  -1.12916
  Beta  occ. eigenvalues --   -1.12888  -1.12862  -1.12498  -1.12436  -1.12412
  Beta  occ. eigenvalues --   -0.18174  -0.13676  -0.11037
  Beta virt. eigenvalues --   -0.07496  -0.06093  -0.05376  -0.03500  -0.02989
  Beta virt. eigenvalues --   -0.02032  -0.01958  -0.01791  -0.01010  -0.00237
  Beta virt. eigenvalues --    0.00076   0.00203   0.00314   0.00739   0.00849

 Mulliken charges and spin densities:
               1          2
     1  Na  -0.189299   0.619077
     2  Na   0.312330   0.542155
     3  Na   0.031905  -0.093666
     4  Na  -0.209227  -0.001912
     5  Na   0.433910   0.076727
     6  Na  -0.262904  -0.034699
     7  Na  -0.116715  -0.107682
 Sum of Mulliken charges =  -0.00000   1.00000

 Dipole moment (field-independent basis, Debye):
    X=              0.1245    Y=              0.1270    Z=             -0.3390  Tot=              0.3828
 Quadrupole moment (field-independent basis, Debye-Ang):
   XX=            -50.6875   YY=            -73.7011   ZZ=            -69.8074
   XY=              0.0476   XZ=              0.8631   YZ=              0.1977

 Normal termination of Gaussian 16 at Tue Dec  5 18:36:42 2023.
