 Gaussian 16, Revision B.01,
 Gaussian 16:  ES64L-G16RevB.01 20-Dec-2017

 -------------------------
 #P B3LYP/6-311+g(d) force
 -------------------------

 -----
 DPGEN
 -----
 Symbolic Z-matrix:
 Charge =  0 Multiplicity = 2

                         Standard orientation:
 ---------------------------------------------------------------------
 Center     Atomic      Atomic             Coordinates (Angstroms)
 Number     Number       Type             X           Y           Z
 ---------------------------------------------------------------------
      1         11           0        1.971149    2.102651   -0.157303
      2         11           0        0.264603   -2.585777   -0.223034
      3         11           0        2.923653   -0.848457    0.130850
      4         11           0       -0.137358   -0.217046    1.927480
      5         11           0       -0.060303    0.074289   -1.722701
      6         11           0       -3.432331   -0.656728   -0.113390
      7         11           0       -1.529413    2.131067    0.158100
 ---------------------------------------------------------------------

 SCF Done:  E(UB3LYP) =  -1136.13177426     A.U. after   22 cycles

 The electronic state is 2-A.
 Alpha  occ. eigenvalues --  -38.44836 -38.44098 -38.43548 -38.43346 -38.43221
 Alpha  occ. eigenvalues --  -38.43096 -38.42917  -2.20621  -2.19997  -2.19494
 Alpha  occ. eigenvalues --   -2.19362  -2.19141  -2.18994  -2.18842  -1.14291
 Alpha  occ. eigenvalues --   -1.14285  -1.14255  -1.13683  -1.13657  -1.13647
 Alpha  occ. eigenvalues --   -1.13187  -1.13151  -1.13095  -1.13065  -1.13057
 Alpha  occ. eigenvalues --   -1.12971  -1.12821  -1.12806  -1.12745  -1.12671
 Alpha  occ. eigenvalues --   -1.12648  -1.12624  -1.12535  -1.12502  -1.12448
 Alpha  occ. eigenvalues --   -0.19199  -0.13450  -0.12180  -0.10922
 Alpha virt. eigenvalues --   -0.06289  -0.04805  -0.04044  -0.03389  -0.02736
 Alpha virt. eigenvalues --   -0.02559  -0.02064  -0.00908  -0.00088  -0.00056
 Alpha virt. eigenvalues --    0.00028   0.00325   0.00801   0.00868   0.00923

  Beta  occ. eigenvalues --  -38.44837 -38.44093 -38.43459 -38.43269 -38.43211
  Beta  occ. eigenvalues --  -38.43091 -38.42906  -2.20625  -2.19992  -2.19332
  Beta  occ. eigenvalues --   -2.19222  -2.19127  -2.18988  -2.18828  -1.14292
  Beta  occ. eigenvalues --   -1.14277  -1.14260  -1.13685  -1.13657  -1.13615
  Beta  occ. eigenvalues --   -1.13084  -1.13035  -1.12980  -1.12976  -1.12962
  Beta  occ. eigenvalues --   -1.12874  -1.12799  -1.12756  -1.12741  -1.12668
  Beta  occ. eigenvalues --   -1.12630  -1.12608  -1.12523  -1.12455  -1.12443
  Beta  occ. eigenvalues --   -0.18436  -0.13222  -0.11901
  Beta virt. eigenvalues --   -0.06956  -0.06249  -0.04812  -0.04046  -0.02582
  Beta virt. eigenvalues --   -0.01982  -0.01927  -0.01464  -0.00862  -0.00113
  Beta virt. eigenvalues --   -0.00041   0.00105   0.00341   0.00838   0.00919

 Mulliken charges and spin densities:
               1          2
     1  Na   0.249117  -0.016608
     2  Na   0.271907  -0.117579
     3  Na   0.239688   0.031017
     4  Na  -0.541288   0.634078
     5  Na  -0.531966   0.605344
     6  Na   0.059510  -0.129148
     7  Na   0.253033  -0.007105
 Sum of Mulliken charges =  -0.00000   1.00000

 Dipole moment (field-independent basis, Debye):
    X=             -0.5475    Y=             -0.2090    Z=              0.1309  Tot=              0.6004
 Quadrupole moment (field-independent basis, Debye-Ang):
   XX=            -51.2089   YY=            -68.0837   ZZ=            -73.6171
   XY=              1.0507   XZ=              0.5134   YZ=              0.5121

 Normal termination of Gaussian 16 at Sat Dec  9 07:07:54 2023.
