 Gaussian 16, Revision B.01,
 Gaussian 16:  ES64L-G16RevB.01 20-Dec-2017

 -------------------------
 #P B3LYP/6-311+g(d) force
 -------------------------

 -----
 DPGEN
 -----
 Symbolic Z-matrix:
 Charge =  0 Multiplicity = 2

                         Standard orientation:
 ---------------------------------------------------------------------
 Center     Atomic      Atomic             Coordinates (Angstroms)
 Number     Number       Type             X           Y           Z
 ---------------------------------------------------------------------
      1         11           0       -0.321009    3.101119    0.139440
      2         11           0        5.713773   -0.779604   -0.994234
      3         11           0        2.758696    1.396142   -0.066086
      4         11           0        3.457001   -1.878670    1.379265
      5         11           0       -0.612130   -0.151976    0.130783
      6         11           0       -4.362632   -1.405133   -1.183813
      7         11           0       -6.633698   -0.281878    0.594646
 ---------------------------------------------------------------------

 SCF Done:  E(UB3LYP) =  -1136.11285050     A.U. after   20 cycles

 The electronic state is 2-A.
 Alpha  occ. eigenvalues --  -38.44551 -38.44524 -38.44438 -38.44325 -38.44049
 Alpha  occ. eigenvalues --  -38.43960 -38.43903  -2.20342  -2.20304  -2.20253
 Alpha  occ. eigenvalues --   -2.20114  -2.19836  -2.19771  -2.19721  -1.14026
 Alpha  occ. eigenvalues --   -1.14003  -1.13984  -1.13973  -1.13967  -1.13959
 Alpha  occ. eigenvalues --   -1.13945  -1.13904  -1.13827  -1.13800  -1.13765
 Alpha  occ. eigenvalues --   -1.13763  -1.13499  -1.13489  -1.13471  -1.13464
 Alpha  occ. eigenvalues --   -1.13448  -1.13409  -1.13378  -1.13367  -1.13320
 Alpha  occ. eigenvalues --   -0.16113  -0.13718  -0.12545  -0.09960
 Alpha virt. eigenvalues --   -0.06897  -0.05736  -0.04817  -0.03470  -0.02853
 Alpha virt. eigenvalues --   -0.02406  -0.01976  -0.01899  -0.01399  -0.01083
 Alpha virt. eigenvalues --   -0.00475  -0.00146   0.00295   0.00387   0.00476

  Beta  occ. eigenvalues --  -38.44513 -38.44505 -38.44412 -38.44307 -38.44052
  Beta  occ. eigenvalues --  -38.43919 -38.43881  -2.20271  -2.20268  -2.20207
  Beta  occ. eigenvalues --   -2.20079  -2.19845  -2.19695  -2.19681  -1.13979
  Beta  occ. eigenvalues --   -1.13957  -1.13950  -1.13940  -1.13938  -1.13923
  Beta  occ. eigenvalues --   -1.13892  -1.13867  -1.13794  -1.13781  -1.13741
  Beta  occ. eigenvalues --   -1.13739  -1.13507  -1.13494  -1.13463  -1.13416
  Beta  occ. eigenvalues --   -1.13398  -1.13360  -1.13351  -1.13328  -1.13283
  Beta  occ. eigenvalues --   -0.15566  -0.13541  -0.12337
  Beta virt. eigenvalues --   -0.06813  -0.06196  -0.05437  -0.04423  -0.03272
  Beta virt. eigenvalues --   -0.02668  -0.02166  -0.01832  -0.01512  -0.01215
  Beta virt. eigenvalues --   -0.00780  -0.00179   0.00074   0.00396   0.00538

 Mulliken charges and spin densities:
               1          2
     1  Na   0.349771   0.182198
     2  Na   0.623576   0.062838
     3  Na  -0.333923   0.186631
     4  Na   0.189091   0.143634
     5  Na  -0.801626   0.366212
     6  Na  -0.119924  -0.027254
     7  Na   0.093036   0.085740
 Sum of Mulliken charges =  -0.00000   1.00000

 Dipole moment (field-independent basis, Debye):
    X=              0.5153    Y=              0.2058    Z=              0.0946  Tot=              0.5629
 Quadrupole moment (field-independent basis, Debye-Ang):
   XX=            -56.9183   YY=            -68.6036   ZZ=            -67.8006
   XY=             -9.0850   XZ=             -6.2595   YZ=              2.6017

 Normal termination of Gaussian 16 at Tue Nov 28 22:27:13 2023.
