 Gaussian 16, Revision B.01,
 Gaussian 16:  ES64L-G16RevB.01 20-Dec-2017

 -------------------------
 #P B3LYP/6-311+g(d) force
 -------------------------

 -----
 DPGEN
 -----
 Symbolic Z-matrix:
 Charge =  0 Multiplicity = 2

                         Standard orientation:
 ---------------------------------------------------------------------
 Center     Atomic      Atomic             Coordinates (Angstroms)
 Number     Number       Type             X           Y           Z
 ---------------------------------------------------------------------
      1         11           0       -1.639531    2.517852   -0.370029
      2         11           0        3.178570   -1.596931    0.013698
      3         11           0        2.254364    2.280419    0.270376
      4         11           0        0.532635   -0.036527   -1.493563
      5         11           0       -0.744476   -2.448079   -0.172825
      6         11           0       -3.387715   -0.664129    0.079274
      7         11           0       -0.193849   -0.052606    1.673068
 ---------------------------------------------------------------------

 SCF Done:  E(UB3LYP) =  -1136.12813526     A.U. after   22 cycles

 The electronic state is 2-A.
 Alpha  occ. eigenvalues --  -38.44744 -38.44565 -38.44156 -38.43567 -38.43263
 Alpha  occ. eigenvalues --  -38.43126 -38.42879  -2.20517  -2.20389  -2.19957
 Alpha  occ. eigenvalues --   -2.19380  -2.19208  -2.19093  -2.18889  -1.14196
 Alpha  occ. eigenvalues --   -1.14167  -1.14158  -1.14068  -1.14048  -1.14029
 Alpha  occ. eigenvalues --   -1.13639  -1.13622  -1.13581  -1.13058  -1.13052
 Alpha  occ. eigenvalues --   -1.13015  -1.13007  -1.12909  -1.12802  -1.12792
 Alpha  occ. eigenvalues --   -1.12701  -1.12679  -1.12578  -1.12517  -1.12473
 Alpha  occ. eigenvalues --   -0.18632  -0.13278  -0.12207  -0.09988
 Alpha virt. eigenvalues --   -0.06292  -0.05784  -0.04244  -0.03033  -0.02489
 Alpha virt. eigenvalues --   -0.02201  -0.01802  -0.01551  -0.00636  -0.00217
 Alpha virt. eigenvalues --   -0.00015   0.00262   0.00660   0.00759   0.00857

  Beta  occ. eigenvalues --  -38.44745 -38.44564 -38.44149 -38.43555 -38.43248
  Beta  occ. eigenvalues --  -38.43050 -38.42815  -2.20521  -2.20390  -2.19946
  Beta  occ. eigenvalues --   -2.19362  -2.19187  -2.18955  -2.18773  -1.14187
  Beta  occ. eigenvalues --   -1.14166  -1.14162  -1.14073  -1.14035  -1.14023
  Beta  occ. eigenvalues --   -1.13626  -1.13603  -1.13577  -1.13045  -1.13021
  Beta  occ. eigenvalues --   -1.12998  -1.12989  -1.12843  -1.12793  -1.12705
  Beta  occ. eigenvalues --   -1.12608  -1.12579  -1.12498  -1.12430  -1.12388
  Beta  occ. eigenvalues --   -0.17932  -0.13067  -0.11935
  Beta virt. eigenvalues --   -0.06237  -0.06175  -0.05737  -0.04228  -0.02323
  Beta virt. eigenvalues --   -0.02111  -0.01767  -0.01480  -0.00856  -0.00671
  Beta virt. eigenvalues --   -0.00238   0.00141   0.00303   0.00705   0.00759

 Mulliken charges and spin densities:
               1          2
     1  Na   0.035876  -0.041337
     2  Na   0.143957  -0.104891
     3  Na  -0.045481  -0.058277
     4  Na  -0.285937   0.579633
     5  Na   0.401834  -0.092307
     6  Na   0.166234   0.017474
     7  Na  -0.416483   0.699704
 Sum of Mulliken charges =  -0.00000   1.00000

 Dipole moment (field-independent basis, Debye):
    X=              0.3150    Y=              0.0409    Z=              0.1373  Tot=              0.3460
 Quadrupole moment (field-independent basis, Debye-Ang):
   XX=            -47.0965   YY=            -63.8613   ZZ=            -78.2664
   XY=             -0.4828   XZ=              1.3632   YZ=             -0.0341

 Normal termination of Gaussian 16 at Thu Dec  7 14:59:21 2023.
