 Gaussian 16, Revision B.01,
 Gaussian 16:  ES64L-G16RevB.01 20-Dec-2017

 -------------------------
 #P B3LYP/6-311+g(d) force
 -------------------------

 -----
 DPGEN
 -----
 Symbolic Z-matrix:
 Charge =  0 Multiplicity = 2

                         Standard orientation:
 ---------------------------------------------------------------------
 Center     Atomic      Atomic             Coordinates (Angstroms)
 Number     Number       Type             X           Y           Z
 ---------------------------------------------------------------------
      1         11           0       -0.001810    0.193300   -1.923926
      2         11           0        0.004945   -1.740600   -0.014096
      3         11           0       -2.441580   -0.856270    0.000104
      4         11           0       -1.427748    1.540259    0.006004
      5         11           0       -0.002309    0.168500    1.924404
      6         11           0        1.421752    1.543641    0.008504
      7         11           0        2.446750   -0.848830   -0.000996
 ---------------------------------------------------------------------

 SCF Done:  E(UB3LYP) =  -1136.04300910     A.U. after   21 cycles

 The electronic state is 2-A.
 Alpha  occ. eigenvalues --  -38.45113 -38.45109 -38.44523 -38.44515 -38.43792
 Alpha  occ. eigenvalues --  -38.43787 -38.43780  -2.21375  -2.21371  -2.20675
 Alpha  occ. eigenvalues --   -2.20665  -2.20143  -2.20075  -2.20036  -1.15280
 Alpha  occ. eigenvalues --   -1.15171  -1.15075  -1.15058  -1.15022  -1.14990
 Alpha  occ. eigenvalues --   -1.14741  -1.14603  -1.14565  -1.14438  -1.14219
 Alpha  occ. eigenvalues --   -1.14202  -1.13858  -1.13719  -1.13695  -1.13673
 Alpha  occ. eigenvalues --   -1.13652  -1.13610  -1.13549  -1.13531  -1.13427
 Alpha  occ. eigenvalues --   -0.22424  -0.14337  -0.13111  -0.12471
 Alpha virt. eigenvalues --   -0.05458  -0.04237  -0.03957  -0.03884  -0.03185
 Alpha virt. eigenvalues --   -0.02920  -0.01152  -0.00255  -0.00249   0.00291
 Alpha virt. eigenvalues --    0.00803   0.00981   0.01125   0.01144   0.01265

  Beta  occ. eigenvalues --  -38.45006 -38.45003 -38.44515 -38.44506 -38.43768
  Beta  occ. eigenvalues --  -38.43768 -38.43761  -2.21184  -2.21180  -2.20665
  Beta  occ. eigenvalues --   -2.20655  -2.20110  -2.20049  -2.20011  -1.15177
  Beta  occ. eigenvalues --   -1.15052  -1.14931  -1.14922  -1.14910  -1.14847
  Beta  occ. eigenvalues --   -1.14720  -1.14597  -1.14555  -1.14433  -1.14162
  Beta  occ. eigenvalues --   -1.14146  -1.13847  -1.13683  -1.13605  -1.13602
  Beta  occ. eigenvalues --   -1.13578  -1.13557  -1.13542  -1.13522  -1.13420
  Beta  occ. eigenvalues --   -0.21504  -0.13909  -0.12085
  Beta virt. eigenvalues --   -0.08820  -0.05485  -0.03950  -0.03539  -0.03186
  Beta virt. eigenvalues --   -0.02251  -0.02172  -0.01061  -0.00230  -0.00063
  Beta virt. eigenvalues --    0.00315   0.00847   0.00976   0.01138   0.01201

 Mulliken charges and spin densities:
               1          2
     1  Na   0.244234   0.516496
     2  Na  -0.039870   0.037330
     3  Na  -0.106466  -0.007246
     4  Na  -0.113869  -0.026786
     5  Na   0.243377   0.515981
     6  Na  -0.117203  -0.027741
     7  Na  -0.110202  -0.008035
 Sum of Mulliken charges =  -0.00000   1.00000

 Dipole moment (field-independent basis, Debye):
    X=              0.0017    Y=              0.0084    Z=              0.0014  Tot=              0.0087
 Quadrupole moment (field-independent basis, Debye-Ang):
   XX=            -59.6694   YY=            -75.2088   ZZ=            -64.6459
   XY=              0.0055   XZ=             -0.0013   YZ=              0.0539

 Normal termination of Gaussian 16 at Sat Dec  9 06:11:37 2023.
