 Gaussian 16, Revision B.01,
 Gaussian 16:  ES64L-G16RevB.01 20-Dec-2017

 -------------------------
 #P B3LYP/6-311+g(d) force
 -------------------------

 -----
 DPGEN
 -----
 Symbolic Z-matrix:
 Charge =  0 Multiplicity = 2

                         Standard orientation:
 ---------------------------------------------------------------------
 Center     Atomic      Atomic             Coordinates (Angstroms)
 Number     Number       Type             X           Y           Z
 ---------------------------------------------------------------------
      1         11           0       -2.052467   -0.841697    1.449265
      2         11           0       -3.432582    2.216214   -0.358798
      3         11           0        3.116968    0.681362    0.214009
      4         11           0       -4.370874   -2.348167   -0.452277
      5         11           0        6.273632   -0.766738   -0.055792
      6         11           0       -0.314679    2.305108   -0.064201
      7         11           0        0.780000   -1.246082   -0.732207
 ---------------------------------------------------------------------

 SCF Done:  E(UB3LYP) =  -1136.11358112     A.U. after   23 cycles

 The electronic state is 2-A.
 Alpha  occ. eigenvalues --  -38.45281 -38.44863 -38.44477 -38.44085 -38.44040
 Alpha  occ. eigenvalues --  -38.44003 -38.42999  -2.21111  -2.20656  -2.20293
 Alpha  occ. eigenvalues --   -2.19913  -2.19870  -2.19758  -2.18845  -1.14779
 Alpha  occ. eigenvalues --   -1.14743  -1.14741  -1.14291  -1.14291  -1.14266
 Alpha  occ. eigenvalues --   -1.13984  -1.13957  -1.13915  -1.13575  -1.13570
 Alpha  occ. eigenvalues --   -1.13563  -1.13552  -1.13529  -1.13497  -1.13430
 Alpha  occ. eigenvalues --   -1.13423  -1.13399  -1.12535  -1.12519  -1.12480
 Alpha  occ. eigenvalues --   -0.16954  -0.14060  -0.11608  -0.11400
 Alpha virt. eigenvalues --   -0.06354  -0.05834  -0.04701  -0.03335  -0.02957
 Alpha virt. eigenvalues --   -0.02759  -0.01778  -0.01627  -0.01213  -0.00889
 Alpha virt. eigenvalues --   -0.00542  -0.00036   0.00048   0.00353   0.00576

  Beta  occ. eigenvalues --  -38.45222 -38.44756 -38.44469 -38.44043 -38.44032
  Beta  occ. eigenvalues --  -38.44013 -38.43000  -2.21003  -2.20456  -2.20279
  Beta  occ. eigenvalues --   -2.19883  -2.19813  -2.19777  -2.18851  -1.14703
  Beta  occ. eigenvalues --   -1.14678  -1.14662  -1.14155  -1.14153  -1.14135
  Beta  occ. eigenvalues --   -1.13966  -1.13935  -1.13915  -1.13580  -1.13566
  Beta  occ. eigenvalues --   -1.13513  -1.13497  -1.13462  -1.13457  -1.13444
  Beta  occ. eigenvalues --   -1.13433  -1.13411  -1.12542  -1.12529  -1.12454
  Beta  occ. eigenvalues --   -0.16393  -0.13363  -0.11196
  Beta virt. eigenvalues --   -0.08089  -0.06093  -0.05551  -0.04186  -0.03088
  Beta virt. eigenvalues --   -0.02783  -0.02392  -0.01462  -0.01291  -0.00828
  Beta virt. eigenvalues --   -0.00593  -0.00458   0.00052   0.00219   0.00427

 Mulliken charges and spin densities:
               1          2
     1  Na  -0.019182   0.010760
     2  Na   0.243869   0.275689
     3  Na  -0.607172   0.377310
     4  Na   0.100256  -0.080293
     5  Na   0.225963   0.223161
     6  Na   0.193436   0.035878
     7  Na  -0.137171   0.157495
 Sum of Mulliken charges =  -0.00000   1.00000

 Dipole moment (field-independent basis, Debye):
    X=              0.0625    Y=             -0.5291    Z=             -0.4823  Tot=              0.7186
 Quadrupole moment (field-independent basis, Debye-Ang):
   XX=            -59.4019   YY=            -74.0666   ZZ=            -67.5657
   XY=             -1.8745   XZ=              3.3658   YZ=              3.3604

 Normal termination of Gaussian 16 at Wed Nov 29 02:05:41 2023.
