 Gaussian 16, Revision B.01,
 Gaussian 16:  ES64L-G16RevB.01 20-Dec-2017

 -------------------------
 #P B3LYP/6-311+g(d) force
 -------------------------

 -----
 DPGEN
 -----
 Symbolic Z-matrix:
 Charge =  0 Multiplicity = 2

                         Standard orientation:
 ---------------------------------------------------------------------
 Center     Atomic      Atomic             Coordinates (Angstroms)
 Number     Number       Type             X           Y           Z
 ---------------------------------------------------------------------
      1         11           0       -2.793784   -1.409093   -0.898990
      2         11           0       -5.396177   -0.398935    1.101342
      3         11           0       -3.304522    2.122102   -0.188185
      4         11           0        0.315027    1.232575   -0.514014
      5         11           0        0.526688   -1.870985   -0.061372
      6         11           0        3.174249    0.210331    0.277228
      7         11           0        7.478518    0.114005    0.283993
 ---------------------------------------------------------------------

 SCF Done:  E(UB3LYP) =  -1136.10624501     A.U. after   24 cycles

 The electronic state is 2-A.
 Alpha  occ. eigenvalues --  -38.45034 -38.44893 -38.44793 -38.44600 -38.44411
 Alpha  occ. eigenvalues --  -38.44385 -38.44019  -2.20821  -2.20714  -2.20630
 Alpha  occ. eigenvalues --   -2.20497  -2.20263  -2.20122  -2.19833  -1.14493
 Alpha  occ. eigenvalues --   -1.14489  -1.14461  -1.14390  -1.14375  -1.14323
 Alpha  occ. eigenvalues --   -1.14311  -1.14291  -1.14237  -1.14179  -1.14161
 Alpha  occ. eigenvalues --   -1.14155  -1.13920  -1.13905  -1.13890  -1.13792
 Alpha  occ. eigenvalues --   -1.13792  -1.13745  -1.13540  -1.13513  -1.13435
 Alpha  occ. eigenvalues --   -0.17539  -0.14434  -0.11689  -0.10976
 Alpha virt. eigenvalues --   -0.07786  -0.05723  -0.04675  -0.03945  -0.03384
 Alpha virt. eigenvalues --   -0.02450  -0.02118  -0.01605  -0.01155  -0.00798
 Alpha virt. eigenvalues --   -0.00547  -0.00369  -0.00300   0.00127   0.00448

  Beta  occ. eigenvalues --  -38.45030 -38.44828 -38.44757 -38.44557 -38.44389
  Beta  occ. eigenvalues --  -38.44359 -38.44029  -2.20814  -2.20596  -2.20566
  Beta  occ. eigenvalues --   -2.20418  -2.20213  -2.20080  -2.19853  -1.14486
  Beta  occ. eigenvalues --   -1.14477  -1.14458  -1.14313  -1.14298  -1.14272
  Beta  occ. eigenvalues --   -1.14243  -1.14216  -1.14190  -1.14124  -1.14117
  Beta  occ. eigenvalues --   -1.14087  -1.13887  -1.13875  -1.13848  -1.13763
  Beta  occ. eigenvalues --   -1.13763  -1.13717  -1.13547  -1.13527  -1.13448
  Beta  occ. eigenvalues --   -0.16960  -0.14360  -0.10738
  Beta virt. eigenvalues --   -0.07929  -0.07351  -0.05112  -0.04428  -0.03879
  Beta virt. eigenvalues --   -0.02657  -0.02366  -0.01722  -0.01496  -0.00858
  Beta virt. eigenvalues --   -0.00693  -0.00250  -0.00213  -0.00031   0.00296

 Mulliken charges and spin densities:
               1          2
     1  Na  -0.430187   0.225115
     2  Na   0.348589   0.007803
     3  Na  -0.074879   0.135923
     4  Na  -0.787557   0.548340
     5  Na   0.121974   0.161064
     6  Na   0.882096  -0.168903
     7  Na  -0.060036   0.090658
 Sum of Mulliken charges =  -0.00000   1.00000

 Dipole moment (field-independent basis, Debye):
    X=             -3.4791    Y=             -0.4459    Z=              0.1738  Tot=              3.5118
 Quadrupole moment (field-independent basis, Debye-Ang):
   XX=            -66.6161   YY=            -69.2399   ZZ=            -70.5783
   XY=             -1.4794   XZ=             -3.8132   YZ=             -1.0371

 Normal termination of Gaussian 16 at Wed Nov 29 01:46:11 2023.
