 Gaussian 16, Revision B.01,
 Gaussian 16:  ES64L-G16RevB.01 20-Dec-2017

 -------------------------
 #P B3LYP/6-311+g(d) force
 -------------------------

 -----
 DPGEN
 -----
 Symbolic Z-matrix:
 Charge =  0 Multiplicity = 2

                         Standard orientation:
 ---------------------------------------------------------------------
 Center     Atomic      Atomic             Coordinates (Angstroms)
 Number     Number       Type             X           Y           Z
 ---------------------------------------------------------------------
      1         11           0       -3.047161   -1.360503   -0.410087
      2         11           0        0.192599    0.102161   -1.569705
      3         11           0        1.602815    2.741047   -0.111838
      4         11           0       -0.220252   -2.270747    0.578799
      5         11           0       -2.184639    1.938358   -0.129355
      6         11           0        0.342271    0.340397    2.141905
      7         11           0        3.314367   -1.490713   -0.499718
 ---------------------------------------------------------------------

 SCF Done:  E(UB3LYP) =  -1136.13005154     A.U. after   20 cycles

 The electronic state is 2-A.
 Alpha  occ. eigenvalues --  -38.44396 -38.43927 -38.43874 -38.43812 -38.43754
 Alpha  occ. eigenvalues --  -38.43469 -38.43090  -2.20156  -2.19762  -2.19715
 Alpha  occ. eigenvalues --   -2.19685  -2.19603  -2.19428  -2.19031  -1.13829
 Alpha  occ. eigenvalues --   -1.13812  -1.13785  -1.13464  -1.13440  -1.13416
 Alpha  occ. eigenvalues --   -1.13388  -1.13373  -1.13369  -1.13323  -1.13312
 Alpha  occ. eigenvalues --   -1.13302  -1.13297  -1.13256  -1.13236  -1.13139
 Alpha  occ. eigenvalues --   -1.13070  -1.13034  -1.12731  -1.12696  -1.12620
 Alpha  occ. eigenvalues --   -0.18513  -0.12816  -0.12284  -0.10973
 Alpha virt. eigenvalues --   -0.05964  -0.05472  -0.04046  -0.03108  -0.02983
 Alpha virt. eigenvalues --   -0.02653  -0.01896  -0.01385  -0.00329  -0.00167
 Alpha virt. eigenvalues --    0.00056   0.00280   0.00715   0.00776   0.00898

  Beta  occ. eigenvalues --  -38.44383 -38.43922 -38.43872 -38.43752 -38.43707
  Beta  occ. eigenvalues --  -38.43420 -38.43069  -2.20133  -2.19755  -2.19683
  Beta  occ. eigenvalues --   -2.19601  -2.19522  -2.19339  -2.18998  -1.13804
  Beta  occ. eigenvalues --   -1.13796  -1.13772  -1.13454  -1.13421  -1.13382
  Beta  occ. eigenvalues --   -1.13365  -1.13345  -1.13307  -1.13298  -1.13284
  Beta  occ. eigenvalues --   -1.13245  -1.13232  -1.13193  -1.13182  -1.13076
  Beta  occ. eigenvalues --   -1.13009  -1.12965  -1.12706  -1.12639  -1.12601
  Beta  occ. eigenvalues --   -0.17797  -0.12568  -0.12050
  Beta virt. eigenvalues --   -0.07067  -0.05858  -0.05404  -0.03981  -0.02476
  Beta virt. eigenvalues --   -0.02248  -0.01732  -0.01637  -0.01354  -0.00336
  Beta virt. eigenvalues --   -0.00042   0.00095   0.00323   0.00738   0.00827

 Mulliken charges and spin densities:
               1          2
     1  Na  -0.062274  -0.057477
     2  Na  -0.549943   0.444934
     3  Na   0.080814  -0.073962
     4  Na   0.514597   0.268063
     5  Na   0.213500   0.065639
     6  Na  -0.219924   0.356637
     7  Na   0.023231  -0.003834
 Sum of Mulliken charges =  -0.00000   1.00000

 Dipole moment (field-independent basis, Debye):
    X=              0.2996    Y=              0.4095    Z=              0.0012  Tot=              0.5074
 Quadrupole moment (field-independent basis, Debye-Ang):
   XX=            -54.3460   YY=            -65.1878   ZZ=            -73.2784
   XY=              0.6025   XZ=             -0.0809   YZ=              0.5091

 Normal termination of Gaussian 16 at Fri Dec  8 06:04:26 2023.
