 Gaussian 16, Revision B.01,
 Gaussian 16:  ES64L-G16RevB.01 20-Dec-2017

 -------------------------
 #P B3LYP/6-311+g(d) force
 -------------------------

 -----
 DPGEN
 -----
 Symbolic Z-matrix:
 Charge =  0 Multiplicity = 2

                         Standard orientation:
 ---------------------------------------------------------------------
 Center     Atomic      Atomic             Coordinates (Angstroms)
 Number     Number       Type             X           Y           Z
 ---------------------------------------------------------------------
      1         11           0        0.002438   -0.260630    1.776799
      2         11           0       -0.949618   -2.772753   -0.115967
      3         11           0       -3.193122   -0.055169   -0.021437
      4         11           0       -1.209390    2.627909   -0.139016
      5         11           0        2.205306    1.962278    0.078436
      6         11           0        2.941734   -1.333853   -0.074499
      7         11           0        0.202651   -0.167782   -1.504316
 ---------------------------------------------------------------------

 SCF Done:  E(UB3LYP) =  -1136.13717436     A.U. after   20 cycles

 The electronic state is 2-A.
 Alpha  occ. eigenvalues --  -38.44280 -38.44257 -38.43644 -38.43463 -38.43126
 Alpha  occ. eigenvalues --  -38.42963 -38.42809  -2.20115  -2.20095  -2.19519
 Alpha  occ. eigenvalues --   -2.19338  -2.18993  -2.18927  -2.18846  -1.13783
 Alpha  occ. eigenvalues --   -1.13781  -1.13776  -1.13758  -1.13755  -1.13733
 Alpha  occ. eigenvalues --   -1.13206  -1.13183  -1.13153  -1.13052  -1.13013
 Alpha  occ. eigenvalues --   -1.12951  -1.12686  -1.12656  -1.12641  -1.12635
 Alpha  occ. eigenvalues --   -1.12546  -1.12532  -1.12517  -1.12474  -1.12453
 Alpha  occ. eigenvalues --   -0.18967  -0.13337  -0.12484  -0.10261
 Alpha virt. eigenvalues --   -0.05966  -0.05241  -0.04607  -0.03074  -0.02604
 Alpha virt. eigenvalues --   -0.02025  -0.01818  -0.01181  -0.00486  -0.00297
 Alpha virt. eigenvalues --    0.00035   0.00345   0.00783   0.00845   0.00898

  Beta  occ. eigenvalues --  -38.44278 -38.44252 -38.43638 -38.43456 -38.43122
  Beta  occ. eigenvalues --  -38.42877 -38.42744  -2.20113  -2.20089  -2.19512
  Beta  occ. eigenvalues --   -2.19328  -2.18987  -2.18770  -2.18729  -1.13783
  Beta  occ. eigenvalues --   -1.13768  -1.13762  -1.13757  -1.13736  -1.13728
  Beta  occ. eigenvalues --   -1.13202  -1.13154  -1.13149  -1.13045  -1.12973
  Beta  occ. eigenvalues --   -1.12949  -1.12675  -1.12638  -1.12624  -1.12548
  Beta  occ. eigenvalues --   -1.12434  -1.12426  -1.12418  -1.12391  -1.12368
  Beta  occ. eigenvalues --   -0.18253  -0.13094  -0.12221
  Beta virt. eigenvalues --   -0.06364  -0.05942  -0.05237  -0.04596  -0.02279
  Beta virt. eigenvalues --   -0.01843  -0.01735  -0.01117  -0.01002  -0.00548
  Beta virt. eigenvalues --   -0.00339   0.00178   0.00379   0.00824   0.00844

 Mulliken charges and spin densities:
               1          2
     1  Na  -0.462195   0.731231
     2  Na   0.259585  -0.130022
     3  Na   0.152041  -0.022025
     4  Na   0.067763  -0.050813
     5  Na   0.186975   0.005780
     6  Na   0.329850  -0.084783
     7  Na  -0.534018   0.550632
 Sum of Mulliken charges =  -0.00000   1.00000

 Dipole moment (field-independent basis, Debye):
    X=              0.0941    Y=             -0.2464    Z=              0.1070  Tot=              0.2847
 Quadrupole moment (field-independent basis, Debye-Ang):
   XX=            -52.1978   YY=            -61.8530   ZZ=            -77.1155
   XY=             -0.2214   XZ=              0.3878   YZ=              0.2687

 Normal termination of Gaussian 16 at Thu Dec  7 12:54:43 2023.
