 Gaussian 16, Revision B.01,
 Gaussian 16:  ES64L-G16RevB.01 20-Dec-2017

 -------------------------
 #P B3LYP/6-311+g(d) force
 -------------------------

 -----
 DPGEN
 -----
 Symbolic Z-matrix:
 Charge =  0 Multiplicity = 2

                         Standard orientation:
 ---------------------------------------------------------------------
 Center     Atomic      Atomic             Coordinates (Angstroms)
 Number     Number       Type             X           Y           Z
 ---------------------------------------------------------------------
      1         11           0        2.882167    0.782451    1.005768
      2         11           0        4.007657   -2.466012    0.083160
      3         11           0       -2.578994   -0.997674   -0.248588
      4         11           0        1.447124    3.454181   -0.062927
      5         11           0       -5.678241   -0.587987    0.708909
      6         11           0        0.913308   -1.818286   -0.646637
      7         11           0       -0.993021    1.633327   -0.839684
 ---------------------------------------------------------------------

 SCF Done:  E(UB3LYP) =  -1136.12394214     A.U. after   23 cycles

 The electronic state is 2-A.
 Alpha  occ. eigenvalues --  -38.44581 -38.44455 -38.44390 -38.44196 -38.44059
 Alpha  occ. eigenvalues --  -38.43313 -38.43102  -2.20412  -2.20272  -2.20250
 Alpha  occ. eigenvalues --   -2.20010  -2.19906  -2.19168  -2.18977  -1.14104
 Alpha  occ. eigenvalues --   -1.14091  -1.14021  -1.13935  -1.13913  -1.13903
 Alpha  occ. eigenvalues --   -1.13898  -1.13898  -1.13890  -1.13694  -1.13668
 Alpha  occ. eigenvalues --   -1.13649  -1.13594  -1.13585  -1.13487  -1.12838
 Alpha  occ. eigenvalues --   -1.12821  -1.12811  -1.12678  -1.12642  -1.12626
 Alpha  occ. eigenvalues --   -0.17036  -0.14069  -0.12752  -0.11184
 Alpha virt. eigenvalues --   -0.06204  -0.05276  -0.04416  -0.04022  -0.02503
 Alpha virt. eigenvalues --   -0.02306  -0.01985  -0.01745  -0.01054  -0.00844
 Alpha virt. eigenvalues --   -0.00145   0.00149   0.00174   0.00382   0.00728

  Beta  occ. eigenvalues --  -38.44553 -38.44373 -38.44341 -38.44189 -38.44023
  Beta  occ. eigenvalues --  -38.43309 -38.43094  -2.20360  -2.20221  -2.20060
  Beta  occ. eigenvalues --   -2.19998  -2.19843  -2.19160  -2.18973  -1.14068
  Beta  occ. eigenvalues --   -1.14056  -1.13980  -1.13922  -1.13890  -1.13871
  Beta  occ. eigenvalues --   -1.13761  -1.13754  -1.13749  -1.13682  -1.13660
  Beta  occ. eigenvalues --   -1.13637  -1.13554  -1.13545  -1.13428  -1.12827
  Beta  occ. eigenvalues --   -1.12816  -1.12806  -1.12681  -1.12649  -1.12548
  Beta  occ. eigenvalues --   -0.16504  -0.13389  -0.12496
  Beta virt. eigenvalues --   -0.07610  -0.05999  -0.04873  -0.04022  -0.03805
  Beta virt. eigenvalues --   -0.02291  -0.02099  -0.01701  -0.01203  -0.00895
  Beta virt. eigenvalues --   -0.00518   0.00126   0.00257   0.00374   0.00500

 Mulliken charges and spin densities:
               1          2
     1  Na  -0.542251   0.234999
     2  Na   1.719275   0.069145
     3  Na  -1.344505   0.504227
     4  Na   0.670335   0.053694
     5  Na  -0.420382   0.425276
     6  Na   0.496540  -0.234794
     7  Na  -0.579014  -0.052547
 Sum of Mulliken charges =  -0.00000   1.00000

 Dipole moment (field-independent basis, Debye):
    X=              1.1466    Y=             -0.0989    Z=              0.0193  Tot=              1.1510
 Quadrupole moment (field-independent basis, Debye-Ang):
   XX=            -60.3726   YY=            -64.7882   ZZ=            -70.7866
   XY=             -6.1013   XZ=              0.4457   YZ=             -0.5159

 Normal termination of Gaussian 16 at Wed Nov 29 02:37:22 2023.
