 Gaussian 16, Revision B.01,
 Gaussian 16:  ES64L-G16RevB.01 20-Dec-2017

 -------------------------
 #P B3LYP/6-311+g(d) force
 -------------------------

 -----
 DPGEN
 -----
 Symbolic Z-matrix:
 Charge =  0 Multiplicity = 2

                         Standard orientation:
 ---------------------------------------------------------------------
 Center     Atomic      Atomic             Coordinates (Angstroms)
 Number     Number       Type             X           Y           Z
 ---------------------------------------------------------------------
      1         11           0       -0.338472   -0.938970   -1.989465
      2         11           0       -3.561826   -0.229770   -0.288898
      3         11           0       -0.291616   -0.141694    2.115988
      4         11           0        2.132700    2.433765   -0.318374
      5         11           0       -1.068265    2.613827    0.200027
      6         11           0        2.477426   -0.627358   -0.205284
      7         11           0        0.650052   -3.109801    0.486005
 ---------------------------------------------------------------------

 SCF Done:  E(UB3LYP) =  -1136.13054433     A.U. after   20 cycles

 The electronic state is 2-A.
 Alpha  occ. eigenvalues --  -38.44190 -38.44115 -38.44101 -38.43934 -38.43902
 Alpha  occ. eigenvalues --  -38.43465 -38.43312  -2.20048  -2.19957  -2.19875
 Alpha  occ. eigenvalues --   -2.19764  -2.19760  -2.19400  -2.19166  -1.13714
 Alpha  occ. eigenvalues --   -1.13688  -1.13669  -1.13632  -1.13607  -1.13580
 Alpha  occ. eigenvalues --   -1.13546  -1.13533  -1.13512  -1.13451  -1.13447
 Alpha  occ. eigenvalues --   -1.13438  -1.13412  -1.13406  -1.13379  -1.13107
 Alpha  occ. eigenvalues --   -1.13061  -1.13050  -1.12824  -1.12808  -1.12799
 Alpha  occ. eigenvalues --   -0.18235  -0.12919  -0.12442  -0.11169
 Alpha virt. eigenvalues --   -0.05781  -0.05274  -0.04632  -0.03428  -0.03099
 Alpha virt. eigenvalues --   -0.02886  -0.01489  -0.01273  -0.00286  -0.00175
 Alpha virt. eigenvalues --   -0.00095   0.00354   0.00730   0.00816   0.00845

  Beta  occ. eigenvalues --  -38.44114 -38.44100 -38.44030 -38.43930 -38.43892
  Beta  occ. eigenvalues --  -38.43454 -38.43310  -2.19883  -2.19873  -2.19825
  Beta  occ. eigenvalues --   -2.19755  -2.19749  -2.19383  -2.19165  -1.13607
  Beta  occ. eigenvalues --   -1.13571  -1.13554  -1.13545  -1.13542  -1.13534
  Beta  occ. eigenvalues --   -1.13517  -1.13514  -1.13474  -1.13441  -1.13437
  Beta  occ. eigenvalues --   -1.13421  -1.13398  -1.13381  -1.13367  -1.13099
  Beta  occ. eigenvalues --   -1.13049  -1.13010  -1.12825  -1.12805  -1.12788
  Beta  occ. eigenvalues --   -0.17496  -0.12735  -0.12215
  Beta virt. eigenvalues --   -0.07300  -0.05736  -0.05031  -0.04532  -0.02697
  Beta virt. eigenvalues --   -0.02443  -0.01973  -0.01371  -0.01187  -0.00322
  Beta virt. eigenvalues --   -0.00170   0.00076   0.00401   0.00828   0.00859

 Mulliken charges and spin densities:
               1          2
     1  Na  -0.126075   0.340552
     2  Na  -0.098806  -0.075616
     3  Na  -0.002604   0.358914
     4  Na  -0.261562  -0.121707
     5  Na  -0.017814   0.113115
     6  Na  -0.026344   0.329521
     7  Na   0.533206   0.055221
 Sum of Mulliken charges =  -0.00000   1.00000

 Dipole moment (field-independent basis, Debye):
    X=             -0.5030    Y=             -0.4233    Z=              0.0778  Tot=              0.6620
 Quadrupole moment (field-independent basis, Debye-Ang):
   XX=            -62.9588   YY=            -61.6891   ZZ=            -71.6052
   XY=             -0.0339   XZ=             -0.1653   YZ=             -1.2880

 Normal termination of Gaussian 16 at Tue Dec  5 20:48:20 2023.
