 Gaussian 16, Revision B.01,
 Gaussian 16:  ES64L-G16RevB.01 20-Dec-2017

 -------------------------
 #P B3LYP/6-311+g(d) force
 -------------------------

 -----
 DPGEN
 -----
 Symbolic Z-matrix:
 Charge =  0 Multiplicity = 2

                         Standard orientation:
 ---------------------------------------------------------------------
 Center     Atomic      Atomic             Coordinates (Angstroms)
 Number     Number       Type             X           Y           Z
 ---------------------------------------------------------------------
      1         11           0       -2.882396    1.045174   -1.049550
      2         11           0        0.171352   -1.072022   -0.699459
      3         11           0       -0.066793    2.134913   -0.806677
      4         11           0        2.714768    0.741625    1.078490
      5         11           0       -0.244344    0.191987    2.249777
      6         11           0        3.925828   -1.276945   -1.078026
      7         11           0       -3.618415   -1.764732    0.305446
 ---------------------------------------------------------------------

 SCF Done:  E(UB3LYP) =  -1136.11710291     A.U. after   24 cycles

 The electronic state is 2-A.
 Alpha  occ. eigenvalues --  -38.45128 -38.44471 -38.44316 -38.44267 -38.43704
 Alpha  occ. eigenvalues --  -38.43307 -38.43149  -2.21011  -2.20372  -2.20221
 Alpha  occ. eigenvalues --   -2.20171  -2.19508  -2.19120  -2.19088  -1.14756
 Alpha  occ. eigenvalues --   -1.14708  -1.14578  -1.14068  -1.14026  -1.14005
 Alpha  occ. eigenvalues --   -1.13950  -1.13889  -1.13858  -1.13843  -1.13782
 Alpha  occ. eigenvalues --   -1.13745  -1.13185  -1.13165  -1.13143  -1.12797
 Alpha  occ. eigenvalues --   -1.12784  -1.12774  -1.12754  -1.12752  -1.12676
 Alpha  occ. eigenvalues --   -0.18648  -0.14115  -0.11678  -0.11188
 Alpha virt. eigenvalues --   -0.06904  -0.05259  -0.04480  -0.03363  -0.02808
 Alpha virt. eigenvalues --   -0.02660  -0.02209  -0.01270  -0.00847  -0.00159
 Alpha virt. eigenvalues --   -0.00001   0.00184   0.00374   0.00486   0.00712

  Beta  occ. eigenvalues --  -38.45108 -38.44438 -38.44304 -38.44178 -38.43699
  Beta  occ. eigenvalues --  -38.43300 -38.43109  -2.20978  -2.20314  -2.20203
  Beta  occ. eigenvalues --   -2.20008  -2.19499  -2.19107  -2.19017  -1.14704
  Beta  occ. eigenvalues --   -1.14685  -1.14556  -1.14018  -1.13989  -1.13957
  Beta  occ. eigenvalues --   -1.13902  -1.13876  -1.13838  -1.13741  -1.13670
  Beta  occ. eigenvalues --   -1.13639  -1.13182  -1.13155  -1.13132  -1.12791
  Beta  occ. eigenvalues --   -1.12764  -1.12743  -1.12734  -1.12701  -1.12614
  Beta  occ. eigenvalues --   -0.17951  -0.13890  -0.10906
  Beta virt. eigenvalues --   -0.07775  -0.06738  -0.04940  -0.04010  -0.02864
  Beta virt. eigenvalues --   -0.02716  -0.02129  -0.01659  -0.01092  -0.00494
  Beta virt. eigenvalues --   -0.00110   0.00009   0.00241   0.00519   0.00625

 Mulliken charges and spin densities:
               1          2
     1  Na   0.004221  -0.025572
     2  Na  -1.316442   0.476216
     3  Na   0.077231   0.179328
     4  Na   0.729787   0.082891
     5  Na  -0.396696   0.318643
     6  Na   0.146132  -0.031619
     7  Na   0.755768   0.000113
 Sum of Mulliken charges =  -0.00000   1.00000

 Dipole moment (field-independent basis, Debye):
    X=             -0.2785    Y=              0.7001    Z=              0.5750  Tot=              0.9478
 Quadrupole moment (field-independent basis, Debye-Ang):
   XX=            -60.5091   YY=            -71.4555   ZZ=            -68.6524
   XY=              1.6585   XZ=              0.5398   YZ=             -0.7408

 Normal termination of Gaussian 16 at Thu Dec  7 18:28:06 2023.
