 Gaussian 16, Revision B.01,
 Gaussian 16:  ES64L-G16RevB.01 20-Dec-2017

 -------------------------
 #P B3LYP/6-311+g(d) force
 -------------------------

 -----
 DPGEN
 -----
 Symbolic Z-matrix:
 Charge =  0 Multiplicity = 2

                         Standard orientation:
 ---------------------------------------------------------------------
 Center     Atomic      Atomic             Coordinates (Angstroms)
 Number     Number       Type             X           Y           Z
 ---------------------------------------------------------------------
      1         11           0        3.046895    0.691132   -0.227920
      2         11           0        0.225819    3.015469    0.037046
      3         11           0        1.705711   -2.355020    0.179981
      4         11           0       -0.233589    0.202191    1.947616
      5         11           0       -0.060499   -0.209217   -1.692399
      6         11           0       -2.924765    0.944943   -0.258956
      7         11           0       -1.759572   -2.289498    0.014632
 ---------------------------------------------------------------------

 SCF Done:  E(UB3LYP) =  -1136.14073626     A.U. after   19 cycles

 The electronic state is 2-A.
 Alpha  occ. eigenvalues --  -38.43882 -38.43837 -38.43544 -38.43411 -38.43368
 Alpha  occ. eigenvalues --  -38.43363 -38.43176  -2.19728  -2.19664  -2.19367
 Alpha  occ. eigenvalues --   -2.19306  -2.19281  -2.19241  -2.19158  -1.13409
 Alpha  occ. eigenvalues --   -1.13395  -1.13361  -1.13339  -1.13332  -1.13305
 Alpha  occ. eigenvalues --   -1.13057  -1.13039  -1.13036  -1.12997  -1.12984
 Alpha  occ. eigenvalues --   -1.12948  -1.12942  -1.12921  -1.12913  -1.12895
 Alpha  occ. eigenvalues --   -1.12885  -1.12866  -1.12826  -1.12775  -1.12769
 Alpha  occ. eigenvalues --   -0.18811  -0.12982  -0.12588  -0.10711
 Alpha virt. eigenvalues --   -0.05534  -0.05049  -0.04863  -0.03101  -0.02953
 Alpha virt. eigenvalues --   -0.02473  -0.01430  -0.01132  -0.00413  -0.00261
 Alpha virt. eigenvalues --    0.00002   0.00369   0.00840   0.00885   0.00914

  Beta  occ. eigenvalues --  -38.43874 -38.43834 -38.43542 -38.43404 -38.43362
  Beta  occ. eigenvalues --  -38.43274 -38.43107  -2.19718  -2.19660  -2.19364
  Beta  occ. eigenvalues --   -2.19297  -2.19234  -2.19116  -2.19033  -1.13398
  Beta  occ. eigenvalues --   -1.13372  -1.13353  -1.13334  -1.13318  -1.13302
  Beta  occ. eigenvalues --   -1.13045  -1.13023  -1.13018  -1.13000  -1.12945
  Beta  occ. eigenvalues --   -1.12936  -1.12914  -1.12881  -1.12860  -1.12840
  Beta  occ. eigenvalues --   -1.12786  -1.12775  -1.12745  -1.12691  -1.12678
  Beta  occ. eigenvalues --   -0.18073  -0.12736  -0.12346
  Beta virt. eigenvalues --   -0.06794  -0.05521  -0.05053  -0.04801  -0.02323
  Beta virt. eigenvalues --   -0.02155  -0.01428  -0.01338  -0.01057  -0.00462
  Beta virt. eigenvalues --   -0.00323   0.00135   0.00390   0.00871   0.00884

 Mulliken charges and spin densities:
               1          2
     1  Na   0.021584  -0.074504
     2  Na   0.021206  -0.127965
     3  Na   0.135348  -0.025064
     4  Na  -0.406312   0.755509
     5  Na  -0.281324   0.581693
     6  Na   0.182717  -0.088997
     7  Na   0.326782  -0.020672
 Sum of Mulliken charges =  -0.00000   1.00000

 Dipole moment (field-independent basis, Debye):
    X=             -0.0732    Y=              0.1669    Z=              0.0597  Tot=              0.1918
 Quadrupole moment (field-independent basis, Debye-Ang):
   XX=            -57.3170   YY=            -61.3863   ZZ=            -74.5079
   XY=             -0.0608   XZ=              0.3348   YZ=             -1.0720

 Normal termination of Gaussian 16 at Fri Dec  8 04:00:43 2023.
