 Gaussian 16, Revision B.01,
 Gaussian 16:  ES64L-G16RevB.01 20-Dec-2017

 -------------------------
 #P B3LYP/6-311+g(d) force
 -------------------------

 -----
 DPGEN
 -----
 Symbolic Z-matrix:
 Charge =  0 Multiplicity = 2

                         Standard orientation:
 ---------------------------------------------------------------------
 Center     Atomic      Atomic             Coordinates (Angstroms)
 Number     Number       Type             X           Y           Z
 ---------------------------------------------------------------------
      1         11           0        0.040641   -0.005801    2.049648
      2         11           0        2.856461    0.199791   -0.304119
      3         11           0        1.380743   -2.878869   -0.172928
      4         11           0        0.944709    3.048343    0.223777
      5         11           0       -2.328109   -1.915563    0.210412
      6         11           0       -2.706277    1.446666   -0.367346
      7         11           0       -0.188168    0.105433   -1.639445
 ---------------------------------------------------------------------

 SCF Done:  E(UB3LYP) =  -1136.13918767     A.U. after   19 cycles

 The electronic state is 2-A.
 Alpha  occ. eigenvalues --  -38.43777 -38.43770 -38.43673 -38.43655 -38.43582
 Alpha  occ. eigenvalues --  -38.43536 -38.43223  -2.19627  -2.19609  -2.19534
 Alpha  occ. eigenvalues --   -2.19486  -2.19406  -2.19395  -2.19197  -1.13354
 Alpha  occ. eigenvalues --   -1.13302  -1.13285  -1.13270  -1.13262  -1.13214
 Alpha  occ. eigenvalues --   -1.13205  -1.13166  -1.13164  -1.13157  -1.13137
 Alpha  occ. eigenvalues --   -1.13129  -1.13112  -1.13082  -1.13065  -1.13053
 Alpha  occ. eigenvalues --   -1.13041  -1.13000  -1.12873  -1.12831  -1.12809
 Alpha  occ. eigenvalues --   -0.18526  -0.12942  -0.12450  -0.10750
 Alpha virt. eigenvalues --   -0.05351  -0.05138  -0.05052  -0.03156  -0.02905
 Alpha virt. eigenvalues --   -0.02574  -0.01363  -0.01318  -0.00451  -0.00333
 Alpha virt. eigenvalues --   -0.00009   0.00357   0.00832   0.00860   0.00871

  Beta  occ. eigenvalues --  -38.43767 -38.43764 -38.43670 -38.43581 -38.43561
  Beta  occ. eigenvalues --  -38.43528 -38.43160  -2.19611  -2.19601  -2.19482
  Beta  occ. eigenvalues --   -2.19396  -2.19394  -2.19359  -2.19082  -1.13336
  Beta  occ. eigenvalues --   -1.13288  -1.13265  -1.13252  -1.13245  -1.13209
  Beta  occ. eigenvalues --   -1.13159  -1.13140  -1.13128  -1.13109  -1.13082
  Beta  occ. eigenvalues --   -1.13071  -1.13054  -1.13049  -1.13038  -1.13028
  Beta  occ. eigenvalues --   -1.13014  -1.12995  -1.12794  -1.12745  -1.12731
  Beta  occ. eigenvalues --   -0.17805  -0.12686  -0.12227
  Beta virt. eigenvalues --   -0.06854  -0.05322  -0.05132  -0.04971  -0.02365
  Beta virt. eigenvalues --   -0.02179  -0.01525  -0.01274  -0.01224  -0.00497
  Beta virt. eigenvalues --   -0.00374   0.00125   0.00380   0.00844   0.00876

 Mulliken charges and spin densities:
               1          2
     1  Na  -0.415119   0.771412
     2  Na   0.162201  -0.031298
     3  Na  -0.012811  -0.076086
     4  Na   0.071791  -0.036795
     5  Na   0.107692  -0.024857
     6  Na   0.200338  -0.048907
     7  Na  -0.114093   0.446531
 Sum of Mulliken charges =  -0.00000   1.00000

 Dipole moment (field-independent basis, Debye):
    X=             -0.1685    Y=              0.0395    Z=              0.1517  Tot=              0.2301
 Quadrupole moment (field-independent basis, Debye-Ang):
   XX=            -60.1809   YY=            -58.6651   ZZ=            -74.5198
   XY=              0.0519   XZ=             -0.5000   YZ=              0.2187

 Normal termination of Gaussian 16 at Thu Dec  7 04:41:11 2023.
