 Gaussian 16, Revision B.01,
 Gaussian 16:  ES64L-G16RevB.01 20-Dec-2017

 -------------------------
 #P B3LYP/6-311+g(d) force
 -------------------------

 -----
 DPGEN
 -----
 Symbolic Z-matrix:
 Charge =  0 Multiplicity = 2

                         Standard orientation:
 ---------------------------------------------------------------------
 Center     Atomic      Atomic             Coordinates (Angstroms)
 Number     Number       Type             X           Y           Z
 ---------------------------------------------------------------------
      1         11           0        0.472268   -2.791684    0.489926
      2         11           0       -3.173952   -1.389213   -0.506235
      3         11           0        3.353591   -0.645330   -0.230125
      4         11           0        0.044150    0.132389    1.999440
      5         11           0        0.304039   -0.199235   -1.758023
      6         11           0       -2.590475    2.069868    0.150243
      7         11           0        1.590380    2.823205   -0.145226
 ---------------------------------------------------------------------

 SCF Done:  E(UB3LYP) =  -1136.13197189     A.U. after   19 cycles

 The electronic state is 2-A.
 Alpha  occ. eigenvalues --  -38.44685 -38.44231 -38.44208 -38.43838 -38.43672
 Alpha  occ. eigenvalues --  -38.43618 -38.43190  -2.20478  -2.19997  -2.19980
 Alpha  occ. eigenvalues --   -2.19716  -2.19489  -2.19447  -2.19039  -1.14161
 Alpha  occ. eigenvalues --   -1.14130  -1.14112  -1.13681  -1.13667  -1.13654
 Alpha  occ. eigenvalues --   -1.13644  -1.13621  -1.13609  -1.13408  -1.13358
 Alpha  occ. eigenvalues --   -1.13333  -1.13165  -1.13133  -1.13122  -1.13111
 Alpha  occ. eigenvalues --   -1.13100  -1.13082  -1.12726  -1.12702  -1.12658
 Alpha  occ. eigenvalues --   -0.17883  -0.12939  -0.11971  -0.10621
 Alpha virt. eigenvalues --   -0.06095  -0.05584  -0.04590  -0.03168  -0.02843
 Alpha virt. eigenvalues --   -0.02519  -0.01932  -0.01306  -0.00726  -0.00537
 Alpha virt. eigenvalues --   -0.00064   0.00304   0.00682   0.00756   0.00812

  Beta  occ. eigenvalues --  -38.44678 -38.44231 -38.44196 -38.43782 -38.43673
  Beta  occ. eigenvalues --  -38.43523 -38.43175  -2.20469  -2.19999  -2.19959
  Beta  occ. eigenvalues --   -2.19612  -2.19451  -2.19316  -2.19014  -1.14141
  Beta  occ. eigenvalues --   -1.14124  -1.14105  -1.13675  -1.13664  -1.13642
  Beta  occ. eigenvalues --   -1.13629  -1.13609  -1.13601  -1.13336  -1.13287
  Beta  occ. eigenvalues --   -1.13253  -1.13122  -1.13115  -1.13081  -1.13049
  Beta  occ. eigenvalues --   -1.12995  -1.12980  -1.12707  -1.12660  -1.12645
  Beta  occ. eigenvalues --   -0.17176  -0.12710  -0.11748
  Beta virt. eigenvalues --   -0.06815  -0.06017  -0.05512  -0.04500  -0.02510
  Beta virt. eigenvalues --   -0.02121  -0.01808  -0.01546  -0.01237  -0.00766
  Beta virt. eigenvalues --   -0.00522   0.00078   0.00353   0.00765   0.00775

 Mulliken charges and spin densities:
               1          2
     1  Na   0.066346   0.026214
     2  Na  -0.036910   0.033111
     3  Na   0.196528  -0.058244
     4  Na   0.012982   0.630534
     5  Na   0.002891   0.609513
     6  Na  -0.069536  -0.089568
     7  Na  -0.172303  -0.151560
 Sum of Mulliken charges =  -0.00000   1.00000

 Dipole moment (field-independent basis, Debye):
    X=              0.2397    Y=              0.0197    Z=             -0.0757  Tot=              0.2522
 Quadrupole moment (field-independent basis, Debye-Ang):
   XX=            -53.9294   YY=            -64.1936   ZZ=            -75.0223
   XY=             -0.4777   XZ=              0.5585   YZ=             -0.1638

 Normal termination of Gaussian 16 at Thu Dec  7 08:56:50 2023.
