 Gaussian 16, Revision B.01,
 Gaussian 16:  ES64L-G16RevB.01 20-Dec-2017

 -------------------------
 #P B3LYP/6-311+g(d) force
 -------------------------

 -----
 DPGEN
 -----
 Symbolic Z-matrix:
 Charge =  0 Multiplicity = 2

                         Standard orientation:
 ---------------------------------------------------------------------
 Center     Atomic      Atomic             Coordinates (Angstroms)
 Number     Number       Type             X           Y           Z
 ---------------------------------------------------------------------
      1         11           0       -2.844380    1.696561   -0.019667
      2         11           0        0.068725   -0.084735   -1.380384
      3         11           0        2.065297   -1.838837    0.731719
      4         11           0        0.586888    2.313768    0.396585
      5         11           0       -0.696360   -0.486969    1.711913
      6         11           0       -2.952831   -1.928136   -0.731594
      7         11           0        3.772662    0.328347   -0.708573
 ---------------------------------------------------------------------

 SCF Done:  E(UB3LYP) =  -1136.12424597     A.U. after   22 cycles

 The electronic state is 2-A.
 Alpha  occ. eigenvalues --  -38.44682 -38.44536 -38.44358 -38.43653 -38.43496
 Alpha  occ. eigenvalues --  -38.43216 -38.42658  -2.20511  -2.20364  -2.20324
 Alpha  occ. eigenvalues --   -2.19551  -2.19308  -2.19202  -2.18562  -1.14196
 Alpha  occ. eigenvalues --   -1.14161  -1.14129  -1.14083  -1.14056  -1.14021
 Alpha  occ. eigenvalues --   -1.13986  -1.13980  -1.13913  -1.13245  -1.13203
 Alpha  occ. eigenvalues --   -1.13186  -1.12979  -1.12954  -1.12947  -1.12908
 Alpha  occ. eigenvalues --   -1.12819  -1.12796  -1.12293  -1.12225  -1.12146
 Alpha  occ. eigenvalues --   -0.18751  -0.13998  -0.11449  -0.10743
 Alpha virt. eigenvalues --   -0.06734  -0.05386  -0.04069  -0.03156  -0.02615
 Alpha virt. eigenvalues --   -0.02547  -0.01964  -0.01307  -0.00621  -0.00167
 Alpha virt. eigenvalues --    0.00090   0.00179   0.00533   0.00666   0.00735

  Beta  occ. eigenvalues --  -38.44651 -38.44531 -38.44336 -38.43628 -38.43474
  Beta  occ. eigenvalues --  -38.43133 -38.42649  -2.20453  -2.20356  -2.20286
  Beta  occ. eigenvalues --   -2.19510  -2.19266  -2.19052  -2.18550  -1.14159
  Beta  occ. eigenvalues --   -1.14117  -1.14090  -1.14044  -1.14042  -1.14014
  Beta  occ. eigenvalues --   -1.13970  -1.13960  -1.13885  -1.13206  -1.13167
  Beta  occ. eigenvalues --   -1.13145  -1.12948  -1.12924  -1.12917  -1.12811
  Beta  occ. eigenvalues --   -1.12702  -1.12688  -1.12288  -1.12191  -1.12139
  Beta  occ. eigenvalues --   -0.18092  -0.13644  -0.11181
  Beta virt. eigenvalues --   -0.07044  -0.06495  -0.05246  -0.03709  -0.02869
  Beta virt. eigenvalues --   -0.02425  -0.01852  -0.01277  -0.01172  -0.00416
  Beta virt. eigenvalues --   -0.00027   0.00134   0.00229   0.00668   0.00771

 Mulliken charges and spin densities:
               1          2
     1  Na   0.265271   0.033342
     2  Na  -0.638384   0.373470
     3  Na  -0.086609   0.038336
     4  Na  -0.248033  -0.090903
     5  Na   0.366323   0.268813
     6  Na  -0.085361   0.177653
     7  Na   0.426792   0.199288
 Sum of Mulliken charges =  -0.00000   1.00000

 Dipole moment (field-independent basis, Debye):
    X=              0.0432    Y=              0.3664    Z=              0.0729  Tot=              0.3761
 Quadrupole moment (field-independent basis, Debye-Ang):
   XX=            -49.9119   YY=            -71.5839   ZZ=            -71.7538
   XY=             -1.6352   XZ=             -0.7298   YZ=              0.3953

 Normal termination of Gaussian 16 at Fri Dec  8 05:26:38 2023.
