 Gaussian 16, Revision B.01,
 Gaussian 16:  ES64L-G16RevB.01 20-Dec-2017

 -------------------------
 #P B3LYP/6-311+g(d) force
 -------------------------

 -----
 DPGEN
 -----
 Symbolic Z-matrix:
 Charge =  0 Multiplicity = 2

                         Standard orientation:
 ---------------------------------------------------------------------
 Center     Atomic      Atomic             Coordinates (Angstroms)
 Number     Number       Type             X           Y           Z
 ---------------------------------------------------------------------
      1         11           0       -0.491966   -0.391157    2.198163
      2         11           0        3.318035   -0.085377   -0.530530
      3         11           0       -0.286867   -0.211885   -1.491441
      4         11           0       -3.394385   -1.081925    0.117320
      5         11           0        1.437778   -2.490253   -0.146474
      6         11           0       -2.040889    1.793327   -0.925115
      7         11           0        1.458294    2.467269    0.778077
 ---------------------------------------------------------------------

 SCF Done:  E(UB3LYP) =  -1136.12099127     A.U. after   22 cycles

 The electronic state is 2-A.
 Alpha  occ. eigenvalues --  -38.44874 -38.44665 -38.44297 -38.44026 -38.43989
 Alpha  occ. eigenvalues --  -38.43033 -38.42806  -2.20681  -2.20511  -2.20146
 Alpha  occ. eigenvalues --   -2.20018  -2.19931  -2.18919  -2.18620  -1.14352
 Alpha  occ. eigenvalues --   -1.14340  -1.14326  -1.14189  -1.14175  -1.14149
 Alpha  occ. eigenvalues --   -1.14046  -1.13805  -1.13777  -1.13757  -1.13672
 Alpha  occ. eigenvalues --   -1.13593  -1.13543  -1.13494  -1.13454  -1.12607
 Alpha  occ. eigenvalues --   -1.12574  -1.12552  -1.12293  -1.12286  -1.12259
 Alpha  occ. eigenvalues --   -0.18487  -0.13776  -0.11550  -0.11305
 Alpha virt. eigenvalues --   -0.06534  -0.04935  -0.03977  -0.03564  -0.03160
 Alpha virt. eigenvalues --   -0.02677  -0.02174  -0.00976  -0.00328  -0.00114
 Alpha virt. eigenvalues --    0.00122   0.00263   0.00494   0.00728   0.00812

  Beta  occ. eigenvalues --  -38.44871 -38.44660 -38.44194 -38.43995 -38.43939
  Beta  occ. eigenvalues --  -38.43031 -38.42795  -2.20678  -2.20503  -2.19956
  Beta  occ. eigenvalues --   -2.19936  -2.19869  -2.18918  -2.18601  -1.14352
  Beta  occ. eigenvalues --   -1.14329  -1.14313  -1.14188  -1.14160  -1.14142
  Beta  occ. eigenvalues --   -1.13984  -1.13681  -1.13649  -1.13614  -1.13600
  Beta  occ. eigenvalues --   -1.13540  -1.13493  -1.13454  -1.13401  -1.12605
  Beta  occ. eigenvalues --   -1.12577  -1.12531  -1.12279  -1.12264  -1.12245
  Beta  occ. eigenvalues --   -0.17787  -0.13516  -0.11304
  Beta virt. eigenvalues --   -0.07379  -0.06440  -0.04848  -0.03798  -0.02990
  Beta virt. eigenvalues --   -0.02270  -0.02095  -0.01791  -0.00885  -0.00221
  Beta virt. eigenvalues --   -0.00064   0.00144   0.00306   0.00699   0.00804

 Mulliken charges and spin densities:
               1          2
     1  Na  -0.397221   0.611020
     2  Na  -0.040245  -0.009187
     3  Na  -0.147097  -0.012881
     4  Na   0.049019   0.085609
     5  Na   0.365771   0.101909
     6  Na   0.271836   0.145572
     7  Na  -0.102062   0.077958
 Sum of Mulliken charges =  -0.00000   1.00000

 Dipole moment (field-independent basis, Debye):
    X=             -0.5896    Y=             -0.3356    Z=              0.1961  Tot=              0.7062
 Quadrupole moment (field-independent basis, Debye-Ang):
   XX=            -51.2077   YY=            -71.3096   ZZ=            -72.0489
   XY=              1.4332   XZ=             -0.8174   YZ=             -0.6373

 Normal termination of Gaussian 16 at Tue Dec  5 19:34:16 2023.
