 Gaussian 16, Revision B.01,
 Gaussian 16:  ES64L-G16RevB.01 20-Dec-2017

 -------------------------
 #P B3LYP/6-311+g(d) force
 -------------------------

 -----
 DPGEN
 -----
 Symbolic Z-matrix:
 Charge =  0 Multiplicity = 2

                         Standard orientation:
 ---------------------------------------------------------------------
 Center     Atomic      Atomic             Coordinates (Angstroms)
 Number     Number       Type             X           Y           Z
 ---------------------------------------------------------------------
      1         11           0        2.374043    1.739940   -1.003796
      2         11           0        3.781949   -0.936208    0.383184
      3         11           0       -3.836490    1.212144    0.129813
      4         11           0       -2.721184   -1.927184   -0.828535
      5         11           0        0.493786   -0.727145   -1.840309
      6         11           0       -0.260857    2.170653    1.040880
      7         11           0        0.168752   -1.532199    2.118763
 ---------------------------------------------------------------------

 SCF Done:  E(UB3LYP) =  -1136.11171433     A.U. after   37 cycles

 The electronic state is 2-A.
 Alpha  occ. eigenvalues --  -38.45944 -38.45329 -38.44718 -38.44656 -38.43657
 Alpha  occ. eigenvalues --  -38.43593 -38.42964  -2.21707  -2.21063  -2.20496
 Alpha  occ. eigenvalues --   -2.20483  -2.19540  -2.19388  -2.18772  -1.15381
 Alpha  occ. eigenvalues --   -1.15364  -1.15341  -1.14747  -1.14725  -1.14710
 Alpha  occ. eigenvalues --   -1.14172  -1.14158  -1.14139  -1.14124  -1.14115
 Alpha  occ. eigenvalues --   -1.14110  -1.13233  -1.13189  -1.13166  -1.13062
 Alpha  occ. eigenvalues --   -1.13042  -1.13031  -1.12451  -1.12435  -1.12397
 Alpha  occ. eigenvalues --   -0.17484  -0.13604  -0.11392  -0.11008
 Alpha virt. eigenvalues --   -0.07647  -0.05313  -0.04419  -0.03424  -0.03252
 Alpha virt. eigenvalues --   -0.02527  -0.02503  -0.01472  -0.00671  -0.00415
 Alpha virt. eigenvalues --   -0.00137   0.00026   0.00130   0.00483   0.00659

  Beta  occ. eigenvalues --  -38.45932 -38.45348 -38.44628 -38.44614 -38.43632
  Beta  occ. eigenvalues --  -38.43581 -38.42932  -2.21686  -2.21100  -2.20405
  Beta  occ. eigenvalues --   -2.20329  -2.19498  -2.19367  -2.18715  -1.15371
  Beta  occ. eigenvalues --   -1.15333  -1.15325  -1.14772  -1.14748  -1.14733
  Beta  occ. eigenvalues --   -1.14118  -1.14080  -1.14052  -1.14042  -1.14009
  Beta  occ. eigenvalues --   -1.13998  -1.13198  -1.13163  -1.13126  -1.13040
  Beta  occ. eigenvalues --   -1.13029  -1.13021  -1.12414  -1.12380  -1.12363
  Beta  occ. eigenvalues --   -0.16766  -0.13487  -0.10824
  Beta virt. eigenvalues --   -0.07546  -0.07403  -0.05258  -0.03787  -0.03055
  Beta virt. eigenvalues --   -0.02790  -0.02328  -0.01727  -0.01413  -0.00522
  Beta virt. eigenvalues --   -0.00367   0.00004   0.00111   0.00257   0.00572

 Mulliken charges and spin densities:
               1          2
     1  Na   0.966420   0.074860
     2  Na   0.041661   0.043107
     3  Na   0.136127  -0.163787
     4  Na   0.044159   0.171657
     5  Na  -0.508073   0.224695
     6  Na  -0.606603   0.189858
     7  Na  -0.073691   0.459610
 Sum of Mulliken charges =  -0.00000   1.00000

 Dipole moment (field-independent basis, Debye):
    X=              0.6231    Y=             -0.4314    Z=              0.0588  Tot=              0.7601
 Quadrupole moment (field-independent basis, Debye-Ang):
   XX=            -46.0235   YY=            -77.2200   ZZ=            -71.7399
   XY=             -1.5529   XZ=              0.3567   YZ=             -2.3000

 Normal termination of Gaussian 16 at Mon Dec  4 00:25:01 2023.
