 Gaussian 16, Revision B.01,
 Gaussian 16:  ES64L-G16RevB.01 20-Dec-2017

 -------------------------
 #P B3LYP/6-311+g(d) force
 -------------------------

 -----
 DPGEN
 -----
 Symbolic Z-matrix:
 Charge =  0 Multiplicity = 2

                         Standard orientation:
 ---------------------------------------------------------------------
 Center     Atomic      Atomic             Coordinates (Angstroms)
 Number     Number       Type             X           Y           Z
 ---------------------------------------------------------------------
      1         11           0       -2.035708    2.018544    0.090043
      2         11           0        3.142037    0.851909    0.964403
      3         11           0       -0.605764   -1.225230   -1.419836
      4         11           0        1.123555    1.569668   -1.328803
      5         11           0       -0.313766   -0.667933    2.032963
      6         11           0        2.484023   -1.743608   -0.455775
      7         11           0       -3.794377   -0.803351    0.117004
 ---------------------------------------------------------------------

 SCF Done:  E(UB3LYP) =  -1136.11942296     A.U. after   28 cycles

 The electronic state is 2-A.
 Alpha  occ. eigenvalues --  -38.45460 -38.44968 -38.44783 -38.43753 -38.43474
 Alpha  occ. eigenvalues --  -38.43362 -38.42617  -2.21249  -2.20779  -2.20667
 Alpha  occ. eigenvalues --   -2.19643  -2.19405  -2.19199  -2.18529  -1.14925
 Alpha  occ. eigenvalues --   -1.14916  -1.14881  -1.14468  -1.14426  -1.14384
 Alpha  occ. eigenvalues --   -1.14362  -1.14312  -1.14293  -1.13340  -1.13309
 Alpha  occ. eigenvalues --   -1.13271  -1.13097  -1.13039  -1.13014  -1.12883
 Alpha  occ. eigenvalues --   -1.12867  -1.12836  -1.12224  -1.12199  -1.12139
 Alpha  occ. eigenvalues --   -0.18642  -0.14294  -0.11351  -0.10837
 Alpha virt. eigenvalues --   -0.07224  -0.05314  -0.04397  -0.03144  -0.02857
 Alpha virt. eigenvalues --   -0.02496  -0.02457  -0.01062  -0.00645  -0.00272
 Alpha virt. eigenvalues --    0.00133   0.00208   0.00234   0.00663   0.00741

  Beta  occ. eigenvalues --  -38.45469 -38.44906 -38.44748 -38.43744 -38.43400
  Beta  occ. eigenvalues --  -38.43364 -38.42588  -2.21268  -2.20664  -2.20602
  Beta  occ. eigenvalues --   -2.19631  -2.19274  -2.19204  -2.18480  -1.14931
  Beta  occ. eigenvalues --   -1.14929  -1.14893  -1.14392  -1.14342  -1.14325
  Beta  occ. eigenvalues --   -1.14298  -1.14269  -1.14234  -1.13307  -1.13300
  Beta  occ. eigenvalues --   -1.13252  -1.13015  -1.12932  -1.12919  -1.12885
  Beta  occ. eigenvalues --   -1.12863  -1.12837  -1.12181  -1.12154  -1.12105
  Beta  occ. eigenvalues --   -0.17869  -0.14106  -0.10643
  Beta virt. eigenvalues --   -0.07437  -0.06988  -0.05288  -0.03726  -0.02892
  Beta virt. eigenvalues --   -0.02622  -0.01927  -0.01658  -0.00971  -0.00354
  Beta virt. eigenvalues --   -0.00259   0.00164   0.00218   0.00407   0.00731

 Mulliken charges and spin densities:
               1          2
     1  Na  -0.339504  -0.062790
     2  Na   0.338544   0.213107
     3  Na  -0.397305   0.362088
     4  Na   0.024449   0.104282
     5  Na  -0.317243   0.371112
     6  Na   0.070328   0.025285
     7  Na   0.620732  -0.013083
 Sum of Mulliken charges =  -0.00000   1.00000

 Dipole moment (field-independent basis, Debye):
    X=             -0.8787    Y=             -0.4420    Z=              0.6745  Tot=              1.1927
 Quadrupole moment (field-independent basis, Debye-Ang):
   XX=            -45.9440   YY=            -78.4010   ZZ=            -69.7416
   XY=              1.0948   XZ=              0.7239   YZ=              2.7906

 Normal termination of Gaussian 16 at Thu Dec  7 03:50:55 2023.
