 Gaussian 16, Revision B.01,
 Gaussian 16:  ES64L-G16RevB.01 20-Dec-2017

 -------------------------
 #P B3LYP/6-311+g(d) force
 -------------------------

 -----
 DPGEN
 -----
 Symbolic Z-matrix:
 Charge =  0 Multiplicity = 2

                         Standard orientation:
 ---------------------------------------------------------------------
 Center     Atomic      Atomic             Coordinates (Angstroms)
 Number     Number       Type             X           Y           Z
 ---------------------------------------------------------------------
      1         11           0        4.231067   -0.241651    0.028484
      2         11           0        0.651576   -2.785284   -0.462418
      3         11           0       -1.787585    0.966230    1.475767
      4         11           0        1.400280    0.218153    1.772352
      5         11           0       -0.728939   -0.370793   -1.753078
      6         11           0        0.276734    2.994899   -1.210924
      7         11           0       -4.043132   -0.781555    0.149818
 ---------------------------------------------------------------------

 SCF Done:  E(UB3LYP) =  -1136.11028937     A.U. after   27 cycles

 The electronic state is 2-A.
 Alpha  occ. eigenvalues --  -38.45766 -38.44977 -38.44119 -38.43748 -38.43652
 Alpha  occ. eigenvalues --  -38.43588 -38.43562  -2.21507  -2.20766  -2.19953
 Alpha  occ. eigenvalues --   -2.19551  -2.19540  -2.19440  -2.19403  -1.15177
 Alpha  occ. eigenvalues --   -1.15168  -1.15134  -1.14454  -1.14425  -1.14387
 Alpha  occ. eigenvalues --   -1.13658  -1.13609  -1.13567  -1.13306  -1.13223
 Alpha  occ. eigenvalues --   -1.13195  -1.13186  -1.13163  -1.13146  -1.13143
 Alpha  occ. eigenvalues --   -1.13090  -1.13064  -1.13054  -1.13046  -1.12992
 Alpha  occ. eigenvalues --   -0.17476  -0.13216  -0.11513  -0.11283
 Alpha virt. eigenvalues --   -0.07575  -0.04555  -0.04219  -0.03243  -0.03112
 Alpha virt. eigenvalues --   -0.02763  -0.02555  -0.01210  -0.00772  -0.00382
 Alpha virt. eigenvalues --   -0.00190  -0.00060   0.00311   0.00634   0.00864

  Beta  occ. eigenvalues --  -38.45759 -38.44961 -38.44098 -38.43685 -38.43584
  Beta  occ. eigenvalues --  -38.43562 -38.43539  -2.21494  -2.20739  -2.19914
  Beta  occ. eigenvalues --   -2.19428  -2.19425  -2.19397  -2.19358  -1.15162
  Beta  occ. eigenvalues --   -1.15159  -1.15128  -1.14426  -1.14405  -1.14370
  Beta  occ. eigenvalues --   -1.13627  -1.13578  -1.13550  -1.13223  -1.13135
  Beta  occ. eigenvalues --   -1.13117  -1.13114  -1.13106  -1.13080  -1.13074
  Beta  occ. eigenvalues --   -1.13062  -1.13031  -1.13007  -1.12998  -1.12957
  Beta  occ. eigenvalues --   -0.16899  -0.12856  -0.10999
  Beta virt. eigenvalues --   -0.07807  -0.07232  -0.04216  -0.04050  -0.02898
  Beta virt. eigenvalues --   -0.02863  -0.02398  -0.01830  -0.01019  -0.00503
  Beta virt. eigenvalues --   -0.00253  -0.00118   0.00020   0.00364   0.00704

 Mulliken charges and spin densities:
               1          2
     1  Na   0.170989  -0.028121
     2  Na  -0.302489  -0.012468
     3  Na   0.005090   0.254803
     4  Na  -0.012702   0.173638
     5  Na   0.346607   0.404820
     6  Na  -0.293369   0.213384
     7  Na   0.085872  -0.006055
 Sum of Mulliken charges =  -0.00000   1.00000

 Dipole moment (field-independent basis, Debye):
    X=              0.6764    Y=             -0.0507    Z=             -0.2639  Tot=              0.7278
 Quadrupole moment (field-independent basis, Debye-Ang):
   XX=            -49.1782   YY=            -72.6221   ZZ=            -71.4303
   XY=              2.3513   XZ=             -2.3423   YZ=             -3.8041

 Normal termination of Gaussian 16 at Sun Dec  3 15:49:39 2023.
