 Gaussian 16, Revision B.01,
 Gaussian 16:  ES64L-G16RevB.01 20-Dec-2017

 -------------------------
 #P B3LYP/6-311+g(d) force
 -------------------------

 -----
 DPGEN
 -----
 Symbolic Z-matrix:
 Charge =  0 Multiplicity = 2

                         Standard orientation:
 ---------------------------------------------------------------------
 Center     Atomic      Atomic             Coordinates (Angstroms)
 Number     Number       Type             X           Y           Z
 ---------------------------------------------------------------------
      1         11           0        1.987494   -0.060451    2.119627
      2         11           0        3.257609   -0.915363   -1.482409
      3         11           0       -1.893138    3.145183   -1.096781
      4         11           0        1.228141    1.684180   -0.152356
      5         11           0       -1.727078    1.006092    1.161793
      6         11           0       -0.142182   -1.731737   -0.294703
      7         11           0       -2.710847   -3.127905   -0.255169
 ---------------------------------------------------------------------

 SCF Done:  E(UB3LYP) =  -1136.12318844     A.U. after   19 cycles

 The electronic state is 2-A.
 Alpha  occ. eigenvalues --  -38.44345 -38.44266 -38.44073 -38.43893 -38.43777
 Alpha  occ. eigenvalues --  -38.43516 -38.42878  -2.20236  -2.20083  -2.19956
 Alpha  occ. eigenvalues --   -2.19842  -2.19611  -2.19332  -2.18805  -1.13992
 Alpha  occ. eigenvalues --   -1.13874  -1.13820  -1.13742  -1.13736  -1.13686
 Alpha  occ. eigenvalues --   -1.13679  -1.13641  -1.13584  -1.13536  -1.13526
 Alpha  occ. eigenvalues --   -1.13405  -1.13268  -1.13254  -1.13230  -1.13080
 Alpha  occ. eigenvalues --   -1.12974  -1.12960  -1.12489  -1.12477  -1.12409
 Alpha  occ. eigenvalues --   -0.18179  -0.13190  -0.12327  -0.11061
 Alpha virt. eigenvalues --   -0.05722  -0.05503  -0.04821  -0.03289  -0.02534
 Alpha virt. eigenvalues --   -0.02404  -0.01608  -0.01395  -0.00984  -0.00284
 Alpha virt. eigenvalues --    0.00129   0.00188   0.00315   0.00568   0.00682

  Beta  occ. eigenvalues --  -38.44272 -38.44200 -38.44063 -38.43881 -38.43752
  Beta  occ. eigenvalues --  -38.43520 -38.42870  -2.20104  -2.19960  -2.19940
  Beta  occ. eigenvalues --   -2.19826  -2.19564  -2.19340  -2.18791  -1.13905
  Beta  occ. eigenvalues --   -1.13784  -1.13717  -1.13672  -1.13653  -1.13648
  Beta  occ. eigenvalues --   -1.13609  -1.13599  -1.13576  -1.13521  -1.13466
  Beta  occ. eigenvalues --   -1.13403  -1.13236  -1.13220  -1.13201  -1.13084
  Beta  occ. eigenvalues --   -1.12979  -1.12965  -1.12481  -1.12446  -1.12404
  Beta  occ. eigenvalues --   -0.17489  -0.12842  -0.12230
  Beta virt. eigenvalues --   -0.07295  -0.05467  -0.05191  -0.04390  -0.03049
  Beta virt. eigenvalues --   -0.02153  -0.01885  -0.01343  -0.01249  -0.00516
  Beta virt. eigenvalues --   -0.00168   0.00250   0.00362   0.00418   0.00729

 Mulliken charges and spin densities:
               1          2
     1  Na   0.438087   0.324156
     2  Na   0.864698   0.286402
     3  Na  -0.140028   0.005348
     4  Na   0.122907   0.398662
     5  Na   0.306357   0.099729
     6  Na  -1.460254   0.102499
     7  Na  -0.131768  -0.216797
 Sum of Mulliken charges =  -0.00000   1.00000

 Dipole moment (field-independent basis, Debye):
    X=              0.3684    Y=              0.4431    Z=              0.2048  Tot=              0.6115
 Quadrupole moment (field-independent basis, Debye-Ang):
   XX=            -58.6244   YY=            -67.6345   ZZ=            -67.2206
   XY=             -1.8368   XZ=              0.2599   YZ=             -2.2268

 Normal termination of Gaussian 16 at Wed Nov 29 16:44:00 2023.
