 Gaussian 16, Revision B.01,
 Gaussian 16:  ES64L-G16RevB.01 20-Dec-2017

 -------------------------
 #P B3LYP/6-311+g(d) force
 -------------------------

 -----
 DPGEN
 -----
 Symbolic Z-matrix:
 Charge =  0 Multiplicity = 2

                         Standard orientation:
 ---------------------------------------------------------------------
 Center     Atomic      Atomic             Coordinates (Angstroms)
 Number     Number       Type             X           Y           Z
 ---------------------------------------------------------------------
      1         11           0       -2.564517   -1.542673    0.201218
      2         11           0       -0.223759    0.030176   -1.757780
      3         11           0       -2.479479    1.632129   -0.090619
      4         11           0        0.102706   -0.164148    2.310394
      5         11           0        0.803239   -2.336171   -0.579901
      6         11           0        3.343559   -0.186385    0.090895
      7         11           0        1.018250    2.567071   -0.174207
 ---------------------------------------------------------------------

 SCF Done:  E(UB3LYP) =  -1136.13178711     A.U. after   20 cycles

 The electronic state is 2-A.
 Alpha  occ. eigenvalues --  -38.44459 -38.44454 -38.43679 -38.43620 -38.43607
 Alpha  occ. eigenvalues --  -38.43017 -38.43005  -2.20301  -2.20254  -2.19710
 Alpha  occ. eigenvalues --   -2.19498  -2.19482  -2.18947  -2.18853  -1.13955
 Alpha  occ. eigenvalues --   -1.13931  -1.13927  -1.13917  -1.13912  -1.13897
 Alpha  occ. eigenvalues --   -1.13484  -1.13378  -1.13323  -1.13226  -1.13158
 Alpha  occ. eigenvalues --   -1.13145  -1.13141  -1.13121  -1.13077  -1.12661
 Alpha  occ. eigenvalues --   -1.12577  -1.12552  -1.12531  -1.12518  -1.12469
 Alpha  occ. eigenvalues --   -0.18858  -0.13198  -0.12051  -0.11432
 Alpha virt. eigenvalues --   -0.05955  -0.04867  -0.03982  -0.03533  -0.03220
 Alpha virt. eigenvalues --   -0.02924  -0.01720  -0.00838  -0.00147  -0.00070
 Alpha virt. eigenvalues --    0.00083   0.00357   0.00742   0.00817   0.00932

  Beta  occ. eigenvalues --  -38.44456 -38.44357 -38.43615 -38.43606 -38.43604
  Beta  occ. eigenvalues --  -38.43001 -38.42999  -2.20259  -2.20112  -2.19579
  Beta  occ. eigenvalues --   -2.19492  -2.19478  -2.18919  -2.18849  -1.13922
  Beta  occ. eigenvalues --   -1.13910  -1.13905  -1.13830  -1.13799  -1.13780
  Beta  occ. eigenvalues --   -1.13392  -1.13305  -1.13246  -1.13206  -1.13142
  Beta  occ. eigenvalues --   -1.13123  -1.13119  -1.13110  -1.13076  -1.12627
  Beta  occ. eigenvalues --   -1.12545  -1.12537  -1.12518  -1.12502  -1.12469
  Beta  occ. eigenvalues --   -0.18095  -0.13006  -0.11793
  Beta virt. eigenvalues --   -0.07425  -0.05857  -0.04888  -0.03949  -0.02747
  Beta virt. eigenvalues --   -0.02144  -0.02090  -0.01613  -0.00790  -0.00145
  Beta virt. eigenvalues --    0.00002   0.00093   0.00377   0.00846   0.00919

 Mulliken charges and spin densities:
               1          2
     1  Na   0.249302   0.082860
     2  Na  -0.201515   0.249653
     3  Na   0.173181  -0.020394
     4  Na  -0.741914   0.709877
     5  Na   0.433870   0.056717
     6  Na  -0.001651  -0.041214
     7  Na   0.088727  -0.037500
 Sum of Mulliken charges =  -0.00000   1.00000

 Dipole moment (field-independent basis, Debye):
    X=              0.2326    Y=              0.0143    Z=              0.5136  Tot=              0.5640
 Quadrupole moment (field-independent basis, Debye-Ang):
   XX=            -54.7029   YY=            -69.4505   ZZ=            -70.7295
   XY=              0.2768   XZ=             -0.2365   YZ=             -0.0189

 Normal termination of Gaussian 16 at Thu Dec  7 04:59:26 2023.
