 Gaussian 16, Revision B.01,
 Gaussian 16:  ES64L-G16RevB.01 20-Dec-2017

 -------------------------
 #P B3LYP/6-311+g(d) force
 -------------------------

 -----
 DPGEN
 -----
 Symbolic Z-matrix:
 Charge =  0 Multiplicity = 2

                         Standard orientation:
 ---------------------------------------------------------------------
 Center     Atomic      Atomic             Coordinates (Angstroms)
 Number     Number       Type             X           Y           Z
 ---------------------------------------------------------------------
      1         11           0        2.241448   -1.235975   -0.762306
      2         11           0        4.852853   -0.716143    1.579762
      3         11           0        4.369863    1.549730   -0.159118
      4         11           0        0.607029    1.661668   -1.221271
      5         11           0       -1.225087   -1.524967    0.040474
      6         11           0       -4.614294   -1.080415   -0.751497
      7         11           0       -6.231812    1.346102    1.273956
 ---------------------------------------------------------------------

 SCF Done:  E(UB3LYP) =  -1136.11088436     A.U. after   21 cycles

 The electronic state is 2-A.
 Alpha  occ. eigenvalues --  -38.44659 -38.44606 -38.44524 -38.44217 -38.44074
 Alpha  occ. eigenvalues --  -38.43868 -38.43669  -2.20456  -2.20409  -2.20392
 Alpha  occ. eigenvalues --   -2.19978  -2.19896  -2.19739  -2.19475  -1.14167
 Alpha  occ. eigenvalues --   -1.14154  -1.14130  -1.14070  -1.14068  -1.14068
 Alpha  occ. eigenvalues --   -1.14047  -1.14025  -1.14018  -1.13661  -1.13656
 Alpha  occ. eigenvalues --   -1.13611  -1.13563  -1.13551  -1.13496  -1.13391
 Alpha  occ. eigenvalues --   -1.13370  -1.13364  -1.13152  -1.13139  -1.13084
 Alpha  occ. eigenvalues --   -0.16773  -0.13936  -0.11900  -0.10704
 Alpha virt. eigenvalues --   -0.07151  -0.05225  -0.04672  -0.03619  -0.02809
 Alpha virt. eigenvalues --   -0.02726  -0.02041  -0.01540  -0.01043  -0.00810
 Alpha virt. eigenvalues --   -0.00330  -0.00159  -0.00095   0.00282   0.00413

  Beta  occ. eigenvalues --  -38.44619 -38.44601 -38.44516 -38.44231 -38.44006
  Beta  occ. eigenvalues --  -38.43840 -38.43632  -2.20450  -2.20379  -2.20333
  Beta  occ. eigenvalues --   -2.20005  -2.19771  -2.19685  -2.19405  -1.14156
  Beta  occ. eigenvalues --   -1.14127  -1.14109  -1.14066  -1.14039  -1.14018
  Beta  occ. eigenvalues --   -1.14016  -1.13997  -1.13977  -1.13681  -1.13675
  Beta  occ. eigenvalues --   -1.13616  -1.13480  -1.13467  -1.13398  -1.13361
  Beta  occ. eigenvalues --   -1.13333  -1.13323  -1.13102  -1.13086  -1.13048
  Beta  occ. eigenvalues --   -0.16212  -0.13721  -0.11598
  Beta virt. eigenvalues --   -0.07337  -0.06561  -0.05048  -0.04155  -0.03472
  Beta virt. eigenvalues --   -0.02648  -0.02259  -0.01718  -0.01376  -0.00980
  Beta virt. eigenvalues --   -0.00395  -0.00142   0.00056   0.00106   0.00341

 Mulliken charges and spin densities:
               1          2
     1  Na  -0.024825   0.056914
     2  Na   0.216502   0.167940
     3  Na   0.157634  -0.030674
     4  Na  -0.141317   0.461042
     5  Na  -0.353496   0.189131
     6  Na   0.103620  -0.054844
     7  Na   0.041883   0.210491
 Sum of Mulliken charges =  -0.00000   1.00000

 Dipole moment (field-independent basis, Debye):
    X=              0.7314    Y=              0.5703    Z=              0.2890  Tot=              0.9715
 Quadrupole moment (field-independent basis, Debye-Ang):
   XX=            -67.2098   YY=            -65.5174   ZZ=            -67.5807
   XY=             -2.7620   XZ=             -0.9514   YZ=              2.5988

 Normal termination of Gaussian 16 at Tue Nov 28 23:22:54 2023.
