 Gaussian 16, Revision B.01,
 Gaussian 16:  ES64L-G16RevB.01 20-Dec-2017

 -------------------------
 #P B3LYP/6-311+g(d) force
 -------------------------

 -----
 DPGEN
 -----
 Symbolic Z-matrix:
 Charge =  0 Multiplicity = 2

                         Standard orientation:
 ---------------------------------------------------------------------
 Center     Atomic      Atomic             Coordinates (Angstroms)
 Number     Number       Type             X           Y           Z
 ---------------------------------------------------------------------
      1         11           0       -3.747866   -2.409278   -0.046143
      2         11           0        4.668135    0.136765   -0.064413
      3         11           0       -4.144767    1.551829    0.293436
      4         11           0       -0.617797   -3.187523   -0.215332
      5         11           0        2.469422    2.987781    0.048105
      6         11           0        2.983925   -2.415813    0.232196
      7         11           0       -1.611051    3.336239   -0.247849
 ---------------------------------------------------------------------

 SCF Done:  E(UB3LYP) =  -1136.10565114     A.U. after   23 cycles

 The electronic state is 2-A.
 Alpha  occ. eigenvalues --  -38.45082 -38.44660 -38.44649 -38.44600 -38.44535
 Alpha  occ. eigenvalues --  -38.44526 -38.44267  -2.20880  -2.20451  -2.20421
 Alpha  occ. eigenvalues --   -2.20374  -2.20335  -2.20305  -2.20093  -1.14587
 Alpha  occ. eigenvalues --   -1.14548  -1.14526  -1.14159  -1.14111  -1.14107
 Alpha  occ. eigenvalues --   -1.14097  -1.14092  -1.14082  -1.14046  -1.14034
 Alpha  occ. eigenvalues --   -1.14020  -1.13987  -1.13967  -1.13957  -1.13945
 Alpha  occ. eigenvalues --   -1.13928  -1.13919  -1.13740  -1.13735  -1.13725
 Alpha  occ. eigenvalues --   -0.15538  -0.14198  -0.13389  -0.10977
 Alpha virt. eigenvalues --   -0.07936  -0.04793  -0.04438  -0.03658  -0.03535
 Alpha virt. eigenvalues --   -0.02643  -0.02262  -0.02085  -0.01175  -0.00754
 Alpha virt. eigenvalues --   -0.00563  -0.00262   0.00219   0.00243   0.00283

  Beta  occ. eigenvalues --  -38.45086 -38.44647 -38.44622 -38.44595 -38.44495
  Beta  occ. eigenvalues --  -38.44434 -38.44211  -2.20894  -2.20423  -2.20383
  Beta  occ. eigenvalues --   -2.20370  -2.20263  -2.20135  -2.19988  -1.14583
  Beta  occ. eigenvalues --   -1.14564  -1.14508  -1.14121  -1.14104  -1.14092
  Beta  occ. eigenvalues --   -1.14075  -1.14060  -1.14047  -1.14042  -1.14022
  Beta  occ. eigenvalues --   -1.13982  -1.13940  -1.13921  -1.13877  -1.13841
  Beta  occ. eigenvalues --   -1.13831  -1.13807  -1.13676  -1.13664  -1.13655
  Beta  occ. eigenvalues --   -0.15003  -0.13552  -0.12595
  Beta virt. eigenvalues --   -0.08042  -0.07825  -0.04308  -0.03933  -0.03483
  Beta virt. eigenvalues --   -0.03255  -0.02466  -0.02035  -0.01874  -0.01060
  Beta virt. eigenvalues --   -0.00380  -0.00315   0.00114   0.00197   0.00284

 Mulliken charges and spin densities:
               1          2
     1  Na   0.490982   0.095872
     2  Na   0.098562   0.013857
     3  Na   0.034268   0.178568
     4  Na  -0.229988  -0.007894
     5  Na  -0.107873   0.468837
     6  Na  -0.141045   0.296277
     7  Na  -0.144906  -0.045518
 Sum of Mulliken charges =  -0.00000   1.00000

 Dipole moment (field-independent basis, Debye):
    X=             -0.1795    Y=             -0.2014    Z=              0.0049  Tot=              0.2698
 Quadrupole moment (field-independent basis, Debye-Ang):
   XX=            -53.6969   YY=            -71.9480   ZZ=            -74.5357
   XY=              2.4787   XZ=             -1.2663   YZ=             -0.5343

 Normal termination of Gaussian 16 at Sun Dec  3 11:53:16 2023.
