 Gaussian 16, Revision B.01,
 Gaussian 16:  ES64L-G16RevB.01 20-Dec-2017

 -------------------------
 #P B3LYP/6-311+g(d) force
 -------------------------

 -----
 DPGEN
 -----
 Symbolic Z-matrix:
 Charge =  0 Multiplicity = 2

                         Standard orientation:
 ---------------------------------------------------------------------
 Center     Atomic      Atomic             Coordinates (Angstroms)
 Number     Number       Type             X           Y           Z
 ---------------------------------------------------------------------
      1         11           0       -4.039933    1.170692   -0.280716
      2         11           0        0.521439   -1.985827   -1.558777
      3         11           0       -2.410667   -1.954282    0.586895
      4         11           0        3.650611   -0.754728   -0.374812
      5         11           0        2.270657    2.499536    0.302908
      6         11           0       -0.699996    1.840917   -0.594109
      7         11           0        0.707888   -0.816308    1.918610
 ---------------------------------------------------------------------

 SCF Done:  E(UB3LYP) =  -1136.12146531     A.U. after   24 cycles

 The electronic state is 2-A.
 Alpha  occ. eigenvalues --  -38.44845 -38.44407 -38.44222 -38.44211 -38.43968
 Alpha  occ. eigenvalues --  -38.43782 -38.43734  -2.20647  -2.20195  -2.20024
 Alpha  occ. eigenvalues --   -2.20015  -2.19811  -2.19609  -2.19557  -1.14318
 Alpha  occ. eigenvalues --   -1.14289  -1.14282  -1.13855  -1.13851  -1.13832
 Alpha  occ. eigenvalues --   -1.13709  -1.13705  -1.13692  -1.13663  -1.13654
 Alpha  occ. eigenvalues --   -1.13632  -1.13488  -1.13454  -1.13417  -1.13331
 Alpha  occ. eigenvalues --   -1.13298  -1.13278  -1.13210  -1.13186  -1.13168
 Alpha  occ. eigenvalues --   -0.17562  -0.13642  -0.12047  -0.10404
 Alpha virt. eigenvalues --   -0.07220  -0.05925  -0.03790  -0.03599  -0.02985
 Alpha virt. eigenvalues --   -0.02496  -0.02097  -0.01766  -0.00828  -0.00448
 Alpha virt. eigenvalues --   -0.00098  -0.00002   0.00314   0.00484   0.00673

  Beta  occ. eigenvalues --  -38.44809 -38.44380 -38.44209 -38.44181 -38.43895
  Beta  occ. eigenvalues --  -38.43781 -38.43728  -2.20583  -2.20145  -2.20003
  Beta  occ. eigenvalues --   -2.19962  -2.19677  -2.19609  -2.19546  -1.14271
  Beta  occ. eigenvalues --   -1.14247  -1.14228  -1.13819  -1.13818  -1.13800
  Beta  occ. eigenvalues --   -1.13691  -1.13676  -1.13667  -1.13632  -1.13626
  Beta  occ. eigenvalues --   -1.13581  -1.13398  -1.13361  -1.13322  -1.13315
  Beta  occ. eigenvalues --   -1.13299  -1.13276  -1.13193  -1.13182  -1.13158
  Beta  occ. eigenvalues --   -0.17027  -0.13308  -0.11722
  Beta virt. eigenvalues --   -0.07105  -0.06769  -0.05790  -0.03516  -0.03110
  Beta virt. eigenvalues --   -0.02665  -0.02176  -0.01614  -0.01409  -0.00744
  Beta virt. eigenvalues --   -0.00146  -0.00015   0.00106   0.00451   0.00522

 Mulliken charges and spin densities:
               1          2
     1  Na   0.342488  -0.003504
     2  Na   0.059060   0.172641
     3  Na  -0.038216   0.227332
     4  Na   0.100216   0.159989
     5  Na   0.750238   0.105622
     6  Na  -1.134240   0.037848
     7  Na  -0.079546   0.300073
 Sum of Mulliken charges =  -0.00000   1.00000

 Dipole moment (field-independent basis, Debye):
    X=              0.0856    Y=             -0.3826    Z=              0.3540  Tot=              0.5282
 Quadrupole moment (field-independent basis, Debye-Ang):
   XX=            -51.6425   YY=            -73.1366   ZZ=            -72.0130
   XY=              4.0422   XZ=              1.3898   YZ=             -0.0806

 Normal termination of Gaussian 16 at Sun Dec  3 11:40:39 2023.
