 Gaussian 16, Revision B.01,
 Gaussian 16:  ES64L-G16RevB.01 20-Dec-2017

 -------------------------
 #P B3LYP/6-311+g(d) force
 -------------------------

 -----
 DPGEN
 -----
 Symbolic Z-matrix:
 Charge =  0 Multiplicity = 2

                         Standard orientation:
 ---------------------------------------------------------------------
 Center     Atomic      Atomic             Coordinates (Angstroms)
 Number     Number       Type             X           Y           Z
 ---------------------------------------------------------------------
      1         11           0        0.556875    0.108688   -1.791539
      2         11           0       -2.744892    1.407607   -0.307263
      3         11           0        1.066116   -2.490427    0.267731
      4         11           0       -2.106073   -2.049149   -0.259666
      5         11           0       -0.415495   -0.065963    1.793126
      6         11           0        3.230556    0.297994   -0.019839
      7         11           0        0.412912    2.791249    0.317451
 ---------------------------------------------------------------------

 SCF Done:  E(UB3LYP) =  -1136.13901239     A.U. after   19 cycles

 The electronic state is 2-A.
 Alpha  occ. eigenvalues --  -38.44044 -38.43806 -38.43446 -38.43430 -38.43318
 Alpha  occ. eigenvalues --  -38.43226 -38.43179  -2.19876  -2.19643  -2.19326
 Alpha  occ. eigenvalues --   -2.19292  -2.19269  -2.19157  -2.19142  -1.13569
 Alpha  occ. eigenvalues --   -1.13528  -1.13515  -1.13315  -1.13307  -1.13289
 Alpha  occ. eigenvalues --   -1.13034  -1.13004  -1.12992  -1.12978  -1.12973
 Alpha  occ. eigenvalues --   -1.12949  -1.12909  -1.12893  -1.12885  -1.12879
 Alpha  occ. eigenvalues --   -1.12807  -1.12793  -1.12772  -1.12752  -1.12740
 Alpha  occ. eigenvalues --   -0.18922  -0.13013  -0.12682  -0.10718
 Alpha virt. eigenvalues --   -0.05620  -0.05011  -0.04690  -0.03185  -0.03014
 Alpha virt. eigenvalues --   -0.02385  -0.01531  -0.01036  -0.00291  -0.00158
 Alpha virt. eigenvalues --    0.00004   0.00361   0.00835   0.00894   0.00924

  Beta  occ. eigenvalues --  -38.44043 -38.43799 -38.43439 -38.43420 -38.43248
  Beta  occ. eigenvalues --  -38.43215 -38.43100  -2.19876  -2.19634  -2.19317
  Beta  occ. eigenvalues --   -2.19277  -2.19141  -2.19126  -2.19012  -1.13560
  Beta  occ. eigenvalues --   -1.13523  -1.13513  -1.13309  -1.13290  -1.13276
  Beta  occ. eigenvalues --   -1.13023  -1.12985  -1.12980  -1.12948  -1.12935
  Beta  occ. eigenvalues --   -1.12901  -1.12883  -1.12830  -1.12813  -1.12791
  Beta  occ. eigenvalues --   -1.12759  -1.12738  -1.12719  -1.12671  -1.12654
  Beta  occ. eigenvalues --   -0.18191  -0.12782  -0.12420
  Beta virt. eigenvalues --   -0.06824  -0.05556  -0.05007  -0.04650  -0.02433
  Beta virt. eigenvalues --   -0.02205  -0.01467  -0.01340  -0.00973  -0.00316
  Beta virt. eigenvalues --   -0.00196   0.00133   0.00388   0.00883   0.00890

 Mulliken charges and spin densities:
               1          2
     1  Na  -0.443397   0.707374
     2  Na   0.025003  -0.022042
     3  Na   0.278453  -0.046160
     4  Na   0.054043  -0.007934
     5  Na  -0.229278   0.576431
     6  Na   0.224163  -0.097587
     7  Na   0.091013  -0.110081
 Sum of Mulliken charges =  -0.00000   1.00000

 Dipole moment (field-independent basis, Debye):
    X=              0.1150    Y=              0.1819    Z=             -0.0557  Tot=              0.2223
 Quadrupole moment (field-independent basis, Debye-Ang):
   XX=            -55.9100   YY=            -63.2863   ZZ=            -74.0853
   XY=              0.2211   XZ=              2.2487   YZ=              0.3446

 Normal termination of Gaussian 16 at Fri Dec  8 06:39:18 2023.
