 Gaussian 16, Revision B.01,
 Gaussian 16:  ES64L-G16RevB.01 20-Dec-2017

 -------------------------
 #P B3LYP/6-311+g(d) force
 -------------------------

 -----
 DPGEN
 -----
 Symbolic Z-matrix:
 Charge =  0 Multiplicity = 2

                         Standard orientation:
 ---------------------------------------------------------------------
 Center     Atomic      Atomic             Coordinates (Angstroms)
 Number     Number       Type             X           Y           Z
 ---------------------------------------------------------------------
      1         11           0       -3.118692   -0.246298   -0.585309
      2         11           0       -0.788529   -2.587508    0.200746
      3         11           0        2.626527   -1.742620   -0.263181
      4         11           0        2.427954    1.905386    0.070071
      5         11           0       -0.342512   -0.043785    2.158345
      6         11           0       -1.079682    2.671605   -0.020563
      7         11           0        0.274933    0.043220   -1.560108
 ---------------------------------------------------------------------

 SCF Done:  E(UB3LYP) =  -1136.13882572     A.U. after   19 cycles

 The electronic state is 2-A.
 Alpha  occ. eigenvalues --  -38.43857 -38.43818 -38.43766 -38.43697 -38.43365
 Alpha  occ. eigenvalues --  -38.43163 -38.43117  -2.19694  -2.19656  -2.19646
 Alpha  occ. eigenvalues --   -2.19532  -2.19218  -2.19125  -2.19063  -1.13367
 Alpha  occ. eigenvalues --   -1.13348  -1.13342  -1.13340  -1.13323  -1.13313
 Alpha  occ. eigenvalues --   -1.13285  -1.13276  -1.13267  -1.13232  -1.13185
 Alpha  occ. eigenvalues --   -1.13163  -1.12921  -1.12889  -1.12840  -1.12823
 Alpha  occ. eigenvalues --   -1.12776  -1.12746  -1.12743  -1.12707  -1.12676
 Alpha  occ. eigenvalues --   -0.18725  -0.12924  -0.12522  -0.10927
 Alpha virt. eigenvalues --   -0.05411  -0.05252  -0.04576  -0.03166  -0.02975
 Alpha virt. eigenvalues --   -0.02678  -0.01492  -0.01114  -0.00273  -0.00228
 Alpha virt. eigenvalues --   -0.00007   0.00347   0.00803   0.00882   0.00925

  Beta  occ. eigenvalues --  -38.43842 -38.43816 -38.43694 -38.43662 -38.43360
  Beta  occ. eigenvalues --  -38.43153 -38.43064  -2.19669  -2.19647  -2.19529
  Beta  occ. eigenvalues --   -2.19464  -2.19213  -2.19050  -2.19029  -1.13344
  Beta  occ. eigenvalues --   -1.13337  -1.13325  -1.13317  -1.13303  -1.13276
  Beta  occ. eigenvalues --   -1.13223  -1.13198  -1.13175  -1.13163  -1.13147
  Beta  occ. eigenvalues --   -1.13137  -1.12912  -1.12866  -1.12835  -1.12781
  Beta  occ. eigenvalues --   -1.12722  -1.12703  -1.12678  -1.12668  -1.12660
  Beta  occ. eigenvalues --   -0.18003  -0.12679  -0.12285
  Beta virt. eigenvalues --   -0.06982  -0.05375  -0.05217  -0.04530  -0.02429
  Beta virt. eigenvalues --   -0.02181  -0.01624  -0.01368  -0.01062  -0.00316
  Beta virt. eigenvalues --   -0.00235   0.00126   0.00381   0.00863   0.00893

 Mulliken charges and spin densities:
               1          2
     1  Na   0.110691   0.035494
     2  Na   0.349744   0.078429
     3  Na   0.156762  -0.055113
     4  Na   0.079178  -0.043392
     5  Na  -0.503612   0.654939
     6  Na   0.133986  -0.007504
     7  Na  -0.326750   0.337146
 Sum of Mulliken charges =  -0.00000   1.00000

 Dipole moment (field-independent basis, Debye):
    X=              0.1085    Y=              0.1287    Z=              0.1638  Tot=              0.2348
 Quadrupole moment (field-independent basis, Debye-Ang):
   XX=            -56.6973   YY=            -63.4456   ZZ=            -73.3843
   XY=             -0.1432   XZ=              1.6044   YZ=              0.4520

 Normal termination of Gaussian 16 at Thu Dec  7 02:20:23 2023.
