 Gaussian 16, Revision B.01,
 Gaussian 16:  ES64L-G16RevB.01 20-Dec-2017

 -------------------------
 #P B3LYP/6-311+g(d) force
 -------------------------

 -----
 DPGEN
 -----
 Symbolic Z-matrix:
 Charge =  0 Multiplicity = 2

                         Standard orientation:
 ---------------------------------------------------------------------
 Center     Atomic      Atomic             Coordinates (Angstroms)
 Number     Number       Type             X           Y           Z
 ---------------------------------------------------------------------
      1         11           0        3.236862   -0.267561    0.259291
      2         11           0        0.106624    0.055596    1.983529
      3         11           0        1.698230    2.808363   -0.667749
      4         11           0       -2.404981    2.232719    0.199084
      5         11           0       -3.155522   -1.242459   -0.004842
      6         11           0       -0.396303   -0.626844   -1.651529
      7         11           0        0.915089   -2.959815   -0.117784
 ---------------------------------------------------------------------

 SCF Done:  E(UB3LYP) =  -1136.13024935     A.U. after   20 cycles

 The electronic state is 2-A.
 Alpha  occ. eigenvalues --  -38.44603 -38.44325 -38.44299 -38.43740 -38.43604
 Alpha  occ. eigenvalues --  -38.43570 -38.43452  -2.20405  -2.20130  -2.20073
 Alpha  occ. eigenvalues --   -2.19591  -2.19414  -2.19377  -2.19369  -1.14095
 Alpha  occ. eigenvalues --   -1.14062  -1.14037  -1.13810  -1.13790  -1.13769
 Alpha  occ. eigenvalues --   -1.13751  -1.13733  -1.13711  -1.13267  -1.13223
 Alpha  occ. eigenvalues --   -1.13206  -1.13189  -1.13069  -1.13046  -1.13041
 Alpha  occ. eigenvalues --   -1.13029  -1.13026  -1.13020  -1.12990  -1.12962
 Alpha  occ. eigenvalues --   -0.17905  -0.13146  -0.12111  -0.10380
 Alpha virt. eigenvalues --   -0.06000  -0.05692  -0.04802  -0.03250  -0.02861
 Alpha virt. eigenvalues --   -0.02279  -0.01803  -0.01339  -0.00774  -0.00644
 Alpha virt. eigenvalues --   -0.00032   0.00335   0.00688   0.00749   0.00815

  Beta  occ. eigenvalues --  -38.44601 -38.44322 -38.44297 -38.43654 -38.43583
  Beta  occ. eigenvalues --  -38.43566 -38.43395  -2.20405  -2.20127  -2.20072
  Beta  occ. eigenvalues --   -2.19432  -2.19410  -2.19338  -2.19264  -1.14086
  Beta  occ. eigenvalues --   -1.14058  -1.14034  -1.13796  -1.13787  -1.13763
  Beta  occ. eigenvalues --   -1.13735  -1.13733  -1.13712  -1.13172  -1.13153
  Beta  occ. eigenvalues --   -1.13115  -1.13088  -1.13054  -1.13029  -1.13011
  Beta  occ. eigenvalues --   -1.13002  -1.12995  -1.12959  -1.12917  -1.12900
  Beta  occ. eigenvalues --   -0.17237  -0.12944  -0.11836
  Beta virt. eigenvalues --   -0.06668  -0.05965  -0.05590  -0.04636  -0.02546
  Beta virt. eigenvalues --   -0.02177  -0.01716  -0.01357  -0.01264  -0.00809
  Beta virt. eigenvalues --   -0.00628   0.00126   0.00375   0.00744   0.00783

 Mulliken charges and spin densities:
               1          2
     1  Na   0.103832   0.038471
     2  Na  -0.112740   0.589614
     3  Na  -0.217191   0.068880
     4  Na  -0.089169  -0.007553
     5  Na   0.073965  -0.135651
     6  Na   0.188662   0.593277
     7  Na   0.052642  -0.147037
 Sum of Mulliken charges =  -0.00000   1.00000

 Dipole moment (field-independent basis, Debye):
    X=             -0.4753    Y=             -0.2770    Z=              0.2053  Tot=              0.5872
 Quadrupole moment (field-independent basis, Debye-Ang):
   XX=            -54.4633   YY=            -62.9299   ZZ=            -76.1536
   XY=             -1.1886   XZ=             -0.6001   YZ=             -1.6427

 Normal termination of Gaussian 16 at Thu Dec  7 01:52:27 2023.
