 Gaussian 16, Revision B.01,
 Gaussian 16:  ES64L-G16RevB.01 20-Dec-2017

 -------------------------
 #P B3LYP/6-311+g(d) force
 -------------------------

 -----
 DPGEN
 -----
 Symbolic Z-matrix:
 Charge =  0 Multiplicity = 2

                         Standard orientation:
 ---------------------------------------------------------------------
 Center     Atomic      Atomic             Coordinates (Angstroms)
 Number     Number       Type             X           Y           Z
 ---------------------------------------------------------------------
      1         11           0        1.004877   -0.956216    1.601087
      2         11           0       -2.059146    0.253785    2.484659
      3         11           0       -3.547656    0.750093   -1.131576
      4         11           0       -0.973577   -1.935717   -0.686036
      5         11           0        2.513035   -1.886596   -1.023938
      6         11           0       -0.020492    1.493837   -1.686518
      7         11           0        3.082959    2.280814    0.442323
 ---------------------------------------------------------------------

 SCF Done:  E(UB3LYP) =  -1136.12184475     A.U. after   23 cycles

 The electronic state is 2-A.
 Alpha  occ. eigenvalues --  -38.44761 -38.44606 -38.44164 -38.44002 -38.43779
 Alpha  occ. eigenvalues --  -38.43690 -38.43414  -2.20563  -2.20435  -2.19943
 Alpha  occ. eigenvalues --   -2.19879  -2.19539  -2.19462  -2.19326  -1.14232
 Alpha  occ. eigenvalues --   -1.14199  -1.14171  -1.14119  -1.14096  -1.14044
 Alpha  occ. eigenvalues --   -1.13619  -1.13599  -1.13594  -1.13581  -1.13547
 Alpha  occ. eigenvalues --   -1.13472  -1.13208  -1.13192  -1.13165  -1.13163
 Alpha  occ. eigenvalues --   -1.13156  -1.13061  -1.13023  -1.12991  -1.12941
 Alpha  occ. eigenvalues --   -0.17714  -0.13117  -0.11859  -0.11338
 Alpha virt. eigenvalues --   -0.05984  -0.05418  -0.04914  -0.03363  -0.02870
 Alpha virt. eigenvalues --   -0.02698  -0.01929  -0.01236  -0.00955  -0.00026
 Alpha virt. eigenvalues --    0.00091   0.00205   0.00314   0.00399   0.00522

  Beta  occ. eigenvalues --  -38.44683 -38.44579 -38.44156 -38.43973 -38.43743
  Beta  occ. eigenvalues --  -38.43692 -38.43393  -2.20420  -2.20385  -2.19929
  Beta  occ. eigenvalues --   -2.19828  -2.19470  -2.19466  -2.19291  -1.14128
  Beta  occ. eigenvalues --   -1.14103  -1.14090  -1.14073  -1.14054  -1.14005
  Beta  occ. eigenvalues --   -1.13607  -1.13581  -1.13575  -1.13569  -1.13499
  Beta  occ. eigenvalues --   -1.13430  -1.13168  -1.13157  -1.13154  -1.13145
  Beta  occ. eigenvalues --   -1.13119  -1.13056  -1.13005  -1.12930  -1.12920
  Beta  occ. eigenvalues --   -0.17055  -0.12826  -0.11046
  Beta virt. eigenvalues --   -0.08077  -0.05887  -0.04941  -0.04472  -0.03111
  Beta virt. eigenvalues --   -0.02455  -0.02133  -0.01798  -0.00857  -0.00700
  Beta virt. eigenvalues --    0.00123   0.00208   0.00284   0.00353   0.00538

 Mulliken charges and spin densities:
               1          2
     1  Na  -0.024728   0.344682
     2  Na  -0.047245   0.197446
     3  Na   0.372331  -0.020094
     4  Na  -0.228571   0.288150
     5  Na   0.532388   0.141079
     6  Na  -0.621720  -0.022325
     7  Na   0.017544   0.071062
 Sum of Mulliken charges =  -0.00000   1.00000

 Dipole moment (field-independent basis, Debye):
    X=             -0.4548    Y=             -0.5490    Z=              0.0006  Tot=              0.7129
 Quadrupole moment (field-independent basis, Debye-Ang):
   XX=            -54.9168   YY=            -73.3020   ZZ=            -67.6132
   XY=             -3.5696   XZ=             -1.0770   YZ=              6.7156

 Normal termination of Gaussian 16 at Wed Nov 29 02:05:00 2023.
