 Gaussian 16, Revision B.01,
 Gaussian 16:  ES64L-G16RevB.01 20-Dec-2017

 -------------------------
 #P B3LYP/6-311+g(d) force
 -------------------------

 -----
 DPGEN
 -----
 Symbolic Z-matrix:
 Charge =  0 Multiplicity = 2

                         Standard orientation:
 ---------------------------------------------------------------------
 Center     Atomic      Atomic             Coordinates (Angstroms)
 Number     Number       Type             X           Y           Z
 ---------------------------------------------------------------------
      1         11           0        2.871890   -1.557428   -1.403993
      2         11           0       -0.330814    0.742740   -0.331259
      3         11           0        0.228532   -2.440264    0.132600
      4         11           0        2.558688    2.466871   -0.373677
      5         11           0        2.422775    0.245909    2.001023
      6         11           0       -3.737805    1.975929   -0.358585
      7         11           0       -4.013267   -1.433757    0.333892
 ---------------------------------------------------------------------

 SCF Done:  E(UB3LYP) =  -1136.11283556     A.U. after   27 cycles

 The electronic state is 2-A.
 Alpha  occ. eigenvalues --  -38.45662 -38.44719 -38.44623 -38.44167 -38.43999
 Alpha  occ. eigenvalues --  -38.43746 -38.42929  -2.21405  -2.20498  -2.20485
 Alpha  occ. eigenvalues --   -2.20024  -2.19841  -2.19567  -2.18781  -1.15086
 Alpha  occ. eigenvalues --   -1.15054  -1.15037  -1.14202  -1.14177  -1.14164
 Alpha  occ. eigenvalues --   -1.14159  -1.14128  -1.14091  -1.13697  -1.13665
 Alpha  occ. eigenvalues --   -1.13638  -1.13502  -1.13486  -1.13462  -1.13243
 Alpha  occ. eigenvalues --   -1.13222  -1.13219  -1.12494  -1.12437  -1.12410
 Alpha  occ. eigenvalues --   -0.17493  -0.14059  -0.11697  -0.09901
 Alpha virt. eigenvalues --   -0.07133  -0.06803  -0.03921  -0.03173  -0.03005
 Alpha virt. eigenvalues --   -0.02492  -0.02149  -0.01618  -0.01348  -0.00779
 Alpha virt. eigenvalues --   -0.00250   0.00047   0.00325   0.00355   0.00444

  Beta  occ. eigenvalues --  -38.45650 -38.44703 -38.44611 -38.44095 -38.43935
  Beta  occ. eigenvalues --  -38.43757 -38.42930  -2.21381  -2.20469  -2.20465
  Beta  occ. eigenvalues --   -2.19890  -2.19721  -2.19592  -2.18786  -1.15070
  Beta  occ. eigenvalues --   -1.15034  -1.15021  -1.14167  -1.14156  -1.14144
  Beta  occ. eigenvalues --   -1.14139  -1.14110  -1.14081  -1.13599  -1.13578
  Beta  occ. eigenvalues --   -1.13548  -1.13416  -1.13405  -1.13379  -1.13259
  Beta  occ. eigenvalues --   -1.13239  -1.13214  -1.12502  -1.12426  -1.12398
  Beta  occ. eigenvalues --   -0.17006  -0.13836  -0.11435
  Beta virt. eigenvalues --   -0.06908  -0.06636  -0.06054  -0.03861  -0.02955
  Beta virt. eigenvalues --   -0.02716  -0.02165  -0.01738  -0.01241  -0.00959
  Beta virt. eigenvalues --   -0.00286  -0.00235   0.00129   0.00444   0.00483

 Mulliken charges and spin densities:
               1          2
     1  Na   0.370643   0.222017
     2  Na  -2.010079   0.441143
     3  Na   0.429057   0.117521
     4  Na   0.742764  -0.023221
     5  Na   0.193880   0.191287
     6  Na   0.046938  -0.014778
     7  Na   0.226796   0.066031
 Sum of Mulliken charges =  -0.00000   1.00000

 Dipole moment (field-independent basis, Debye):
    X=             -1.2069    Y=              0.1096    Z=              0.1656  Tot=              1.2231
 Quadrupole moment (field-independent basis, Debye-Ang):
   XX=            -48.2375   YY=            -69.8533   ZZ=            -75.3376
   XY=              2.1362   XZ=             -1.1165   YZ=             -3.4841

 Normal termination of Gaussian 16 at Tue Dec  5 23:49:14 2023.
