 Gaussian 16, Revision B.01,
 Gaussian 16:  ES64L-G16RevB.01 20-Dec-2017

 -------------------------
 #P B3LYP/6-311+g(d) force
 -------------------------

 -----
 DPGEN
 -----
 Symbolic Z-matrix:
 Charge =  0 Multiplicity = 2

                         Standard orientation:
 ---------------------------------------------------------------------
 Center     Atomic      Atomic             Coordinates (Angstroms)
 Number     Number       Type             X           Y           Z
 ---------------------------------------------------------------------
      1         11           0        1.219308   -2.753782   -0.151151
      2         11           0       -0.202028   -0.000379    2.081523
      3         11           0       -1.984265   -1.961073   -0.294257
      4         11           0        2.941509    0.063258    0.119351
      5         11           0        1.067199    2.989078   -0.096067
      6         11           0       -3.208565    1.240476   -0.014591
      7         11           0        0.166842    0.422422   -1.644808
 ---------------------------------------------------------------------

 SCF Done:  E(UB3LYP) =  -1136.13630725     A.U. after   19 cycles

 The electronic state is 2-A.
 Alpha  occ. eigenvalues --  -38.44303 -38.43929 -38.43765 -38.43691 -38.43532
 Alpha  occ. eigenvalues --  -38.43258 -38.43125  -2.20083  -2.19802  -2.19600
 Alpha  occ. eigenvalues --   -2.19558  -2.19408  -2.19219  -2.18989  -1.13753
 Alpha  occ. eigenvalues --   -1.13742  -1.13728  -1.13497  -1.13466  -1.13438
 Alpha  occ. eigenvalues --   -1.13314  -1.13250  -1.13228  -1.13227  -1.13190
 Alpha  occ. eigenvalues --   -1.13171  -1.13097  -1.13074  -1.13038  -1.12897
 Alpha  occ. eigenvalues --   -1.12850  -1.12838  -1.12652  -1.12647  -1.12638
 Alpha  occ. eigenvalues --   -0.18551  -0.13065  -0.12394  -0.10687
 Alpha virt. eigenvalues --   -0.05905  -0.05081  -0.04718  -0.03231  -0.02822
 Alpha virt. eigenvalues --   -0.02575  -0.01626  -0.01210  -0.00499  -0.00247
 Alpha virt. eigenvalues --   -0.00020   0.00348   0.00800   0.00838   0.00869

  Beta  occ. eigenvalues --  -38.44305 -38.43922 -38.43762 -38.43594 -38.43522
  Beta  occ. eigenvalues --  -38.43197 -38.43121  -2.20088  -2.19793  -2.19597
  Beta  occ. eigenvalues --   -2.19394  -2.19379  -2.19107  -2.18985  -1.13750
  Beta  occ. eigenvalues --   -1.13740  -1.13733  -1.13491  -1.13440  -1.13431
  Beta  occ. eigenvalues --   -1.13303  -1.13233  -1.13228  -1.13118  -1.13085
  Beta  occ. eigenvalues --   -1.13063  -1.13044  -1.13041  -1.13024  -1.12820
  Beta  occ. eigenvalues --   -1.12769  -1.12759  -1.12653  -1.12645  -1.12613
  Beta  occ. eigenvalues --   -0.17814  -0.12854  -0.12180
  Beta virt. eigenvalues --   -0.06763  -0.05889  -0.04983  -0.04726  -0.02437
  Beta virt. eigenvalues --   -0.02093  -0.01600  -0.01457  -0.01124  -0.00548
  Beta virt. eigenvalues --   -0.00286   0.00131   0.00376   0.00805   0.00862

 Mulliken charges and spin densities:
               1          2
     1  Na   0.000117   0.000134
     2  Na  -0.502395   0.706954
     3  Na   0.176023   0.040602
     4  Na   0.273481   0.075150
     5  Na   0.179448  -0.107136
     6  Na   0.073814  -0.101543
     7  Na  -0.200488   0.385838
 Sum of Mulliken charges =  -0.00000   1.00000

 Dipole moment (field-independent basis, Debye):
    X=             -0.1906    Y=              0.4588    Z=              0.1518  Tot=              0.5195
 Quadrupole moment (field-independent basis, Debye-Ang):
   XX=            -57.4103   YY=            -61.3240   ZZ=            -74.8029
   XY=             -1.1885   XZ=              0.7882   YZ=              0.9943

 Normal termination of Gaussian 16 at Thu Dec  7 22:47:36 2023.
