 Gaussian 16, Revision B.01,
 Gaussian 16:  ES64L-G16RevB.01 20-Dec-2017

 -------------------------
 #P B3LYP/6-311+g(d) force
 -------------------------

 -----
 DPGEN
 -----
 Symbolic Z-matrix:
 Charge =  0 Multiplicity = 2

                         Standard orientation:
 ---------------------------------------------------------------------
 Center     Atomic      Atomic             Coordinates (Angstroms)
 Number     Number       Type             X           Y           Z
 ---------------------------------------------------------------------
      1         11           0       -0.008368   -0.306110    1.973210
      2         11           0        1.362634   -0.999727   -1.620422
      3         11           0       -1.981134   -2.078050   -0.529357
      4         11           0       -3.955944    0.480849    0.574181
      5         11           0        3.685150   -0.731014    0.676961
      6         11           0       -1.193069    1.753734   -0.974236
      7         11           0        2.090731    1.880318   -0.100338
 ---------------------------------------------------------------------

 SCF Done:  E(UB3LYP) =  -1136.11878503     A.U. after   27 cycles

 The electronic state is 2-A.
 Alpha  occ. eigenvalues --  -38.45655 -38.45602 -38.45012 -38.43607 -38.43292
 Alpha  occ. eigenvalues --  -38.43130 -38.42511  -2.21448  -2.21394  -2.20862
 Alpha  occ. eigenvalues --   -2.19508  -2.19117  -2.19039  -2.18372  -1.15142
 Alpha  occ. eigenvalues --   -1.15096  -1.15068  -1.15062  -1.15043  -1.15026
 Alpha  occ. eigenvalues --   -1.14538  -1.14520  -1.14488  -1.13181  -1.13161
 Alpha  occ. eigenvalues --   -1.13129  -1.12794  -1.12784  -1.12758  -1.12716
 Alpha  occ. eigenvalues --   -1.12703  -1.12686  -1.12062  -1.12035  -1.12006
 Alpha  occ. eigenvalues --   -0.18403  -0.14407  -0.11020  -0.10744
 Alpha virt. eigenvalues --   -0.07626  -0.05191  -0.04635  -0.03191  -0.03034
 Alpha virt. eigenvalues --   -0.02305  -0.02279  -0.01138  -0.01069  -0.00306
 Alpha virt. eigenvalues --   -0.00024   0.00192   0.00213   0.00669   0.00723

  Beta  occ. eigenvalues --  -38.45612 -38.45592 -38.44988 -38.43539 -38.43282
  Beta  occ. eigenvalues --  -38.43118 -38.42493  -2.21375  -2.21367  -2.20819
  Beta  occ. eigenvalues --   -2.19384  -2.19102  -2.19024  -2.18343  -1.15083
  Beta  occ. eigenvalues --   -1.15052  -1.15042  -1.15033  -1.15013  -1.14998
  Beta  occ. eigenvalues --   -1.14515  -1.14480  -1.14454  -1.13098  -1.13068
  Beta  occ. eigenvalues --   -1.13036  -1.12787  -1.12771  -1.12732  -1.12707
  Beta  occ. eigenvalues --   -1.12690  -1.12646  -1.12045  -1.11999  -1.11980
  Beta  occ. eigenvalues --   -0.17688  -0.14217  -0.10487
  Beta virt. eigenvalues --   -0.07436  -0.07185  -0.05178  -0.04036  -0.02937
  Beta virt. eigenvalues --   -0.02765  -0.01727  -0.01569  -0.01048  -0.00708
  Beta virt. eigenvalues --   -0.00272   0.00030   0.00198   0.00378   0.00734

 Mulliken charges and spin densities:
               1          2
     1  Na  -0.414388   0.213999
     2  Na  -0.251419   0.227972
     3  Na  -0.105914   0.069446
     4  Na   0.599940   0.083523
     5  Na   0.674005   0.227613
     6  Na  -0.520426   0.025241
     7  Na   0.018201   0.152204
 Sum of Mulliken charges =  -0.00000   1.00000

 Dipole moment (field-independent basis, Debye):
    X=             -0.3004    Y=             -0.1578    Z=              0.8197  Tot=              0.8872
 Quadrupole moment (field-independent basis, Debye-Ang):
   XX=            -43.3852   YY=            -80.3619   ZZ=            -69.8054
   XY=             -1.2691   XZ=             -0.7686   YZ=              1.2768

 Normal termination of Gaussian 16 at Thu Dec  7 11:39:26 2023.
