 Gaussian 16, Revision B.01,
 Gaussian 16:  ES64L-G16RevB.01 20-Dec-2017

 -------------------------
 #P B3LYP/6-311+g(d) force
 -------------------------

 -----
 DPGEN
 -----
 Symbolic Z-matrix:
 Charge =  0 Multiplicity = 2

                         Standard orientation:
 ---------------------------------------------------------------------
 Center     Atomic      Atomic             Coordinates (Angstroms)
 Number     Number       Type             X           Y           Z
 ---------------------------------------------------------------------
      1         11           0       -0.080417   -1.889933   -0.821707
      2         11           0       -3.257057   -2.794291    0.365714
      3         11           0       -2.991674    0.468314    1.240140
      4         11           0       -2.636518    3.142688   -0.778852
      5         11           0        0.413621    1.356941   -0.018197
      6         11           0        3.232333   -0.661927   -1.303359
      7         11           0        5.319714    0.378208    1.316260
 ---------------------------------------------------------------------

 SCF Done:  E(UB3LYP) =  -1136.12363644     A.U. after   20 cycles

 The electronic state is 2-A.
 Alpha  occ. eigenvalues --  -38.44776 -38.44593 -38.44261 -38.44140 -38.43861
 Alpha  occ. eigenvalues --  -38.43825 -38.43092  -2.20573  -2.20414  -2.20097
 Alpha  occ. eigenvalues --   -2.19944  -2.19662  -2.19656  -2.18905  -1.14209
 Alpha  occ. eigenvalues --   -1.14207  -1.14181  -1.14128  -1.14116  -1.13980
 Alpha  occ. eigenvalues --   -1.13803  -1.13765  -1.13701  -1.13631  -1.13607
 Alpha  occ. eigenvalues --   -1.13594  -1.13361  -1.13346  -1.13326  -1.13321
 Alpha  occ. eigenvalues --   -1.13279  -1.13248  -1.12568  -1.12564  -1.12539
 Alpha  occ. eigenvalues --   -0.16811  -0.14103  -0.11969  -0.11263
 Alpha virt. eigenvalues --   -0.06017  -0.05537  -0.04782  -0.03619  -0.02809
 Alpha virt. eigenvalues --   -0.02447  -0.01975  -0.01865  -0.00804  -0.00462
 Alpha virt. eigenvalues --   -0.00200  -0.00144   0.00038   0.00261   0.00606

  Beta  occ. eigenvalues --  -38.44658 -38.44570 -38.44237 -38.44141 -38.43860
  Beta  occ. eigenvalues --  -38.43792 -38.43074  -2.20374  -2.20352  -2.20054
  Beta  occ. eigenvalues --   -2.19953  -2.19653  -2.19603  -2.18873  -1.14103
  Beta  occ. eigenvalues --   -1.14080  -1.14058  -1.14056  -1.14036  -1.13953
  Beta  occ. eigenvalues --   -1.13772  -1.13739  -1.13662  -1.13645  -1.13621
  Beta  occ. eigenvalues --   -1.13544  -1.13323  -1.13321  -1.13318  -1.13309
  Beta  occ. eigenvalues --   -1.13278  -1.13195  -1.12544  -1.12537  -1.12523
  Beta  occ. eigenvalues --   -0.16307  -0.13291  -0.11850
  Beta virt. eigenvalues --   -0.07620  -0.05918  -0.05145  -0.04394  -0.03415
  Beta virt. eigenvalues --   -0.02558  -0.02036  -0.01689  -0.01497  -0.00482
  Beta virt. eigenvalues --   -0.00284  -0.00112   0.00116   0.00220   0.00414

 Mulliken charges and spin densities:
               1          2
     1  Na  -0.569983  -0.001898
     2  Na   0.818282   0.296013
     3  Na  -0.333173   0.132017
     4  Na   0.715125   0.018851
     5  Na  -0.808301   0.025633
     6  Na   0.065581  -0.100165
     7  Na   0.112468   0.629549
 Sum of Mulliken charges =  -0.00000   1.00000

 Dipole moment (field-independent basis, Debye):
    X=             -0.0672    Y=              0.5587    Z=             -0.2904  Tot=              0.6332
 Quadrupole moment (field-independent basis, Debye-Ang):
   XX=            -65.2681   YY=            -68.7428   ZZ=            -65.7702
   XY=             -2.4544   XZ=              0.5143   YZ=              0.6267

 Normal termination of Gaussian 16 at Tue Nov 28 19:16:07 2023.
