 Gaussian 16, Revision B.01,
 Gaussian 16:  ES64L-G16RevB.01 20-Dec-2017

 -------------------------
 #P B3LYP/6-311+g(d) force
 -------------------------

 -----
 DPGEN
 -----
 Symbolic Z-matrix:
 Charge =  0 Multiplicity = 2

                         Standard orientation:
 ---------------------------------------------------------------------
 Center     Atomic      Atomic             Coordinates (Angstroms)
 Number     Number       Type             X           Y           Z
 ---------------------------------------------------------------------
      1         11           0       -1.538213   -2.531355   -0.102602
      2         11           0        2.787763    1.384630    0.039607
      3         11           0        0.232233   -0.208622   -1.392523
      4         11           0       -0.202077    2.896985   -0.205124
      5         11           0       -3.327017    0.491581   -0.436685
      6         11           0        2.639865   -2.069415   -0.060752
      7         11           0       -0.592555    0.036195    2.158079
 ---------------------------------------------------------------------

 SCF Done:  E(UB3LYP) =  -1136.13443482     A.U. after   19 cycles

 The electronic state is 2-A.
 Alpha  occ. eigenvalues --  -38.44599 -38.43971 -38.43926 -38.43795 -38.43477
 Alpha  occ. eigenvalues --  -38.43128 -38.43076  -2.20393  -2.19819  -2.19732
 Alpha  occ. eigenvalues --   -2.19640  -2.19340  -2.19073  -2.18974  -1.14064
 Alpha  occ. eigenvalues --   -1.14040  -1.14037  -1.13509  -1.13484  -1.13464
 Alpha  occ. eigenvalues --   -1.13409  -1.13385  -1.13366  -1.13351  -1.13306
 Alpha  occ. eigenvalues --   -1.13254  -1.13001  -1.12962  -1.12956  -1.12770
 Alpha  occ. eigenvalues --   -1.12744  -1.12695  -1.12637  -1.12633  -1.12606
 Alpha  occ. eigenvalues --   -0.18350  -0.13255  -0.12194  -0.10413
 Alpha virt. eigenvalues --   -0.06067  -0.05419  -0.04570  -0.03179  -0.02616
 Alpha virt. eigenvalues --   -0.02370  -0.01893  -0.01219  -0.00633  -0.00453
 Alpha virt. eigenvalues --   -0.00037   0.00299   0.00716   0.00792   0.00853

  Beta  occ. eigenvalues --  -38.44587 -38.43970 -38.43927 -38.43788 -38.43371
  Beta  occ. eigenvalues --  -38.43123 -38.43033  -2.20373  -2.19819  -2.19736
  Beta  occ. eigenvalues --   -2.19630  -2.19144  -2.18995  -2.18968  -1.14031
  Beta  occ. eigenvalues --   -1.14029  -1.14026  -1.13507  -1.13476  -1.13462
  Beta  occ. eigenvalues --   -1.13404  -1.13384  -1.13370  -1.13343  -1.13272
  Beta  occ. eigenvalues --   -1.13251  -1.12870  -1.12825  -1.12818  -1.12716
  Beta  occ. eigenvalues --   -1.12694  -1.12641  -1.12618  -1.12606  -1.12602
  Beta  occ. eigenvalues --   -0.17668  -0.13042  -0.11997
  Beta virt. eigenvalues --   -0.06490  -0.05989  -0.05394  -0.04544  -0.02453
  Beta virt. eigenvalues --   -0.01901  -0.01797  -0.01302  -0.01148  -0.00674
  Beta virt. eigenvalues --   -0.00478   0.00146   0.00356   0.00780   0.00815

 Mulliken charges and spin densities:
               1          2
     1  Na   0.213842   0.008541
     2  Na   0.144834  -0.002775
     3  Na  -0.260247   0.249420
     4  Na   0.076427  -0.010799
     5  Na   0.170569   0.035325
     6  Na   0.212812  -0.023970
     7  Na  -0.558237   0.744257
 Sum of Mulliken charges =  -0.00000   1.00000

 Dipole moment (field-independent basis, Debye):
    X=             -0.1797    Y=             -0.1386    Z=              0.1099  Tot=              0.2522
 Quadrupole moment (field-independent basis, Debye-Ang):
   XX=            -53.0519   YY=            -63.0241   ZZ=            -76.3254
   XY=             -0.7316   XZ=              1.9762   YZ=             -0.4666

 Normal termination of Gaussian 16 at Fri Dec  8 03:23:03 2023.
