 Gaussian 16, Revision B.01,
 Gaussian 16:  ES64L-G16RevB.01 20-Dec-2017

 -------------------------
 #P B3LYP/6-311+g(d) force
 -------------------------

 -----
 DPGEN
 -----
 Symbolic Z-matrix:
 Charge =  0 Multiplicity = 2

                         Standard orientation:
 ---------------------------------------------------------------------
 Center     Atomic      Atomic             Coordinates (Angstroms)
 Number     Number       Type             X           Y           Z
 ---------------------------------------------------------------------
      1         11           0        3.039410   -0.599947   -0.139339
      2         11           0       -2.954648   -0.815841   -0.484407
      3         11           0       -0.088823   -0.012218    1.994407
      4         11           0        0.195838   -0.294697   -1.738232
      5         11           0       -2.001324    2.092591    0.160422
      6         11           0        1.655129    2.475268   -0.134013
      7         11           0        0.154419   -2.845156    0.341162
 ---------------------------------------------------------------------

 SCF Done:  E(UB3LYP) =  -1136.13888502     A.U. after   19 cycles

 The electronic state is 2-A.
 Alpha  occ. eigenvalues --  -38.44062 -38.43897 -38.43579 -38.43396 -38.43394
 Alpha  occ. eigenvalues --  -38.43344 -38.43166  -2.19914  -2.19757  -2.19500
 Alpha  occ. eigenvalues --   -2.19360  -2.19267  -2.19186  -2.19035  -1.13607
 Alpha  occ. eigenvalues --   -1.13575  -1.13542  -1.13454  -1.13422  -1.13388
 Alpha  occ. eigenvalues --   -1.13173  -1.13144  -1.13119  -1.13042  -1.13003
 Alpha  occ. eigenvalues --   -1.12988  -1.12936  -1.12924  -1.12905  -1.12857
 Alpha  occ. eigenvalues --   -1.12850  -1.12819  -1.12716  -1.12699  -1.12653
 Alpha  occ. eigenvalues --   -0.18821  -0.13212  -0.12342  -0.10981
 Alpha virt. eigenvalues --   -0.05618  -0.04995  -0.04575  -0.03323  -0.02947
 Alpha virt. eigenvalues --   -0.02679  -0.01529  -0.00994  -0.00281  -0.00175
 Alpha virt. eigenvalues --   -0.00001   0.00370   0.00825   0.00904   0.00930

  Beta  occ. eigenvalues --  -38.44057 -38.43885 -38.43485 -38.43389 -38.43342
  Beta  occ. eigenvalues --  -38.43330 -38.43156  -2.19908  -2.19737  -2.19328
  Beta  occ. eigenvalues --   -2.19263  -2.19240  -2.19185  -2.19020  -1.13595
  Beta  occ. eigenvalues --   -1.13564  -1.13536  -1.13443  -1.13393  -1.13371
  Beta  occ. eigenvalues --   -1.13064  -1.13022  -1.13001  -1.12963  -1.12933
  Beta  occ. eigenvalues --   -1.12923  -1.12904  -1.12898  -1.12890  -1.12848
  Beta  occ. eigenvalues --   -1.12842  -1.12812  -1.12701  -1.12662  -1.12646
  Beta  occ. eigenvalues --   -0.18087  -0.12954  -0.12089
  Beta virt. eigenvalues --   -0.07063  -0.05570  -0.04989  -0.04527  -0.02544
  Beta virt. eigenvalues --   -0.02161  -0.01625  -0.01422  -0.00927  -0.00309
  Beta virt. eigenvalues --   -0.00218   0.00117   0.00396   0.00872   0.00910

 Mulliken charges and spin densities:
               1          2
     1  Na   0.222043  -0.067227
     2  Na   0.155690   0.004483
     3  Na  -0.335022   0.695241
     4  Na  -0.231865   0.538858
     5  Na   0.083617  -0.038324
     6  Na  -0.036100  -0.088681
     7  Na   0.141638  -0.044351
 Sum of Mulliken charges =  -0.00000   1.00000

 Dipole moment (field-independent basis, Debye):
    X=              0.1536    Y=             -0.1207    Z=              0.0260  Tot=              0.1971
 Quadrupole moment (field-independent basis, Debye-Ang):
   XX=            -57.0606   YY=            -64.0171   ZZ=            -73.1386
   XY=              0.1053   XZ=              0.7487   YZ=             -0.2974

 Normal termination of Gaussian 16 at Fri Dec  8 07:38:51 2023.
