 Gaussian 16, Revision B.01,
 Gaussian 16:  ES64L-G16RevB.01 20-Dec-2017

 -------------------------
 #P B3LYP/6-311+g(d) force
 -------------------------

 -----
 DPGEN
 -----
 Symbolic Z-matrix:
 Charge =  0 Multiplicity = 2

                         Standard orientation:
 ---------------------------------------------------------------------
 Center     Atomic      Atomic             Coordinates (Angstroms)
 Number     Number       Type             X           Y           Z
 ---------------------------------------------------------------------
      1         11           0       -3.295698   -1.280330    0.531746
      2         11           0        0.304216   -0.047416    2.052542
      3         11           0        3.514617   -0.266003    0.303313
      4         11           0       -1.245289    2.520776    0.601994
      5         11           0        1.300775    1.544439   -1.339939
      6         11           0        1.198994   -2.194927   -0.425522
      7         11           0       -1.777614   -0.276538   -1.724134
 ---------------------------------------------------------------------

 SCF Done:  E(UB3LYP) =  -1136.12557933     A.U. after   21 cycles

 The electronic state is 2-A.
 Alpha  occ. eigenvalues --  -38.44701 -38.44444 -38.44210 -38.43864 -38.43736
 Alpha  occ. eigenvalues --  -38.43189 -38.42932  -2.20562  -2.20262  -2.20095
 Alpha  occ. eigenvalues --   -2.19725  -2.19645  -2.19081  -2.18782  -1.14241
 Alpha  occ. eigenvalues --   -1.14223  -1.14207  -1.14035  -1.13893  -1.13889
 Alpha  occ. eigenvalues --   -1.13769  -1.13731  -1.13713  -1.13410  -1.13391
 Alpha  occ. eigenvalues --   -1.13349  -1.13315  -1.13289  -1.13243  -1.12764
 Alpha  occ. eigenvalues --   -1.12737  -1.12709  -1.12466  -1.12430  -1.12416
 Alpha  occ. eigenvalues --   -0.18513  -0.13685  -0.11495  -0.11416
 Alpha virt. eigenvalues --   -0.06502  -0.04830  -0.04420  -0.03297  -0.03006
 Alpha virt. eigenvalues --   -0.02964  -0.02064  -0.00806  -0.00582   0.00029
 Alpha virt. eigenvalues --    0.00206   0.00220   0.00449   0.00765   0.00886

  Beta  occ. eigenvalues --  -38.44700 -38.44448 -38.44121 -38.43854 -38.43693
  Beta  occ. eigenvalues --  -38.43150 -38.42922  -2.20562  -2.20270  -2.19931
  Beta  occ. eigenvalues --   -2.19709  -2.19565  -2.19012  -2.18768  -1.14242
  Beta  occ. eigenvalues --   -1.14222  -1.14194  -1.14034  -1.13896  -1.13888
  Beta  occ. eigenvalues --   -1.13660  -1.13612  -1.13595  -1.13400  -1.13352
  Beta  occ. eigenvalues --   -1.13342  -1.13254  -1.13240  -1.13188  -1.12713
  Beta  occ. eigenvalues --   -1.12684  -1.12659  -1.12447  -1.12414  -1.12401
  Beta  occ. eigenvalues --   -0.17744  -0.13533  -0.11298
  Beta virt. eigenvalues --   -0.07477  -0.06340  -0.04753  -0.03849  -0.03124
  Beta virt. eigenvalues --   -0.02292  -0.02093  -0.01876  -0.00688  -0.00331
  Beta virt. eigenvalues --    0.00087   0.00204   0.00283   0.00557   0.00836

 Mulliken charges and spin densities:
               1          2
     1  Na   0.008482  -0.095323
     2  Na  -0.180404   0.523502
     3  Na   0.650828  -0.014206
     4  Na  -0.106632   0.056986
     5  Na  -0.250945   0.233851
     6  Na  -0.361892   0.106355
     7  Na   0.240563   0.188835
 Sum of Mulliken charges =  -0.00000   1.00000

 Dipole moment (field-independent basis, Debye):
    X=              0.5328    Y=             -0.1844    Z=              0.4120  Tot=              0.6983
 Quadrupole moment (field-independent basis, Debye-Ang):
   XX=            -53.2661   YY=            -73.6875   ZZ=            -68.9177
   XY=             -0.0068   XZ=             -1.8686   YZ=             -0.3187

 Normal termination of Gaussian 16 at Wed Nov 29 16:20:10 2023.
