 Gaussian 16, Revision B.01,
 Gaussian 16:  ES64L-G16RevB.01 20-Dec-2017

 -------------------------
 #P B3LYP/6-311+g(d) force
 -------------------------

 -----
 DPGEN
 -----
 Symbolic Z-matrix:
 Charge =  0 Multiplicity = 2

                         Standard orientation:
 ---------------------------------------------------------------------
 Center     Atomic      Atomic             Coordinates (Angstroms)
 Number     Number       Type             X           Y           Z
 ---------------------------------------------------------------------
      1         11           0        0.951933   -2.908488   -0.891309
      2         11           0       -0.020631    3.021798   -0.593610
      3         11           0       -3.309871    1.150861   -1.365241
      4         11           0       -0.565838   -0.476921    2.046874
      5         11           0        2.506827    2.067245    0.936431
      6         11           0       -3.193025   -1.692895    0.643122
      7         11           0        3.630605   -1.161599   -0.776267
 ---------------------------------------------------------------------

 SCF Done:  E(UB3LYP) =  -1136.11633792     A.U. after   19 cycles

 The electronic state is 2-A.
 Alpha  occ. eigenvalues --  -38.44875 -38.44381 -38.44369 -38.44346 -38.44168
 Alpha  occ. eigenvalues --  -38.44094 -38.44009  -2.20684  -2.20191  -2.20161
 Alpha  occ. eigenvalues --   -2.20121  -2.19957  -2.19889  -2.19824  -1.14344
 Alpha  occ. eigenvalues --   -1.14329  -1.14309  -1.13866  -1.13853  -1.13841
 Alpha  occ. eigenvalues --   -1.13818  -1.13806  -1.13798  -1.13792  -1.13770
 Alpha  occ. eigenvalues --   -1.13762  -1.13677  -1.13630  -1.13613  -1.13551
 Alpha  occ. eigenvalues --   -1.13530  -1.13525  -1.13479  -1.13462  -1.13445
 Alpha  occ. eigenvalues --   -0.16593  -0.13511  -0.12598  -0.10930
 Alpha virt. eigenvalues --   -0.06614  -0.05710  -0.04601  -0.03726  -0.03332
 Alpha virt. eigenvalues --   -0.02114  -0.01920  -0.01529  -0.01000  -0.00585
 Alpha virt. eigenvalues --   -0.00473   0.00046   0.00217   0.00396   0.00547

  Beta  occ. eigenvalues --  -38.44798 -38.44376 -38.44336 -38.44292 -38.44167
  Beta  occ. eigenvalues --  -38.44072 -38.43998  -2.20541  -2.20186  -2.20105
  Beta  occ. eigenvalues --   -2.20018  -2.19958  -2.19851  -2.19804  -1.14252
  Beta  occ. eigenvalues --   -1.14235  -1.14201  -1.13856  -1.13846  -1.13818
  Beta  occ. eigenvalues --   -1.13793  -1.13783  -1.13739  -1.13720  -1.13700
  Beta  occ. eigenvalues --   -1.13682  -1.13667  -1.13629  -1.13612  -1.13525
  Beta  occ. eigenvalues --   -1.13508  -1.13494  -1.13459  -1.13448  -1.13433
  Beta  occ. eigenvalues --   -0.16031  -0.13152  -0.12152
  Beta virt. eigenvalues --   -0.07499  -0.06558  -0.05360  -0.04012  -0.03511
  Beta virt. eigenvalues --   -0.02768  -0.01898  -0.01655  -0.01320  -0.00798
  Beta virt. eigenvalues --   -0.00537  -0.00219   0.00293   0.00359   0.00474

 Mulliken charges and spin densities:
               1          2
     1  Na  -0.141534   0.131791
     2  Na  -0.034099   0.021187
     3  Na  -0.146981   0.346266
     4  Na  -0.424429   0.353948
     5  Na   0.068925   0.128181
     6  Na   0.490199   0.032529
     7  Na   0.187919  -0.013902
 Sum of Mulliken charges =  -0.00000   1.00000

 Dipole moment (field-independent basis, Debye):
    X=             -0.1300    Y=             -0.3461    Z=              0.1484  Tot=              0.3984
 Quadrupole moment (field-independent basis, Debye-Ang):
   XX=            -59.9413   YY=            -70.1650   ZZ=            -71.1812
   XY=              7.0482   XZ=              2.2239   YZ=              0.0259

 Normal termination of Gaussian 16 at Sun Dec  3 21:27:38 2023.
