 Gaussian 16, Revision B.01,
 Gaussian 16:  ES64L-G16RevB.01 20-Dec-2017

 -------------------------
 #P B3LYP/6-311+g(d) force
 -------------------------

 -----
 DPGEN
 -----
 Symbolic Z-matrix:
 Charge =  0 Multiplicity = 2

                         Standard orientation:
 ---------------------------------------------------------------------
 Center     Atomic      Atomic             Coordinates (Angstroms)
 Number     Number       Type             X           Y           Z
 ---------------------------------------------------------------------
      1         11           0        3.007364   -0.365049    0.387238
      2         11           0        2.862250    3.090744   -0.170803
      3         11           0       -3.880860    0.630598    0.459326
      4         11           0        5.338386   -2.667246   -0.295345
      5         11           0       -6.692639   -1.262818   -0.422326
      6         11           0       -0.104188    1.854140   -0.283234
      7         11           0       -0.530313   -1.280369    0.325144
 ---------------------------------------------------------------------

 SCF Done:  E(UB3LYP) =  -1136.11220551     A.U. after   23 cycles

 The electronic state is 2-A.
 Alpha  occ. eigenvalues --  -38.45846 -38.45084 -38.44544 -38.44537 -38.44024
 Alpha  occ. eigenvalues --  -38.43609 -38.43141  -2.21669  -2.20862  -2.20386
 Alpha  occ. eigenvalues --   -2.20296  -2.19892  -2.19356  -2.18985  -1.15336
 Alpha  occ. eigenvalues --   -1.15324  -1.15260  -1.14505  -1.14504  -1.14475
 Alpha  occ. eigenvalues --   -1.14033  -1.14022  -1.14019  -1.13995  -1.13980
 Alpha  occ. eigenvalues --   -1.13926  -1.13589  -1.13570  -1.13512  -1.13030
 Alpha  occ. eigenvalues --   -1.13028  -1.13012  -1.12693  -1.12676  -1.12573
 Alpha  occ. eigenvalues --   -0.16995  -0.14005  -0.11930  -0.11565
 Alpha virt. eigenvalues --   -0.06987  -0.05209  -0.04599  -0.03952  -0.03097
 Alpha virt. eigenvalues --   -0.02607  -0.01968  -0.01749  -0.01164  -0.00934
 Alpha virt. eigenvalues --   -0.00554  -0.00385  -0.00106   0.00350   0.00464

  Beta  occ. eigenvalues --  -38.45768 -38.44996 -38.44551 -38.44469 -38.44014
  Beta  occ. eigenvalues --  -38.43636 -38.43129  -2.21525  -2.20698  -2.20329
  Beta  occ. eigenvalues --   -2.20246  -2.19880  -2.19406  -2.18964  -1.15240
  Beta  occ. eigenvalues --   -1.15227  -1.15155  -1.14394  -1.14392  -1.14367
  Beta  occ. eigenvalues --   -1.14022  -1.14007  -1.13939  -1.13928  -1.13924
  Beta  occ. eigenvalues --   -1.13910  -1.13575  -1.13565  -1.13470  -1.13064
  Beta  occ. eigenvalues --   -1.13063  -1.13044  -1.12664  -1.12654  -1.12573
  Beta  occ. eigenvalues --   -0.16270  -0.13281  -0.11414
  Beta virt. eigenvalues --   -0.08527  -0.06643  -0.04770  -0.04218  -0.03679
  Beta virt. eigenvalues --   -0.02610  -0.02424  -0.01610  -0.01555  -0.01116
  Beta virt. eigenvalues --   -0.00438  -0.00345  -0.00301   0.00071   0.00433

 Mulliken charges and spin densities:
               1          2
     1  Na  -0.429858   0.043460
     2  Na   1.446553   0.189857
     3  Na  -0.243375   0.060314
     4  Na   0.157915  -0.131008
     5  Na   0.369723   0.351671
     6  Na  -1.369522   0.194931
     7  Na   0.068563   0.290775
 Sum of Mulliken charges =  -0.00000   1.00000

 Dipole moment (field-independent basis, Debye):
    X=             -1.4075    Y=              0.3130    Z=             -0.2117  Tot=              1.4574
 Quadrupole moment (field-independent basis, Debye-Ang):
   XX=            -62.0557   YY=            -63.2558   ZZ=            -73.5131
   XY=              6.7597   XZ=             -0.0360   YZ=              1.4504

 Normal termination of Gaussian 16 at Tue Nov 28 22:06:07 2023.
