 Gaussian 16, Revision B.01,
 Gaussian 16:  ES64L-G16RevB.01 20-Dec-2017

 -------------------------
 #P B3LYP/6-311+g(d) force
 -------------------------

 -----
 DPGEN
 -----
 Symbolic Z-matrix:
 Charge =  0 Multiplicity = 2

                         Standard orientation:
 ---------------------------------------------------------------------
 Center     Atomic      Atomic             Coordinates (Angstroms)
 Number     Number       Type             X           Y           Z
 ---------------------------------------------------------------------
      1         11           0       -3.157952   -0.537471   -0.740267
      2         11           0       -4.987504   -0.402390    1.778482
      3         11           0       -0.531738    1.786053   -1.796224
      4         11           0        0.298173   -2.225580   -0.882513
      5         11           0        3.283461   -2.600085   -0.028920
      6         11           0        1.246918    3.408969    0.188200
      7         11           0        3.848642    0.570504    1.481241
 ---------------------------------------------------------------------

 SCF Done:  E(UB3LYP) =  -1136.11191333     A.U. after   20 cycles

 The electronic state is 2-A.
 Alpha  occ. eigenvalues --  -38.45436 -38.44893 -38.44588 -38.44131 -38.43854
 Alpha  occ. eigenvalues --  -38.43810 -38.43766  -2.21194  -2.20710  -2.20391
 Alpha  occ. eigenvalues --   -2.19944  -2.19669  -2.19619  -2.19549  -1.14862
 Alpha  occ. eigenvalues --   -1.14831  -1.14808  -1.14361  -1.14336  -1.14336
 Alpha  occ. eigenvalues --   -1.14059  -1.14051  -1.14026  -1.13629  -1.13609
 Alpha  occ. eigenvalues --   -1.13582  -1.13354  -1.13342  -1.13326  -1.13298
 Alpha  occ. eigenvalues --   -1.13280  -1.13262  -1.13216  -1.13214  -1.13191
 Alpha  occ. eigenvalues --   -0.16091  -0.13942  -0.12351  -0.11634
 Alpha virt. eigenvalues --   -0.06665  -0.05839  -0.04131  -0.03701  -0.02799
 Alpha virt. eigenvalues --   -0.02617  -0.02134  -0.01337  -0.01113  -0.00709
 Alpha virt. eigenvalues --   -0.00607  -0.00384  -0.00215   0.00290   0.00638

  Beta  occ. eigenvalues --  -38.45364 -38.44803 -38.44541 -38.44109 -38.43860
  Beta  occ. eigenvalues --  -38.43817 -38.43779  -2.21059  -2.20542  -2.20304
  Beta  occ. eigenvalues --   -2.19901  -2.19689  -2.19634  -2.19573  -1.14771
  Beta  occ. eigenvalues --   -1.14743  -1.14714  -1.14251  -1.14222  -1.14221
  Beta  occ. eigenvalues --   -1.14002  -1.13995  -1.13963  -1.13608  -1.13581
  Beta  occ. eigenvalues --   -1.13551  -1.13367  -1.13362  -1.13302  -1.13293
  Beta  occ. eigenvalues --   -1.13290  -1.13260  -1.13233  -1.13229  -1.13199
  Beta  occ. eigenvalues --   -0.15515  -0.13156  -0.12270
  Beta virt. eigenvalues --   -0.08364  -0.05975  -0.05426  -0.03842  -0.03521
  Beta virt. eigenvalues --   -0.02495  -0.02314  -0.01902  -0.01094  -0.00914
  Beta virt. eigenvalues --   -0.00543  -0.00400  -0.00050   0.00034   0.00386

 Mulliken charges and spin densities:
               1          2
     1  Na  -0.218020  -0.123681
     2  Na   0.231714   0.400484
     3  Na  -0.235569   0.103977
     4  Na  -0.440050   0.244748
     5  Na   0.629895  -0.011921
     6  Na   0.278987  -0.034254
     7  Na  -0.246957   0.420647
 Sum of Mulliken charges =  -0.00000   1.00000

 Dipole moment (field-independent basis, Debye):
    X=              0.0853    Y=             -0.0359    Z=              0.8309  Tot=              0.8360
 Quadrupole moment (field-independent basis, Debye-Ang):
   XX=            -61.5721   YY=            -70.5682   ZZ=            -65.2564
   XY=             -1.0526   XZ=             -0.5112   YZ=              2.3532

 Normal termination of Gaussian 16 at Sun Dec  3 18:53:25 2023.
