 Gaussian 16, Revision B.01,
 Gaussian 16:  ES64L-G16RevB.01 20-Dec-2017

 -------------------------
 #P B3LYP/6-311+g(d) force
 -------------------------

 -----
 DPGEN
 -----
 Symbolic Z-matrix:
 Charge =  0 Multiplicity = 2

                         Standard orientation:
 ---------------------------------------------------------------------
 Center     Atomic      Atomic             Coordinates (Angstroms)
 Number     Number       Type             X           Y           Z
 ---------------------------------------------------------------------
      1         11           0       -2.610063   -0.284351   -0.248868
      2         11           0        0.885876    1.427563   -0.677293
      3         11           0        3.351358   -2.863227   -0.111796
      4         11           0        4.540535    1.097127    0.674497
      5         11           0        0.163714   -2.330851   -0.125413
      6         11           0       -0.691303    3.970320    0.008155
      7         11           0       -5.640116   -1.016580    0.480718
 ---------------------------------------------------------------------

 SCF Done:  E(UB3LYP) =  -1136.11072435     A.U. after   21 cycles

 The electronic state is 2-A.
 Alpha  occ. eigenvalues --  -38.45289 -38.44927 -38.44571 -38.44381 -38.44148
 Alpha  occ. eigenvalues --  -38.43784 -38.43490  -2.21060  -2.20685  -2.20354
 Alpha  occ. eigenvalues --   -2.20186  -2.19978  -2.19620  -2.19305  -1.14704
 Alpha  occ. eigenvalues --   -1.14688  -1.14667  -1.14369  -1.14361  -1.14326
 Alpha  occ. eigenvalues --   -1.14042  -1.14011  -1.13997  -1.13831  -1.13821
 Alpha  occ. eigenvalues --   -1.13814  -1.13642  -1.13638  -1.13601  -1.13306
 Alpha  occ. eigenvalues --   -1.13276  -1.13258  -1.12999  -1.12992  -1.12938
 Alpha  occ. eigenvalues --   -0.16271  -0.13518  -0.12504  -0.11410
 Alpha virt. eigenvalues --   -0.07178  -0.04999  -0.04598  -0.03756  -0.02484
 Alpha virt. eigenvalues --   -0.02264  -0.02153  -0.01989  -0.01581  -0.00696
 Alpha virt. eigenvalues --   -0.00563  -0.00190   0.00219   0.00299   0.00481

  Beta  occ. eigenvalues --  -38.45171 -38.44941 -38.44576 -38.44306 -38.44109
  Beta  occ. eigenvalues --  -38.43779 -38.43500  -2.20840  -2.20714  -2.20363
  Beta  occ. eigenvalues --   -2.20045  -2.19905  -2.19613  -2.19330  -1.14555
  Beta  occ. eigenvalues --   -1.14538  -1.14519  -1.14387  -1.14376  -1.14337
  Beta  occ. eigenvalues --   -1.14049  -1.14017  -1.14001  -1.13737  -1.13725
  Beta  occ. eigenvalues --   -1.13721  -1.13590  -1.13585  -1.13566  -1.13303
  Beta  occ. eigenvalues --   -1.13268  -1.13241  -1.13015  -1.13002  -1.12931
  Beta  occ. eigenvalues --   -0.15854  -0.12781  -0.12221
  Beta virt. eigenvalues --   -0.07947  -0.06843  -0.04476  -0.04346  -0.03550
  Beta virt. eigenvalues --   -0.02431  -0.02021  -0.01777  -0.01557  -0.01365
  Beta virt. eigenvalues --   -0.00448  -0.00147  -0.00043   0.00395   0.00424

 Mulliken charges and spin densities:
               1          2
     1  Na  -0.620881   0.316272
     2  Na  -0.592491  -0.023337
     3  Na  -0.164621  -0.015235
     4  Na   0.440512   0.615210
     5  Na   0.735417   0.026628
     6  Na   0.602352  -0.011866
     7  Na  -0.400287   0.092327
 Sum of Mulliken charges =  -0.00000   1.00000

 Dipole moment (field-independent basis, Debye):
    X=              0.4819    Y=              0.3006    Z=              0.4535  Tot=              0.7268
 Quadrupole moment (field-independent basis, Debye-Ang):
   XX=            -56.9677   YY=            -61.0906   ZZ=            -73.4368
   XY=             -5.9572   XZ=             -1.2127   YZ=              1.7612

 Normal termination of Gaussian 16 at Sun Dec  3 14:47:53 2023.
