 Gaussian 16, Revision B.01,
 Gaussian 16:  ES64L-G16RevB.01 20-Dec-2017

 -------------------------
 #P B3LYP/6-311+g(d) force
 -------------------------

 -----
 DPGEN
 -----
 Symbolic Z-matrix:
 Charge =  0 Multiplicity = 2

                         Standard orientation:
 ---------------------------------------------------------------------
 Center     Atomic      Atomic             Coordinates (Angstroms)
 Number     Number       Type             X           Y           Z
 ---------------------------------------------------------------------
      1         11           0        3.484299   -1.975647    0.116210
      2         11           0       -0.198585    2.919414   -0.328529
      3         11           0       -1.714700    1.003412    1.922194
      4         11           0        2.967190    1.501223    0.095115
      5         11           0        0.300976   -0.854856   -0.988641
      6         11           0       -1.972171   -2.736578    0.559528
      7         11           0       -2.867009    0.143032   -1.375877
 ---------------------------------------------------------------------

 SCF Done:  E(UB3LYP) =  -1136.12711754     A.U. after   21 cycles

 The electronic state is 2-A.
 Alpha  occ. eigenvalues --  -38.44603 -38.44467 -38.44318 -38.44223 -38.43670
 Alpha  occ. eigenvalues --  -38.43450 -38.43145  -2.20393  -2.20240  -2.20120
 Alpha  occ. eigenvalues --   -2.20076  -2.19517  -2.19350  -2.18975  -1.14078
 Alpha  occ. eigenvalues --   -1.14065  -1.14020  -1.13911  -1.13899  -1.13873
 Alpha  occ. eigenvalues --   -1.13803  -1.13774  -1.13763  -1.13753  -1.13721
 Alpha  occ. eigenvalues --   -1.13685  -1.13181  -1.13166  -1.13129  -1.13053
 Alpha  occ. eigenvalues --   -1.13018  -1.12972  -1.12649  -1.12641  -1.12620
 Alpha  occ. eigenvalues --   -0.17686  -0.13554  -0.12164  -0.10112
 Alpha virt. eigenvalues --   -0.06576  -0.05797  -0.04653  -0.03105  -0.02862
 Alpha virt. eigenvalues --   -0.02120  -0.01858  -0.01361  -0.01265  -0.00573
 Alpha virt. eigenvalues --   -0.00186   0.00281   0.00407   0.00608   0.00742

  Beta  occ. eigenvalues --  -38.44605 -38.44470 -38.44304 -38.44172 -38.43590
  Beta  occ. eigenvalues --  -38.43423 -38.43141  -2.20397  -2.20247  -2.20095
  Beta  occ. eigenvalues --   -2.19986  -2.19369  -2.19304  -2.18972  -1.14075
  Beta  occ. eigenvalues --   -1.14068  -1.14027  -1.13914  -1.13904  -1.13877
  Beta  occ. eigenvalues --   -1.13788  -1.13749  -1.13732  -1.13682  -1.13652
  Beta  occ. eigenvalues --   -1.13624  -1.13080  -1.13067  -1.13023  -1.13012
  Beta  occ. eigenvalues --   -1.12982  -1.12930  -1.12647  -1.12631  -1.12605
  Beta  occ. eigenvalues --   -0.17069  -0.13376  -0.12004
  Beta virt. eigenvalues --   -0.06460  -0.06240  -0.05671  -0.04542  -0.02700
  Beta virt. eigenvalues --   -0.02224  -0.01904  -0.01332  -0.01170  -0.01023
  Beta virt. eigenvalues --   -0.00539   0.00142   0.00372   0.00542   0.00632

 Mulliken charges and spin densities:
               1          2
     1  Na   0.588749  -0.072065
     2  Na   0.313615   0.126085
     3  Na  -0.535403   0.484566
     4  Na  -0.047734  -0.103336
     5  Na  -1.069245   0.352225
     6  Na  -0.049349   0.092799
     7  Na   0.799366   0.119725
 Sum of Mulliken charges =  -0.00000   1.00000

 Dipole moment (field-independent basis, Debye):
    X=              0.5414    Y=             -0.5355    Z=              0.0285  Tot=              0.7621
 Quadrupole moment (field-independent basis, Debye-Ang):
   XX=            -54.2999   YY=            -62.2174   ZZ=            -76.6107
   XY=              0.7111   XZ=              2.8884   YZ=             -2.8652

 Normal termination of Gaussian 16 at Wed Nov 29 16:37:15 2023.
