 Gaussian 16, Revision B.01,
 Gaussian 16:  ES64L-G16RevB.01 20-Dec-2017

 -------------------------
 #P B3LYP/6-311+g(d) force
 -------------------------

 -----
 DPGEN
 -----
 Symbolic Z-matrix:
 Charge =  0 Multiplicity = 2

                         Standard orientation:
 ---------------------------------------------------------------------
 Center     Atomic      Atomic             Coordinates (Angstroms)
 Number     Number       Type             X           Y           Z
 ---------------------------------------------------------------------
      1         11           0       -2.018878   -1.286533    0.730430
      2         11           0       -5.635630   -1.042299   -0.459525
      3         11           0       -4.460653    1.675386    0.309631
      4         11           0       -0.836989    1.484046   -0.545550
      5         11           0        1.097646   -1.142123   -0.432706
      6         11           0        4.567431    0.283991    0.961078
      7         11           0        7.287073    0.027531   -0.563358
 ---------------------------------------------------------------------

 SCF Done:  E(UB3LYP) =  -1136.11570343     A.U. after   19 cycles

 The electronic state is 2-A.
 Alpha  occ. eigenvalues --  -38.44712 -38.44483 -38.44240 -38.43995 -38.43967
 Alpha  occ. eigenvalues --  -38.43962 -38.43924  -2.20566  -2.20261  -2.20029
 Alpha  occ. eigenvalues --   -2.19839  -2.19825  -2.19811  -2.19772  -1.14265
 Alpha  occ. eigenvalues --   -1.14259  -1.14159  -1.13945  -1.13918  -1.13917
 Alpha  occ. eigenvalues --   -1.13694  -1.13688  -1.13647  -1.13578  -1.13522
 Alpha  occ. eigenvalues --   -1.13515  -1.13500  -1.13476  -1.13471  -1.13461
 Alpha  occ. eigenvalues --   -1.13456  -1.13435  -1.13413  -1.13387  -1.13348
 Alpha  occ. eigenvalues --   -0.16908  -0.13955  -0.12405  -0.10542
 Alpha virt. eigenvalues --   -0.06807  -0.05364  -0.04772  -0.03518  -0.02853
 Alpha virt. eigenvalues --   -0.02589  -0.02381  -0.01729  -0.01014  -0.00827
 Alpha virt. eigenvalues --   -0.00273  -0.00138   0.00152   0.00375   0.00422

  Beta  occ. eigenvalues --  -38.44678 -38.44483 -38.44240 -38.43964 -38.43953
  Beta  occ. eigenvalues --  -38.43898 -38.43895  -2.20505  -2.20261  -2.20029
  Beta  occ. eigenvalues --   -2.19785  -2.19767  -2.19725  -2.19720  -1.14222
  Beta  occ. eigenvalues --   -1.14200  -1.14113  -1.13945  -1.13918  -1.13917
  Beta  occ. eigenvalues --   -1.13693  -1.13688  -1.13647  -1.13540  -1.13482
  Beta  occ. eigenvalues --   -1.13456  -1.13443  -1.13437  -1.13426  -1.13421
  Beta  occ. eigenvalues --   -1.13418  -1.13400  -1.13371  -1.13314  -1.13295
  Beta  occ. eigenvalues --   -0.16239  -0.13830  -0.12304
  Beta virt. eigenvalues --   -0.06790  -0.06553  -0.05136  -0.04282  -0.03284
  Beta virt. eigenvalues --   -0.02744  -0.02293  -0.01742  -0.01674  -0.00958
  Beta virt. eigenvalues --   -0.00347  -0.00040   0.00066   0.00329   0.00446

 Mulliken charges and spin densities:
               1          2
     1  Na  -0.407135   0.340906
     2  Na   0.297243   0.100864
     3  Na   0.140648   0.082288
     4  Na  -0.070480   0.356213
     5  Na  -0.014994   0.148452
     6  Na  -0.214848  -0.037874
     7  Na   0.269566   0.009150
 Sum of Mulliken charges =  -0.00000   1.00000

 Dipole moment (field-independent basis, Debye):
    X=              0.3462    Y=             -0.2146    Z=             -0.3723  Tot=              0.5519
 Quadrupole moment (field-independent basis, Debye-Ang):
   XX=            -55.5260   YY=            -72.2743   ZZ=            -68.3646
   XY=             -0.5530   XZ=             -4.0899   YZ=              1.6645

 Normal termination of Gaussian 16 at Tue Nov 28 18:50:24 2023.
