 Gaussian 16, Revision B.01,
 Gaussian 16:  ES64L-G16RevB.01 20-Dec-2017

 -------------------------
 #P B3LYP/6-311+g(d) force
 -------------------------

 -----
 DPGEN
 -----
 Symbolic Z-matrix:
 Charge =  0 Multiplicity = 2

                         Standard orientation:
 ---------------------------------------------------------------------
 Center     Atomic      Atomic             Coordinates (Angstroms)
 Number     Number       Type             X           Y           Z
 ---------------------------------------------------------------------
      1         11           0        0.331075    2.563881   -0.007678
      2         11           0        2.645529   -2.271635   -0.192006
      3         11           0       -0.391717   -0.552415    2.052601
      4         11           0       -2.835335   -2.229001   -0.239066
      5         11           0       -2.659598    1.852261   -0.174292
      6         11           0        3.210216    1.065962   -0.073768
      7         11           0       -0.300170   -0.429052   -1.365790
 ---------------------------------------------------------------------

 SCF Done:  E(UB3LYP) =  -1136.12560156     A.U. after   21 cycles

 The electronic state is 2-A.
 Alpha  occ. eigenvalues --  -38.44583 -38.44527 -38.44515 -38.44380 -38.43405
 Alpha  occ. eigenvalues --  -38.43298 -38.42811  -2.20362  -2.20355  -2.20342
 Alpha  occ. eigenvalues --   -2.20169  -2.19345  -2.19158  -2.18724  -1.14051
 Alpha  occ. eigenvalues --   -1.14045  -1.14033  -1.14020  -1.14013  -1.14009
 Alpha  occ. eigenvalues --   -1.14003  -1.13981  -1.13952  -1.13848  -1.13818
 Alpha  occ. eigenvalues --   -1.13813  -1.13064  -1.12997  -1.12962  -1.12826
 Alpha  occ. eigenvalues --   -1.12777  -1.12767  -1.12404  -1.12394  -1.12360
 Alpha  occ. eigenvalues --   -0.18201  -0.13384  -0.12142  -0.10152
 Alpha virt. eigenvalues --   -0.06543  -0.06017  -0.04172  -0.03081  -0.02639
 Alpha virt. eigenvalues --   -0.02178  -0.02046  -0.01797  -0.00941  -0.00211
 Alpha virt. eigenvalues --   -0.00047   0.00235   0.00590   0.00665   0.00767

  Beta  occ. eigenvalues --  -38.44581 -38.44527 -38.44508 -38.44375 -38.43365
  Beta  occ. eigenvalues --  -38.43192 -38.42805  -2.20360  -2.20345  -2.20343
  Beta  occ. eigenvalues --   -2.20161  -2.19274  -2.18961  -2.18716  -1.14049
  Beta  occ. eigenvalues --   -1.14045  -1.14025  -1.14019  -1.14005  -1.13991
  Beta  occ. eigenvalues --   -1.13983  -1.13977  -1.13954  -1.13836  -1.13812
  Beta  occ. eigenvalues --   -1.13800  -1.13000  -1.12945  -1.12909  -1.12695
  Beta  occ. eigenvalues --   -1.12640  -1.12628  -1.12400  -1.12393  -1.12325
  Beta  occ. eigenvalues --   -0.17532  -0.13186  -0.11938
  Beta virt. eigenvalues --   -0.06549  -0.06262  -0.05885  -0.04156  -0.02437
  Beta virt. eigenvalues --   -0.01965  -0.01893  -0.01790  -0.01101  -0.00972
  Beta virt. eigenvalues --   -0.00212   0.00147   0.00298   0.00607   0.00741

 Mulliken charges and spin densities:
               1          2
     1  Na  -0.040920   0.078849
     2  Na   0.397836   0.082412
     3  Na  -0.506254   0.619798
     4  Na   0.197782   0.049735
     5  Na   0.384722   0.044062
     6  Na   0.013510   0.022052
     7  Na  -0.446675   0.103093
 Sum of Mulliken charges =  -0.00000   1.00000

 Dipole moment (field-independent basis, Debye):
    X=             -0.1204    Y=             -0.4686    Z=              0.0649  Tot=              0.4882
 Quadrupole moment (field-independent basis, Debye-Ang):
   XX=            -50.5090   YY=            -63.7257   ZZ=            -77.8686
   XY=             -0.3008   XZ=              0.1262   YZ=              0.4426

 Normal termination of Gaussian 16 at Tue Dec  5 17:07:39 2023.
