 Gaussian 16, Revision B.01,
 Gaussian 16:  ES64L-G16RevB.01 20-Dec-2017

 -------------------------
 #P B3LYP/6-311+g(d) force
 -------------------------

 -----
 DPGEN
 -----
 Symbolic Z-matrix:
 Charge =  0 Multiplicity = 2

                         Standard orientation:
 ---------------------------------------------------------------------
 Center     Atomic      Atomic             Coordinates (Angstroms)
 Number     Number       Type             X           Y           Z
 ---------------------------------------------------------------------
      1         11           0       -0.237656   -0.228906   -1.621384
      2         11           0       -0.013668   -0.722199    1.851385
      3         11           0       -2.772700   -1.748934   -0.041739
      4         11           0       -2.624051    1.444959    0.421835
      5         11           0        0.629969    2.750155   -0.792614
      6         11           0        2.849648    0.569005    1.078557
      7         11           0        2.168458   -2.064081   -0.896040
 ---------------------------------------------------------------------

 SCF Done:  E(UB3LYP) =  -1136.13081045     A.U. after   20 cycles

 The electronic state is 2-A.
 Alpha  occ. eigenvalues --  -38.44173 -38.44171 -38.43965 -38.43919 -38.43861
 Alpha  occ. eigenvalues --  -38.43347 -38.42597  -2.20032  -2.20021  -2.19867
 Alpha  occ. eigenvalues --   -2.19776  -2.19720  -2.19349  -2.18434  -1.13743
 Alpha  occ. eigenvalues --   -1.13706  -1.13702  -1.13679  -1.13653  -1.13649
 Alpha  occ. eigenvalues --   -1.13546  -1.13511  -1.13481  -1.13452  -1.13441
 Alpha  occ. eigenvalues --   -1.13415  -1.13411  -1.13352  -1.13339  -1.13018
 Alpha  occ. eigenvalues --   -1.12985  -1.12976  -1.12131  -1.12080  -1.12064
 Alpha  occ. eigenvalues --   -0.18635  -0.13622  -0.11686  -0.11318
 Alpha virt. eigenvalues --   -0.05738  -0.05445  -0.04184  -0.03535  -0.02852
 Alpha virt. eigenvalues --   -0.02695  -0.01736  -0.01112  -0.00406   0.00023
 Alpha virt. eigenvalues --    0.00179   0.00350   0.00685   0.00746   0.00812

  Beta  occ. eigenvalues --  -38.44169 -38.44140 -38.43919 -38.43900 -38.43833
  Beta  occ. eigenvalues --  -38.43273 -38.42589  -2.20014  -2.19977  -2.19780
  Beta  occ. eigenvalues --   -2.19749  -2.19673  -2.19216  -2.18422  -1.13703
  Beta  occ. eigenvalues --   -1.13690  -1.13688  -1.13642  -1.13640  -1.13615
  Beta  occ. eigenvalues --   -1.13473  -1.13448  -1.13440  -1.13413  -1.13411
  Beta  occ. eigenvalues --   -1.13389  -1.13375  -1.13323  -1.13299  -1.12932
  Beta  occ. eigenvalues --   -1.12891  -1.12871  -1.12113  -1.12067  -1.12059
  Beta  occ. eigenvalues --   -0.17933  -0.13365  -0.11446
  Beta virt. eigenvalues --   -0.07382  -0.05614  -0.05356  -0.03912  -0.03043
  Beta virt. eigenvalues --   -0.02150  -0.01778  -0.01598  -0.00980  -0.00298
  Beta virt. eigenvalues --    0.00076   0.00211   0.00390   0.00794   0.00806

 Mulliken charges and spin densities:
               1          2
     1  Na   0.225129   0.280209
     2  Na  -0.210825   0.354085
     3  Na   0.194848   0.017964
     4  Na   0.041940   0.056363
     5  Na  -0.198065   0.032786
     6  Na   0.155946   0.177821
     7  Na  -0.208973   0.080771
 Sum of Mulliken charges =  -0.00000   1.00000

 Dipole moment (field-independent basis, Debye):
    X=             -0.2926    Y=             -0.3957    Z=              0.4022  Tot=              0.6355
 Quadrupole moment (field-independent basis, Debye-Ang):
   XX=            -54.3520   YY=            -68.5388   ZZ=            -71.4070
   XY=              0.3318   XZ=             -0.3654   YZ=              2.5061

 Normal termination of Gaussian 16 at Sun Dec  3 22:40:34 2023.
