 Gaussian 16, Revision B.01,
 Gaussian 16:  ES64L-G16RevB.01 20-Dec-2017

 -------------------------
 #P B3LYP/6-311+g(d) force
 -------------------------

 -----
 DPGEN
 -----
 Symbolic Z-matrix:
 Charge =  0 Multiplicity = 2

                         Standard orientation:
 ---------------------------------------------------------------------
 Center     Atomic      Atomic             Coordinates (Angstroms)
 Number     Number       Type             X           Y           Z
 ---------------------------------------------------------------------
      1         11           0       -0.408557   -2.945029    0.514364
      2         11           0       -2.028114    2.361458   -0.085961
      3         11           0       -2.939280   -0.953746   -0.199348
      4         11           0        0.034747   -0.219003   -1.806099
      5         11           0        1.113167   -0.502686    1.998511
      6         11           0        3.206625   -0.438138   -1.044091
      7         11           0        1.021411    2.697144    0.622625
 ---------------------------------------------------------------------

 SCF Done:  E(UB3LYP) =  -1136.13310629     A.U. after   18 cycles

 The electronic state is 2-A.
 Alpha  occ. eigenvalues --  -38.44253 -38.43931 -38.43905 -38.43710 -38.43684
 Alpha  occ. eigenvalues --  -38.43679 -38.43384  -2.20067  -2.19809  -2.19795
 Alpha  occ. eigenvalues --   -2.19553  -2.19542  -2.19520  -2.19224  -1.13761
 Alpha  occ. eigenvalues --   -1.13706  -1.13693  -1.13486  -1.13470  -1.13450
 Alpha  occ. eigenvalues --   -1.13448  -1.13440  -1.13415  -1.13251  -1.13224
 Alpha  occ. eigenvalues --   -1.13217  -1.13212  -1.13206  -1.13186  -1.13183
 Alpha  occ. eigenvalues --   -1.13149  -1.13135  -1.12889  -1.12881  -1.12864
 Alpha  occ. eigenvalues --   -0.18152  -0.12872  -0.12661  -0.11287
 Alpha virt. eigenvalues --   -0.05565  -0.05050  -0.04991  -0.03352  -0.03097
 Alpha virt. eigenvalues --   -0.02816  -0.01536  -0.01018  -0.00340  -0.00310
 Alpha virt. eigenvalues --   -0.00098   0.00350   0.00676   0.00839   0.00890

  Beta  occ. eigenvalues --  -38.44213 -38.43861 -38.43838 -38.43710 -38.43667
  Beta  occ. eigenvalues --  -38.43663 -38.43388  -2.19996  -2.19687  -2.19668
  Beta  occ. eigenvalues --   -2.19554  -2.19514  -2.19492  -2.19232  -1.13695
  Beta  occ. eigenvalues --   -1.13660  -1.13642  -1.13406  -1.13384  -1.13371
  Beta  occ. eigenvalues --   -1.13358  -1.13343  -1.13330  -1.13245  -1.13219
  Beta  occ. eigenvalues --   -1.13206  -1.13200  -1.13175  -1.13157  -1.13151
  Beta  occ. eigenvalues --   -1.13131  -1.13125  -1.12894  -1.12886  -1.12860
  Beta  occ. eigenvalues --   -0.17507  -0.12595  -0.12399
  Beta virt. eigenvalues --   -0.07425  -0.05480  -0.04930  -0.04732  -0.02814
  Beta virt. eigenvalues --   -0.02492  -0.01862  -0.01337  -0.00917  -0.00342
  Beta virt. eigenvalues --   -0.00275   0.00060   0.00420   0.00800   0.00858

 Mulliken charges and spin densities:
               1          2
     1  Na   0.037014   0.070586
     2  Na  -0.085269  -0.067442
     3  Na  -0.024432  -0.016678
     4  Na   0.101119   0.456075
     5  Na   0.039564   0.391921
     6  Na  -0.036987   0.036182
     7  Na  -0.031011   0.129356
 Sum of Mulliken charges =  -0.00000   1.00000

 Dipole moment (field-independent basis, Debye):
    X=              0.3115    Y=             -0.2450    Z=              0.0443  Tot=              0.3988
 Quadrupole moment (field-independent basis, Debye-Ang):
   XX=            -59.3026   YY=            -65.1476   ZZ=            -71.8442
   XY=              0.4646   XZ=             -0.8978   YZ=              0.2333

 Normal termination of Gaussian 16 at Sun Dec  3 19:46:38 2023.
