 Gaussian 16, Revision B.01,
 Gaussian 16:  ES64L-G16RevB.01 20-Dec-2017

 -------------------------
 #P B3LYP/6-311+g(d) force
 -------------------------

 -----
 DPGEN
 -----
 Symbolic Z-matrix:
 Charge =  0 Multiplicity = 2

                         Standard orientation:
 ---------------------------------------------------------------------
 Center     Atomic      Atomic             Coordinates (Angstroms)
 Number     Number       Type             X           Y           Z
 ---------------------------------------------------------------------
      1         11           0        3.820773    0.233730    0.104156
      2         11           0        0.743881    0.133577   -1.363976
      3         11           0       -2.358066   -2.102782   -0.591832
      4         11           0       -0.693007   -0.140254    2.125640
      5         11           0       -0.023509    3.322434   -0.125490
      6         11           0        1.321696   -2.428419    0.066214
      7         11           0       -2.811768    0.981714   -0.214711
 ---------------------------------------------------------------------

 SCF Done:  E(UB3LYP) =  -1136.12755495     A.U. after   22 cycles

 The electronic state is 2-A.
 Alpha  occ. eigenvalues --  -38.45294 -38.44012 -38.43865 -38.43576 -38.43539
 Alpha  occ. eigenvalues --  -38.43468 -38.43416  -2.21056  -2.19883  -2.19732
 Alpha  occ. eigenvalues --   -2.19410  -2.19388  -2.19356  -2.19291  -1.14729
 Alpha  occ. eigenvalues --   -1.14711  -1.14692  -1.13578  -1.13560  -1.13520
 Alpha  occ. eigenvalues --   -1.13514  -1.13392  -1.13321  -1.13102  -1.13070
 Alpha  occ. eigenvalues --   -1.13064  -1.13038  -1.13025  -1.13020  -1.13012
 Alpha  occ. eigenvalues --   -1.13006  -1.12994  -1.12944  -1.12928  -1.12893
 Alpha  occ. eigenvalues --   -0.18178  -0.13344  -0.12067  -0.10311
 Alpha virt. eigenvalues --   -0.06656  -0.04930  -0.04848  -0.03249  -0.02548
 Alpha virt. eigenvalues --   -0.02316  -0.02175  -0.01154  -0.00705  -0.00485
 Alpha virt. eigenvalues --   -0.00075   0.00263   0.00607   0.00731   0.00777

  Beta  occ. eigenvalues --  -38.45300 -38.44000 -38.43856 -38.43578 -38.43518
  Beta  occ. eigenvalues --  -38.43433 -38.43312  -2.21068  -2.19865  -2.19719
  Beta  occ. eigenvalues --   -2.19360  -2.19353  -2.19346  -2.19098  -1.14729
  Beta  occ. eigenvalues --   -1.14720  -1.14702  -1.13571  -1.13513  -1.13506
  Beta  occ. eigenvalues --   -1.13505  -1.13355  -1.13319  -1.13054  -1.13047
  Beta  occ. eigenvalues --   -1.13041  -1.13016  -1.13003  -1.12999  -1.12985
  Beta  occ. eigenvalues --   -1.12984  -1.12969  -1.12815  -1.12794  -1.12758
  Beta  occ. eigenvalues --   -0.17492  -0.13151  -0.11880
  Beta virt. eigenvalues --   -0.06563  -0.06413  -0.04850  -0.04802  -0.02597
  Beta virt. eigenvalues --   -0.02118  -0.01893  -0.01283  -0.01041  -0.00718
  Beta virt. eigenvalues --   -0.00485   0.00131   0.00331   0.00712   0.00784

 Mulliken charges and spin densities:
               1          2
     1  Na   0.013343  -0.100880
     2  Na   0.230823   0.288554
     3  Na  -0.037699   0.119923
     4  Na  -0.445099   0.635236
     5  Na  -0.147015  -0.094597
     6  Na   0.083226   0.030684
     7  Na   0.302422   0.121079
 Sum of Mulliken charges =  -0.00000   1.00000

 Dipole moment (field-independent basis, Debye):
    X=              1.0995    Y=              0.0678    Z=              0.2221  Tot=              1.1237
 Quadrupole moment (field-independent basis, Debye-Ang):
   XX=            -51.9443   YY=            -63.7551   ZZ=            -76.4851
   XY=              1.3060   XZ=              2.6203   YZ=              0.8650

 Normal termination of Gaussian 16 at Thu Dec  7 20:14:14 2023.
