 Gaussian 16, Revision B.01,
 Gaussian 16:  ES64L-G16RevB.01 20-Dec-2017

 -------------------------
 #P B3LYP/6-311+g(d) force
 -------------------------

 -----
 DPGEN
 -----
 Symbolic Z-matrix:
 Charge =  0 Multiplicity = 2

                         Standard orientation:
 ---------------------------------------------------------------------
 Center     Atomic      Atomic             Coordinates (Angstroms)
 Number     Number       Type             X           Y           Z
 ---------------------------------------------------------------------
      1         11           0       -0.370435    1.572417   -0.850193
      2         11           0       -2.527401    3.772614    0.223641
      3         11           0       -3.177015   -0.185310   -0.080703
      4         11           0       -2.536959   -3.722611    0.010724
      5         11           0       -0.031150   -1.694206    0.163358
      6         11           0        3.020564    0.543359    1.142087
      7         11           0        5.622396   -0.286263   -0.608914
 ---------------------------------------------------------------------

 SCF Done:  E(UB3LYP) =  -1136.12174806     A.U. after   20 cycles

 The electronic state is 2-A.
 Alpha  occ. eigenvalues --  -38.45033 -38.44305 -38.44136 -38.43832 -38.43783
 Alpha  occ. eigenvalues --  -38.43780 -38.43450  -2.20851  -2.20098  -2.19955
 Alpha  occ. eigenvalues --   -2.19711  -2.19664  -2.19589  -2.19240  -1.14568
 Alpha  occ. eigenvalues --   -1.14556  -1.14416  -1.13772  -1.13758  -1.13720
 Alpha  occ. eigenvalues --   -1.13636  -1.13611  -1.13584  -1.13428  -1.13385
 Alpha  occ. eigenvalues --   -1.13352  -1.13347  -1.13299  -1.13242  -1.13232
 Alpha  occ. eigenvalues --   -1.13227  -1.13222  -1.12927  -1.12911  -1.12881
 Alpha  occ. eigenvalues --   -0.17072  -0.13383  -0.12940  -0.10365
 Alpha virt. eigenvalues --   -0.06457  -0.05317  -0.04892  -0.03521  -0.02617
 Alpha virt. eigenvalues --   -0.02502  -0.01968  -0.01697  -0.00951  -0.00798
 Alpha virt. eigenvalues --   -0.00419   0.00100   0.00277   0.00423   0.00496

  Beta  occ. eigenvalues --  -38.45018 -38.44282 -38.44119 -38.43802 -38.43742
  Beta  occ. eigenvalues --  -38.43696 -38.43459  -2.20822  -2.20054  -2.19924
  Beta  occ. eigenvalues --   -2.19661  -2.19599  -2.19428  -2.19264  -1.14543
  Beta  occ. eigenvalues --   -1.14532  -1.14393  -1.13743  -1.13727  -1.13691
  Beta  occ. eigenvalues --   -1.13614  -1.13589  -1.13560  -1.13391  -1.13353
  Beta  occ. eigenvalues --   -1.13309  -1.13305  -1.13239  -1.13181  -1.13132
  Beta  occ. eigenvalues --   -1.13117  -1.13113  -1.12950  -1.12928  -1.12847
  Beta  occ. eigenvalues --   -0.16514  -0.12841  -0.12583
  Beta virt. eigenvalues --   -0.07038  -0.06224  -0.04972  -0.04502  -0.03221
  Beta virt. eigenvalues --   -0.02431  -0.02266  -0.01867  -0.01385  -0.00669
  Beta virt. eigenvalues --   -0.00478  -0.00127   0.00260   0.00441   0.00510

 Mulliken charges and spin densities:
               1          2
     1  Na  -0.974047  -0.122637
     2  Na   0.691756   0.202820
     3  Na   0.122012   0.307566
     4  Na   1.185261   0.259325
     5  Na  -1.401151  -0.048430
     6  Na   0.264228  -0.007652
     7  Na   0.111942   0.409008
 Sum of Mulliken charges =  -0.00000   1.00000

 Dipole moment (field-independent basis, Debye):
    X=             -1.7654    Y=             -0.1723    Z=             -0.0352  Tot=              1.7742
 Quadrupole moment (field-independent basis, Debye-Ang):
   XX=            -72.9993   YY=            -57.6010   ZZ=            -69.0314
   XY=             -0.5459   XZ=             -3.3458   YZ=              2.4723

 Normal termination of Gaussian 16 at Wed Nov 29 03:09:47 2023.
