 Gaussian 16, Revision B.01,
 Gaussian 16:  ES64L-G16RevB.01 20-Dec-2017

 -------------------------
 #P B3LYP/6-311+g(d) force
 -------------------------

 -----
 DPGEN
 -----
 Symbolic Z-matrix:
 Charge =  0 Multiplicity = 2

                         Standard orientation:
 ---------------------------------------------------------------------
 Center     Atomic      Atomic             Coordinates (Angstroms)
 Number     Number       Type             X           Y           Z
 ---------------------------------------------------------------------
      1         11           0       -0.618858    0.809424    0.471222
      2         11           0        0.499014   -2.610465    0.372108
      3         11           0        1.739830    2.665886   -1.137506
      4         11           0        3.120620   -0.664819   -1.310458
      5         11           0        2.898502   -0.156209    1.915868
      6         11           0       -3.609221   -1.150011   -1.504634
      7         11           0       -4.029887    1.106194    1.193398
 ---------------------------------------------------------------------

 SCF Done:  E(UB3LYP) =  -1136.10888691     A.U. after   31 cycles

 The electronic state is 2-A.
 Alpha  occ. eigenvalues --  -38.45473 -38.45277 -38.44909 -38.44735 -38.43861
 Alpha  occ. eigenvalues --  -38.43759 -38.42682  -2.21277  -2.21051  -2.20674
 Alpha  occ. eigenvalues --   -2.20571  -2.19703  -2.19545  -2.18480  -1.14972
 Alpha  occ. eigenvalues --   -1.14918  -1.14884  -1.14719  -1.14711  -1.14680
 Alpha  occ. eigenvalues --   -1.14343  -1.14323  -1.14291  -1.14273  -1.14219
 Alpha  occ. eigenvalues --   -1.14164  -1.13413  -1.13387  -1.13312  -1.13242
 Alpha  occ. eigenvalues --   -1.13219  -1.13151  -1.12167  -1.12139  -1.12124
 Alpha  occ. eigenvalues --   -0.17159  -0.14144  -0.11048  -0.10090
 Alpha virt. eigenvalues --   -0.07308  -0.06722  -0.04021  -0.03414  -0.02994
 Alpha virt. eigenvalues --   -0.02437  -0.02035  -0.01724  -0.00895  -0.00794
 Alpha virt. eigenvalues --   -0.00426  -0.00045   0.00141   0.00272   0.00448

  Beta  occ. eigenvalues --  -38.45437 -38.45263 -38.44863 -38.44695 -38.43841
  Beta  occ. eigenvalues --  -38.43746 -38.42690  -2.21210  -2.21025  -2.20586
  Beta  occ. eigenvalues --   -2.20495  -2.19669  -2.19524  -2.18496  -1.14914
  Beta  occ. eigenvalues --   -1.14873  -1.14840  -1.14699  -1.14685  -1.14663
  Beta  occ. eigenvalues --   -1.14283  -1.14260  -1.14232  -1.14217  -1.14169
  Beta  occ. eigenvalues --   -1.14106  -1.13368  -1.13360  -1.13300  -1.13229
  Beta  occ. eigenvalues --   -1.13192  -1.13132  -1.12182  -1.12147  -1.12125
  Beta  occ. eigenvalues --   -0.16682  -0.13799  -0.10939
  Beta virt. eigenvalues --   -0.07228  -0.06819  -0.05739  -0.03961  -0.03259
  Beta virt. eigenvalues --   -0.02787  -0.01971  -0.01458  -0.01270  -0.00705
  Beta virt. eigenvalues --   -0.00568  -0.00376   0.00031   0.00281   0.00423

 Mulliken charges and spin densities:
               1          2
     1  Na  -1.514847   0.363812
     2  Na   0.128235   0.075394
     3  Na   0.529365  -0.051130
     4  Na   0.161812   0.265572
     5  Na   0.535896   0.132586
     6  Na   0.084246   0.243243
     7  Na   0.075292  -0.029478
 Sum of Mulliken charges =  -0.00000   1.00000

 Dipole moment (field-independent basis, Debye):
    X=             -0.5774    Y=             -0.2152    Z=              0.7972  Tot=              1.0076
 Quadrupole moment (field-independent basis, Debye-Ang):
   XX=            -48.4439   YY=            -76.0601   ZZ=            -68.8916
   XY=             -2.8130   XZ=              1.6749   YZ=              3.7869

 Normal termination of Gaussian 16 at Tue Dec  5 12:27:15 2023.
