 Gaussian 16, Revision B.01,
 Gaussian 16:  ES64L-G16RevB.01 20-Dec-2017

 -------------------------
 #P B3LYP/6-311+g(d) force
 -------------------------

 -----
 DPGEN
 -----
 Symbolic Z-matrix:
 Charge =  0 Multiplicity = 2

                         Standard orientation:
 ---------------------------------------------------------------------
 Center     Atomic      Atomic             Coordinates (Angstroms)
 Number     Number       Type             X           Y           Z
 ---------------------------------------------------------------------
      1         11           0        3.243452    0.146778    0.799385
      2         11           0        2.165004    3.707856   -0.075223
      3         11           0       -4.312983    0.955549   -0.178657
      4         11           0        4.010584   -2.905159   -0.316641
      5         11           0       -5.731611   -1.507097    0.316867
      6         11           0       -0.087592    1.355318   -0.343195
      7         11           0        0.713145   -1.753246   -0.202536
 ---------------------------------------------------------------------

 SCF Done:  E(UB3LYP) =  -1136.11607404     A.U. after   19 cycles

 The electronic state is 2-A.
 Alpha  occ. eigenvalues --  -38.44599 -38.44268 -38.44162 -38.44138 -38.44017
 Alpha  occ. eigenvalues --  -38.43727 -38.43414  -2.20452  -2.20154  -2.19976
 Alpha  occ. eigenvalues --   -2.19964  -2.19830  -2.19537  -2.19295  -1.14164
 Alpha  occ. eigenvalues --   -1.14146  -1.14040  -1.13845  -1.13817  -1.13788
 Alpha  occ. eigenvalues --   -1.13746  -1.13639  -1.13635  -1.13599  -1.13596
 Alpha  occ. eigenvalues --   -1.13593  -1.13477  -1.13460  -1.13408  -1.13203
 Alpha  occ. eigenvalues --   -1.13193  -1.13170  -1.12985  -1.12964  -1.12897
 Alpha  occ. eigenvalues --   -0.16954  -0.13639  -0.12568  -0.10832
 Alpha virt. eigenvalues --   -0.06254  -0.05614  -0.04078  -0.03696  -0.03186
 Alpha virt. eigenvalues --   -0.02416  -0.02074  -0.01273  -0.01117  -0.01062
 Alpha virt. eigenvalues --   -0.00259   0.00006   0.00213   0.00479   0.00593

  Beta  occ. eigenvalues --  -38.44570 -38.44204 -38.44144 -38.44111 -38.44022
  Beta  occ. eigenvalues --  -38.43691 -38.43374  -2.20400  -2.20038  -2.19942
  Beta  occ. eigenvalues --   -2.19916  -2.19841  -2.19469  -2.19226  -1.14116
  Beta  occ. eigenvalues --   -1.14109  -1.13999  -1.13766  -1.13765  -1.13741
  Beta  occ. eigenvalues --   -1.13654  -1.13613  -1.13604  -1.13569  -1.13567
  Beta  occ. eigenvalues --   -1.13563  -1.13484  -1.13463  -1.13393  -1.13160
  Beta  occ. eigenvalues --   -1.13146  -1.13121  -1.12930  -1.12924  -1.12824
  Beta  occ. eigenvalues --   -0.16215  -0.13357  -0.12279
  Beta virt. eigenvalues --   -0.07245  -0.06023  -0.05229  -0.03803  -0.03384
  Beta virt. eigenvalues --   -0.02696  -0.02328  -0.01906  -0.01175  -0.00886
  Beta virt. eigenvalues --   -0.00600   0.00052   0.00152   0.00403   0.00557

 Mulliken charges and spin densities:
               1          2
     1  Na  -0.483455   0.306066
     2  Na   0.816697   0.235398
     3  Na  -0.031254   0.021392
     4  Na   1.148951   0.237231
     5  Na  -0.049704   0.082003
     6  Na  -0.802512   0.124525
     7  Na  -0.598724  -0.006615
 Sum of Mulliken charges =  -0.00000   1.00000

 Dipole moment (field-independent basis, Debye):
    X=              0.7874    Y=             -1.0415    Z=             -0.1272  Tot=              1.3119
 Quadrupole moment (field-independent basis, Debye-Ang):
   XX=            -67.5491   YY=            -56.8146   ZZ=            -72.4483
   XY=              0.5438   XZ=             -1.1492   YZ=             -0.2655

 Normal termination of Gaussian 16 at Tue Nov 28 23:28:15 2023.
