 Gaussian 16, Revision B.01,
 Gaussian 16:  ES64L-G16RevB.01 20-Dec-2017

 -------------------------
 #P B3LYP/6-311+g(d) force
 -------------------------

 -----
 DPGEN
 -----
 Symbolic Z-matrix:
 Charge =  0 Multiplicity = 2

                         Standard orientation:
 ---------------------------------------------------------------------
 Center     Atomic      Atomic             Coordinates (Angstroms)
 Number     Number       Type             X           Y           Z
 ---------------------------------------------------------------------
      1         11           0        0.345656   -0.052446    2.160609
      2         11           0        1.895688   -2.371097   -0.615987
      3         11           0        2.856295    0.791828    0.097453
      4         11           0       -1.777013   -2.423403    0.118083
      5         11           0       -0.113900    0.283025   -1.483366
      6         11           0       -3.236914    0.654024   -0.058699
      7         11           0        0.030189    3.118069   -0.218094
 ---------------------------------------------------------------------

 SCF Done:  E(UB3LYP) =  -1136.13698697     A.U. after   19 cycles

 The electronic state is 2-A.
 Alpha  occ. eigenvalues --  -38.44205 -38.43844 -38.43759 -38.43633 -38.43587
 Alpha  occ. eigenvalues --  -38.43445 -38.43015  -2.20005  -2.19717  -2.19628
 Alpha  occ. eigenvalues --   -2.19459  -2.19418  -2.19286  -2.19011  -1.13685
 Alpha  occ. eigenvalues --   -1.13665  -1.13644  -1.13417  -1.13394  -1.13345
 Alpha  occ. eigenvalues --   -1.13282  -1.13247  -1.13243  -1.13144  -1.13133
 Alpha  occ. eigenvalues --   -1.13128  -1.13094  -1.13069  -1.13039  -1.12966
 Alpha  occ. eigenvalues --   -1.12933  -1.12925  -1.12696  -1.12645  -1.12634
 Alpha  occ. eigenvalues --   -0.18465  -0.12991  -0.12400  -0.10719
 Alpha virt. eigenvalues --   -0.05700  -0.05078  -0.04897  -0.03155  -0.02832
 Alpha virt. eigenvalues --   -0.02565  -0.01514  -0.01213  -0.00485  -0.00431
 Alpha virt. eigenvalues --   -0.00012   0.00347   0.00819   0.00837   0.00878

  Beta  occ. eigenvalues --  -38.44206 -38.43836 -38.43656 -38.43630 -38.43583
  Beta  occ. eigenvalues --  -38.43428 -38.42963  -2.20009  -2.19707  -2.19456
  Beta  occ. eigenvalues --   -2.19437  -2.19413  -2.19258  -2.18918  -1.13681
  Beta  occ. eigenvalues --   -1.13663  -1.13648  -1.13405  -1.13353  -1.13343
  Beta  occ. eigenvalues --   -1.13159  -1.13136  -1.13129  -1.13117  -1.13116
  Beta  occ. eigenvalues --   -1.13099  -1.13094  -1.13056  -1.13036  -1.12938
  Beta  occ. eigenvalues --   -1.12912  -1.12902  -1.12629  -1.12579  -1.12564
  Beta  occ. eigenvalues --   -0.17757  -0.12785  -0.12155
  Beta virt. eigenvalues --   -0.06786  -0.05674  -0.05042  -0.04820  -0.02393
  Beta virt. eigenvalues --   -0.02121  -0.01515  -0.01419  -0.01129  -0.00520
  Beta virt. eigenvalues --   -0.00459   0.00142   0.00385   0.00823   0.00877

 Mulliken charges and spin densities:
               1          2
     1  Na  -0.465838   0.705959
     2  Na   0.051985   0.051010
     3  Na   0.392809   0.093118
     4  Na   0.074345   0.010508
     5  Na  -0.155833   0.272672
     6  Na   0.013178  -0.067350
     7  Na   0.089353  -0.065917
 Sum of Mulliken charges =  -0.00000   1.00000

 Dipole moment (field-independent basis, Debye):
    X=             -0.2172    Y=              0.1401    Z=              0.2099  Tot=              0.3329
 Quadrupole moment (field-independent basis, Debye-Ang):
   XX=            -57.2204   YY=            -61.1600   ZZ=            -74.8593
   XY=             -0.3906   XZ=             -1.0014   YZ=              0.8552

 Normal termination of Gaussian 16 at Thu Dec  7 08:40:15 2023.
