 Gaussian 16, Revision B.01,
 Gaussian 16:  ES64L-G16RevB.01 20-Dec-2017

 -------------------------
 #P B3LYP/6-311+g(d) force
 -------------------------

 -----
 DPGEN
 -----
 Symbolic Z-matrix:
 Charge =  0 Multiplicity = 2

                         Standard orientation:
 ---------------------------------------------------------------------
 Center     Atomic      Atomic             Coordinates (Angstroms)
 Number     Number       Type             X           Y           Z
 ---------------------------------------------------------------------
      1         11           0       -5.011285   -0.555587   -0.996870
      2         11           0       -2.735442    1.985360    0.409198
      3         11           0        1.982553   -2.121979    0.945400
      4         11           0       -2.173882   -2.004537    0.042651
      5         11           0        0.383913    1.756856    1.279081
      6         11           0        3.297998    2.274005   -1.042758
      7         11           0        4.256146   -1.334118   -0.636701
 ---------------------------------------------------------------------

 SCF Done:  E(UB3LYP) =  -1136.10852149     A.U. after   23 cycles

 The electronic state is 2-A.
 Alpha  occ. eigenvalues --  -38.45453 -38.45041 -38.44913 -38.44645 -38.44182
 Alpha  occ. eigenvalues --  -38.43903 -38.43041  -2.21204  -2.20805  -2.20710
 Alpha  occ. eigenvalues --   -2.20468  -2.19998  -2.19740  -2.18846  -1.14901
 Alpha  occ. eigenvalues --   -1.14874  -1.14832  -1.14473  -1.14442  -1.14428
 Alpha  occ. eigenvalues --   -1.14394  -1.14387  -1.14322  -1.14235  -1.14123
 Alpha  occ. eigenvalues --   -1.14087  -1.13650  -1.13648  -1.13619  -1.13403
 Alpha  occ. eigenvalues --   -1.13377  -1.13366  -1.12525  -1.12502  -1.12495
 Alpha  occ. eigenvalues --   -0.16306  -0.14459  -0.11753  -0.11079
 Alpha virt. eigenvalues --   -0.07388  -0.05321  -0.04206  -0.03788  -0.03438
 Alpha virt. eigenvalues --   -0.02582  -0.01989  -0.01751  -0.01013  -0.00761
 Alpha virt. eigenvalues --   -0.00378  -0.00150   0.00231   0.00335   0.00546

  Beta  occ. eigenvalues --  -38.45444 -38.44979 -38.44889 -38.44654 -38.44131
  Beta  occ. eigenvalues --  -38.43874 -38.43026  -2.21192  -2.20688  -2.20670
  Beta  occ. eigenvalues --   -2.20485  -2.19903  -2.19685  -2.18822  -1.14897
  Beta  occ. eigenvalues --   -1.14863  -1.14796  -1.14394  -1.14367  -1.14365
  Beta  occ. eigenvalues --   -1.14355  -1.14342  -1.14285  -1.14246  -1.14137
  Beta  occ. eigenvalues --   -1.14085  -1.13584  -1.13583  -1.13561  -1.13371
  Beta  occ. eigenvalues --   -1.13337  -1.13326  -1.12508  -1.12482  -1.12468
  Beta  occ. eigenvalues --   -0.15716  -0.14038  -0.11452
  Beta virt. eigenvalues --   -0.07690  -0.07161  -0.04780  -0.03785  -0.03367
  Beta virt. eigenvalues --   -0.03245  -0.02401  -0.01617  -0.01489  -0.00882
  Beta virt. eigenvalues --   -0.00584  -0.00124  -0.00003   0.00358   0.00463

 Mulliken charges and spin densities:
               1          2
     1  Na   0.589435   0.302171
     2  Na   0.058102   0.092123
     3  Na  -0.112066   0.017313
     4  Na  -0.290869   0.133409
     5  Na  -0.674590   0.069165
     6  Na   0.357085   0.313833
     7  Na   0.072903   0.071986
 Sum of Mulliken charges =  -0.00000   1.00000

 Dipole moment (field-independent basis, Debye):
    X=             -0.7254    Y=              0.1207    Z=             -0.7278  Tot=              1.0346
 Quadrupole moment (field-independent basis, Debye-Ang):
   XX=            -55.6573   YY=            -71.1539   ZZ=            -70.7969
   XY=             -2.3847   XZ=             -0.7823   YZ=             -2.2428

 Normal termination of Gaussian 16 at Sun Dec  3 15:36:45 2023.
