 Gaussian 16, Revision B.01,
 Gaussian 16:  ES64L-G16RevB.01 20-Dec-2017

 -------------------------
 #P B3LYP/6-311+g(d) force
 -------------------------

 -----
 DPGEN
 -----
 Symbolic Z-matrix:
 Charge =  0 Multiplicity = 2

                         Standard orientation:
 ---------------------------------------------------------------------
 Center     Atomic      Atomic             Coordinates (Angstroms)
 Number     Number       Type             X           Y           Z
 ---------------------------------------------------------------------
      1         11           0        3.088360    0.613929    0.269787
      2         11           0        0.128564   -0.089058   -1.813276
      3         11           0       -2.871122    0.931948   -0.243432
      4         11           0        0.190219    2.825417   -0.110848
      5         11           0       -0.451162    0.128800    1.887707
      6         11           0       -1.863680   -2.239741    0.121937
      7         11           0        1.778822   -2.171296   -0.111874
 ---------------------------------------------------------------------

 SCF Done:  E(UB3LYP) =  -1136.13833291     A.U. after   19 cycles

 The electronic state is 2-A.
 Alpha  occ. eigenvalues --  -38.44087 -38.44019 -38.43457 -38.43328 -38.43323
 Alpha  occ. eigenvalues --  -38.43323 -38.43092  -2.19932  -2.19891  -2.19402
 Alpha  occ. eigenvalues --   -2.19294  -2.19223  -2.19209  -2.18950  -1.13630
 Alpha  occ. eigenvalues --   -1.13589  -1.13574  -1.13567  -1.13562  -1.13523
 Alpha  occ. eigenvalues --   -1.13088  -1.13045  -1.13029  -1.13021  -1.12956
 Alpha  occ. eigenvalues --   -1.12924  -1.12878  -1.12875  -1.12861  -1.12855
 Alpha  occ. eigenvalues --   -1.12850  -1.12825  -1.12628  -1.12621  -1.12574
 Alpha  occ. eigenvalues --   -0.18999  -0.13333  -0.12359  -0.10879
 Alpha virt. eigenvalues --   -0.05727  -0.05026  -0.04453  -0.03393  -0.02850
 Alpha virt. eigenvalues --   -0.02572  -0.01539  -0.00977  -0.00239  -0.00138
 Alpha virt. eigenvalues --   -0.00004   0.00374   0.00826   0.00914   0.00940

  Beta  occ. eigenvalues --  -38.44083 -38.44012 -38.43377 -38.43321 -38.43317
  Beta  occ. eigenvalues --  -38.43243 -38.43086  -2.19927  -2.19882  -2.19255
  Beta  occ. eigenvalues --   -2.19216  -2.19201  -2.19147  -2.18944  -1.13630
  Beta  occ. eigenvalues --   -1.13570  -1.13568  -1.13564  -1.13532  -1.13515
  Beta  occ. eigenvalues --   -1.13002  -1.12964  -1.12946  -1.12921  -1.12877
  Beta  occ. eigenvalues --   -1.12866  -1.12855  -1.12848  -1.12832  -1.12822
  Beta  occ. eigenvalues --   -1.12796  -1.12781  -1.12624  -1.12591  -1.12572
  Beta  occ. eigenvalues --   -0.18251  -0.13097  -0.12096
  Beta virt. eigenvalues --   -0.06961  -0.05667  -0.05032  -0.04434  -0.02580
  Beta virt. eigenvalues --   -0.02058  -0.01517  -0.01443  -0.00914  -0.00289
  Beta virt. eigenvalues --   -0.00184   0.00122   0.00391   0.00882   0.00909

 Mulliken charges and spin densities:
               1          2
     1  Na  -0.035138  -0.044137
     2  Na  -0.297325   0.633952
     3  Na   0.255998  -0.075832
     4  Na   0.052440  -0.105419
     5  Na  -0.451237   0.718926
     6  Na   0.223297  -0.073827
     7  Na   0.251965  -0.053664
 Sum of Mulliken charges =  -0.00000   1.00000

 Dipole moment (field-independent basis, Debye):
    X=             -0.0771    Y=              0.1258    Z=              0.0582  Tot=              0.1586
 Quadrupole moment (field-independent basis, Debye-Ang):
   XX=            -55.8924   YY=            -64.5993   ZZ=            -73.4713
   XY=              0.4598   XZ=              1.4999   YZ=             -0.3946

 Normal termination of Gaussian 16 at Thu Dec  7 07:38:49 2023.
