 Gaussian 16, Revision B.01,
 Gaussian 16:  ES64L-G16RevB.01 20-Dec-2017

 -------------------------
 #P B3LYP/6-311+g(d) force
 -------------------------

 -----
 DPGEN
 -----
 Symbolic Z-matrix:
 Charge =  0 Multiplicity = 2

                         Standard orientation:
 ---------------------------------------------------------------------
 Center     Atomic      Atomic             Coordinates (Angstroms)
 Number     Number       Type             X           Y           Z
 ---------------------------------------------------------------------
      1         11           0        0.951808   -2.082187    0.566330
      2         11           0       -0.402972    0.122733    1.894446
      3         11           0        0.816374    2.595967    0.369561
      4         11           0        0.095545   -0.181404   -1.723849
      5         11           0       -2.308184   -1.935168   -0.188895
      6         11           0        3.377886   -0.134072   -0.451998
      7         11           0       -2.530458    1.614131   -0.465595
 ---------------------------------------------------------------------

 SCF Done:  E(UB3LYP) =  -1136.13318884     A.U. after   19 cycles

 The electronic state is 2-A.
 Alpha  occ. eigenvalues --  -38.44108 -38.43748 -38.43589 -38.43521 -38.43397
 Alpha  occ. eigenvalues --  -38.43200 -38.43029  -2.19931  -2.19604  -2.19601
 Alpha  occ. eigenvalues --   -2.19514  -2.19280  -2.19064  -2.19028  -1.13603
 Alpha  occ. eigenvalues --   -1.13596  -1.13564  -1.13360  -1.13296  -1.13285
 Alpha  occ. eigenvalues --   -1.13245  -1.13232  -1.13224  -1.13193  -1.13149
 Alpha  occ. eigenvalues --   -1.13124  -1.12948  -1.12938  -1.12919  -1.12762
 Alpha  occ. eigenvalues --   -1.12725  -1.12717  -1.12682  -1.12667  -1.12598
 Alpha  occ. eigenvalues --   -0.19212  -0.13135  -0.12330  -0.11240
 Alpha virt. eigenvalues --   -0.05696  -0.04912  -0.04067  -0.03316  -0.02982
 Alpha virt. eigenvalues --   -0.02730  -0.01708  -0.00965  -0.00213   0.00066
 Alpha virt. eigenvalues --    0.00228   0.00335   0.00810   0.00890   0.00952

  Beta  occ. eigenvalues --  -38.44102 -38.43737 -38.43495 -38.43456 -38.43392
  Beta  occ. eigenvalues --  -38.43191 -38.43007  -2.19921  -2.19585  -2.19432
  Beta  occ. eigenvalues --   -2.19395  -2.19275  -2.19050  -2.18993  -1.13598
  Beta  occ. eigenvalues --   -1.13576  -1.13559  -1.13274  -1.13256  -1.13248
  Beta  occ. eigenvalues --   -1.13213  -1.13155  -1.13122  -1.13083  -1.13070
  Beta  occ. eigenvalues --   -1.13037  -1.12938  -1.12927  -1.12898  -1.12740
  Beta  occ. eigenvalues --   -1.12701  -1.12689  -1.12663  -1.12618  -1.12578
  Beta  occ. eigenvalues --   -0.18464  -0.12857  -0.12060
  Beta virt. eigenvalues --   -0.07269  -0.05609  -0.04899  -0.04051  -0.02610
  Beta virt. eigenvalues --   -0.02180  -0.01667  -0.01559  -0.00931  -0.00127
  Beta virt. eigenvalues --    0.00113   0.00206   0.00361   0.00871   0.00898

 Mulliken charges and spin densities:
               1          2
     1  Na   0.630967   0.085610
     2  Na  -0.180186   0.421806
     3  Na   0.061559  -0.057276
     4  Na  -0.523861   0.688406
     5  Na   0.101200  -0.075096
     6  Na  -0.043663  -0.020346
     7  Na  -0.046017  -0.043105
 Sum of Mulliken charges =  -0.00000   1.00000

 Dipole moment (field-independent basis, Debye):
    X=             -0.0190    Y=              0.2036    Z=             -0.2113  Tot=              0.2940
 Quadrupole moment (field-independent basis, Debye-Ang):
   XX=            -54.0947   YY=            -67.2675   ZZ=            -71.9052
   XY=              1.0222   XZ=              0.4416   YZ=             -0.4980

 Normal termination of Gaussian 16 at Thu Dec  7 22:25:39 2023.
