 Gaussian 16, Revision B.01,
 Gaussian 16:  ES64L-G16RevB.01 20-Dec-2017

 -------------------------
 #P B3LYP/6-311+g(d) force
 -------------------------

 -----
 DPGEN
 -----
 Symbolic Z-matrix:
 Charge =  0 Multiplicity = 2

                         Standard orientation:
 ---------------------------------------------------------------------
 Center     Atomic      Atomic             Coordinates (Angstroms)
 Number     Number       Type             X           Y           Z
 ---------------------------------------------------------------------
      1         11           0        0.372363    0.719632   -1.663369
      2         11           0        2.022318    2.238198    0.413327
      3         11           0        2.891790   -1.450439   -0.177558
      4         11           0       -3.039316   -0.951427    0.242399
      5         11           0       -1.971386    2.090094   -0.482531
      6         11           0       -0.247032   -2.531936   -0.597173
      7         11           0       -0.028738   -0.114122    2.264905
 ---------------------------------------------------------------------

 SCF Done:  E(UB3LYP) =  -1136.13236422     A.U. after   19 cycles

 The electronic state is 2-A.
 Alpha  occ. eigenvalues --  -38.44291 -38.44023 -38.43863 -38.43838 -38.43721
 Alpha  occ. eigenvalues --  -38.43452 -38.43075  -2.20134  -2.19835  -2.19707
 Alpha  occ. eigenvalues --   -2.19679  -2.19595  -2.19438  -2.18947  -1.13789
 Alpha  occ. eigenvalues --   -1.13765  -1.13754  -1.13508  -1.13499  -1.13478
 Alpha  occ. eigenvalues --   -1.13444  -1.13401  -1.13366  -1.13360  -1.13345
 Alpha  occ. eigenvalues --   -1.13335  -1.13321  -1.13230  -1.13195  -1.13080
 Alpha  occ. eigenvalues --   -1.13060  -1.13026  -1.12632  -1.12605  -1.12580
 Alpha  occ. eigenvalues --   -0.18553  -0.13054  -0.12288  -0.11245
 Alpha virt. eigenvalues --   -0.05581  -0.05453  -0.04173  -0.03458  -0.03132
 Alpha virt. eigenvalues --   -0.02906  -0.01521  -0.01123  -0.00279  -0.00053
 Alpha virt. eigenvalues --   -0.00002   0.00354   0.00746   0.00836   0.00926

  Beta  occ. eigenvalues --  -38.44189 -38.44021 -38.43854 -38.43837 -38.43709
  Beta  occ. eigenvalues --  -38.43397 -38.43062  -2.19947  -2.19834  -2.19693
  Beta  occ. eigenvalues --   -2.19680  -2.19576  -2.19339  -2.18927  -1.13665
  Beta  occ. eigenvalues --   -1.13636  -1.13615  -1.13502  -1.13492  -1.13474
  Beta  occ. eigenvalues --   -1.13429  -1.13373  -1.13360  -1.13343  -1.13336
  Beta  occ. eigenvalues --   -1.13318  -1.13314  -1.13205  -1.13186  -1.13018
  Beta  occ. eigenvalues --   -1.12992  -1.12957  -1.12617  -1.12582  -1.12561
  Beta  occ. eigenvalues --   -0.17823  -0.12861  -0.12045
  Beta virt. eigenvalues --   -0.07282  -0.05563  -0.05353  -0.04084  -0.02708
  Beta virt. eigenvalues --   -0.02350  -0.01889  -0.01437  -0.01047  -0.00275
  Beta virt. eigenvalues --   -0.00040   0.00094   0.00391   0.00839   0.00844

 Mulliken charges and spin densities:
               1          2
     1  Na   0.117064   0.214263
     2  Na   0.024704   0.020408
     3  Na   0.105520  -0.029454
     4  Na   0.024896   0.047869
     5  Na   0.238549   0.000220
     6  Na  -0.012988   0.067400
     7  Na  -0.497745   0.679293
 Sum of Mulliken charges =  -0.00000   1.00000

 Dipole moment (field-independent basis, Debye):
    X=              0.2392    Y=              0.1042    Z=              0.3912  Tot=              0.4703
 Quadrupole moment (field-independent basis, Debye-Ang):
   XX=            -56.2519   YY=            -67.3337   ZZ=            -71.6766
   XY=              0.2702   XZ=              0.4922   YZ=              1.2610

 Normal termination of Gaussian 16 at Thu Dec  7 09:04:43 2023.
