 Gaussian 16, Revision B.01,
 Gaussian 16:  ES64L-G16RevB.01 20-Dec-2017

 -------------------------
 #P B3LYP/6-311+g(d) force
 -------------------------

 -----
 DPGEN
 -----
 Symbolic Z-matrix:
 Charge =  0 Multiplicity = 2

                         Standard orientation:
 ---------------------------------------------------------------------
 Center     Atomic      Atomic             Coordinates (Angstroms)
 Number     Number       Type             X           Y           Z
 ---------------------------------------------------------------------
      1         11           0       -0.000656   -0.301584   -1.433658
      2         11           0        0.697683   -2.662814    0.348457
      3         11           0        3.242194   -0.470211   -0.337012
      4         11           0       -2.503871   -1.716798   -0.165163
      5         11           0       -2.540103    1.724854   -0.372922
      6         11           0        1.238673    2.858580   -0.181904
      7         11           0       -0.133919    0.567974    2.142202
 ---------------------------------------------------------------------

 SCF Done:  E(UB3LYP) =  -1136.13589531     A.U. after   19 cycles

 The electronic state is 2-A.
 Alpha  occ. eigenvalues --  -38.44041 -38.43915 -38.43851 -38.43587 -38.43552
 Alpha  occ. eigenvalues --  -38.43274 -38.43043  -2.19853  -2.19747  -2.19647
 Alpha  occ. eigenvalues --   -2.19465  -2.19418  -2.19177  -2.19073  -1.13530
 Alpha  occ. eigenvalues --   -1.13513  -1.13488  -1.13430  -1.13415  -1.13376
 Alpha  occ. eigenvalues --   -1.13328  -1.13315  -1.13278  -1.13185  -1.13117
 Alpha  occ. eigenvalues --   -1.13099  -1.13079  -1.13044  -1.13033  -1.12955
 Alpha  occ. eigenvalues --   -1.12825  -1.12792  -1.12742  -1.12690  -1.12678
 Alpha  occ. eigenvalues --   -0.18589  -0.12918  -0.12562  -0.10629
 Alpha virt. eigenvalues --   -0.05728  -0.05186  -0.04703  -0.03076  -0.02954
 Alpha virt. eigenvalues --   -0.02420  -0.01561  -0.01208  -0.00524  -0.00285
 Alpha virt. eigenvalues --   -0.00012   0.00337   0.00777   0.00835   0.00902

  Beta  occ. eigenvalues --  -38.44036 -38.43906 -38.43849 -38.43581 -38.43452
  Beta  occ. eigenvalues --  -38.43264 -38.42996  -2.19844  -2.19732  -2.19646
  Beta  occ. eigenvalues --   -2.19459  -2.19233  -2.19162  -2.18989  -1.13516
  Beta  occ. eigenvalues --   -1.13502  -1.13485  -1.13416  -1.13394  -1.13364
  Beta  occ. eigenvalues --   -1.13316  -1.13307  -1.13279  -1.13178  -1.13099
  Beta  occ. eigenvalues --   -1.13089  -1.12959  -1.12932  -1.12918  -1.12898
  Beta  occ. eigenvalues --   -1.12795  -1.12781  -1.12682  -1.12634  -1.12618
  Beta  occ. eigenvalues --   -0.17888  -0.12665  -0.12354
  Beta virt. eigenvalues --   -0.06719  -0.05708  -0.05138  -0.04631  -0.02301
  Beta virt. eigenvalues --   -0.02230  -0.01474  -0.01382  -0.01149  -0.00557
  Beta virt. eigenvalues --   -0.00301   0.00144   0.00379   0.00810   0.00862

 Mulliken charges and spin densities:
               1          2
     1  Na  -0.467049   0.179455
     2  Na   0.277117   0.159537
     3  Na   0.118438  -0.005657
     4  Na   0.353817   0.065526
     5  Na   0.202418  -0.017994
     6  Na   0.066242  -0.067815
     7  Na  -0.550983   0.686948
 Sum of Mulliken charges =  -0.00000   1.00000

 Dipole moment (field-independent basis, Debye):
    X=              0.0718    Y=              0.2860    Z=              0.1323  Tot=              0.3232
 Quadrupole moment (field-independent basis, Debye-Ang):
   XX=            -56.2481   YY=            -61.7441   ZZ=            -74.8314
   XY=              0.2454   XZ=              0.0607   YZ=             -1.8954

 Normal termination of Gaussian 16 at Thu Dec  7 16:54:47 2023.
