 Gaussian 16, Revision B.01,
 Gaussian 16:  ES64L-G16RevB.01 20-Dec-2017

 -------------------------
 #P B3LYP/6-311+g(d) force
 -------------------------

 -----
 DPGEN
 -----
 Symbolic Z-matrix:
 Charge =  0 Multiplicity = 2

                         Standard orientation:
 ---------------------------------------------------------------------
 Center     Atomic      Atomic             Coordinates (Angstroms)
 Number     Number       Type             X           Y           Z
 ---------------------------------------------------------------------
      1         11           0       -1.812921   -2.343843    0.207460
      2         11           0        1.519938   -2.540803   -0.381828
      3         11           0        3.072072    0.334612   -0.068225
      4         11           0        0.357226    0.461143    2.039197
      5         11           0        0.180779    3.135619   -0.307598
      6         11           0       -0.226870    0.279027   -1.434735
      7         11           0       -3.090223    0.674246   -0.054271
 ---------------------------------------------------------------------

 SCF Done:  E(UB3LYP) =  -1136.13568009     A.U. after   18 cycles

 The electronic state is 2-A.
 Alpha  occ. eigenvalues --  -38.44181 -38.44109 -38.43860 -38.43500 -38.43412
 Alpha  occ. eigenvalues --  -38.43375 -38.42886  -2.20020  -2.19952  -2.19697
 Alpha  occ. eigenvalues --   -2.19358  -2.19299  -2.19235  -2.18910  -1.13718
 Alpha  occ. eigenvalues --   -1.13678  -1.13650  -1.13630  -1.13622  -1.13586
 Alpha  occ. eigenvalues --   -1.13412  -1.13351  -1.13315  -1.13040  -1.13016
 Alpha  occ. eigenvalues --   -1.13013  -1.12968  -1.12922  -1.12916  -1.12908
 Alpha  occ. eigenvalues --   -1.12883  -1.12876  -1.12593  -1.12546  -1.12540
 Alpha  occ. eigenvalues --   -0.18637  -0.13047  -0.12653  -0.10477
 Alpha virt. eigenvalues --   -0.05871  -0.05053  -0.04882  -0.03082  -0.02855
 Alpha virt. eigenvalues --   -0.02323  -0.01556  -0.01296  -0.00479  -0.00358
 Alpha virt. eigenvalues --    0.00011   0.00348   0.00805   0.00858   0.00917

  Beta  occ. eigenvalues --  -38.44178 -38.44103 -38.43851 -38.43496 -38.43368
  Beta  occ. eigenvalues --  -38.43316 -38.42832  -2.20018  -2.19946  -2.19683
  Beta  occ. eigenvalues --   -2.19353  -2.19223  -2.19122  -2.18813  -1.13715
  Beta  occ. eigenvalues --   -1.13659  -1.13653  -1.13628  -1.13591  -1.13585
  Beta  occ. eigenvalues --   -1.13396  -1.13326  -1.13307  -1.13037  -1.13015
  Beta  occ. eigenvalues --   -1.12992  -1.12897  -1.12872  -1.12863  -1.12849
  Beta  occ. eigenvalues --   -1.12796  -1.12789  -1.12518  -1.12475  -1.12468
  Beta  occ. eigenvalues --   -0.17945  -0.12824  -0.12401
  Beta virt. eigenvalues --   -0.06587  -0.05864  -0.04967  -0.04855  -0.02308
  Beta virt. eigenvalues --   -0.02125  -0.01485  -0.01273  -0.01221  -0.00531
  Beta virt. eigenvalues --   -0.00378   0.00166   0.00388   0.00805   0.00876

 Mulliken charges and spin densities:
               1          2
     1  Na   0.068397   0.062342
     2  Na   0.057644   0.040181
     3  Na   0.320014   0.004576
     4  Na  -0.522107   0.738903
     5  Na   0.187407  -0.087459
     6  Na  -0.370097   0.274216
     7  Na   0.258741  -0.032760
 Sum of Mulliken charges =  -0.00000   1.00000

 Dipole moment (field-independent basis, Debye):
    X=             -0.0493    Y=              0.3656    Z=              0.1607  Tot=              0.4024
 Quadrupole moment (field-independent basis, Debye-Ang):
   XX=            -56.7084   YY=            -60.1321   ZZ=            -75.9646
   XY=              0.0598   XZ=             -1.2632   YZ=             -0.4125

 Normal termination of Gaussian 16 at Tue Dec  5 15:05:58 2023.
