 Gaussian 16, Revision B.01,
 Gaussian 16:  ES64L-G16RevB.01 20-Dec-2017

 -------------------------
 #P B3LYP/6-311+g(d) force
 -------------------------

 -----
 DPGEN
 -----
 Symbolic Z-matrix:
 Charge =  0 Multiplicity = 2

                         Standard orientation:
 ---------------------------------------------------------------------
 Center     Atomic      Atomic             Coordinates (Angstroms)
 Number     Number       Type             X           Y           Z
 ---------------------------------------------------------------------
      1         11           0        0.493938   -0.237196    2.106704
      2         11           0        0.552499    3.134365   -0.023050
      3         11           0       -2.093194   -2.120831    0.019100
      4         11           0        2.997341    0.396757   -0.291757
      5         11           0       -3.031116    1.217173    0.037454
      6         11           0       -0.320041    0.119705   -1.504722
      7         11           0        1.400572   -2.509972   -0.343728
 ---------------------------------------------------------------------

 SCF Done:  E(UB3LYP) =  -1136.13786710     A.U. after   20 cycles

 The electronic state is 2-A.
 Alpha  occ. eigenvalues --  -38.44168 -38.43883 -38.43766 -38.43632 -38.43519
 Alpha  occ. eigenvalues --  -38.43286 -38.42985  -2.19976  -2.19737  -2.19557
 Alpha  occ. eigenvalues --   -2.19491  -2.19397  -2.19178  -2.18980  -1.13661
 Alpha  occ. eigenvalues --   -1.13637  -1.13610  -1.13416  -1.13406  -1.13375
 Alpha  occ. eigenvalues --   -1.13237  -1.13219  -1.13193  -1.13192  -1.13152
 Alpha  occ. eigenvalues --   -1.13120  -1.13060  -1.13025  -1.13013  -1.12866
 Alpha  occ. eigenvalues --   -1.12829  -1.12813  -1.12667  -1.12610  -1.12609
 Alpha  occ. eigenvalues --   -0.18574  -0.13048  -0.12445  -0.10564
 Alpha virt. eigenvalues --   -0.05743  -0.05134  -0.04903  -0.03127  -0.02785
 Alpha virt. eigenvalues --   -0.02453  -0.01481  -0.01215  -0.00589  -0.00396
 Alpha virt. eigenvalues --   -0.00007   0.00351   0.00803   0.00836   0.00883

  Beta  occ. eigenvalues --  -38.44169 -38.43874 -38.43765 -38.43627 -38.43419
  Beta  occ. eigenvalues --  -38.43275 -38.42932  -2.19978  -2.19725  -2.19559
  Beta  occ. eigenvalues --   -2.19486  -2.19213  -2.19161  -2.18884  -1.13658
  Beta  occ. eigenvalues --   -1.13631  -1.13614  -1.13410  -1.13373  -1.13367
  Beta  occ. eigenvalues --   -1.13230  -1.13213  -1.13197  -1.13185  -1.13127
  Beta  occ. eigenvalues --   -1.13120  -1.12942  -1.12899  -1.12883  -1.12846
  Beta  occ. eigenvalues --   -1.12806  -1.12785  -1.12599  -1.12541  -1.12535
  Beta  occ. eigenvalues --   -0.17852  -0.12834  -0.12235
  Beta virt. eigenvalues --   -0.06618  -0.05728  -0.05114  -0.04838  -0.02370
  Beta virt. eigenvalues --   -0.02057  -0.01422  -0.01352  -0.01133  -0.00625
  Beta virt. eigenvalues --   -0.00452   0.00160   0.00392   0.00825   0.00869

 Mulliken charges and spin densities:
               1          2
     1  Na  -0.623886   0.792755
     2  Na  -0.031243  -0.093514
     3  Na   0.196998  -0.000678
     4  Na   0.245274   0.003333
     5  Na   0.045784  -0.064648
     6  Na  -0.163154   0.302046
     7  Na   0.330228   0.060706
 Sum of Mulliken charges =  -0.00000   1.00000

 Dipole moment (field-independent basis, Debye):
    X=             -0.1902    Y=              0.2200    Z=              0.1637  Tot=              0.3337
 Quadrupole moment (field-independent basis, Debye-Ang):
   XX=            -56.8680   YY=            -60.6732   ZZ=            -75.3642
   XY=             -0.2260   XZ=             -1.7875   YZ=              0.8617

 Normal termination of Gaussian 16 at Thu Dec  7 22:55:25 2023.
