 Gaussian 16, Revision B.01,
 Gaussian 16:  ES64L-G16RevB.01 20-Dec-2017

 -------------------------
 #P B3LYP/6-311+g(d) force
 -------------------------

 -----
 DPGEN
 -----
 Symbolic Z-matrix:
 Charge =  0 Multiplicity = 2

                         Standard orientation:
 ---------------------------------------------------------------------
 Center     Atomic      Atomic             Coordinates (Angstroms)
 Number     Number       Type             X           Y           Z
 ---------------------------------------------------------------------
      1         11           0        0.920472   -2.921743   -0.354332
      2         11           0       -3.198123    1.478308   -0.172003
      3         11           0       -2.156629   -1.708417   -0.421290
      4         11           0       -0.086715   -0.202084    2.530522
      5         11           0        1.260010    3.194501   -0.225406
      6         11           0        3.304493   -0.090478   -0.205531
      7         11           0       -0.043508    0.249914   -1.151961
 ---------------------------------------------------------------------

 SCF Done:  E(UB3LYP) =  -1136.12786134     A.U. after   20 cycles

 The electronic state is 2-A.
 Alpha  occ. eigenvalues --  -38.44587 -38.44309 -38.44121 -38.44041 -38.43518
 Alpha  occ. eigenvalues --  -38.43264 -38.43022  -2.20365  -2.20099  -2.19890
 Alpha  occ. eigenvalues --   -2.19858  -2.19438  -2.19110  -2.19035  -1.14049
 Alpha  occ. eigenvalues --   -1.14029  -1.13990  -1.13765  -1.13759  -1.13746
 Alpha  occ. eigenvalues --   -1.13575  -1.13551  -1.13519  -1.13495  -1.13478
 Alpha  occ. eigenvalues --   -1.13472  -1.13220  -1.13081  -1.13051  -1.12793
 Alpha  occ. eigenvalues --   -1.12762  -1.12754  -1.12727  -1.12684  -1.12641
 Alpha  occ. eigenvalues --   -0.18061  -0.12893  -0.12175  -0.10726
 Alpha virt. eigenvalues --   -0.06238  -0.05072  -0.04843  -0.02931  -0.02828
 Alpha virt. eigenvalues --   -0.02549  -0.01846  -0.01335  -0.00863  -0.00461
 Alpha virt. eigenvalues --   -0.00073   0.00273   0.00700   0.00757   0.00830

  Beta  occ. eigenvalues --  -38.44585 -38.44308 -38.44121 -38.43909 -38.43507
  Beta  occ. eigenvalues --  -38.43258 -38.42994  -2.20362  -2.20100  -2.19893
  Beta  occ. eigenvalues --   -2.19614  -2.19420  -2.19101  -2.18987  -1.14037
  Beta  occ. eigenvalues --   -1.14025  -1.13990  -1.13762  -1.13755  -1.13745
  Beta  occ. eigenvalues --   -1.13573  -1.13549  -1.13522  -1.13330  -1.13309
  Beta  occ. eigenvalues --   -1.13303  -1.13205  -1.13047  -1.13041  -1.12784
  Beta  occ. eigenvalues --   -1.12751  -1.12740  -1.12683  -1.12645  -1.12609
  Beta  occ. eigenvalues --   -0.17404  -0.12734  -0.12026
  Beta virt. eigenvalues --   -0.06533  -0.06229  -0.04989  -0.04842  -0.02232
  Beta virt. eigenvalues --   -0.01908  -0.01779  -0.01635  -0.01265  -0.00880
  Beta virt. eigenvalues --   -0.00487   0.00156   0.00338   0.00718   0.00839

 Mulliken charges and spin densities:
               1          2
     1  Na   0.245625   0.084495
     2  Na   0.166934   0.059269
     3  Na   0.639196   0.143099
     4  Na  -0.661544   0.740399
     5  Na   0.046277   0.037966
     6  Na   0.183391   0.037166
     7  Na  -0.619879  -0.102395
 Sum of Mulliken charges =  -0.00000   1.00000

 Dipole moment (field-independent basis, Debye):
    X=              0.1844    Y=              0.4188    Z=              0.1633  Tot=              0.4859
 Quadrupole moment (field-independent basis, Debye-Ang):
   XX=            -55.5839   YY=            -60.7834   ZZ=            -76.3539
   XY=             -2.1420   XZ=              0.1095   YZ=              0.9824

 Normal termination of Gaussian 16 at Thu Dec  7 15:34:33 2023.
