 Gaussian 16, Revision B.01,
 Gaussian 16:  ES64L-G16RevB.01 20-Dec-2017

 -------------------------
 #P B3LYP/6-311+g(d) force
 -------------------------

 -----
 DPGEN
 -----
 Symbolic Z-matrix:
 Charge =  0 Multiplicity = 2

                         Standard orientation:
 ---------------------------------------------------------------------
 Center     Atomic      Atomic             Coordinates (Angstroms)
 Number     Number       Type             X           Y           Z
 ---------------------------------------------------------------------
      1         11           0        3.439027    0.184299   -0.618051
      2         11           0        1.692049   -2.114500    0.493670
      3         11           0       -2.290865   -2.107615    0.083809
      4         11           0        0.068971    0.603809    1.846195
      5         11           0       -3.510381    0.872989   -0.460137
      6         11           0        0.194157   -0.451899   -1.349334
      7         11           0        0.407042    3.012919    0.003848
 ---------------------------------------------------------------------

 SCF Done:  E(UB3LYP) =  -1136.12340851     A.U. after   21 cycles

 The electronic state is 2-A.
 Alpha  occ. eigenvalues --  -38.44786 -38.44459 -38.44042 -38.43680 -38.43394
 Alpha  occ. eigenvalues --  -38.43150 -38.43056  -2.20571  -2.20315  -2.20034
 Alpha  occ. eigenvalues --   -2.19522  -2.19345  -2.19091  -2.18885  -1.14246
 Alpha  occ. eigenvalues --   -1.14224  -1.14197  -1.14003  -1.13978  -1.13927
 Alpha  occ. eigenvalues --   -1.13812  -1.13685  -1.13649  -1.13205  -1.13185
 Alpha  occ. eigenvalues --   -1.13154  -1.13037  -1.12986  -1.12957  -1.12807
 Alpha  occ. eigenvalues --   -1.12746  -1.12706  -1.12543  -1.12528  -1.12506
 Alpha  occ. eigenvalues --   -0.18561  -0.13612  -0.11976  -0.10471
 Alpha virt. eigenvalues --   -0.06552  -0.05097  -0.04352  -0.03282  -0.02637
 Alpha virt. eigenvalues --   -0.02352  -0.02044  -0.01210  -0.00585  -0.00259
 Alpha virt. eigenvalues --   -0.00075   0.00224   0.00683   0.00776   0.00835

  Beta  occ. eigenvalues --  -38.44761 -38.44423 -38.44020 -38.43678 -38.43377
  Beta  occ. eigenvalues --  -38.43067 -38.43055  -2.20526  -2.20250  -2.19996
  Beta  occ. eigenvalues --   -2.19523  -2.19319  -2.18939  -2.18885  -1.14215
  Beta  occ. eigenvalues --   -1.14190  -1.14165  -1.13964  -1.13922  -1.13880
  Beta  occ. eigenvalues --   -1.13770  -1.13662  -1.13613  -1.13207  -1.13188
  Beta  occ. eigenvalues --   -1.13130  -1.13024  -1.12968  -1.12899  -1.12725
  Beta  occ. eigenvalues --   -1.12642  -1.12607  -1.12535  -1.12509  -1.12486
  Beta  occ. eigenvalues --   -0.17899  -0.13220  -0.11780
  Beta virt. eigenvalues --   -0.06849  -0.06228  -0.04979  -0.04284  -0.02705
  Beta virt. eigenvalues --   -0.02140  -0.02016  -0.01273  -0.01069  -0.00519
  Beta virt. eigenvalues --   -0.00232   0.00081   0.00327   0.00753   0.00832

 Mulliken charges and spin densities:
               1          2
     1  Na   0.166126   0.199576
     2  Na   0.485972   0.273251
     3  Na   0.300402   0.113445
     4  Na  -0.136565   0.204562
     5  Na  -0.073464   0.126309
     6  Na  -0.623726   0.084499
     7  Na  -0.118743  -0.001642
 Sum of Mulliken charges =  -0.00000   1.00000

 Dipole moment (field-independent basis, Debye):
    X=             -0.1770    Y=              0.1008    Z=              0.1384  Tot=              0.2463
 Quadrupole moment (field-independent basis, Debye-Ang):
   XX=            -54.1690   YY=            -66.5706   ZZ=            -73.3723
   XY=             -0.3355   XZ=              0.2026   YZ=             -3.4426

 Normal termination of Gaussian 16 at Tue Dec  5 19:35:16 2023.
