 Gaussian 16, Revision B.01,
 Gaussian 16:  ES64L-G16RevB.01 20-Dec-2017

 -------------------------
 #P B3LYP/6-311+g(d) force
 -------------------------

 -----
 DPGEN
 -----
 Symbolic Z-matrix:
 Charge =  0 Multiplicity = 2

                         Standard orientation:
 ---------------------------------------------------------------------
 Center     Atomic      Atomic             Coordinates (Angstroms)
 Number     Number       Type             X           Y           Z
 ---------------------------------------------------------------------
      1         11           0        0.609412    1.547974   -0.002984
      2         11           0       -0.105115   -0.023836   -1.931476
      3         11           0        2.761680    0.014386   -0.001141
      4         11           0       -0.115545   -0.006421    1.933319
      5         11           0       -1.924573   -1.225639   -0.000565
      6         11           0       -1.865687    1.256859   -0.008947
      7         11           0        0.639829   -1.563322    0.011794
 ---------------------------------------------------------------------

 SCF Done:  E(UB3LYP) =  -1136.00846381     A.U. after   28 cycles

 The electronic state is 2-A.
 Alpha  occ. eigenvalues --  -38.45906 -38.45720 -38.45538 -38.45328 -38.44649
 Alpha  occ. eigenvalues --  -38.43208 -38.43199  -2.22449  -2.22229  -2.21882
 Alpha  occ. eigenvalues --   -2.21598  -2.20731  -2.19506  -2.19494  -1.16675
 Alpha  occ. eigenvalues --   -1.16309  -1.16270  -1.16084  -1.16061  -1.15891
 Alpha  occ. eigenvalues --   -1.15874  -1.15360  -1.15329  -1.15167  -1.15052
 Alpha  occ. eigenvalues --   -1.14891  -1.14405  -1.14392  -1.14214  -1.13242
 Alpha  occ. eigenvalues --   -1.13232  -1.13187  -1.13139  -1.12981  -1.12968
 Alpha  occ. eigenvalues --   -0.22717  -0.14252  -0.13620  -0.12310
 Alpha virt. eigenvalues --   -0.05563  -0.04305  -0.04242  -0.03531  -0.03164
 Alpha virt. eigenvalues --   -0.02497  -0.01220  -0.00328  -0.00110   0.00278
 Alpha virt. eigenvalues --    0.00770   0.00960   0.01066   0.01206   0.01361

  Beta  occ. eigenvalues --  -38.45814 -38.45630 -38.45484 -38.45278 -38.44643
  Beta  occ. eigenvalues --  -38.43190 -38.43181  -2.22288  -2.22071  -2.21789
  Beta  occ. eigenvalues --   -2.21510  -2.20723  -2.19483  -2.19471  -1.16547
  Beta  occ. eigenvalues --   -1.16211  -1.16144  -1.15989  -1.15967  -1.15776
  Beta  occ. eigenvalues --   -1.15766  -1.15271  -1.15269  -1.15081  -1.14994
  Beta  occ. eigenvalues --   -1.14819  -1.14386  -1.14361  -1.14215  -1.13236
  Beta  occ. eigenvalues --   -1.13226  -1.13094  -1.13046  -1.12976  -1.12963
  Beta  occ. eigenvalues --   -0.21918  -0.14062  -0.11902
  Beta virt. eigenvalues --   -0.09045  -0.05538  -0.03508  -0.03487  -0.03314
  Beta virt. eigenvalues --   -0.02198  -0.02038  -0.01212  -0.00097  -0.00089
  Beta virt. eigenvalues --    0.00304   0.00821   0.01131   0.01155   0.01260

 Mulliken charges and spin densities:
               1          2
     1  Na  -0.645452   0.329513
     2  Na   0.430551   0.165285
     3  Na   0.000752  -0.023981
     4  Na   0.432964   0.163460
     5  Na   0.288842  -0.013857
     6  Na   0.197350   0.011487
     7  Na  -0.705008   0.368092
 Sum of Mulliken charges =  -0.00000   1.00000

 Dipole moment (field-independent basis, Debye):
    X=              0.2492    Y=             -0.0814    Z=             -0.0009  Tot=              0.2622
 Quadrupole moment (field-independent basis, Debye-Ang):
   XX=            -58.4171   YY=            -63.7145   ZZ=            -76.6094
   XY=              0.1673   XZ=             -0.0014   YZ=              0.0477

 Normal termination of Gaussian 16 at Thu Dec  7 20:36:21 2023.
