 Gaussian 16, Revision B.01,
 Gaussian 16:  ES64L-G16RevB.01 20-Dec-2017

 -------------------------
 #P B3LYP/6-311+g(d) force
 -------------------------

 -----
 DPGEN
 -----
 Symbolic Z-matrix:
 Charge =  0 Multiplicity = 2

                         Standard orientation:
 ---------------------------------------------------------------------
 Center     Atomic      Atomic             Coordinates (Angstroms)
 Number     Number       Type             X           Y           Z
 ---------------------------------------------------------------------
      1         11           0       -1.435848    0.008578    1.998160
      2         11           0       -2.473507   -1.876540   -1.010012
      3         11           0        1.198672   -1.789994    1.277557
      4         11           0        1.283873    2.056610    0.271166
      5         11           0       -2.423567    1.936838   -0.320645
      6         11           0        0.124836   -0.227681   -1.658232
      7         11           0        3.725541   -0.107810   -0.557994
 ---------------------------------------------------------------------

 SCF Done:  E(UB3LYP) =  -1136.12993203     A.U. after   22 cycles

 The electronic state is 2-A.
 Alpha  occ. eigenvalues --  -38.44680 -38.43913 -38.43881 -38.43739 -38.43463
 Alpha  occ. eigenvalues --  -38.43456 -38.43182  -2.20491  -2.19838  -2.19828
 Alpha  occ. eigenvalues --   -2.19576  -2.19324  -2.19305  -2.19049  -1.14163
 Alpha  occ. eigenvalues --   -1.14147  -1.14127  -1.13540  -1.13526  -1.13518
 Alpha  occ. eigenvalues --   -1.13480  -1.13459  -1.13432  -1.13250  -1.13209
 Alpha  occ. eigenvalues --   -1.13192  -1.13022  -1.12993  -1.12976  -1.12959
 Alpha  occ. eigenvalues --   -1.12928  -1.12924  -1.12767  -1.12725  -1.12642
 Alpha  occ. eigenvalues --   -0.18635  -0.13647  -0.11629  -0.11309
 Alpha virt. eigenvalues --   -0.06253  -0.05004  -0.04284  -0.03233  -0.02827
 Alpha virt. eigenvalues --   -0.02783  -0.02066  -0.00965  -0.00645   0.00065
 Alpha virt. eigenvalues --    0.00213   0.00279   0.00473   0.00749   0.00834

  Beta  occ. eigenvalues --  -38.44678 -38.43836 -38.43825 -38.43708 -38.43451
  Beta  occ. eigenvalues --  -38.43422 -38.43179  -2.20488  -2.19736  -2.19690
  Beta  occ. eigenvalues --   -2.19522  -2.19298  -2.19253  -2.19046  -1.14158
  Beta  occ. eigenvalues --   -1.14142  -1.14125  -1.13467  -1.13443  -1.13416
  Beta  occ. eigenvalues --   -1.13392  -1.13385  -1.13338  -1.13195  -1.13177
  Beta  occ. eigenvalues --   -1.13154  -1.12979  -1.12967  -1.12950  -1.12916
  Beta  occ. eigenvalues --   -1.12911  -1.12883  -1.12765  -1.12704  -1.12642
  Beta  occ. eigenvalues --   -0.17908  -0.13435  -0.11049
  Beta virt. eigenvalues --   -0.07587  -0.06112  -0.04972  -0.03794  -0.02942
  Beta virt. eigenvalues --   -0.02160  -0.01983  -0.01842  -0.00897  -0.00291
  Beta virt. eigenvalues --    0.00104   0.00226   0.00302   0.00645   0.00799

 Mulliken charges and spin densities:
               1          2
     1  Na   0.192639   0.413283
     2  Na  -0.002041   0.003629
     3  Na  -0.336335   0.108274
     4  Na  -0.283485   0.008027
     5  Na   0.167903   0.005102
     6  Na  -0.323589   0.461829
     7  Na   0.584907  -0.000144
 Sum of Mulliken charges =  -0.00000   1.00000

 Dipole moment (field-independent basis, Debye):
    X=              0.5594    Y=             -0.1215    Z=             -0.1521  Tot=              0.5923
 Quadrupole moment (field-independent basis, Debye-Ang):
   XX=            -49.8956   YY=            -74.2695   ZZ=            -69.2329
   XY=             -0.5903   XZ=             -0.5117   YZ=              0.1340

 Normal termination of Gaussian 16 at Tue Dec  5 23:25:15 2023.
