 Gaussian 16, Revision B.01,
 Gaussian 16:  ES64L-G16RevB.01 20-Dec-2017

 -------------------------
 #P B3LYP/6-311+g(d) force
 -------------------------

 -----
 DPGEN
 -----
 Symbolic Z-matrix:
 Charge =  0 Multiplicity = 2

                         Standard orientation:
 ---------------------------------------------------------------------
 Center     Atomic      Atomic             Coordinates (Angstroms)
 Number     Number       Type             X           Y           Z
 ---------------------------------------------------------------------
      1         11           0        0.232199   -0.607513   -1.339146
      2         11           0        3.865626   -0.604455   -0.745876
      3         11           0        1.879618    2.076882    0.122151
      4         11           0        1.096905   -1.331098    1.288934
      5         11           0       -3.381380    1.131925   -1.134212
      6         11           0       -2.662597   -1.945512    0.258138
      7         11           0       -1.030372    1.279771    1.550012
 ---------------------------------------------------------------------

 SCF Done:  E(UB3LYP) =  -1136.12201891     A.U. after   26 cycles

 The electronic state is 2-A.
 Alpha  occ. eigenvalues --  -38.44724 -38.44581 -38.44503 -38.43908 -38.43775
 Alpha  occ. eigenvalues --  -38.43068 -38.42672  -2.20651  -2.20409  -2.20320
 Alpha  occ. eigenvalues --   -2.19735  -2.19722  -2.18937  -2.18579  -1.14476
 Alpha  occ. eigenvalues --   -1.14286  -1.14237  -1.14077  -1.14057  -1.14028
 Alpha  occ. eigenvalues --   -1.13984  -1.13949  -1.13947  -1.13464  -1.13402
 Alpha  occ. eigenvalues --   -1.13379  -1.13366  -1.13353  -1.13310  -1.12631
 Alpha  occ. eigenvalues --   -1.12608  -1.12566  -1.12270  -1.12230  -1.12197
 Alpha  occ. eigenvalues --   -0.18621  -0.14282  -0.11088  -0.10870
 Alpha virt. eigenvalues --   -0.06695  -0.05510  -0.04454  -0.02942  -0.02777
 Alpha virt. eigenvalues --   -0.02433  -0.02144  -0.01109  -0.00844  -0.00308
 Alpha virt. eigenvalues --    0.00075   0.00236   0.00404   0.00580   0.00713

  Beta  occ. eigenvalues --  -38.44717 -38.44548 -38.44441 -38.43906 -38.43719
  Beta  occ. eigenvalues --  -38.43065 -38.42636  -2.20639  -2.20347  -2.20204
  Beta  occ. eigenvalues --   -2.19722  -2.19636  -2.18935  -2.18517  -1.14442
  Beta  occ. eigenvalues --   -1.14283  -1.14229  -1.14034  -1.14012  -1.13991
  Beta  occ. eigenvalues --   -1.13904  -1.13874  -1.13866  -1.13403  -1.13401
  Beta  occ. eigenvalues --   -1.13383  -1.13338  -1.13261  -1.13238  -1.12634
  Beta  occ. eigenvalues --   -1.12596  -1.12553  -1.12221  -1.12165  -1.12159
  Beta  occ. eigenvalues --   -0.17960  -0.13781  -0.10703
  Beta virt. eigenvalues --   -0.07421  -0.06410  -0.05329  -0.03911  -0.02836
  Beta virt. eigenvalues --   -0.02526  -0.01861  -0.01433  -0.01047  -0.00508
  Beta virt. eigenvalues --   -0.00164   0.00156   0.00274   0.00492   0.00683

 Mulliken charges and spin densities:
               1          2
     1  Na  -0.289529   0.100812
     2  Na   0.555650   0.189330
     3  Na  -0.414602  -0.021322
     4  Na  -0.093361   0.283929
     5  Na  -0.091405   0.271772
     6  Na   0.151901   0.073052
     7  Na   0.181347   0.102426
 Sum of Mulliken charges =  -0.00000   1.00000

 Dipole moment (field-independent basis, Debye):
    X=              0.3075    Y=             -0.2455    Z=             -0.1396  Tot=              0.4175
 Quadrupole moment (field-independent basis, Debye-Ang):
   XX=            -50.8381   YY=            -76.2700   ZZ=            -67.4871
   XY=              0.2972   XZ=             -0.5992   YZ=             -4.3323

 Normal termination of Gaussian 16 at Tue Dec  5 18:52:22 2023.
