 Gaussian 16, Revision B.01,
 Gaussian 16:  ES64L-G16RevB.01 20-Dec-2017

 -------------------------
 #P B3LYP/6-311+g(d) force
 -------------------------

 -----
 DPGEN
 -----
 Symbolic Z-matrix:
 Charge =  0 Multiplicity = 2

                         Standard orientation:
 ---------------------------------------------------------------------
 Center     Atomic      Atomic             Coordinates (Angstroms)
 Number     Number       Type             X           Y           Z
 ---------------------------------------------------------------------
      1         11           0        4.028615   -2.396837   -0.175473
      2         11           0        0.485058   -1.581046    0.575214
      3         11           0        2.993777    0.641645   -0.422312
      4         11           0        1.192233    3.434756   -0.636164
      5         11           0       -0.557048    1.540139    1.471252
      6         11           0       -2.655070   -1.315958   -0.419601
      7         11           0       -5.487565   -0.322699   -0.392916
 ---------------------------------------------------------------------

 SCF Done:  E(UB3LYP) =  -1136.12237658     A.U. after   20 cycles

 The electronic state is 2-A.
 Alpha  occ. eigenvalues --  -38.44797 -38.44374 -38.43890 -38.43880 -38.43721
 Alpha  occ. eigenvalues --  -38.43592 -38.43558  -2.20615  -2.20213  -2.19769
 Alpha  occ. eigenvalues --   -2.19766  -2.19535  -2.19423  -2.19416  -1.14311
 Alpha  occ. eigenvalues --   -1.14283  -1.14222  -1.13896  -1.13832  -1.13830
 Alpha  occ. eigenvalues --   -1.13477  -1.13462  -1.13454  -1.13427  -1.13405
 Alpha  occ. eigenvalues --   -1.13358  -1.13193  -1.13192  -1.13153  -1.13111
 Alpha  occ. eigenvalues --   -1.13085  -1.13075  -1.13074  -1.13052  -1.13052
 Alpha  occ. eigenvalues --   -0.17176  -0.14027  -0.12421  -0.11255
 Alpha virt. eigenvalues --   -0.06223  -0.05158  -0.04350  -0.03852  -0.02957
 Alpha virt. eigenvalues --   -0.02169  -0.01729  -0.01533  -0.01108  -0.00952
 Alpha virt. eigenvalues --   -0.00473   0.00075   0.00416   0.00575   0.00594

  Beta  occ. eigenvalues --  -38.44777 -38.44282 -38.43862 -38.43823 -38.43707
  Beta  occ. eigenvalues --  -38.43572 -38.43555  -2.20581  -2.20042  -2.19718
  Beta  occ. eigenvalues --   -2.19667  -2.19510  -2.19421  -2.19386  -1.14282
  Beta  occ. eigenvalues --   -1.14261  -1.14192  -1.13785  -1.13715  -1.13713
  Beta  occ. eigenvalues --   -1.13433  -1.13425  -1.13395  -1.13370  -1.13362
  Beta  occ. eigenvalues --   -1.13271  -1.13175  -1.13167  -1.13138  -1.13093
  Beta  occ. eigenvalues --   -1.13087  -1.13054  -1.13048  -1.13032  -1.13011
  Beta  occ. eigenvalues --   -0.16552  -0.13170  -0.12280
  Beta virt. eigenvalues --   -0.07807  -0.05864  -0.04954  -0.03902  -0.03573
  Beta virt. eigenvalues --   -0.02631  -0.02047  -0.01558  -0.01141  -0.00775
  Beta virt. eigenvalues --   -0.00555  -0.00273   0.00218   0.00538   0.00638

 Mulliken charges and spin densities:
               1          2
     1  Na   0.962169   0.060939
     2  Na  -1.060844   0.285785
     3  Na  -0.733702   0.285632
     4  Na   0.354559   0.013376
     5  Na  -0.074425   0.025719
     6  Na  -0.268469   0.149678
     7  Na   0.820712   0.178871
 Sum of Mulliken charges =  -0.00000   1.00000

 Dipole moment (field-independent basis, Debye):
    X=              0.0907    Y=              0.4514    Z=              0.3421  Tot=              0.5736
 Quadrupole moment (field-independent basis, Debye-Ang):
   XX=            -63.9181   YY=            -65.1069   ZZ=            -68.8353
   XY=             -6.7532   XZ=             -2.2319   YZ=             -0.1983

 Normal termination of Gaussian 16 at Mon Dec  4 04:08:25 2023.
