 Gaussian 16, Revision B.01,
 Gaussian 16:  ES64L-G16RevB.01 20-Dec-2017

 -------------------------
 #P B3LYP/6-311+g(d) force
 -------------------------

 -----
 DPGEN
 -----
 Symbolic Z-matrix:
 Charge =  0 Multiplicity = 2

                         Standard orientation:
 ---------------------------------------------------------------------
 Center     Atomic      Atomic             Coordinates (Angstroms)
 Number     Number       Type             X           Y           Z
 ---------------------------------------------------------------------
      1         11           0       -1.489433   -1.971083   -0.935135
      2         11           0        2.451342   -1.355578   -1.351374
      3         11           0        3.690657    1.507196    0.865747
      4         11           0       -2.872860   -0.716643    1.069125
      5         11           0       -2.828422    2.488156   -0.441733
      6         11           0        0.456352    1.654373   -0.564342
      7         11           0        0.592366   -1.606420    1.357712
 ---------------------------------------------------------------------

 SCF Done:  E(UB3LYP) =  -1136.11893328     A.U. after   21 cycles

 The electronic state is 2-A.
 Alpha  occ. eigenvalues --  -38.44495 -38.44390 -38.44241 -38.44239 -38.44180
 Alpha  occ. eigenvalues --  -38.43556 -38.43408  -2.20425  -2.20273  -2.20098
 Alpha  occ. eigenvalues --   -2.20082  -2.20039  -2.19389  -2.19209  -1.14340
 Alpha  occ. eigenvalues --   -1.14118  -1.14036  -1.13961  -1.13946  -1.13866
 Alpha  occ. eigenvalues --   -1.13752  -1.13738  -1.13731  -1.13703  -1.13700
 Alpha  occ. eigenvalues --   -1.13691  -1.13687  -1.13655  -1.13647  -1.13098
 Alpha  occ. eigenvalues --   -1.13075  -1.13008  -1.12872  -1.12863  -1.12846
 Alpha  occ. eigenvalues --   -0.18075  -0.13939  -0.12143  -0.10220
 Alpha virt. eigenvalues --   -0.06491  -0.05894  -0.04574  -0.03575  -0.02596
 Alpha virt. eigenvalues --   -0.02288  -0.01768  -0.01535  -0.00692  -0.00436
 Alpha virt. eigenvalues --   -0.00137   0.00169   0.00261   0.00449   0.00677

  Beta  occ. eigenvalues --  -38.44490 -38.44378 -38.44191 -38.44182 -38.44151
  Beta  occ. eigenvalues --  -38.43545 -38.43400  -2.20422  -2.20253  -2.20045
  Beta  occ. eigenvalues --   -2.19995  -2.19927  -2.19371  -2.19196  -1.14315
  Beta  occ. eigenvalues --   -1.14114  -1.14022  -1.13948  -1.13906  -1.13857
  Beta  occ. eigenvalues --   -1.13701  -1.13692  -1.13674  -1.13670  -1.13623
  Beta  occ. eigenvalues --   -1.13616  -1.13611  -1.13610  -1.13576  -1.13086
  Beta  occ. eigenvalues --   -1.13047  -1.12990  -1.12862  -1.12852  -1.12837
  Beta  occ. eigenvalues --   -0.17560  -0.13560  -0.11783
  Beta virt. eigenvalues --   -0.06803  -0.06191  -0.05773  -0.04140  -0.03254
  Beta virt. eigenvalues --   -0.02209  -0.01955  -0.01501  -0.01094  -0.00530
  Beta virt. eigenvalues --   -0.00124  -0.00006   0.00257   0.00382   0.00521

 Mulliken charges and spin densities:
               1          2
     1  Na  -0.085185   0.194649
     2  Na   0.395647   0.243991
     3  Na   0.503874   0.278287
     4  Na   0.572046   0.084731
     5  Na  -0.099734  -0.013638
     6  Na  -1.058543   0.114861
     7  Na  -0.228106   0.097119
 Sum of Mulliken charges =  -0.00000   1.00000

 Dipole moment (field-independent basis, Debye):
    X=              0.3003    Y=             -0.7045    Z=             -0.1437  Tot=              0.7792
 Quadrupole moment (field-independent basis, Debye-Ang):
   XX=            -55.5512   YY=            -72.5003   ZZ=            -69.5280
   XY=             -1.5062   XZ=             -0.2725   YZ=              2.0642

 Normal termination of Gaussian 16 at Wed Dec  6 00:23:29 2023.
