 Gaussian 16, Revision B.01,
 Gaussian 16:  ES64L-G16RevB.01 20-Dec-2017

 -------------------------
 #P B3LYP/6-311+g(d) force
 -------------------------

 -----
 DPGEN
 -----
 Symbolic Z-matrix:
 Charge =  0 Multiplicity = 2

                         Standard orientation:
 ---------------------------------------------------------------------
 Center     Atomic      Atomic             Coordinates (Angstroms)
 Number     Number       Type             X           Y           Z
 ---------------------------------------------------------------------
      1         11           0        3.235070   -0.335013   -0.270180
      2         11           0       -2.320538   -1.955918    0.010055
      3         11           0        0.796429   -2.272250    0.056616
      4         11           0       -0.055048   -0.034254    1.989236
      5         11           0       -2.565605    1.510285   -0.370498
      6         11           0        0.761368    2.886745    0.360756
      7         11           0        0.148324    0.200406   -1.775984
 ---------------------------------------------------------------------

 SCF Done:  E(UB3LYP) =  -1136.13511173     A.U. after   19 cycles

 The electronic state is 2-A.
 Alpha  occ. eigenvalues --  -38.43981 -38.43826 -38.43684 -38.43549 -38.43458
 Alpha  occ. eigenvalues --  -38.43377 -38.42949  -2.19821  -2.19669  -2.19625
 Alpha  occ. eigenvalues --   -2.19431  -2.19373  -2.19252  -2.18956  -1.13513
 Alpha  occ. eigenvalues --   -1.13482  -1.13452  -1.13368  -1.13335  -1.13329
 Alpha  occ. eigenvalues --   -1.13295  -1.13257  -1.13230  -1.13135  -1.13085
 Alpha  occ. eigenvalues --   -1.13049  -1.13042  -1.13017  -1.12998  -1.12956
 Alpha  occ. eigenvalues --   -1.12906  -1.12891  -1.12639  -1.12614  -1.12555
 Alpha  occ. eigenvalues --   -0.19014  -0.12956  -0.12539  -0.11091
 Alpha virt. eigenvalues --   -0.05586  -0.05011  -0.04381  -0.03180  -0.03073
 Alpha virt. eigenvalues --   -0.02729  -0.01556  -0.01071  -0.00235  -0.00019
 Alpha virt. eigenvalues --    0.00095   0.00352   0.00802   0.00907   0.00970

  Beta  occ. eigenvalues --  -38.43977 -38.43817 -38.43591 -38.43540 -38.43388
  Beta  occ. eigenvalues --  -38.43375 -38.42936  -2.19817  -2.19655  -2.19454
  Beta  occ. eigenvalues --   -2.19361  -2.19303  -2.19252  -2.18938  -1.13513
  Beta  occ. eigenvalues --   -1.13465  -1.13445  -1.13347  -1.13313  -1.13286
  Beta  occ. eigenvalues --   -1.13219  -1.13140  -1.13112  -1.13053  -1.13040
  Beta  occ. eigenvalues --   -1.13016  -1.12994  -1.12965  -1.12958  -1.12939
  Beta  occ. eigenvalues --   -1.12900  -1.12872  -1.12629  -1.12568  -1.12535
  Beta  occ. eigenvalues --   -0.18254  -0.12693  -0.12276
  Beta virt. eigenvalues --   -0.07150  -0.05546  -0.04969  -0.04373  -0.02410
  Beta virt. eigenvalues --   -0.02275  -0.01669  -0.01452  -0.01000  -0.00261
  Beta virt. eigenvalues --    0.00056   0.00101   0.00371   0.00838   0.00915

 Mulliken charges and spin densities:
               1          2
     1  Na   0.213735  -0.070789
     2  Na   0.078336  -0.062021
     3  Na   0.443538   0.096473
     4  Na  -0.477226   0.608143
     5  Na   0.188141  -0.035641
     6  Na  -0.003581  -0.070495
     7  Na  -0.442943   0.534331
 Sum of Mulliken charges =  -0.00000   1.00000

 Dipole moment (field-independent basis, Debye):
    X=              0.0605    Y=              0.4100    Z=              0.0389  Tot=              0.4163
 Quadrupole moment (field-independent basis, Debye-Ang):
   XX=            -56.3085   YY=            -64.9349   ZZ=            -72.5768
   XY=              1.0811   XZ=              0.3262   YZ=              0.4436

 Normal termination of Gaussian 16 at Fri Dec  8 01:21:31 2023.
