 Gaussian 16, Revision B.01,
 Gaussian 16:  ES64L-G16RevB.01 20-Dec-2017

 -------------------------
 #P B3LYP/6-311+g(d) force
 -------------------------

 -----
 DPGEN
 -----
 Symbolic Z-matrix:
 Charge =  0 Multiplicity = 2

                         Standard orientation:
 ---------------------------------------------------------------------
 Center     Atomic      Atomic             Coordinates (Angstroms)
 Number     Number       Type             X           Y           Z
 ---------------------------------------------------------------------
      1         11           0       -0.075014    3.211318    0.086672
      2         11           0       -0.031538   -0.063702    1.995417
      3         11           0        2.918929    1.009570    0.042481
      4         11           0        2.021734   -2.220527   -0.534749
      5         11           0       -0.332484   -0.000283   -1.688412
      6         11           0       -3.080381    0.585140   -0.364832
      7         11           0       -1.421246   -2.521517    0.463423
 ---------------------------------------------------------------------

 SCF Done:  E(UB3LYP) =  -1136.13800069     A.U. after   19 cycles

 The electronic state is 2-A.
 Alpha  occ. eigenvalues --  -38.43926 -38.43826 -38.43791 -38.43684 -38.43506
 Alpha  occ. eigenvalues --  -38.43415 -38.43336  -2.19765  -2.19612  -2.19607
 Alpha  occ. eigenvalues --   -2.19582  -2.19380  -2.19294  -2.19262  -1.13490
 Alpha  occ. eigenvalues --   -1.13412  -1.13385  -1.13294  -1.13289  -1.13283
 Alpha  occ. eigenvalues --   -1.13275  -1.13271  -1.13256  -1.13233  -1.13215
 Alpha  occ. eigenvalues --   -1.13200  -1.13053  -1.13045  -1.13004  -1.12973
 Alpha  occ. eigenvalues --   -1.12960  -1.12917  -1.12909  -1.12900  -1.12890
 Alpha  occ. eigenvalues --   -0.18498  -0.12831  -0.12492  -0.10867
 Alpha virt. eigenvalues --   -0.05546  -0.05029  -0.04920  -0.03150  -0.03020
 Alpha virt. eigenvalues --   -0.02607  -0.01385  -0.01263  -0.00418  -0.00378
 Alpha virt. eigenvalues --    0.00007   0.00355   0.00839   0.00845   0.00902

  Beta  occ. eigenvalues --  -38.43915 -38.43826 -38.43790 -38.43593 -38.43490
  Beta  occ. eigenvalues --  -38.43403 -38.43272  -2.19748  -2.19614  -2.19607
  Beta  occ. eigenvalues --   -2.19416  -2.19356  -2.19241  -2.19176  -1.13467
  Beta  occ. eigenvalues --   -1.13389  -1.13377  -1.13288  -1.13285  -1.13276
  Beta  occ. eigenvalues --   -1.13267  -1.13255  -1.13232  -1.13173  -1.13100
  Beta  occ. eigenvalues --   -1.13089  -1.13026  -1.12993  -1.12986  -1.12930
  Beta  occ. eigenvalues --   -1.12897  -1.12886  -1.12877  -1.12834  -1.12821
  Beta  occ. eigenvalues --   -0.17781  -0.12569  -0.12249
  Beta virt. eigenvalues --   -0.06974  -0.05543  -0.04919  -0.04895  -0.02394
  Beta virt. eigenvalues --   -0.02281  -0.01586  -0.01289  -0.01170  -0.00448
  Beta virt. eigenvalues --   -0.00398   0.00125   0.00388   0.00835   0.00885

 Mulliken charges and spin densities:
               1          2
     1  Na  -0.113484  -0.108673
     2  Na  -0.205401   0.646193
     3  Na  -0.047016  -0.066065
     4  Na   0.062356   0.006519
     5  Na  -0.056814   0.530822
     6  Na   0.126167  -0.082814
     7  Na   0.234193   0.074020
 Sum of Mulliken charges =  -0.00000   1.00000

 Dipole moment (field-independent basis, Debye):
    X=             -0.1413    Y=              0.1917    Z=              0.1030  Tot=              0.2595
 Quadrupole moment (field-independent basis, Debye-Ang):
   XX=            -59.0621   YY=            -60.5908   ZZ=            -74.0011
   XY=             -0.0678   XZ=             -0.5498   YZ=              0.3468

 Normal termination of Gaussian 16 at Sun Dec  3 18:26:53 2023.
