 Gaussian 16, Revision B.01,
 Gaussian 16:  ES64L-G16RevB.01 20-Dec-2017

 -------------------------
 #P B3LYP/6-311+g(d) force
 -------------------------

 -----
 DPGEN
 -----
 Symbolic Z-matrix:
 Charge =  0 Multiplicity = 2

                         Standard orientation:
 ---------------------------------------------------------------------
 Center     Atomic      Atomic             Coordinates (Angstroms)
 Number     Number       Type             X           Y           Z
 ---------------------------------------------------------------------
      1         11           0       -3.458360   -0.579477   -0.043003
      2         11           0        1.672469    2.174015   -0.328620
      3         11           0        0.040455   -0.755752   -1.737888
      4         11           0       -1.620022    2.496276   -0.033752
      5         11           0        3.231104   -0.592730   -0.015505
      6         11           0       -0.121529   -2.786005    0.227278
      7         11           0        0.255883    0.043673    1.931491
 ---------------------------------------------------------------------

 SCF Done:  E(UB3LYP) =  -1136.13043082     A.U. after   19 cycles

 The electronic state is 2-A.
 Alpha  occ. eigenvalues --  -38.44914 -38.44524 -38.43555 -38.43519 -38.43404
 Alpha  occ. eigenvalues --  -38.43339 -38.43176  -2.20670  -2.20359  -2.19506
 Alpha  occ. eigenvalues --   -2.19412  -2.19324  -2.19166  -2.19076  -1.14350
 Alpha  occ. eigenvalues --   -1.14326  -1.14307  -1.14044  -1.14021  -1.13990
 Alpha  occ. eigenvalues --   -1.13418  -1.13159  -1.13090  -1.13083  -1.12996
 Alpha  occ. eigenvalues --   -1.12987  -1.12984  -1.12950  -1.12936  -1.12856
 Alpha  occ. eigenvalues --   -1.12833  -1.12812  -1.12743  -1.12730  -1.12706
 Alpha  occ. eigenvalues --   -0.18593  -0.13040  -0.12432  -0.10633
 Alpha virt. eigenvalues --   -0.06420  -0.04889  -0.04527  -0.03151  -0.02916
 Alpha virt. eigenvalues --   -0.02445  -0.02098  -0.00958  -0.00473  -0.00218
 Alpha virt. eigenvalues --   -0.00048   0.00318   0.00758   0.00782   0.00870

  Beta  occ. eigenvalues --  -38.44917 -38.44519 -38.43508 -38.43490 -38.43337
  Beta  occ. eigenvalues --  -38.43312 -38.43166  -2.20676  -2.20353  -2.19413
  Beta  occ. eigenvalues --   -2.19371  -2.19166  -2.19155  -2.19061  -1.14343
  Beta  occ. eigenvalues --   -1.14332  -1.14312  -1.14042  -1.13991  -1.13988
  Beta  occ. eigenvalues --   -1.13365  -1.13085  -1.13033  -1.13019  -1.12966
  Beta  occ. eigenvalues --   -1.12931  -1.12890  -1.12858  -1.12835  -1.12828
  Beta  occ. eigenvalues --   -1.12811  -1.12802  -1.12733  -1.12706  -1.12684
  Beta  occ. eigenvalues --   -0.17854  -0.12853  -0.12188
  Beta virt. eigenvalues --   -0.06711  -0.06384  -0.04897  -0.04449  -0.02416
  Beta virt. eigenvalues --   -0.02144  -0.02011  -0.01387  -0.00919  -0.00512
  Beta virt. eigenvalues --   -0.00245   0.00108   0.00350   0.00787   0.00887

 Mulliken charges and spin densities:
               1          2
     1  Na  -0.001804  -0.105559
     2  Na  -0.057298   0.018139
     3  Na  -0.262956   0.638883
     4  Na  -0.083022  -0.076533
     5  Na   0.428204  -0.016216
     6  Na   0.238017  -0.203290
     7  Na  -0.261142   0.744575
 Sum of Mulliken charges =  -0.00000   1.00000

 Dipole moment (field-independent basis, Debye):
    X=             -0.1849    Y=             -0.3541    Z=              0.0729  Tot=              0.4060
 Quadrupole moment (field-independent basis, Debye-Ang):
   XX=            -51.8641   YY=            -66.3931   ZZ=            -74.8955
   XY=             -0.0980   XZ=             -0.3254   YZ=             -1.4960

 Normal termination of Gaussian 16 at Tue Dec  5 17:38:38 2023.
