 Gaussian 16, Revision B.01,
 Gaussian 16:  ES64L-G16RevB.01 20-Dec-2017

 -------------------------
 #P B3LYP/6-311+g(d) force
 -------------------------

 -----
 DPGEN
 -----
 Symbolic Z-matrix:
 Charge =  0 Multiplicity = 2

                         Standard orientation:
 ---------------------------------------------------------------------
 Center     Atomic      Atomic             Coordinates (Angstroms)
 Number     Number       Type             X           Y           Z
 ---------------------------------------------------------------------
      1         11           0       -3.128039   -0.131349    0.029676
      2         11           0       -0.837814   -2.892133   -0.097299
      3         11           0       -0.980925    2.954843   -0.052304
      4         11           0       -0.020497    0.031576   -1.579884
      5         11           0        2.521367    1.574200   -0.135505
      6         11           0        2.358305   -1.659966    0.047781
      7         11           0        0.087603    0.122828    1.787535
 ---------------------------------------------------------------------

 SCF Done:  E(UB3LYP) =  -1136.14008075     A.U. after   19 cycles

 The electronic state is 2-A.
 Alpha  occ. eigenvalues --  -38.44008 -38.43791 -38.43635 -38.43503 -38.43419
 Alpha  occ. eigenvalues --  -38.42989 -38.42811  -2.19825  -2.19615  -2.19521
 Alpha  occ. eigenvalues --   -2.19357  -2.19328  -2.18953  -2.18829  -1.13503
 Alpha  occ. eigenvalues --   -1.13491  -1.13460  -1.13293  -1.13284  -1.13247
 Alpha  occ. eigenvalues --   -1.13223  -1.13186  -1.13158  -1.13054  -1.13025
 Alpha  occ. eigenvalues --   -1.13005  -1.12994  -1.12989  -1.12940  -1.12657
 Alpha  occ. eigenvalues --   -1.12569  -1.12568  -1.12513  -1.12451  -1.12449
 Alpha  occ. eigenvalues --   -0.18973  -0.12990  -0.12740  -0.10373
 Alpha virt. eigenvalues --   -0.05568  -0.05104  -0.04998  -0.02946  -0.02793
 Alpha virt. eigenvalues --   -0.02124  -0.01428  -0.01329  -0.00454  -0.00347
 Alpha virt. eigenvalues --    0.00041   0.00363   0.00835   0.00865   0.00907

  Beta  occ. eigenvalues --  -38.44006 -38.43787 -38.43627 -38.43498 -38.43411
  Beta  occ. eigenvalues --  -38.42904 -38.42743  -2.19824  -2.19611  -2.19510
  Beta  occ. eigenvalues --   -2.19352  -2.19318  -2.18799  -2.18705  -1.13494
  Beta  occ. eigenvalues --   -1.13479  -1.13463  -1.13286  -1.13264  -1.13248
  Beta  occ. eigenvalues --   -1.13219  -1.13156  -1.13145  -1.13051  -1.13008
  Beta  occ. eigenvalues --   -1.12994  -1.12991  -1.12945  -1.12939  -1.12555
  Beta  occ. eigenvalues --   -1.12458  -1.12456  -1.12422  -1.12359  -1.12357
  Beta  occ. eigenvalues --   -0.18245  -0.12736  -0.12486
  Beta virt. eigenvalues --   -0.06459  -0.05577  -0.05076  -0.04991  -0.02145
  Beta virt. eigenvalues --   -0.02020  -0.01353  -0.01259  -0.01086  -0.00508
  Beta virt. eigenvalues --   -0.00409   0.00172   0.00391   0.00839   0.00889

 Mulliken charges and spin densities:
               1          2
     1  Na   0.015045  -0.122320
     2  Na   0.117892  -0.075966
     3  Na   0.047468  -0.140856
     4  Na  -0.399088   0.615526
     5  Na   0.291507  -0.055927
     6  Na   0.331138   0.007741
     7  Na  -0.403963   0.771801
 Sum of Mulliken charges =  -0.00000   1.00000

 Dipole moment (field-independent basis, Debye):
    X=             -0.2635    Y=              0.1750    Z=              0.0702  Tot=              0.3240
 Quadrupole moment (field-independent basis, Debye-Ang):
   XX=            -56.8391   YY=            -58.2163   ZZ=            -76.5170
   XY=              0.0887   XZ=             -0.2801   YZ=             -0.2325

 Normal termination of Gaussian 16 at Thu Dec  7 07:11:49 2023.
