 Gaussian 16, Revision B.01,
 Gaussian 16:  ES64L-G16RevB.01 20-Dec-2017

 -------------------------
 #P B3LYP/6-311+g(d) force
 -------------------------

 -----
 DPGEN
 -----
 Symbolic Z-matrix:
 Charge =  0 Multiplicity = 2

                         Standard orientation:
 ---------------------------------------------------------------------
 Center     Atomic      Atomic             Coordinates (Angstroms)
 Number     Number       Type             X           Y           Z
 ---------------------------------------------------------------------
      1         11           0        2.539934   -1.736757   -0.241938
      2         11           0        0.363422    0.118948    1.715720
      3         11           0       -3.007852   -0.039415    0.133454
      4         11           0       -1.064879    2.654721   -0.203822
      5         11           0       -0.987277   -2.608521    0.257780
      6         11           0        2.338588    1.902062    0.050629
      7         11           0       -0.181934   -0.291038   -1.711824
 ---------------------------------------------------------------------

 SCF Done:  E(UB3LYP) =  -1136.13930394     A.U. after   19 cycles

 The electronic state is 2-A.
 Alpha  occ. eigenvalues --  -38.43797 -38.43746 -38.43673 -38.43370 -38.43315
 Alpha  occ. eigenvalues --  -38.43039 -38.43035  -2.19641  -2.19608  -2.19556
 Alpha  occ. eigenvalues --   -2.19282  -2.19192  -2.19040  -2.19030  -1.13328
 Alpha  occ. eigenvalues --   -1.13318  -1.13305  -1.13279  -1.13262  -1.13240
 Alpha  occ. eigenvalues --   -1.13227  -1.13221  -1.13213  -1.13000  -1.12952
 Alpha  occ. eigenvalues --   -1.12894  -1.12879  -1.12860  -1.12822  -1.12735
 Alpha  occ. eigenvalues --   -1.12687  -1.12660  -1.12658  -1.12647  -1.12638
 Alpha  occ. eigenvalues --   -0.19135  -0.13120  -0.12742  -0.10595
 Alpha virt. eigenvalues --   -0.05381  -0.05276  -0.04710  -0.03101  -0.02894
 Alpha virt. eigenvalues --   -0.02229  -0.01428  -0.01165  -0.00256  -0.00213
 Alpha virt. eigenvalues --    0.00031   0.00365   0.00849   0.00897   0.00929

  Beta  occ. eigenvalues --  -38.43790 -38.43741 -38.43668 -38.43360 -38.43308
  Beta  occ. eigenvalues --  -38.42964 -38.42960  -2.19632  -2.19603  -2.19551
  Beta  occ. eigenvalues --   -2.19266  -2.19183  -2.18902  -2.18893  -1.13320
  Beta  occ. eigenvalues --   -1.13301  -1.13283  -1.13274  -1.13243  -1.13239
  Beta  occ. eigenvalues --   -1.13227  -1.13220  -1.13181  -1.12986  -1.12910
  Beta  occ. eigenvalues --   -1.12886  -1.12871  -1.12833  -1.12814  -1.12647
  Beta  occ. eigenvalues --   -1.12593  -1.12565  -1.12556  -1.12546  -1.12541
  Beta  occ. eigenvalues --   -0.18409  -0.12863  -0.12473
  Beta virt. eigenvalues --   -0.06683  -0.05374  -0.05241  -0.04693  -0.02301
  Beta virt. eigenvalues --   -0.02102  -0.01344  -0.01205  -0.01090  -0.00299
  Beta virt. eigenvalues --   -0.00270   0.00157   0.00393   0.00892   0.00896

 Mulliken charges and spin densities:
               1          2
     1  Na   0.115543  -0.096998
     2  Na  -0.343094   0.640864
     3  Na   0.106979  -0.028766
     4  Na   0.101365  -0.074176
     5  Na   0.266307  -0.036221
     6  Na   0.148092  -0.098436
     7  Na  -0.395191   0.693732
 Sum of Mulliken charges =  -0.00000   1.00000

 Dipole moment (field-independent basis, Debye):
    X=              0.2073    Y=             -0.0249    Z=             -0.0128  Tot=              0.2091
 Quadrupole moment (field-independent basis, Debye-Ang):
   XX=            -56.3700   YY=            -61.1648   ZZ=            -75.1287
   XY=             -0.2784   XZ=             -1.2664   YZ=             -0.8740

 Normal termination of Gaussian 16 at Fri Dec  8 01:29:08 2023.
