 Gaussian 16, Revision B.01,
 Gaussian 16:  ES64L-G16RevB.01 20-Dec-2017

 -------------------------
 #P B3LYP/6-311+g(d) force
 -------------------------

 -----
 DPGEN
 -----
 Symbolic Z-matrix:
 Charge =  0 Multiplicity = 2

                         Standard orientation:
 ---------------------------------------------------------------------
 Center     Atomic      Atomic             Coordinates (Angstroms)
 Number     Number       Type             X           Y           Z
 ---------------------------------------------------------------------
      1         11           0        3.092559   -1.924358   -0.313805
      2         11           0        0.018118   -0.425054    2.096428
      3         11           0        2.802871    1.626196    0.100065
      4         11           0       -2.465131   -2.248314    0.140931
      5         11           0       -0.275629    2.413476   -0.083646
      6         11           0       -3.102319    1.133620   -0.276946
      7         11           0       -0.070470   -0.575566   -1.663027
 ---------------------------------------------------------------------

 SCF Done:  E(UB3LYP) =  -1136.12679281     A.U. after   22 cycles

 The electronic state is 2-A.
 Alpha  occ. eigenvalues --  -38.44603 -38.44452 -38.44406 -38.43981 -38.43928
 Alpha  occ. eigenvalues --  -38.43913 -38.42412  -2.20448  -2.20272  -2.20174
 Alpha  occ. eigenvalues --   -2.19809  -2.19797  -2.19759  -2.18340  -1.14139
 Alpha  occ. eigenvalues --   -1.14104  -1.14077  -1.13958  -1.13937  -1.13910
 Alpha  occ. eigenvalues --   -1.13844  -1.13830  -1.13812  -1.13515  -1.13493
 Alpha  occ. eigenvalues --   -1.13459  -1.13449  -1.13440  -1.13424  -1.13404
 Alpha  occ. eigenvalues --   -1.13388  -1.13365  -1.12021  -1.12013  -1.11982
 Alpha  occ. eigenvalues --   -0.18294  -0.13520  -0.11789  -0.10668
 Alpha virt. eigenvalues --   -0.06423  -0.06078  -0.03853  -0.03352  -0.02706
 Alpha virt. eigenvalues --   -0.02518  -0.02159  -0.01578  -0.00757  -0.00112
 Alpha virt. eigenvalues --   -0.00028   0.00241   0.00597   0.00666   0.00747

  Beta  occ. eigenvalues --  -38.44595 -38.44452 -38.44401 -38.43978 -38.43876
  Beta  occ. eigenvalues --  -38.43812 -38.42404  -2.20435  -2.20273  -2.20166
  Beta  occ. eigenvalues --   -2.19794  -2.19713  -2.19572  -2.18330  -1.14133
  Beta  occ. eigenvalues --   -1.14076  -1.14073  -1.13962  -1.13922  -1.13909
  Beta  occ. eigenvalues --   -1.13828  -1.13824  -1.13808  -1.13479  -1.13453
  Beta  occ. eigenvalues --   -1.13439  -1.13430  -1.13384  -1.13338  -1.13300
  Beta  occ. eigenvalues --   -1.13258  -1.13231  -1.12017  -1.12012  -1.11939
  Beta  occ. eigenvalues --   -0.17586  -0.13335  -0.11543
  Beta virt. eigenvalues --   -0.06835  -0.06310  -0.05993  -0.03781  -0.02715
  Beta virt. eigenvalues --   -0.02083  -0.01878  -0.01691  -0.01329  -0.00812
  Beta virt. eigenvalues --   -0.00037   0.00069   0.00284   0.00660   0.00697

 Mulliken charges and spin densities:
               1          2
     1  Na   0.157575   0.061194
     2  Na  -0.344746   0.493901
     3  Na   0.182686   0.004335
     4  Na   0.222002   0.092960
     5  Na  -0.254426   0.082660
     6  Na   0.242674   0.055515
     7  Na  -0.205765   0.209435
 Sum of Mulliken charges =  -0.00000   1.00000

 Dipole moment (field-independent basis, Debye):
    X=              0.0503    Y=             -0.4031    Z=              0.0846  Tot=              0.4149
 Quadrupole moment (field-independent basis, Debye-Ang):
   XX=            -50.3698   YY=            -68.5768   ZZ=            -74.8172
   XY=              0.5170   XZ=              0.5381   YZ=             -0.1328

 Normal termination of Gaussian 16 at Tue Dec  5 20:13:31 2023.
