 Gaussian 16, Revision B.01,
 Gaussian 16:  ES64L-G16RevB.01 20-Dec-2017

 -------------------------
 #P B3LYP/6-311+g(d) force
 -------------------------

 -----
 DPGEN
 -----
 Symbolic Z-matrix:
 Charge =  0 Multiplicity = 2

                         Standard orientation:
 ---------------------------------------------------------------------
 Center     Atomic      Atomic             Coordinates (Angstroms)
 Number     Number       Type             X           Y           Z
 ---------------------------------------------------------------------
      1         11           0        3.089292   -1.073262   -0.104859
      2         11           0       -0.035488   -2.608930   -0.054565
      3         11           0        1.475043    2.566837    0.037790
      4         11           0       -2.555098   -1.333257    0.506602
      5         11           0        0.326260    0.055143   -1.954795
      6         11           0        0.157101    0.724221    2.316449
      7         11           0       -2.457110    1.669249   -0.746622
 ---------------------------------------------------------------------

 SCF Done:  E(UB3LYP) =  -1136.12995348     A.U. after   19 cycles

 The electronic state is 2-A.
 Alpha  occ. eigenvalues --  -38.44464 -38.44130 -38.43954 -38.43927 -38.43630
 Alpha  occ. eigenvalues --  -38.43538 -38.43121  -2.20306  -2.19928  -2.19849
 Alpha  occ. eigenvalues --   -2.19781  -2.19463  -2.19438  -2.19033  -1.13965
 Alpha  occ. eigenvalues --   -1.13939  -1.13925  -1.13608  -1.13593  -1.13566
 Alpha  occ. eigenvalues --   -1.13529  -1.13505  -1.13486  -1.13453  -1.13430
 Alpha  occ. eigenvalues --   -1.13403  -1.13231  -1.13155  -1.13130  -1.13082
 Alpha  occ. eigenvalues --   -1.13071  -1.13064  -1.12702  -1.12675  -1.12645
 Alpha  occ. eigenvalues --   -0.18455  -0.12886  -0.12317  -0.11552
 Alpha virt. eigenvalues --   -0.05728  -0.05043  -0.04218  -0.03555  -0.03376
 Alpha virt. eigenvalues --   -0.03117  -0.01512  -0.00901  -0.00256  -0.00087
 Alpha virt. eigenvalues --    0.00082   0.00370   0.00795   0.00861   0.00876

  Beta  occ. eigenvalues --  -38.44370 -38.44130 -38.43935 -38.43856 -38.43627
  Beta  occ. eigenvalues --  -38.43531 -38.43116  -2.20132  -2.19929  -2.19749
  Beta  occ. eigenvalues --   -2.19719  -2.19462  -2.19427  -2.19027  -1.13849
  Beta  occ. eigenvalues --   -1.13814  -1.13804  -1.13596  -1.13591  -1.13567
  Beta  occ. eigenvalues --   -1.13459  -1.13432  -1.13421  -1.13412  -1.13387
  Beta  occ. eigenvalues --   -1.13346  -1.13225  -1.13143  -1.13112  -1.13084
  Beta  occ. eigenvalues --   -1.13063  -1.13039  -1.12696  -1.12654  -1.12641
  Beta  occ. eigenvalues --   -0.17710  -0.12681  -0.12054
  Beta virt. eigenvalues --   -0.07634  -0.05710  -0.04853  -0.04126  -0.02777
  Beta virt. eigenvalues --   -0.02632  -0.02200  -0.01415  -0.00817  -0.00218
  Beta virt. eigenvalues --   -0.00006   0.00088   0.00409   0.00868   0.00907

 Mulliken charges and spin densities:
               1          2
     1  Na   0.162939  -0.048180
     2  Na  -0.026801   0.076479
     3  Na   0.124741  -0.070558
     4  Na   0.016516   0.063429
     5  Na  -0.042043   0.398071
     6  Na  -0.423264   0.540867
     7  Na   0.187911   0.039893
 Sum of Mulliken charges =  -0.00000   1.00000

 Dipole moment (field-independent basis, Debye):
    X=              0.3990    Y=              0.4168    Z=              0.1599  Tot=              0.5987
 Quadrupole moment (field-independent basis, Debye-Ang):
   XX=            -59.3963   YY=            -68.0374   ZZ=            -69.2450
   XY=             -1.0385   XZ=              0.2925   YZ=             -1.7097

 Normal termination of Gaussian 16 at Thu Dec  7 08:06:27 2023.
