 Gaussian 16, Revision B.01,
 Gaussian 16:  ES64L-G16RevB.01 20-Dec-2017

 -------------------------
 #P B3LYP/6-311+g(d) force
 -------------------------

 -----
 DPGEN
 -----
 Symbolic Z-matrix:
 Charge =  0 Multiplicity = 2

                         Standard orientation:
 ---------------------------------------------------------------------
 Center     Atomic      Atomic             Coordinates (Angstroms)
 Number     Number       Type             X           Y           Z
 ---------------------------------------------------------------------
      1         11           0        3.166389   -0.980536   -0.979302
      2         11           0       -3.567306    0.428891   -0.704645
      3         11           0        0.097281   -0.041233   -1.554168
      4         11           0       -1.058735    1.828252    0.844391
      5         11           0       -1.809916   -1.998790    0.358058
      6         11           0        0.989683   -1.081809    1.812909
      7         11           0        2.182603    1.845225    0.222757
 ---------------------------------------------------------------------

 SCF Done:  E(UB3LYP) =  -1136.12666650     A.U. after   24 cycles

 The electronic state is 2-A.
 Alpha  occ. eigenvalues --  -38.44811 -38.44434 -38.44242 -38.43432 -38.43321
 Alpha  occ. eigenvalues --  -38.43115 -38.42665  -2.20667  -2.20310  -2.20212
 Alpha  occ. eigenvalues --   -2.19346  -2.19239  -2.19011  -2.18590  -1.14335
 Alpha  occ. eigenvalues --   -1.14318  -1.14303  -1.14004  -1.13970  -1.13934
 Alpha  occ. eigenvalues --   -1.13923  -1.13853  -1.13817  -1.13036  -1.12988
 Alpha  occ. eigenvalues --   -1.12964  -1.12915  -1.12898  -1.12876  -1.12692
 Alpha  occ. eigenvalues --   -1.12673  -1.12646  -1.12293  -1.12240  -1.12215
 Alpha  occ. eigenvalues --   -0.19085  -0.14355  -0.11330  -0.11238
 Alpha virt. eigenvalues --   -0.06636  -0.05058  -0.04351  -0.03164  -0.02710
 Alpha virt. eigenvalues --   -0.02409  -0.02317  -0.00881  -0.00612  -0.00032
 Alpha virt. eigenvalues --    0.00189   0.00324   0.00462   0.00768   0.00854

  Beta  occ. eigenvalues --  -38.44793 -38.44397 -38.44205 -38.43358 -38.43312
  Beta  occ. eigenvalues --  -38.43107 -38.42645  -2.20634  -2.20244  -2.20145
  Beta  occ. eigenvalues --   -2.19227  -2.19211  -2.18999  -2.18557  -1.14315
  Beta  occ. eigenvalues --   -1.14297  -1.14277  -1.13950  -1.13926  -1.13882
  Beta  occ. eigenvalues --   -1.13866  -1.13813  -1.13765  -1.12944  -1.12922
  Beta  occ. eigenvalues --   -1.12899  -1.12869  -1.12859  -1.12843  -1.12688
  Beta  occ. eigenvalues --   -1.12650  -1.12623  -1.12275  -1.12199  -1.12184
  Beta  occ. eigenvalues --   -0.18379  -0.14027  -0.10976
  Beta virt. eigenvalues --   -0.07461  -0.06434  -0.05053  -0.03719  -0.02975
  Beta virt. eigenvalues --   -0.02309  -0.01919  -0.01461  -0.00852  -0.00291
  Beta virt. eigenvalues --    0.00013   0.00234   0.00329   0.00588   0.00810

 Mulliken charges and spin densities:
               1          2
     1  Na   0.371081   0.098782
     2  Na   1.088288   0.093538
     3  Na  -0.430281   0.201092
     4  Na  -0.617597   0.075112
     5  Na  -0.532832   0.103618
     6  Na   0.031890   0.315486
     7  Na   0.089452   0.112371
 Sum of Mulliken charges =  -0.00000   1.00000

 Dipole moment (field-independent basis, Debye):
    X=             -0.0750    Y=             -0.0946    Z=             -0.2504  Tot=              0.2780
 Quadrupole moment (field-independent basis, Debye-Ang):
   XX=            -47.9110   YY=            -76.5217   ZZ=            -69.2980
   XY=             -0.8216   XZ=              1.3639   YZ=              0.7971

 Normal termination of Gaussian 16 at Tue Dec  5 14:11:52 2023.
