 Gaussian 16, Revision B.01,
 Gaussian 16:  ES64L-G16RevB.01 20-Dec-2017

 -------------------------
 #P B3LYP/6-311+g(d) force
 -------------------------

 -----
 DPGEN
 -----
 Symbolic Z-matrix:
 Charge =  0 Multiplicity = 2

                         Standard orientation:
 ---------------------------------------------------------------------
 Center     Atomic      Atomic             Coordinates (Angstroms)
 Number     Number       Type             X           Y           Z
 ---------------------------------------------------------------------
      1         11           0        0.247261   -0.585914    1.910175
      2         11           0       -1.929621   -2.418107   -0.153857
      3         11           0       -2.618116    0.936159    0.344257
      4         11           0       -0.188975    0.074281   -1.792771
      5         11           0        1.939742   -2.046675   -0.349227
      6         11           0        2.952265    1.055288    0.145285
      7         11           0       -0.402556    2.984968   -0.103862
 ---------------------------------------------------------------------

 SCF Done:  E(UB3LYP) =  -1136.13762240     A.U. after   19 cycles

 The electronic state is 2-A.
 Alpha  occ. eigenvalues --  -38.43932 -38.43698 -38.43537 -38.43526 -38.43523
 Alpha  occ. eigenvalues --  -38.43360 -38.43291  -2.19754  -2.19594  -2.19450
 Alpha  occ. eigenvalues --   -2.19445  -2.19370  -2.19255  -2.19222  -1.13435
 Alpha  occ. eigenvalues --   -1.13425  -1.13399  -1.13311  -1.13276  -1.13197
 Alpha  occ. eigenvalues --   -1.13186  -1.13129  -1.13117  -1.13095  -1.13077
 Alpha  occ. eigenvalues --   -1.13056  -1.13042  -1.13013  -1.13007  -1.12935
 Alpha  occ. eigenvalues --   -1.12909  -1.12878  -1.12868  -1.12848  -1.12839
 Alpha  occ. eigenvalues --   -0.18854  -0.13163  -0.12503  -0.10853
 Alpha virt. eigenvalues --   -0.05438  -0.05080  -0.04792  -0.03352  -0.02917
 Alpha virt. eigenvalues --   -0.02572  -0.01384  -0.01089  -0.00296  -0.00159
 Alpha virt. eigenvalues --   -0.00004   0.00374   0.00843   0.00885   0.00924

  Beta  occ. eigenvalues --  -38.43929 -38.43686 -38.43528 -38.43521 -38.43443
  Beta  occ. eigenvalues --  -38.43358 -38.43214  -2.19753  -2.19578  -2.19435
  Beta  occ. eigenvalues --   -2.19366  -2.19300  -2.19221  -2.19113  -1.13435
  Beta  occ. eigenvalues --   -1.13410  -1.13394  -1.13293  -1.13233  -1.13189
  Beta  occ. eigenvalues --   -1.13179  -1.13117  -1.13071  -1.13035  -1.13021
  Beta  occ. eigenvalues --   -1.13004  -1.13003  -1.12975  -1.12936  -1.12892
  Beta  occ. eigenvalues --   -1.12859  -1.12847  -1.12828  -1.12781  -1.12756
  Beta  occ. eigenvalues --   -0.18108  -0.12922  -0.12280
  Beta virt. eigenvalues --   -0.06926  -0.05430  -0.05026  -0.04751  -0.02525
  Beta virt. eigenvalues --   -0.02180  -0.01519  -0.01312  -0.01011  -0.00337
  Beta virt. eigenvalues --   -0.00193   0.00129   0.00396   0.00859   0.00913

 Mulliken charges and spin densities:
               1          2
     1  Na  -0.383720   0.635085
     2  Na   0.233993  -0.067506
     3  Na   0.107175   0.030985
     4  Na  -0.245813   0.624860
     5  Na   0.305634  -0.069572
     6  Na  -0.027138  -0.072710
     7  Na   0.009869  -0.081143
 Sum of Mulliken charges =  -0.00000   1.00000

 Dipole moment (field-independent basis, Debye):
    X=              0.2342    Y=             -0.1389    Z=              0.0709  Tot=              0.2814
 Quadrupole moment (field-independent basis, Debye-Ang):
   XX=            -59.2809   YY=            -61.4560   ZZ=            -73.5403
   XY=              1.6980   XZ=             -0.7220   YZ=              1.3502

 Normal termination of Gaussian 16 at Thu Dec  7 09:27:19 2023.
