 Gaussian 16, Revision B.01,
 Gaussian 16:  ES64L-G16RevB.01 20-Dec-2017

 -------------------------
 #P B3LYP/6-311+g(d) force
 -------------------------

 -----
 DPGEN
 -----
 Symbolic Z-matrix:
 Charge =  0 Multiplicity = 2

                         Standard orientation:
 ---------------------------------------------------------------------
 Center     Atomic      Atomic             Coordinates (Angstroms)
 Number     Number       Type             X           Y           Z
 ---------------------------------------------------------------------
      1         11           0       -0.072109    2.973436    0.001608
      2         11           0        5.245560   -0.859674   -0.896162
      3         11           0        2.740341    1.226857   -0.012685
      4         11           0        3.456328   -1.745916    1.260332
      5         11           0       -0.554539    0.025987    0.046156
      6         11           0       -4.376507   -1.466620   -1.049938
      7         11           0       -6.439074   -0.154070    0.650690
 ---------------------------------------------------------------------

 SCF Done:  E(UB3LYP) =  -1136.10963762     A.U. after   19 cycles

 The electronic state is 2-A.
 Alpha  occ. eigenvalues --  -38.44553 -38.44465 -38.44144 -38.43946 -38.43932
 Alpha  occ. eigenvalues --  -38.43839 -38.43726  -2.20421  -2.20341  -2.19951
 Alpha  occ. eigenvalues --   -2.19843  -2.19750  -2.19710  -2.19588  -1.14218
 Alpha  occ. eigenvalues --   -1.14075  -1.14060  -1.14006  -1.13969  -1.13890
 Alpha  occ. eigenvalues --   -1.13697  -1.13595  -1.13592  -1.13549  -1.13536
 Alpha  occ. eigenvalues --   -1.13486  -1.13449  -1.13404  -1.13392  -1.13364
 Alpha  occ. eigenvalues --   -1.13351  -1.13326  -1.13251  -1.13222  -1.13165
 Alpha  occ. eigenvalues --   -0.16907  -0.13989  -0.12809  -0.09765
 Alpha virt. eigenvalues --   -0.06560  -0.05652  -0.04731  -0.03714  -0.02817
 Alpha virt. eigenvalues --   -0.02307  -0.01930  -0.01731  -0.01244  -0.00971
 Alpha virt. eigenvalues --   -0.00309   0.00012   0.00398   0.00455   0.00562

  Beta  occ. eigenvalues --  -38.44537 -38.44432 -38.44125 -38.43950 -38.43899
  Beta  occ. eigenvalues --  -38.43821 -38.43685  -2.20392  -2.20280  -2.19916
  Beta  occ. eigenvalues --   -2.19787  -2.19758  -2.19677  -2.19511  -1.14190
  Beta  occ. eigenvalues --   -1.14051  -1.14035  -1.13966  -1.13925  -1.13848
  Beta  occ. eigenvalues --   -1.13680  -1.13571  -1.13568  -1.13512  -1.13469
  Beta  occ. eigenvalues --   -1.13451  -1.13412  -1.13409  -1.13396  -1.13354
  Beta  occ. eigenvalues --   -1.13329  -1.13293  -1.13200  -1.13167  -1.13114
  Beta  occ. eigenvalues --   -0.16346  -0.13799  -0.12622
  Beta virt. eigenvalues --   -0.06515  -0.05935  -0.05353  -0.04396  -0.03391
  Beta virt. eigenvalues --   -0.02694  -0.02040  -0.01844  -0.01370  -0.01072
  Beta virt. eigenvalues --   -0.00601  -0.00004   0.00244   0.00477   0.00591

 Mulliken charges and spin densities:
               1          2
     1  Na   0.459907   0.188307
     2  Na   0.881098   0.034628
     3  Na  -0.274163   0.208872
     4  Na   0.116990   0.168630
     5  Na  -1.128777   0.331613
     6  Na  -0.095360  -0.017114
     7  Na   0.040305   0.085063
 Sum of Mulliken charges =  -0.00000   1.00000

 Dipole moment (field-independent basis, Debye):
    X=              0.8937    Y=              0.0307    Z=              0.0309  Tot=              0.8947
 Quadrupole moment (field-independent basis, Debye-Ang):
   XX=            -59.3949   YY=            -68.3308   ZZ=            -67.2509
   XY=            -10.4552   XZ=             -5.3563   YZ=              3.4586

 Normal termination of Gaussian 16 at Wed Nov 29 02:31:38 2023.
