 Gaussian 16, Revision B.01,
 Gaussian 16:  ES64L-G16RevB.01 20-Dec-2017

 -------------------------
 #P B3LYP/6-311+g(d) force
 -------------------------

 -----
 DPGEN
 -----
 Symbolic Z-matrix:
 Charge =  0 Multiplicity = 2

                         Standard orientation:
 ---------------------------------------------------------------------
 Center     Atomic      Atomic             Coordinates (Angstroms)
 Number     Number       Type             X           Y           Z
 ---------------------------------------------------------------------
      1         11           0        3.174929   -1.176369   -0.839778
      2         11           0       -1.097415    1.692402   -1.640862
      3         11           0       -1.971970    1.320063    1.374706
      4         11           0        2.128356    1.761677   -0.070408
      5         11           0        1.414688   -0.660313    2.265176
      6         11           0       -0.069414   -1.462704   -0.961713
      7         11           0       -3.579175   -1.474756   -0.127121
 ---------------------------------------------------------------------

 SCF Done:  E(UB3LYP) =  -1136.12299943     A.U. after   25 cycles

 The electronic state is 2-A.
 Alpha  occ. eigenvalues --  -38.44714 -38.44308 -38.44307 -38.44156 -38.43705
 Alpha  occ. eigenvalues --  -38.43485 -38.43457  -2.20557  -2.20172  -2.20142
 Alpha  occ. eigenvalues --   -2.19928  -2.19563  -2.19370  -2.19328  -1.14219
 Alpha  occ. eigenvalues --   -1.14203  -1.14160  -1.13849  -1.13842  -1.13833
 Alpha  occ. eigenvalues --   -1.13811  -1.13797  -1.13760  -1.13604  -1.13590
 Alpha  occ. eigenvalues --   -1.13565  -1.13245  -1.13233  -1.13189  -1.13080
 Alpha  occ. eigenvalues --   -1.13059  -1.12992  -1.12988  -1.12975  -1.12923
 Alpha  occ. eigenvalues --   -0.18338  -0.13855  -0.11505  -0.10929
 Alpha virt. eigenvalues --   -0.06519  -0.05552  -0.04651  -0.03307  -0.02672
 Alpha virt. eigenvalues --   -0.02648  -0.02096  -0.01226  -0.00528  -0.00181
 Alpha virt. eigenvalues --    0.00127   0.00225   0.00238   0.00550   0.00662

  Beta  occ. eigenvalues --  -38.44627 -38.44293 -38.44287 -38.44164 -38.43694
  Beta  occ. eigenvalues --  -38.43453 -38.43426  -2.20397  -2.20149  -2.20104
  Beta  occ. eigenvalues --   -2.19944  -2.19548  -2.19314  -2.19271  -1.14112
  Beta  occ. eigenvalues --   -1.14091  -1.14043  -1.13832  -1.13822  -1.13805
  Beta  occ. eigenvalues --   -1.13775  -1.13773  -1.13737  -1.13609  -1.13602
  Beta  occ. eigenvalues --   -1.13576  -1.13228  -1.13204  -1.13181  -1.13035
  Beta  occ. eigenvalues --   -1.13007  -1.12953  -1.12943  -1.12938  -1.12884
  Beta  occ. eigenvalues --   -0.17578  -0.13733  -0.10779
  Beta virt. eigenvalues --   -0.07581  -0.06275  -0.05345  -0.04049  -0.02936
  Beta virt. eigenvalues --   -0.02239  -0.02082  -0.01779  -0.01081  -0.00220
  Beta virt. eigenvalues --   -0.00126   0.00248   0.00289   0.00391   0.00663

 Mulliken charges and spin densities:
               1          2
     1  Na   0.683750  -0.144207
     2  Na   0.137166  -0.084431
     3  Na   0.072236   0.216098
     4  Na  -0.049486   0.303161
     5  Na  -0.345085   0.353839
     6  Na  -0.531456   0.487641
     7  Na   0.032875  -0.132099
 Sum of Mulliken charges =  -0.00000   1.00000

 Dipole moment (field-independent basis, Debye):
    X=              0.2492    Y=              0.0358    Z=              0.3243  Tot=              0.4105
 Quadrupole moment (field-independent basis, Debye-Ang):
   XX=            -52.0038   YY=            -77.2422   ZZ=            -66.3097
   XY=             -0.9693   XZ=             -1.6292   YZ=              0.0789

 Normal termination of Gaussian 16 at Tue Dec  5 15:39:30 2023.
