 Gaussian 16, Revision B.01,
 Gaussian 16:  ES64L-G16RevB.01 20-Dec-2017

 -------------------------
 #P B3LYP/6-311+g(d) force
 -------------------------

 -----
 DPGEN
 -----
 Symbolic Z-matrix:
 Charge =  0 Multiplicity = 2

                         Standard orientation:
 ---------------------------------------------------------------------
 Center     Atomic      Atomic             Coordinates (Angstroms)
 Number     Number       Type             X           Y           Z
 ---------------------------------------------------------------------
      1         11           0        1.464812    1.863552   -0.056244
      2         11           0       -2.932237    0.369444    1.291425
      3         11           0       -1.775528   -1.891966   -0.874289
      4         11           0        0.086381   -0.767871    1.645090
      5         11           0        3.363216   -0.373636    0.732144
      6         11           0        1.198215   -0.982758   -1.588244
      7         11           0       -1.404858    1.783236   -1.149882
 ---------------------------------------------------------------------

 SCF Done:  E(UB3LYP) =  -1136.12489694     A.U. after   23 cycles

 The electronic state is 2-A.
 Alpha  occ. eigenvalues --  -38.44694 -38.44564 -38.43813 -38.43808 -38.43298
 Alpha  occ. eigenvalues --  -38.42890 -38.42662  -2.20597  -2.20456  -2.19783
 Alpha  occ. eigenvalues --   -2.19771  -2.19209  -2.18867  -2.18574  -1.14281
 Alpha  occ. eigenvalues --   -1.14255  -1.14226  -1.14137  -1.14112  -1.14070
 Alpha  occ. eigenvalues --   -1.13506  -1.13449  -1.13432  -1.13416  -1.13399
 Alpha  occ. eigenvalues --   -1.13383  -1.12895  -1.12849  -1.12839  -1.12590
 Alpha  occ. eigenvalues --   -1.12527  -1.12508  -1.12236  -1.12225  -1.12205
 Alpha  occ. eigenvalues --   -0.19394  -0.14293  -0.11827  -0.11277
 Alpha virt. eigenvalues --   -0.06257  -0.04896  -0.04520  -0.03359  -0.02769
 Alpha virt. eigenvalues --   -0.02548  -0.02044  -0.00700  -0.00473   0.00161
 Alpha virt. eigenvalues --    0.00254   0.00386   0.00529   0.00851   0.00923

  Beta  occ. eigenvalues --  -38.44679 -38.44529 -38.43765 -38.43745 -38.43272
  Beta  occ. eigenvalues --  -38.42882 -38.42646  -2.20570  -2.20390  -2.19685
  Beta  occ. eigenvalues --   -2.19670  -2.19166  -2.18855  -2.18547  -1.14266
  Beta  occ. eigenvalues --   -1.14226  -1.14207  -1.14080  -1.14070  -1.14029
  Beta  occ. eigenvalues --   -1.13440  -1.13380  -1.13349  -1.13343  -1.13330
  Beta  occ. eigenvalues --   -1.13300  -1.12859  -1.12815  -1.12795  -1.12575
  Beta  occ. eigenvalues --   -1.12516  -1.12486  -1.12218  -1.12200  -1.12176
  Beta  occ. eigenvalues --   -0.18642  -0.14041  -0.11034
  Beta virt. eigenvalues --   -0.07818  -0.06104  -0.04583  -0.04099  -0.03085
  Beta virt. eigenvalues --   -0.02148  -0.01862  -0.01711  -0.00453  -0.00314
  Beta virt. eigenvalues --    0.00261   0.00279   0.00480   0.00553   0.00908

 Mulliken charges and spin densities:
               1          2
     1  Na  -0.619035   0.001012
     2  Na   0.398805  -0.044259
     3  Na  -0.102337   0.095809
     4  Na  -0.510777   0.417964
     5  Na   1.415627   0.109710
     6  Na  -0.364720   0.232002
     7  Na  -0.217564   0.187761
 Sum of Mulliken charges =  -0.00000   1.00000

 Dipole moment (field-independent basis, Debye):
    X=              0.3615    Y=             -0.3913    Z=              0.4587  Tot=              0.7031
 Quadrupole moment (field-independent basis, Debye-Ang):
   XX=            -49.6975   YY=            -78.3749   ZZ=            -66.7145
   XY=             -0.7393   XZ=              0.3838   YZ=              2.2409

 Normal termination of Gaussian 16 at Tue Dec  5 21:54:42 2023.
