 Gaussian 16, Revision B.01,
 Gaussian 16:  ES64L-G16RevB.01 20-Dec-2017

 -------------------------
 #P B3LYP/6-311+g(d) force
 -------------------------

 -----
 DPGEN
 -----
 Symbolic Z-matrix:
 Charge =  0 Multiplicity = 2

                         Standard orientation:
 ---------------------------------------------------------------------
 Center     Atomic      Atomic             Coordinates (Angstroms)
 Number     Number       Type             X           Y           Z
 ---------------------------------------------------------------------
      1         11           0        1.074682   -2.596618    0.516542
      2         11           0        3.183284   -0.374988   -0.508816
      3         11           0       -0.639487   -0.028958    1.732782
      4         11           0       -2.097743    1.834616   -0.284386
      5         11           0       -2.863889   -1.515007   -0.341489
      6         11           0        0.025163    0.044873   -1.598979
      7         11           0        1.317989    2.636082    0.484344
 ---------------------------------------------------------------------

 SCF Done:  E(UB3LYP) =  -1136.13481986     A.U. after   20 cycles

 The electronic state is 2-A.
 Alpha  occ. eigenvalues --  -38.44032 -38.43988 -38.43659 -38.43357 -38.43294
 Alpha  occ. eigenvalues --  -38.43251 -38.43131  -2.19873  -2.19833  -2.19598
 Alpha  occ. eigenvalues --   -2.19256  -2.19221  -2.19131  -2.19127  -1.13546
 Alpha  occ. eigenvalues --   -1.13539  -1.13513  -1.13512  -1.13497  -1.13471
 Alpha  occ. eigenvalues --   -1.13346  -1.13295  -1.13181  -1.12963  -1.12921
 Alpha  occ. eigenvalues --   -1.12900  -1.12868  -1.12859  -1.12850  -1.12816
 Alpha  occ. eigenvalues --   -1.12792  -1.12782  -1.12768  -1.12760  -1.12712
 Alpha  occ. eigenvalues --   -0.18959  -0.13384  -0.12292  -0.10703
 Alpha virt. eigenvalues --   -0.05686  -0.05240  -0.04479  -0.03235  -0.02799
 Alpha virt. eigenvalues --   -0.02265  -0.01681  -0.01124  -0.00386  -0.00042
 Alpha virt. eigenvalues --    0.00046   0.00347   0.00787   0.00867   0.00884

  Beta  occ. eigenvalues --  -38.44025 -38.43980 -38.43646 -38.43345 -38.43286
  Beta  occ. eigenvalues --  -38.43189 -38.43051  -2.19862  -2.19820  -2.19579
  Beta  occ. eigenvalues --   -2.19202  -2.19143  -2.19118  -2.18983  -1.13539
  Beta  occ. eigenvalues --   -1.13523  -1.13499  -1.13494  -1.13480  -1.13463
  Beta  occ. eigenvalues --   -1.13331  -1.13251  -1.13162  -1.12912  -1.12870
  Beta  occ. eigenvalues --   -1.12854  -1.12838  -1.12805  -1.12798  -1.12782
  Beta  occ. eigenvalues --   -1.12761  -1.12752  -1.12698  -1.12663  -1.12607
  Beta  occ. eigenvalues --   -0.18250  -0.13119  -0.12022
  Beta virt. eigenvalues --   -0.06821  -0.05597  -0.05226  -0.04394  -0.02537
  Beta virt. eigenvalues --   -0.02061  -0.01580  -0.01268  -0.01055  -0.00347
  Beta virt. eigenvalues --   -0.00072   0.00149   0.00383   0.00852   0.00875

 Mulliken charges and spin densities:
               1          2
     1  Na  -0.156525  -0.061088
     2  Na   0.088777   0.020535
     3  Na   0.035970   0.590239
     4  Na   0.318496   0.067240
     5  Na  -0.012539  -0.045025
     6  Na  -0.099933   0.431666
     7  Na  -0.174246  -0.003568
 Sum of Mulliken charges =  -0.00000   1.00000

 Dipole moment (field-independent basis, Debye):
    X=             -0.1224    Y=             -0.0887    Z=             -0.0394  Tot=              0.1562
 Quadrupole moment (field-independent basis, Debye-Ang):
   XX=            -54.4098   YY=            -63.7455   ZZ=            -74.3854
   XY=              1.5453   XZ=              0.9609   YZ=              0.4107

 Normal termination of Gaussian 16 at Tue Nov 28 20:56:16 2023.
