 Gaussian 16, Revision B.01,
 Gaussian 16:  ES64L-G16RevB.01 20-Dec-2017

 -------------------------
 #P B3LYP/6-311+g(d) force
 -------------------------

 -----
 DPGEN
 -----
 Symbolic Z-matrix:
 Charge =  0 Multiplicity = 2

                         Standard orientation:
 ---------------------------------------------------------------------
 Center     Atomic      Atomic             Coordinates (Angstroms)
 Number     Number       Type             X           Y           Z
 ---------------------------------------------------------------------
      1         11           0        0.079583    0.130526    1.932122
      2         11           0        1.862561    2.719860   -0.578889
      3         11           0        3.783228   -0.746345    0.540316
      4         11           0        1.024833   -2.149249   -0.833931
      5         11           0       -2.387489   -2.091878   -0.230333
      6         11           0       -0.961775    0.911658   -1.490393
      7         11           0       -3.400942    1.225427    0.661108
 ---------------------------------------------------------------------

 SCF Done:  E(UB3LYP) =  -1136.12437332     A.U. after   23 cycles

 The electronic state is 2-A.
 Alpha  occ. eigenvalues --  -38.45018 -38.45017 -38.44698 -38.43841 -38.43612
 Alpha  occ. eigenvalues --  -38.43247 -38.42961  -2.20817  -2.20786  -2.20516
 Alpha  occ. eigenvalues --   -2.19672  -2.19386  -2.19157  -2.18808  -1.14512
 Alpha  occ. eigenvalues --   -1.14465  -1.14462  -1.14439  -1.14426  -1.14412
 Alpha  occ. eigenvalues --   -1.14192  -1.14159  -1.14150  -1.13347  -1.13339
 Alpha  occ. eigenvalues --   -1.13308  -1.13061  -1.13044  -1.13023  -1.12845
 Alpha  occ. eigenvalues --   -1.12821  -1.12759  -1.12494  -1.12476  -1.12440
 Alpha  occ. eigenvalues --   -0.17913  -0.13487  -0.11595  -0.10619
 Alpha virt. eigenvalues --   -0.06957  -0.05609  -0.04292  -0.03248  -0.02684
 Alpha virt. eigenvalues --   -0.02478  -0.02288  -0.01432  -0.00879  -0.00358
 Alpha virt. eigenvalues --    0.00001   0.00161   0.00310   0.00630   0.00655

  Beta  occ. eigenvalues --  -38.45005 -38.44963 -38.44674 -38.43834 -38.43595
  Beta  occ. eigenvalues --  -38.43195 -38.42945  -2.20761  -2.20718  -2.20473
  Beta  occ. eigenvalues --   -2.19661  -2.19357  -2.19064  -2.18783  -1.14444
  Beta  occ. eigenvalues --   -1.14440  -1.14419  -1.14401  -1.14399  -1.14345
  Beta  occ. eigenvalues --   -1.14160  -1.14130  -1.14116  -1.13337  -1.13329
  Beta  occ. eigenvalues --   -1.13288  -1.13030  -1.13026  -1.13002  -1.12785
  Beta  occ. eigenvalues --   -1.12745  -1.12687  -1.12480  -1.12454  -1.12405
  Beta  occ. eigenvalues --   -0.17274  -0.13264  -0.11244
  Beta virt. eigenvalues --   -0.07103  -0.06606  -0.05596  -0.03881  -0.02923
  Beta virt. eigenvalues --   -0.02364  -0.01947  -0.01494  -0.01341  -0.00777
  Beta virt. eigenvalues --   -0.00164   0.00021   0.00207   0.00450   0.00706

 Mulliken charges and spin densities:
               1          2
     1  Na  -0.269268   0.409545
     2  Na  -0.217724   0.019758
     3  Na   0.336178   0.121279
     4  Na  -0.387405  -0.053220
     5  Na   0.162262   0.065260
     6  Na   0.066812   0.266410
     7  Na   0.309143   0.170969
 Sum of Mulliken charges =  -0.00000   1.00000

 Dipole moment (field-independent basis, Debye):
    X=             -0.0656    Y=              0.0354    Z=              0.5425  Tot=              0.5476
 Quadrupole moment (field-independent basis, Debye-Ang):
   XX=            -48.0966   YY=            -72.4181   ZZ=            -72.9114
   XY=              0.2290   XZ=             -0.1148   YZ=              0.6820

 Normal termination of Gaussian 16 at Fri Dec  8 03:32:49 2023.
