 Gaussian 16, Revision B.01,
 Gaussian 16:  ES64L-G16RevB.01 20-Dec-2017

 -------------------------
 #P B3LYP/6-311+g(d) force
 -------------------------

 -----
 DPGEN
 -----
 Symbolic Z-matrix:
 Charge =  0 Multiplicity = 2

                         Standard orientation:
 ---------------------------------------------------------------------
 Center     Atomic      Atomic             Coordinates (Angstroms)
 Number     Number       Type             X           Y           Z
 ---------------------------------------------------------------------
      1         11           0        2.203186    2.348656   -0.023504
      2         11           0        3.168147   -1.010978    0.443761
      3         11           0       -0.490603    0.317237    1.808469
      4         11           0        0.259503   -0.480235   -1.793014
      5         11           0       -1.818888    2.688106   -0.494184
      6         11           0       -3.251755   -0.920509    0.281689
      7         11           0       -0.069590   -2.942277   -0.223218
 ---------------------------------------------------------------------

 SCF Done:  E(UB3LYP) =  -1136.13163255     A.U. after   19 cycles

 The electronic state is 2-A.
 Alpha  occ. eigenvalues --  -38.44448 -38.44198 -38.43986 -38.43986 -38.43668
 Alpha  occ. eigenvalues --  -38.43455 -38.43434  -2.20239  -2.19992  -2.19769
 Alpha  occ. eigenvalues --   -2.19763  -2.19538  -2.19355  -2.19313  -1.13921
 Alpha  occ. eigenvalues --   -1.13890  -1.13874  -1.13667  -1.13648  -1.13632
 Alpha  occ. eigenvalues --   -1.13449  -1.13438  -1.13433  -1.13422  -1.13406
 Alpha  occ. eigenvalues --   -1.13396  -1.13225  -1.13206  -1.13171  -1.13159
 Alpha  occ. eigenvalues --   -1.13006  -1.12964  -1.12952  -1.12913  -1.12890
 Alpha  occ. eigenvalues --   -0.17957  -0.12917  -0.12336  -0.10336
 Alpha virt. eigenvalues --   -0.05893  -0.05613  -0.04810  -0.03198  -0.02881
 Alpha virt. eigenvalues --   -0.02240  -0.01784  -0.01337  -0.00706  -0.00641
 Alpha virt. eigenvalues --   -0.00028   0.00324   0.00727   0.00770   0.00815

  Beta  occ. eigenvalues --  -38.44439 -38.44188 -38.43986 -38.43972 -38.43608
  Beta  occ. eigenvalues --  -38.43446 -38.43360  -2.20225  -2.19973  -2.19771
  Beta  occ. eigenvalues --   -2.19740  -2.19426  -2.19307  -2.19214  -1.13897
  Beta  occ. eigenvalues --   -1.13878  -1.13868  -1.13647  -1.13635  -1.13616
  Beta  occ. eigenvalues --   -1.13441  -1.13435  -1.13413  -1.13407  -1.13399
  Beta  occ. eigenvalues --   -1.13380  -1.13159  -1.13141  -1.13092  -1.13075
  Beta  occ. eigenvalues --   -1.12945  -1.12922  -1.12899  -1.12856  -1.12819
  Beta  occ. eigenvalues --   -0.17300  -0.12670  -0.12078
  Beta virt. eigenvalues --   -0.06662  -0.05774  -0.05551  -0.04694  -0.02520
  Beta virt. eigenvalues --   -0.02188  -0.01656  -0.01334  -0.01232  -0.00740
  Beta virt. eigenvalues --   -0.00641   0.00113   0.00373   0.00778   0.00793

 Mulliken charges and spin densities:
               1          2
     1  Na  -0.045540  -0.068980
     2  Na  -0.052713   0.027599
     3  Na  -0.075672   0.584009
     4  Na  -0.010113   0.585975
     5  Na  -0.144815  -0.011055
     6  Na   0.120171  -0.052719
     7  Na   0.208682  -0.064829
 Sum of Mulliken charges =  -0.00000   1.00000

 Dipole moment (field-independent basis, Debye):
    X=             -0.1798    Y=              0.0412    Z=              0.0982  Tot=              0.2090
 Quadrupole moment (field-independent basis, Debye-Ang):
   XX=            -54.9845   YY=            -62.3214   ZZ=            -75.7494
   XY=              0.0821   XZ=              1.7462   YZ=             -2.1799

 Normal termination of Gaussian 16 at Fri Dec  8 05:53:32 2023.
