 Gaussian 16, Revision B.01,
 Gaussian 16:  ES64L-G16RevB.01 20-Dec-2017

 -------------------------
 #P B3LYP/6-311+g(d) force
 -------------------------

 -----
 DPGEN
 -----
 Symbolic Z-matrix:
 Charge =  0 Multiplicity = 2

                         Standard orientation:
 ---------------------------------------------------------------------
 Center     Atomic      Atomic             Coordinates (Angstroms)
 Number     Number       Type             X           Y           Z
 ---------------------------------------------------------------------
      1         11           0       -0.125062   -0.366525    1.940874
      2         11           0       -2.433240   -1.966093   -0.053159
      3         11           0       -2.499383    1.567811    0.000614
      4         11           0        3.245876    0.153095    0.319535
      5         11           0        0.460633    2.663401    0.035164
      6         11           0        1.118355   -2.436221   -0.470031
      7         11           0        0.232821    0.384531   -1.772998
 ---------------------------------------------------------------------

 SCF Done:  E(UB3LYP) =  -1136.13682025     A.U. after   19 cycles

 The electronic state is 2-A.
 Alpha  occ. eigenvalues --  -38.44079 -38.43637 -38.43594 -38.43539 -38.43402
 Alpha  occ. eigenvalues --  -38.43371 -38.43220  -2.19896  -2.19517  -2.19456
 Alpha  occ. eigenvalues --   -2.19422  -2.19396  -2.19259  -2.19149  -1.13562
 Alpha  occ. eigenvalues --   -1.13554  -1.13543  -1.13237  -1.13191  -1.13173
 Alpha  occ. eigenvalues --   -1.13162  -1.13141  -1.13110  -1.13091  -1.13080
 Alpha  occ. eigenvalues --   -1.13072  -1.13065  -1.13045  -1.12990  -1.12926
 Alpha  occ. eigenvalues --   -1.12918  -1.12863  -1.12794  -1.12789  -1.12747
 Alpha  occ. eigenvalues --   -0.18930  -0.13008  -0.12578  -0.10907
 Alpha virt. eigenvalues --   -0.05587  -0.05070  -0.04510  -0.03227  -0.03065
 Alpha virt. eigenvalues --   -0.02570  -0.01574  -0.00998  -0.00178  -0.00110
 Alpha virt. eigenvalues --   -0.00006   0.00358   0.00823   0.00914   0.00922

  Beta  occ. eigenvalues --  -38.44074 -38.43633 -38.43593 -38.43459 -38.43356
  Beta  occ. eigenvalues --  -38.43327 -38.43212  -2.19888  -2.19513  -2.19423
  Beta  occ. eigenvalues --   -2.19307  -2.19260  -2.19235  -2.19139  -1.13552
  Beta  occ. eigenvalues --   -1.13541  -1.13536  -1.13222  -1.13178  -1.13148
  Beta  occ. eigenvalues --   -1.13100  -1.13098  -1.13074  -1.13065  -1.13038
  Beta  occ. eigenvalues --   -1.12998  -1.12989  -1.12951  -1.12907  -1.12885
  Beta  occ. eigenvalues --   -1.12865  -1.12851  -1.12778  -1.12748  -1.12732
  Beta  occ. eigenvalues --   -0.18181  -0.12775  -0.12333
  Beta virt. eigenvalues --   -0.06979  -0.05526  -0.05079  -0.04463  -0.02449
  Beta virt. eigenvalues --   -0.02275  -0.01530  -0.01467  -0.00938  -0.00200
  Beta virt. eigenvalues --   -0.00154   0.00115   0.00376   0.00881   0.00896

 Mulliken charges and spin densities:
               1          2
     1  Na  -0.532325   0.747341
     2  Na   0.092493  -0.093803
     3  Na   0.106530  -0.082542
     4  Na   0.073463  -0.020475
     5  Na   0.336068  -0.008588
     6  Na   0.171110  -0.051695
     7  Na  -0.247339   0.509761
 Sum of Mulliken charges =  -0.00000   1.00000

 Dipole moment (field-independent basis, Debye):
    X=              0.1153    Y=             -0.0934    Z=              0.1647  Tot=              0.2217
 Quadrupole moment (field-independent basis, Debye-Ang):
   XX=            -55.7877   YY=            -64.7822   ZZ=            -73.2237
   XY=              0.4978   XZ=              1.1263   YZ=              1.5862

 Normal termination of Gaussian 16 at Thu Dec  7 16:57:37 2023.
