 Gaussian 16, Revision B.01,
 Gaussian 16:  ES64L-G16RevB.01 20-Dec-2017

 -------------------------
 #P B3LYP/6-311+g(d) force
 -------------------------

 -----
 DPGEN
 -----
 Symbolic Z-matrix:
 Charge =  0 Multiplicity = 2

                         Standard orientation:
 ---------------------------------------------------------------------
 Center     Atomic      Atomic             Coordinates (Angstroms)
 Number     Number       Type             X           Y           Z
 ---------------------------------------------------------------------
      1         11           0        4.277025   -0.837626   -0.696805
      2         11           0       -1.615380    0.370313   -2.193550
      3         11           0       -1.401006    0.927461    2.259872
      4         11           0        0.494165   -1.841259    0.333966
      5         11           0       -3.395204   -1.897470   -0.043052
      6         11           0        2.028290    0.504698    1.003003
      7         11           0       -0.387891    2.773883   -0.663435
 ---------------------------------------------------------------------

 SCF Done:  E(UB3LYP) =  -1136.11832614     A.U. after   22 cycles

 The electronic state is 2-A.
 Alpha  occ. eigenvalues --  -38.44816 -38.44758 -38.44609 -38.44376 -38.43669
 Alpha  occ. eigenvalues --  -38.43516 -38.42808  -2.20651  -2.20556  -2.20427
 Alpha  occ. eigenvalues --   -2.20232  -2.19611  -2.19287  -2.18664  -1.14439
 Alpha  occ. eigenvalues --   -1.14336  -1.14242  -1.14217  -1.14208  -1.14174
 Alpha  occ. eigenvalues --   -1.14096  -1.14062  -1.14036  -1.13901  -1.13892
 Alpha  occ. eigenvalues --   -1.13831  -1.13358  -1.13267  -1.13174  -1.12961
 Alpha  occ. eigenvalues --   -1.12956  -1.12920  -1.12364  -1.12320  -1.12281
 Alpha  occ. eigenvalues --   -0.17799  -0.13497  -0.11656  -0.11424
 Alpha virt. eigenvalues --   -0.06649  -0.04790  -0.04181  -0.03600  -0.02967
 Alpha virt. eigenvalues --   -0.02878  -0.02346  -0.01352  -0.00669  -0.00039
 Alpha virt. eigenvalues --    0.00120   0.00220   0.00363   0.00699   0.00753

  Beta  occ. eigenvalues --  -38.44807 -38.44743 -38.44536 -38.44296 -38.43657
  Beta  occ. eigenvalues --  -38.43518 -38.42789  -2.20637  -2.20527  -2.20293
  Beta  occ. eigenvalues --   -2.20085  -2.19593  -2.19291  -2.18633  -1.14426
  Beta  occ. eigenvalues --   -1.14310  -1.14223  -1.14206  -1.14187  -1.14156
  Beta  occ. eigenvalues --   -1.13992  -1.13976  -1.13946  -1.13802  -1.13794
  Beta  occ. eigenvalues --   -1.13718  -1.13343  -1.13240  -1.13157  -1.12966
  Beta  occ. eigenvalues --   -1.12947  -1.12924  -1.12330  -1.12302  -1.12247
  Beta  occ. eigenvalues --   -0.17087  -0.13155  -0.11317
  Beta virt. eigenvalues --   -0.07776  -0.06359  -0.04604  -0.03730  -0.03304
  Beta virt. eigenvalues --   -0.02530  -0.02199  -0.02153  -0.01093  -0.00391
  Beta virt. eigenvalues --   -0.00001   0.00169   0.00334   0.00526   0.00773

 Mulliken charges and spin densities:
               1          2
     1  Na   0.419377  -0.031454
     2  Na   0.084366   0.173674
     3  Na   0.252330   0.252834
     4  Na  -0.790824   0.122041
     5  Na   0.163794   0.058954
     6  Na   0.203570   0.334506
     7  Na  -0.332612   0.089445
 Sum of Mulliken charges =  -0.00000   1.00000

 Dipole moment (field-independent basis, Debye):
    X=              0.6781    Y=             -0.1309    Z=              0.0359  Tot=              0.6916
 Quadrupole moment (field-independent basis, Debye-Ang):
   XX=            -54.9526   YY=            -73.7020   ZZ=            -66.5807
   XY=             -1.2435   XZ=             -6.1487   YZ=              0.9625

 Normal termination of Gaussian 16 at Tue Dec  5 15:02:51 2023.
