 Gaussian 16, Revision B.01,
 Gaussian 16:  ES64L-G16RevB.01 20-Dec-2017

 -------------------------
 #P B3LYP/6-311+g(d) force
 -------------------------

 -----
 DPGEN
 -----
 Symbolic Z-matrix:
 Charge =  0 Multiplicity = 2

                         Standard orientation:
 ---------------------------------------------------------------------
 Center     Atomic      Atomic             Coordinates (Angstroms)
 Number     Number       Type             X           Y           Z
 ---------------------------------------------------------------------
      1         11           0        2.303538   -1.677602   -0.595004
      2         11           0       -4.001900   -0.875785    0.605666
      3         11           0        0.895589    1.733872   -0.754659
      4         11           0        4.262429    0.528205    0.648619
      5         11           0       -0.806306   -1.309225   -1.484608
      6         11           0       -0.257899   -0.311709    2.008528
      7         11           0       -2.395451    1.912243   -0.428543
 ---------------------------------------------------------------------

 SCF Done:  E(UB3LYP) =  -1136.11382556     A.U. after   28 cycles

 The electronic state is 2-A.
 Alpha  occ. eigenvalues --  -38.47372 -38.44947 -38.44553 -38.43689 -38.43457
 Alpha  occ. eigenvalues --  -38.43148 -38.42271  -2.23115  -2.20763  -2.20354
 Alpha  occ. eigenvalues --   -2.19586  -2.19343  -2.19007  -2.18156  -1.16808
 Alpha  occ. eigenvalues --   -1.16765  -1.16739  -1.14430  -1.14403  -1.14376
 Alpha  occ. eigenvalues --   -1.14025  -1.14009  -1.13972  -1.13285  -1.13220
 Alpha  occ. eigenvalues --   -1.13212  -1.13018  -1.12998  -1.12987  -1.12688
 Alpha  occ. eigenvalues --   -1.12670  -1.12650  -1.11857  -1.11835  -1.11762
 Alpha  occ. eigenvalues --   -0.18250  -0.14339  -0.11217  -0.10631
 Alpha virt. eigenvalues --   -0.07955  -0.05030  -0.04605  -0.03420  -0.03044
 Alpha virt. eigenvalues --   -0.02368  -0.02139  -0.01401  -0.01340  -0.00373
 Alpha virt. eigenvalues --   -0.00296   0.00195   0.00220   0.00602   0.00685

  Beta  occ. eigenvalues --  -38.47366 -38.44883 -38.44517 -38.43620 -38.43436
  Beta  occ. eigenvalues --  -38.43145 -38.42255  -2.23103  -2.20643  -2.20287
  Beta  occ. eigenvalues --   -2.19464  -2.19311  -2.19004  -2.18131  -1.16790
  Beta  occ. eigenvalues --   -1.16762  -1.16730  -1.14351  -1.14319  -1.14297
  Beta  occ. eigenvalues --   -1.13980  -1.13958  -1.13930  -1.13196  -1.13131
  Beta  occ. eigenvalues --   -1.13120  -1.12986  -1.12983  -1.12928  -1.12684
  Beta  occ. eigenvalues --   -1.12669  -1.12632  -1.11845  -1.11796  -1.11745
  Beta  occ. eigenvalues --   -0.17641  -0.13781  -0.10407
  Beta virt. eigenvalues --   -0.07684  -0.07600  -0.04947  -0.03999  -0.03095
  Beta virt. eigenvalues --   -0.02825  -0.01868  -0.01762  -0.01257  -0.00889
  Beta virt. eigenvalues --   -0.00207  -0.00193   0.00249   0.00342   0.00684

 Mulliken charges and spin densities:
               1          2
     1  Na   0.085238   0.059289
     2  Na   0.421063   0.277655
     3  Na  -0.492409   0.019398
     4  Na   0.456848   0.391494
     5  Na  -0.116261   0.201621
     6  Na  -0.265917   0.035181
     7  Na  -0.088562   0.015362
 Sum of Mulliken charges =  -0.00000   1.00000

 Dipole moment (field-independent basis, Debye):
    X=              0.0214    Y=             -0.2169    Z=              0.9687  Tot=              0.9929
 Quadrupole moment (field-independent basis, Debye-Ang):
   XX=            -52.7322   YY=            -81.8425   ZZ=            -64.3724
   XY=              0.3669   XZ=              2.1685   YZ=              1.9146

 Normal termination of Gaussian 16 at Thu Dec  7 11:11:30 2023.
