 Gaussian 16, Revision B.01,
 Gaussian 16:  ES64L-G16RevB.01 20-Dec-2017

 -------------------------
 #P B3LYP/6-311+g(d) force
 -------------------------

 -----
 DPGEN
 -----
 Symbolic Z-matrix:
 Charge =  0 Multiplicity = 2

                         Standard orientation:
 ---------------------------------------------------------------------
 Center     Atomic      Atomic             Coordinates (Angstroms)
 Number     Number       Type             X           Y           Z
 ---------------------------------------------------------------------
      1         11           0        1.049104   -1.542327    0.887928
      2         11           0        3.949216   -0.336076   -0.341751
      3         11           0       -1.543287   -0.184513    2.264356
      4         11           0       -2.434624    1.747533   -0.897892
      5         11           0       -2.544299   -1.803630   -0.698831
      6         11           0        0.453529   -0.094103   -2.022950
      7         11           0        1.070361    2.213116    0.809141
 ---------------------------------------------------------------------

 SCF Done:  E(UB3LYP) =  -1136.12738905     A.U. after   26 cycles

 The electronic state is 2-A.
 Alpha  occ. eigenvalues --  -38.44965 -38.44456 -38.44052 -38.43950 -38.43877
 Alpha  occ. eigenvalues --  -38.43303 -38.42814  -2.20744  -2.20315  -2.19877
 Alpha  occ. eigenvalues --   -2.19758  -2.19745  -2.19110  -2.18717  -1.14416
 Alpha  occ. eigenvalues --   -1.14407  -1.14371  -1.14025  -1.13954  -1.13918
 Alpha  occ. eigenvalues --   -1.13554  -1.13534  -1.13501  -1.13451  -1.13432
 Alpha  occ. eigenvalues --   -1.13407  -1.13375  -1.13367  -1.13350  -1.12786
 Alpha  occ. eigenvalues --   -1.12775  -1.12750  -1.12429  -1.12415  -1.12306
 Alpha  occ. eigenvalues --   -0.18285  -0.13416  -0.11891  -0.10865
 Alpha virt. eigenvalues --   -0.06501  -0.05037  -0.04350  -0.03315  -0.02996
 Alpha virt. eigenvalues --   -0.02718  -0.02252  -0.00919  -0.00681  -0.00147
 Alpha virt. eigenvalues --    0.00202   0.00249   0.00350   0.00670   0.00813

  Beta  occ. eigenvalues --  -38.44964 -38.44404 -38.44027 -38.43904 -38.43815
  Beta  occ. eigenvalues --  -38.43304 -38.42799  -2.20743  -2.20220  -2.19832
  Beta  occ. eigenvalues --   -2.19674  -2.19630  -2.19114  -2.18696  -1.14415
  Beta  occ. eigenvalues --   -1.14402  -1.14371  -1.13964  -1.13881  -1.13845
  Beta  occ. eigenvalues --   -1.13518  -1.13504  -1.13464  -1.13385  -1.13354
  Beta  occ. eigenvalues --   -1.13340  -1.13313  -1.13300  -1.13263  -1.12784
  Beta  occ. eigenvalues --   -1.12773  -1.12747  -1.12420  -1.12360  -1.12298
  Beta  occ. eigenvalues --   -0.17467  -0.13245  -0.10682
  Beta virt. eigenvalues --   -0.07909  -0.06327  -0.04735  -0.03960  -0.02901
  Beta virt. eigenvalues --   -0.02378  -0.02160  -0.02028  -0.00754  -0.00405
  Beta virt. eigenvalues --   -0.00056   0.00240   0.00338   0.00408   0.00751

 Mulliken charges and spin densities:
               1          2
     1  Na  -0.258646   0.074264
     2  Na   0.344971  -0.024028
     3  Na   0.190638   0.388796
     4  Na  -0.071625  -0.050952
     5  Na   0.164978   0.035157
     6  Na  -0.086325   0.395919
     7  Na  -0.283989   0.180843
 Sum of Mulliken charges =  -0.00000   1.00000

 Dipole moment (field-independent basis, Debye):
    X=              0.7909    Y=              0.0187    Z=             -0.3138  Tot=              0.8511
 Quadrupole moment (field-independent basis, Debye-Ang):
   XX=            -49.3259   YY=            -75.6482   ZZ=            -68.3689
   XY=              1.2778   XZ=             -0.5662   YZ=              6.6552

 Normal termination of Gaussian 16 at Thu Dec  7 16:06:39 2023.
