 Gaussian 16, Revision B.01,
 Gaussian 16:  ES64L-G16RevB.01 20-Dec-2017

 -------------------------
 #P B3LYP/6-311+g(d) force
 -------------------------

 -----
 DPGEN
 -----
 Symbolic Z-matrix:
 Charge =  0 Multiplicity = 2

                         Standard orientation:
 ---------------------------------------------------------------------
 Center     Atomic      Atomic             Coordinates (Angstroms)
 Number     Number       Type             X           Y           Z
 ---------------------------------------------------------------------
      1         11           0        0.012553    1.679857   -0.552301
      2         11           0        0.812240   -1.042932    1.505152
      3         11           0       -2.515086   -0.203844    1.539934
      4         11           0        3.052491    1.713569    0.437407
      5         11           0       -0.971432   -1.700586   -0.955080
      6         11           0       -3.403865    0.814292   -0.988892
      7         11           0        3.013099   -1.260356   -0.986220
 ---------------------------------------------------------------------

 SCF Done:  E(UB3LYP) =  -1136.11891857     A.U. after   26 cycles

 The electronic state is 2-A.
 Alpha  occ. eigenvalues --  -38.44836 -38.44583 -38.44361 -38.43910 -38.43615
 Alpha  occ. eigenvalues --  -38.43390 -38.42880  -2.20675  -2.20536  -2.20260
 Alpha  occ. eigenvalues --   -2.19787  -2.19474  -2.19315  -2.18844  -1.14353
 Alpha  occ. eigenvalues --   -1.14337  -1.14319  -1.14296  -1.14183  -1.14157
 Alpha  occ. eigenvalues --   -1.13899  -1.13877  -1.13865  -1.13486  -1.13478
 Alpha  occ. eigenvalues --   -1.13414  -1.13135  -1.13125  -1.13119  -1.13042
 Alpha  occ. eigenvalues --   -1.12983  -1.12920  -1.12550  -1.12480  -1.12457
 Alpha  occ. eigenvalues --   -0.18964  -0.14750  -0.11187  -0.10821
 Alpha virt. eigenvalues --   -0.07106  -0.05331  -0.04769  -0.03111  -0.02771
 Alpha virt. eigenvalues --   -0.02312  -0.01970  -0.01078  -0.00907  -0.00069
 Alpha virt. eigenvalues --    0.00111   0.00244   0.00392   0.00605   0.00760

  Beta  occ. eigenvalues --  -38.44801 -38.44544 -38.44342 -38.43889 -38.43613
  Beta  occ. eigenvalues --  -38.43371 -38.42841  -2.20608  -2.20466  -2.20226
  Beta  occ. eigenvalues --   -2.19752  -2.19473  -2.19282  -2.18777  -1.14305
  Beta  occ. eigenvalues --   -1.14285  -1.14274  -1.14253  -1.14128  -1.14114
  Beta  occ. eigenvalues --   -1.13863  -1.13849  -1.13838  -1.13468  -1.13419
  Beta  occ. eigenvalues --   -1.13397  -1.13125  -1.13123  -1.13115  -1.13024
  Beta  occ. eigenvalues --   -1.12937  -1.12896  -1.12510  -1.12412  -1.12397
  Beta  occ. eigenvalues --   -0.18295  -0.14548  -0.10895
  Beta virt. eigenvalues --   -0.07083  -0.06909  -0.05123  -0.04171  -0.02949
  Beta virt. eigenvalues --   -0.02631  -0.01761  -0.01273  -0.00890  -0.00487
  Beta virt. eigenvalues --   -0.00013   0.00141   0.00275   0.00470   0.00751

 Mulliken charges and spin densities:
               1          2
     1  Na  -1.383840   0.275703
     2  Na  -0.190004   0.343803
     3  Na   0.092183  -0.031943
     4  Na   0.770111  -0.195044
     5  Na  -0.596407   0.329613
     6  Na   1.133636   0.110911
     7  Na   0.174321   0.166957
 Sum of Mulliken charges =  -0.00000   1.00000

 Dipole moment (field-independent basis, Debye):
    X=             -0.0317    Y=             -0.3277    Z=             -0.0381  Tot=              0.3314
 Quadrupole moment (field-independent basis, Debye-Ang):
   XX=            -47.7563   YY=            -78.1996   ZZ=            -69.0833
   XY=             -1.4745   XZ=             -0.9540   YZ=              1.8218

 Normal termination of Gaussian 16 at Thu Dec  7 16:24:41 2023.
