 Gaussian 16, Revision B.01,
 Gaussian 16:  ES64L-G16RevB.01 20-Dec-2017

 -------------------------
 #P B3LYP/6-311+g(d) force
 -------------------------

 -----
 DPGEN
 -----
 Symbolic Z-matrix:
 Charge =  0 Multiplicity = 2

                         Standard orientation:
 ---------------------------------------------------------------------
 Center     Atomic      Atomic             Coordinates (Angstroms)
 Number     Number       Type             X           Y           Z
 ---------------------------------------------------------------------
      1         11           0        1.927631   -2.526156   -0.160333
      2         11           0        0.896670    3.115276    0.032815
      3         11           0       -0.275851   -0.468826   -1.218455
      4         11           0        2.847906    0.478816   -0.296398
      5         11           0       -2.628986    1.732833   -0.461947
      6         11           0       -2.396167   -2.110232   -0.174976
      7         11           0       -0.371205   -0.221709    2.279295
 ---------------------------------------------------------------------

 SCF Done:  E(UB3LYP) =  -1136.12885986     A.U. after   20 cycles

 The electronic state is 2-A.
 Alpha  occ. eigenvalues --  -38.44363 -38.44338 -38.43863 -38.43721 -38.43658
 Alpha  occ. eigenvalues --  -38.43522 -38.43007  -2.20215  -2.20139  -2.19720
 Alpha  occ. eigenvalues --   -2.19569  -2.19455  -2.19403  -2.19065  -1.13986
 Alpha  occ. eigenvalues --   -1.13854  -1.13833  -1.13818  -1.13796  -1.13756
 Alpha  occ. eigenvalues --   -1.13429  -1.13384  -1.13354  -1.13226  -1.13188
 Alpha  occ. eigenvalues --   -1.13183  -1.13161  -1.13121  -1.13096  -1.13078
 Alpha  occ. eigenvalues --   -1.13053  -1.13017  -1.12745  -1.12724  -1.12680
 Alpha  occ. eigenvalues --   -0.18399  -0.13107  -0.12459  -0.10575
 Alpha virt. eigenvalues --   -0.05993  -0.05108  -0.04928  -0.03015  -0.02707
 Alpha virt. eigenvalues --   -0.02573  -0.01598  -0.01399  -0.00575  -0.00478
 Alpha virt. eigenvalues --   -0.00025   0.00310   0.00741   0.00842   0.00884

  Beta  occ. eigenvalues --  -38.44356 -38.44327 -38.43859 -38.43660 -38.43605
  Beta  occ. eigenvalues --  -38.43518 -38.42970  -2.20207  -2.20119  -2.19716
  Beta  occ. eigenvalues --   -2.19460  -2.19398  -2.19353  -2.19000  -1.13977
  Beta  occ. eigenvalues --   -1.13829  -1.13816  -1.13808  -1.13775  -1.13745
  Beta  occ. eigenvalues --   -1.13426  -1.13378  -1.13338  -1.13165  -1.13113
  Beta  occ. eigenvalues --   -1.13101  -1.13081  -1.13071  -1.13042  -1.13038
  Beta  occ. eigenvalues --   -1.13029  -1.13013  -1.12695  -1.12665  -1.12632
  Beta  occ. eigenvalues --   -0.17724  -0.12860  -0.12296
  Beta virt. eigenvalues --   -0.06585  -0.05955  -0.05017  -0.04915  -0.02286
  Beta virt. eigenvalues --   -0.02023  -0.01529  -0.01418  -0.01352  -0.00613
  Beta virt. eigenvalues --   -0.00491   0.00165   0.00374   0.00754   0.00883

 Mulliken charges and spin densities:
               1          2
     1  Na   0.540256   0.111058
     2  Na   0.029329   0.029703
     3  Na  -0.627105  -0.124756
     4  Na   0.066547   0.047270
     5  Na   0.166303   0.073471
     6  Na   0.412873   0.112781
     7  Na  -0.588203   0.750473
 Sum of Mulliken charges =  -0.00000   1.00000

 Dipole moment (field-independent basis, Debye):
    X=             -0.4819    Y=             -0.2236    Z=              0.1907  Tot=              0.5644
 Quadrupole moment (field-independent basis, Debye-Ang):
   XX=            -58.3387   YY=            -58.8072   ZZ=            -76.1529
   XY=             -0.4602   XZ=              0.4372   YZ=             -0.2955

 Normal termination of Gaussian 16 at Tue Dec  5 22:31:40 2023.
