 Gaussian 16, Revision B.01,
 Gaussian 16:  ES64L-G16RevB.01 20-Dec-2017

 -------------------------
 #P B3LYP/6-311+g(d) force
 -------------------------

 -----
 DPGEN
 -----
 Symbolic Z-matrix:
 Charge =  0 Multiplicity = 2

                         Standard orientation:
 ---------------------------------------------------------------------
 Center     Atomic      Atomic             Coordinates (Angstroms)
 Number     Number       Type             X           Y           Z
 ---------------------------------------------------------------------
      1         11           0        0.422161   -1.858463    0.920671
      2         11           0        3.785070   -2.379030   -0.188617
      3         11           0        2.421091    0.252097   -1.059073
      4         11           0        2.075850    3.337087    0.497529
      5         11           0       -0.350710    1.237114   -0.297674
      6         11           0       -3.206898   -0.177727    1.240751
      7         11           0       -5.146563   -0.411078   -1.113586
 ---------------------------------------------------------------------

 SCF Done:  E(UB3LYP) =  -1136.12031858     A.U. after   19 cycles

 The electronic state is 2-A.
 Alpha  occ. eigenvalues --  -38.44200 -38.44073 -38.43873 -38.43861 -38.43811
 Alpha  occ. eigenvalues --  -38.43741 -38.43575  -2.20029  -2.19920  -2.19816
 Alpha  occ. eigenvalues --   -2.19739  -2.19686  -2.19580  -2.19418  -1.13708
 Alpha  occ. eigenvalues --   -1.13657  -1.13656  -1.13653  -1.13607  -1.13599
 Alpha  occ. eigenvalues --   -1.13507  -1.13492  -1.13434  -1.13428  -1.13393
 Alpha  occ. eigenvalues --   -1.13364  -1.13346  -1.13323  -1.13273  -1.13252
 Alpha  occ. eigenvalues --   -1.13243  -1.13213  -1.13081  -1.13064  -1.13026
 Alpha  occ. eigenvalues --   -0.17465  -0.14081  -0.12264  -0.10808
 Alpha virt. eigenvalues --   -0.06104  -0.05290  -0.04513  -0.03684  -0.02713
 Alpha virt. eigenvalues --   -0.02204  -0.01947  -0.01737  -0.00644  -0.00474
 Alpha virt. eigenvalues --   -0.00325   0.00200   0.00297   0.00494   0.00680

  Beta  occ. eigenvalues --  -38.44114 -38.44023 -38.43863 -38.43841 -38.43790
  Beta  occ. eigenvalues --  -38.43742 -38.43548  -2.19868  -2.19831  -2.19783
  Beta  occ. eigenvalues --   -2.19705  -2.19668  -2.19590  -2.19367  -1.13616
  Beta  occ. eigenvalues --   -1.13608  -1.13553  -1.13546  -1.13542  -1.13542
  Beta  occ. eigenvalues --   -1.13476  -1.13434  -1.13408  -1.13404  -1.13356
  Beta  occ. eigenvalues --   -1.13342  -1.13333  -1.13304  -1.13274  -1.13255
  Beta  occ. eigenvalues --   -1.13231  -1.13164  -1.13039  -1.13030  -1.12998
  Beta  occ. eigenvalues --   -0.16896  -0.13353  -0.12091
  Beta virt. eigenvalues --   -0.07314  -0.05960  -0.04711  -0.04284  -0.03438
  Beta virt. eigenvalues --   -0.02400  -0.02103  -0.01672  -0.01220  -0.00415
  Beta virt. eigenvalues --   -0.00249  -0.00177   0.00397   0.00469   0.00590

 Mulliken charges and spin densities:
               1          2
     1  Na  -0.357421   0.149089
     2  Na   0.560830   0.204900
     3  Na  -0.233591   0.176918
     4  Na   0.799104   0.124407
     5  Na  -1.156918  -0.009247
     6  Na   0.457223  -0.089679
     7  Na  -0.069227   0.443613
 Sum of Mulliken charges =  -0.00000   1.00000

 Dipole moment (field-independent basis, Debye):
    X=              0.7191    Y=              0.0770    Z=              0.4893  Tot=              0.8732
 Quadrupole moment (field-independent basis, Debye-Ang):
   XX=            -67.5540   YY=            -66.4602   ZZ=            -65.0084
   XY=              0.8483   XZ=              3.1910   YZ=              1.6020

 Normal termination of Gaussian 16 at Tue Nov 28 18:57:19 2023.
