 Gaussian 16, Revision B.01,
 Gaussian 16:  ES64L-G16RevB.01 20-Dec-2017

 -------------------------
 #P B3LYP/6-311+g(d) force
 -------------------------

 -----
 DPGEN
 -----
 Symbolic Z-matrix:
 Charge =  0 Multiplicity = 2

                         Standard orientation:
 ---------------------------------------------------------------------
 Center     Atomic      Atomic             Coordinates (Angstroms)
 Number     Number       Type             X           Y           Z
 ---------------------------------------------------------------------
      1         11           0       -1.838249    2.060375   -0.006403
      2         11           0       -1.542000   -1.082234    0.731056
      3         11           0        3.742532   -1.736065    0.076062
      4         11           0        1.674842    3.629637   -1.020543
      5         11           0       -4.341849   -0.674089   -0.190122
      6         11           0        0.634541   -3.167627   -0.994483
      7         11           0        1.670183    0.970004    1.404433
 ---------------------------------------------------------------------

 SCF Done:  E(UB3LYP) =  -1136.11273541     A.U. after   23 cycles

 The electronic state is 2-A.
 Alpha  occ. eigenvalues --  -38.45053 -38.44826 -38.44483 -38.44386 -38.44219
 Alpha  occ. eigenvalues --  -38.43729 -38.42986  -2.20859  -2.20658  -2.20246
 Alpha  occ. eigenvalues --   -2.20181  -2.20136  -2.19513  -2.18803  -1.14591
 Alpha  occ. eigenvalues --   -1.14560  -1.14424  -1.14385  -1.14304  -1.14274
 Alpha  occ. eigenvalues --   -1.13917  -1.13914  -1.13889  -1.13865  -1.13850
 Alpha  occ. eigenvalues --   -1.13827  -1.13807  -1.13768  -1.13734  -1.13185
 Alpha  occ. eigenvalues --   -1.13161  -1.13145  -1.12461  -1.12460  -1.12419
 Alpha  occ. eigenvalues --   -0.16966  -0.13586  -0.12727  -0.09554
 Alpha virt. eigenvalues --   -0.07175  -0.06115  -0.03915  -0.03863  -0.02709
 Alpha virt. eigenvalues --   -0.02484  -0.02142  -0.01228  -0.01026  -0.00852
 Alpha virt. eigenvalues --   -0.00346   0.00138   0.00299   0.00559   0.00573

  Beta  occ. eigenvalues --  -38.45048 -38.44812 -38.44454 -38.44364 -38.44204
  Beta  occ. eigenvalues --  -38.43691 -38.42923  -2.20851  -2.20632  -2.20192
  Beta  occ. eigenvalues --   -2.20142  -2.20112  -2.19444  -2.18688  -1.14590
  Beta  occ. eigenvalues --   -1.14555  -1.14406  -1.14370  -1.14286  -1.14250
  Beta  occ. eigenvalues --   -1.13880  -1.13876  -1.13859  -1.13836  -1.13820
  Beta  occ. eigenvalues --   -1.13816  -1.13793  -1.13725  -1.13683  -1.13139
  Beta  occ. eigenvalues --   -1.13104  -1.13096  -1.12384  -1.12374  -1.12342
  Beta  occ. eigenvalues --   -0.16702  -0.13120  -0.12170
  Beta virt. eigenvalues --   -0.06961  -0.06148  -0.06055  -0.03768  -0.03487
  Beta virt. eigenvalues --   -0.02445  -0.02110  -0.01886  -0.00934  -0.00874
  Beta virt. eigenvalues --   -0.00712  -0.00080   0.00354   0.00462   0.00623

 Mulliken charges and spin densities:
               1          2
     1  Na  -0.141184   0.080492
     2  Na  -0.932930   0.102548
     3  Na  -0.254467   0.198665
     4  Na  -0.100357   0.139119
     5  Na   0.540764   0.083380
     6  Na   0.258026   0.246533
     7  Na   0.630149   0.149264
 Sum of Mulliken charges =  -0.00000   1.00000

 Dipole moment (field-independent basis, Debye):
    X=             -1.4770    Y=              1.1018    Z=             -0.6694  Tot=              1.9605
 Quadrupole moment (field-independent basis, Debye-Ang):
   XX=            -58.9956   YY=            -70.2358   ZZ=            -68.9189
   XY=              2.3884   XZ=             -2.1349   YZ=             -1.3469

 Normal termination of Gaussian 16 at Sun Dec  3 13:29:34 2023.
