 Gaussian 16, Revision B.01,
 Gaussian 16:  ES64L-G16RevB.01 20-Dec-2017

 -------------------------
 #P B3LYP/6-311+g(d) force
 -------------------------

 -----
 DPGEN
 -----
 Symbolic Z-matrix:
 Charge =  0 Multiplicity = 2

                         Standard orientation:
 ---------------------------------------------------------------------
 Center     Atomic      Atomic             Coordinates (Angstroms)
 Number     Number       Type             X           Y           Z
 ---------------------------------------------------------------------
      1         11           0       -2.036102    1.913612   -0.209502
      2         11           0        0.135404   -0.242806   -1.593284
      3         11           0       -2.874110   -1.001861    0.026604
      4         11           0        1.560973    2.423627   -0.121273
      5         11           0        3.043443   -0.463474    0.256859
      6         11           0       -0.341903   -0.028027    1.834783
      7         11           0        0.512295   -2.601072   -0.194186
 ---------------------------------------------------------------------

 SCF Done:  E(UB3LYP) =  -1136.13135379     A.U. after   19 cycles

 The electronic state is 2-A.
 Alpha  occ. eigenvalues --  -38.44172 -38.44057 -38.43501 -38.43320 -38.43172
 Alpha  occ. eigenvalues --  -38.43149 -38.43132  -2.20044  -2.19964  -2.19424
 Alpha  occ. eigenvalues --   -2.19302  -2.19236  -2.19081  -2.19041  -1.13715
 Alpha  occ. eigenvalues --   -1.13703  -1.13696  -1.13681  -1.13629  -1.13593
 Alpha  occ. eigenvalues --   -1.13176  -1.13123  -1.13087  -1.13053  -1.12985
 Alpha  occ. eigenvalues --   -1.12922  -1.12915  -1.12876  -1.12825  -1.12717
 Alpha  occ. eigenvalues --   -1.12705  -1.12700  -1.12680  -1.12661  -1.12640
 Alpha  occ. eigenvalues --   -0.19457  -0.13637  -0.12393  -0.10788
 Alpha virt. eigenvalues --   -0.05829  -0.05048  -0.04288  -0.03409  -0.02681
 Alpha virt. eigenvalues --   -0.02328  -0.01695  -0.00926  -0.00115  -0.00071
 Alpha virt. eigenvalues --    0.00031   0.00359   0.00821   0.00934   0.00951

  Beta  occ. eigenvalues --  -38.44167 -38.44051 -38.43491 -38.43236 -38.43169
  Beta  occ. eigenvalues --  -38.43121 -38.43075  -2.20038  -2.19956  -2.19412
  Beta  occ. eigenvalues --   -2.19149  -2.19114  -2.19054  -2.19038  -1.13712
  Beta  occ. eigenvalues --   -1.13697  -1.13680  -1.13676  -1.13606  -1.13574
  Beta  occ. eigenvalues --   -1.13117  -1.13105  -1.13054  -1.13036  -1.12891
  Beta  occ. eigenvalues --   -1.12819  -1.12806  -1.12785  -1.12746  -1.12700
  Beta  occ. eigenvalues --   -1.12681  -1.12675  -1.12670  -1.12646  -1.12582
  Beta  occ. eigenvalues --   -0.18719  -0.13376  -0.12109
  Beta virt. eigenvalues --   -0.06838  -0.05785  -0.05051  -0.04285  -0.02566
  Beta virt. eigenvalues --   -0.01899  -0.01594  -0.01271  -0.00872  -0.00146
  Beta virt. eigenvalues --   -0.00121   0.00153   0.00384   0.00868   0.00930

 Mulliken charges and spin densities:
               1          2
     1  Na   0.101294  -0.047914
     2  Na  -0.549737   0.508620
     3  Na   0.451191  -0.016970
     4  Na   0.028756  -0.081676
     5  Na   0.075374   0.004872
     6  Na  -0.568149   0.690326
     7  Na   0.461270  -0.057259
 Sum of Mulliken charges =  -0.00000   1.00000

 Dipole moment (field-independent basis, Debye):
    X=              0.0031    Y=             -0.0274    Z=              0.2187  Tot=              0.2205
 Quadrupole moment (field-independent basis, Debye-Ang):
   XX=            -53.6910   YY=            -65.1879   ZZ=            -74.4529
   XY=              0.2931   XZ=              1.2484   YZ=             -0.7115

 Normal termination of Gaussian 16 at Fri Dec  8 06:33:22 2023.
