 Gaussian 16, Revision B.01,
 Gaussian 16:  ES64L-G16RevB.01 20-Dec-2017

 -------------------------
 #P B3LYP/6-311+g(d) force
 -------------------------

 -----
 DPGEN
 -----
 Symbolic Z-matrix:
 Charge =  0 Multiplicity = 2

                         Standard orientation:
 ---------------------------------------------------------------------
 Center     Atomic      Atomic             Coordinates (Angstroms)
 Number     Number       Type             X           Y           Z
 ---------------------------------------------------------------------
      1         11           0        4.144746    0.098721    0.439703
      2         11           0        2.075336    3.268024    0.242963
      3         11           0       -4.277908    1.163049   -0.531020
      4         11           0        3.219476   -2.650667   -0.544542
      5         11           0       -0.997260    3.363904   -0.218443
      6         11           0       -3.367566   -2.137385    1.002013
      7         11           0       -0.796824   -3.105646   -0.390674
 ---------------------------------------------------------------------

 SCF Done:  E(UB3LYP) =  -1136.10629600     A.U. after   21 cycles

 The electronic state is 2-A.
 Alpha  occ. eigenvalues --  -38.44975 -38.44696 -38.44675 -38.44659 -38.44539
 Alpha  occ. eigenvalues --  -38.44474 -38.43778  -2.20773  -2.20496  -2.20478
 Alpha  occ. eigenvalues --   -2.20433  -2.20324  -2.20276  -2.19595  -1.14470
 Alpha  occ. eigenvalues --   -1.14434  -1.14414  -1.14269  -1.14163  -1.14142
 Alpha  occ. eigenvalues --   -1.14120  -1.14119  -1.14113  -1.14110  -1.14086
 Alpha  occ. eigenvalues --   -1.14051  -1.13973  -1.13953  -1.13941  -1.13933
 Alpha  occ. eigenvalues --   -1.13929  -1.13914  -1.13252  -1.13242  -1.13228
 Alpha  occ. eigenvalues --   -0.15518  -0.14058  -0.13444  -0.10977
 Alpha virt. eigenvalues --   -0.07631  -0.04889  -0.04348  -0.03608  -0.03513
 Alpha virt. eigenvalues --   -0.02505  -0.02235  -0.01815  -0.01379  -0.00897
 Alpha virt. eigenvalues --   -0.00632  -0.00265   0.00226   0.00356   0.00561

  Beta  occ. eigenvalues --  -38.44957 -38.44692 -38.44659 -38.44624 -38.44456
  Beta  occ. eigenvalues --  -38.44440 -38.43737  -2.20744  -2.20494  -2.20440
  Beta  occ. eigenvalues --   -2.20385  -2.20246  -2.20140  -2.19520  -1.14441
  Beta  occ. eigenvalues --   -1.14417  -1.14386  -1.14230  -1.14164  -1.14124
  Beta  occ. eigenvalues --   -1.14121  -1.14120  -1.14061  -1.14060  -1.14055
  Beta  occ. eigenvalues --   -1.13996  -1.13910  -1.13910  -1.13885  -1.13848
  Beta  occ. eigenvalues --   -1.13829  -1.13819  -1.13203  -1.13191  -1.13178
  Beta  occ. eigenvalues --   -0.15012  -0.13349  -0.12745
  Beta virt. eigenvalues --   -0.07770  -0.07720  -0.04441  -0.03914  -0.03367
  Beta virt. eigenvalues --   -0.03215  -0.02217  -0.02021  -0.01662  -0.01247
  Beta virt. eigenvalues --   -0.00514  -0.00361  -0.00074   0.00296   0.00410

 Mulliken charges and spin densities:
               1          2
     1  Na  -0.113954   0.090264
     2  Na   0.498481   0.170592
     3  Na  -0.078239   0.459241
     4  Na   0.377699   0.072110
     5  Na  -0.439845   0.026464
     6  Na   0.272763  -0.062124
     7  Na  -0.516905   0.243453
 Sum of Mulliken charges =  -0.00000   1.00000

 Dipole moment (field-independent basis, Debye):
    X=              0.2264    Y=             -0.6902    Z=              0.0742  Tot=              0.7302
 Quadrupole moment (field-independent basis, Debye-Ang):
   XX=            -61.3269   YY=            -69.3978   ZZ=            -71.0355
   XY=              1.7125   XZ=             -0.5560   YZ=              1.3127

 Normal termination of Gaussian 16 at Sun Dec  3 16:42:39 2023.
