 Gaussian 16, Revision B.01,
 Gaussian 16:  ES64L-G16RevB.01 20-Dec-2017

 -------------------------
 #P B3LYP/6-311+g(d) force
 -------------------------

 -----
 DPGEN
 -----
 Symbolic Z-matrix:
 Charge =  0 Multiplicity = 2

                         Standard orientation:
 ---------------------------------------------------------------------
 Center     Atomic      Atomic             Coordinates (Angstroms)
 Number     Number       Type             X           Y           Z
 ---------------------------------------------------------------------
      1         11           0       -3.123370   -1.149720    0.204026
      2         11           0        1.471617    2.719970   -0.093104
      3         11           0        0.203792   -0.010144   -1.763594
      4         11           0       -2.127669    2.133170   -0.183405
      5         11           0        0.208855   -0.104680    2.122931
      6         11           0        3.122806   -0.748790    0.128539
      7         11           0        0.243968   -2.839806   -0.415393
 ---------------------------------------------------------------------

 SCF Done:  E(UB3LYP) =  -1136.13776546     A.U. after   18 cycles

 The electronic state is 2-A.
 Alpha  occ. eigenvalues --  -38.44205 -38.43965 -38.43937 -38.43653 -38.43494
 Alpha  occ. eigenvalues --  -38.43405 -38.43400  -2.20020  -2.19788  -2.19752
 Alpha  occ. eigenvalues --   -2.19473  -2.19347  -2.19309  -2.19255  -1.13697
 Alpha  occ. eigenvalues --   -1.13683  -1.13658  -1.13451  -1.13425  -1.13419
 Alpha  occ. eigenvalues --   -1.13418  -1.13405  -1.13395  -1.13161  -1.13140
 Alpha  occ. eigenvalues --   -1.13104  -1.13084  -1.13026  -1.12982  -1.12971
 Alpha  occ. eigenvalues --   -1.12954  -1.12942  -1.12908  -1.12896  -1.12864
 Alpha  occ. eigenvalues --   -0.18286  -0.12826  -0.12337  -0.10843
 Alpha virt. eigenvalues --   -0.05732  -0.05239  -0.04703  -0.03184  -0.02939
 Alpha virt. eigenvalues --   -0.02758  -0.01592  -0.01152  -0.00478  -0.00400
 Alpha virt. eigenvalues --   -0.00041   0.00358   0.00776   0.00852   0.00872

  Beta  occ. eigenvalues --  -38.44200 -38.43965 -38.43843 -38.43651 -38.43491
  Beta  occ. eigenvalues --  -38.43388 -38.43334  -2.20016  -2.19754  -2.19615
  Beta  occ. eigenvalues --   -2.19471  -2.19307  -2.19237  -2.19216  -1.13683
  Beta  occ. eigenvalues --   -1.13670  -1.13655  -1.13422  -1.13411  -1.13400
  Beta  occ. eigenvalues --   -1.13335  -1.13298  -1.13278  -1.13151  -1.13131
  Beta  occ. eigenvalues --   -1.13104  -1.13023  -1.12991  -1.12963  -1.12940
  Beta  occ. eigenvalues --   -1.12910  -1.12881  -1.12877  -1.12853  -1.12832
  Beta  occ. eigenvalues --   -0.17550  -0.12631  -0.12101
  Beta virt. eigenvalues --   -0.06933  -0.05655  -0.05264  -0.04624  -0.02436
  Beta virt. eigenvalues --   -0.02178  -0.01700  -0.01487  -0.01088  -0.00520
  Beta virt. eigenvalues --   -0.00452   0.00102   0.00383   0.00833   0.00859

 Mulliken charges and spin densities:
               1          2
     1  Na  -0.027855  -0.045268
     2  Na   0.036772  -0.114161
     3  Na   0.037633   0.515003
     4  Na   0.016580  -0.084119
     5  Na  -0.449680   0.824986
     6  Na   0.215161  -0.049607
     7  Na   0.171389  -0.046835
 Sum of Mulliken charges =  -0.00000   1.00000

 Dipole moment (field-independent basis, Debye):
    X=              0.2032    Y=             -0.0533    Z=              0.1807  Tot=              0.2771
 Quadrupole moment (field-independent basis, Debye-Ang):
   XX=            -56.4044   YY=            -63.4501   ZZ=            -73.9832
   XY=              0.3569   XZ=             -0.0800   YZ=              0.0093

 Normal termination of Gaussian 16 at Tue Dec  5 23:00:08 2023.
