 Gaussian 16, Revision B.01,
 Gaussian 16:  ES64L-G16RevB.01 20-Dec-2017

 -------------------------
 #P B3LYP/6-311+g(d) force
 -------------------------

 -----
 DPGEN
 -----
 Symbolic Z-matrix:
 Charge =  0 Multiplicity = 2

                         Standard orientation:
 ---------------------------------------------------------------------
 Center     Atomic      Atomic             Coordinates (Angstroms)
 Number     Number       Type             X           Y           Z
 ---------------------------------------------------------------------
      1         11           0        5.150850   -0.200961    1.520989
      2         11           0       -3.976217    0.047596   -0.357664
      3         11           0        3.463443   -1.903537   -0.582121
      4         11           0       -0.698689    2.261150    0.044363
      5         11           0        0.257043   -0.865194   -0.913128
      6         11           0        2.351542    1.567193   -0.572138
      7         11           0       -6.547972   -0.906246    0.859698
 ---------------------------------------------------------------------

 SCF Done:  E(UB3LYP) =  -1136.11758342     A.U. after   19 cycles

 The electronic state is 2-A.
 Alpha  occ. eigenvalues --  -38.44894 -38.44278 -38.44159 -38.44087 -38.44071
 Alpha  occ. eigenvalues --  -38.43915 -38.43689  -2.20773  -2.20091  -2.20058
 Alpha  occ. eigenvalues --   -2.19937  -2.19867  -2.19787  -2.19505  -1.14475
 Alpha  occ. eigenvalues --   -1.14464  -1.14376  -1.13763  -1.13742  -1.13737
 Alpha  occ. eigenvalues --   -1.13723  -1.13723  -1.13674  -1.13598  -1.13591
 Alpha  occ. eigenvalues --   -1.13585  -1.13558  -1.13516  -1.13516  -1.13457
 Alpha  occ. eigenvalues --   -1.13446  -1.13406  -1.13173  -1.13168  -1.13117
 Alpha  occ. eigenvalues --   -0.17402  -0.13996  -0.12245  -0.11112
 Alpha virt. eigenvalues --   -0.07068  -0.05078  -0.04538  -0.03644  -0.02904
 Alpha virt. eigenvalues --   -0.02523  -0.02410  -0.01482  -0.01039  -0.00830
 Alpha virt. eigenvalues --   -0.00355  -0.00001   0.00072   0.00378   0.00537

  Beta  occ. eigenvalues --  -38.44864 -38.44237 -38.44090 -38.44079 -38.44063
  Beta  occ. eigenvalues --  -38.43881 -38.43687  -2.20720  -2.20013  -2.19933
  Beta  occ. eigenvalues --   -2.19893  -2.19881  -2.19730  -2.19501  -1.14435
  Beta  occ. eigenvalues --   -1.14409  -1.14335  -1.13714  -1.13689  -1.13667
  Beta  occ. eigenvalues --   -1.13656  -1.13642  -1.13594  -1.13589  -1.13564
  Beta  occ. eigenvalues --   -1.13550  -1.13526  -1.13526  -1.13510  -1.13424
  Beta  occ. eigenvalues --   -1.13407  -1.13328  -1.13167  -1.13164  -1.13121
  Beta  occ. eigenvalues --   -0.16682  -0.13879  -0.12080
  Beta virt. eigenvalues --   -0.07177  -0.06888  -0.04519  -0.04379  -0.03423
  Beta virt. eigenvalues --   -0.02492  -0.02394  -0.01822  -0.01386  -0.00987
  Beta virt. eigenvalues --   -0.00479   0.00003   0.00149   0.00261   0.00485

 Mulliken charges and spin densities:
               1          2
     1  Na   0.156956   0.189288
     2  Na  -0.418399   0.015748
     3  Na   0.147430  -0.075825
     4  Na   0.215471   0.132576
     5  Na  -0.222297   0.491143
     6  Na  -0.316108   0.280699
     7  Na   0.436946  -0.033630
 Sum of Mulliken charges =  -0.00000   1.00000

 Dipole moment (field-independent basis, Debye):
    X=              0.7722    Y=              0.2270    Z=              0.4160  Tot=              0.9061
 Quadrupole moment (field-independent basis, Debye-Ang):
   XX=            -61.0459   YY=            -68.3946   ZZ=            -68.9288
   XY=              0.8816   XZ=             -1.8597   YZ=             -0.9349

 Normal termination of Gaussian 16 at Sun Dec  3 21:38:02 2023.
