 Gaussian 16, Revision B.01,
 Gaussian 16:  ES64L-G16RevB.01 20-Dec-2017

 -------------------------
 #P B3LYP/6-311+g(d) force
 -------------------------

 -----
 DPGEN
 -----
 Symbolic Z-matrix:
 Charge =  0 Multiplicity = 2

                         Standard orientation:
 ---------------------------------------------------------------------
 Center     Atomic      Atomic             Coordinates (Angstroms)
 Number     Number       Type             X           Y           Z
 ---------------------------------------------------------------------
      1         11           0       -0.319439   -0.064723   -1.368315
      2         11           0        1.687348   -2.672394   -0.447145
      3         11           0        3.276161    0.607870   -0.032581
      4         11           0        0.490130    3.294858   -0.345818
      5         11           0       -3.290296    1.206792    0.006960
      6         11           0        0.272033   -0.069918    2.195956
      7         11           0       -2.115938   -2.302485   -0.009057
 ---------------------------------------------------------------------

 SCF Done:  E(UB3LYP) =  -1136.13141647     A.U. after   20 cycles

 The electronic state is 2-A.
 Alpha  occ. eigenvalues --  -38.44604 -38.44442 -38.44009 -38.43957 -38.43646
 Alpha  occ. eigenvalues --  -38.43569 -38.43135  -2.20370  -2.20217  -2.19835
 Alpha  occ. eigenvalues --   -2.19719  -2.19458  -2.19406  -2.19087  -1.14048
 Alpha  occ. eigenvalues --   -1.14024  -1.14011  -1.13896  -1.13874  -1.13857
 Alpha  occ. eigenvalues --   -1.13545  -1.13496  -1.13451  -1.13400  -1.13377
 Alpha  occ. eigenvalues --   -1.13354  -1.13144  -1.13115  -1.13093  -1.13069
 Alpha  occ. eigenvalues --   -1.13027  -1.13020  -1.12791  -1.12729  -1.12708
 Alpha  occ. eigenvalues --   -0.17858  -0.12843  -0.12202  -0.10252
 Alpha virt. eigenvalues --   -0.06123  -0.05465  -0.05059  -0.03002  -0.02603
 Alpha virt. eigenvalues --   -0.02337  -0.01818  -0.01414  -0.00972  -0.00789
 Alpha virt. eigenvalues --   -0.00033   0.00294   0.00705   0.00731   0.00797

  Beta  occ. eigenvalues --  -38.44606 -38.44441 -38.44005 -38.43952 -38.43636
  Beta  occ. eigenvalues --  -38.43459 -38.43095  -2.20374  -2.20217  -2.19831
  Beta  occ. eigenvalues --   -2.19711  -2.19441  -2.19202  -2.19014  -1.14039
  Beta  occ. eigenvalues --   -1.14026  -1.14015  -1.13878  -1.13876  -1.13860
  Beta  occ. eigenvalues --   -1.13539  -1.13476  -1.13450  -1.13385  -1.13371
  Beta  occ. eigenvalues --   -1.13351  -1.13125  -1.13092  -1.13083  -1.12931
  Beta  occ. eigenvalues --   -1.12886  -1.12874  -1.12730  -1.12677  -1.12653
  Beta  occ. eigenvalues --   -0.17186  -0.12685  -0.11983
  Beta virt. eigenvalues --   -0.06360  -0.06075  -0.05443  -0.04960  -0.02293
  Beta virt. eigenvalues --   -0.01961  -0.01728  -0.01355  -0.01244  -0.01005
  Beta virt. eigenvalues --   -0.00820   0.00148   0.00353   0.00736   0.00767

 Mulliken charges and spin densities:
               1          2
     1  Na  -0.108658   0.237848
     2  Na   0.150882   0.035326
     3  Na   0.130310  -0.000644
     4  Na  -0.043450  -0.039164
     5  Na   0.058195  -0.036434
     6  Na  -0.437151   0.777061
     7  Na   0.249872   0.026006
 Sum of Mulliken charges =  -0.00000   1.00000

 Dipole moment (field-independent basis, Debye):
    X=             -0.2299    Y=              0.0834    Z=              0.0836  Tot=              0.2585
 Quadrupole moment (field-independent basis, Debye-Ang):
   XX=            -53.5509   YY=            -60.3840   ZZ=            -77.7932
   XY=             -0.3820   XZ=             -1.2939   YZ=              0.1415

 Normal termination of Gaussian 16 at Fri Dec  8 01:31:53 2023.
