 Gaussian 16, Revision B.01,
 Gaussian 16:  ES64L-G16RevB.01 20-Dec-2017

 -------------------------
 #P B3LYP/6-311+g(d) force
 -------------------------

 -----
 DPGEN
 -----
 Symbolic Z-matrix:
 Charge =  0 Multiplicity = 2

                         Standard orientation:
 ---------------------------------------------------------------------
 Center     Atomic      Atomic             Coordinates (Angstroms)
 Number     Number       Type             X           Y           Z
 ---------------------------------------------------------------------
      1         11           0        2.987803   -0.380026    0.293889
      2         11           0        2.917832    3.166608   -0.131207
      3         11           0       -3.919385    0.624876    0.407172
      4         11           0        5.391466   -2.661556   -0.266495
      5         11           0       -6.630662   -1.274195   -0.402238
      6         11           0       -0.228583    1.785869   -0.270503
      7         11           0       -0.518470   -1.261576    0.369381
 ---------------------------------------------------------------------

 SCF Done:  E(UB3LYP) =  -1136.11213119     A.U. after   22 cycles

 The electronic state is 2-A.
 Alpha  occ. eigenvalues --  -38.45893 -38.44897 -38.44827 -38.44358 -38.44149
 Alpha  occ. eigenvalues --  -38.43628 -38.43148  -2.21727  -2.20717  -2.20609
 Alpha  occ. eigenvalues --   -2.20131  -2.20007  -2.19372  -2.18987  -1.15398
 Alpha  occ. eigenvalues --   -1.15378  -1.15319  -1.14358  -1.14355  -1.14332
 Alpha  occ. eigenvalues --   -1.14253  -1.14252  -1.14231  -1.13828  -1.13814
 Alpha  occ. eigenvalues --   -1.13761  -1.13713  -1.13687  -1.13619  -1.13047
 Alpha  occ. eigenvalues --   -1.13045  -1.13028  -1.12695  -1.12681  -1.12574
 Alpha  occ. eigenvalues --   -0.17011  -0.13996  -0.11961  -0.11538
 Alpha virt. eigenvalues --   -0.07026  -0.05242  -0.04570  -0.03996  -0.03108
 Alpha virt. eigenvalues --   -0.02593  -0.01949  -0.01739  -0.01168  -0.00972
 Alpha virt. eigenvalues --   -0.00588  -0.00408  -0.00097   0.00345   0.00466

  Beta  occ. eigenvalues --  -38.45818 -38.44807 -38.44750 -38.44370 -38.44139
  Beta  occ. eigenvalues --  -38.43657 -38.43136  -2.21589  -2.20549  -2.20467
  Beta  occ. eigenvalues --   -2.20158  -2.19996  -2.19427  -2.18965  -1.15308
  Beta  occ. eigenvalues --   -1.15286  -1.15218  -1.14243  -1.14236  -1.14223
  Beta  occ. eigenvalues --   -1.14156  -1.14155  -1.14137  -1.13851  -1.13837
  Beta  occ. eigenvalues --   -1.13741  -1.13695  -1.13685  -1.13584  -1.13084
  Beta  occ. eigenvalues --   -1.13082  -1.13063  -1.12667  -1.12654  -1.12575
  Beta  occ. eigenvalues --   -0.16285  -0.13297  -0.11368
  Beta virt. eigenvalues --   -0.08549  -0.06711  -0.04741  -0.04208  -0.03726
  Beta virt. eigenvalues --   -0.02606  -0.02412  -0.01618  -0.01553  -0.01128
  Beta virt. eigenvalues --   -0.00495  -0.00347  -0.00307   0.00079   0.00422

 Mulliken charges and spin densities:
               1          2
     1  Na  -0.409219   0.031086
     2  Na   1.419827   0.267474
     3  Na  -0.417393   0.084536
     4  Na   0.133560  -0.129576
     5  Na   0.455639   0.296406
     6  Na  -1.241381   0.181739
     7  Na   0.058967   0.268335
 Sum of Mulliken charges =  -0.00000   1.00000

 Dipole moment (field-independent basis, Debye):
    X=             -1.1426    Y=              0.4236    Z=             -0.1328  Tot=              1.2258
 Quadrupole moment (field-independent basis, Debye-Ang):
   XX=            -64.2189   YY=            -62.1643   ZZ=            -73.7151
   XY=              7.1521   XZ=              0.1934   YZ=              0.9375

 Normal termination of Gaussian 16 at Wed Nov 29 01:26:15 2023.
