 Gaussian 16, Revision B.01,
 Gaussian 16:  ES64L-G16RevB.01 20-Dec-2017

 -------------------------
 #P B3LYP/6-311+g(d) force
 -------------------------

 -----
 DPGEN
 -----
 Symbolic Z-matrix:
 Charge =  0 Multiplicity = 2

                         Standard orientation:
 ---------------------------------------------------------------------
 Center     Atomic      Atomic             Coordinates (Angstroms)
 Number     Number       Type             X           Y           Z
 ---------------------------------------------------------------------
      1         11           0       -1.645185    2.439661   -0.197074
      2         11           0       -0.103820   -0.101094   -1.698339
      3         11           0        2.055242    2.044488   -0.223375
      4         11           0       -3.293366   -1.079244    0.024892
      5         11           0        3.161477   -1.180809    0.108636
      6         11           0       -0.020869   -2.607644    0.013326
      7         11           0       -0.153478    0.484642    1.971934
 ---------------------------------------------------------------------

 SCF Done:  E(UB3LYP) =  -1136.13527489     A.U. after   19 cycles

 The electronic state is 2-A.
 Alpha  occ. eigenvalues --  -38.44564 -38.44114 -38.43633 -38.43521 -38.43459
 Alpha  occ. eigenvalues --  -38.43267 -38.43164  -2.20341  -2.19921  -2.19491
 Alpha  occ. eigenvalues --   -2.19378  -2.19361  -2.19244  -2.19047  -1.14016
 Alpha  occ. eigenvalues --   -1.13995  -1.13983  -1.13590  -1.13583  -1.13569
 Alpha  occ. eigenvalues --   -1.13184  -1.13168  -1.13119  -1.13095  -1.13070
 Alpha  occ. eigenvalues --   -1.13026  -1.12995  -1.12990  -1.12971  -1.12965
 Alpha  occ. eigenvalues --   -1.12891  -1.12839  -1.12717  -1.12707  -1.12640
 Alpha  occ. eigenvalues --   -0.18603  -0.13005  -0.12357  -0.10594
 Alpha virt. eigenvalues --   -0.06069  -0.05372  -0.04253  -0.03093  -0.02861
 Alpha virt. eigenvalues --   -0.02435  -0.01935  -0.01262  -0.00363  -0.00177
 Alpha virt. eigenvalues --   -0.00038   0.00316   0.00735   0.00833   0.00907

  Beta  occ. eigenvalues --  -38.44565 -38.44114 -38.43625 -38.43514 -38.43372
  Beta  occ. eigenvalues --  -38.43195 -38.43156  -2.20345  -2.19924  -2.19480
  Beta  occ. eigenvalues --   -2.19368  -2.19200  -2.19113  -2.19035  -1.14005
  Beta  occ. eigenvalues --   -1.13997  -1.13987  -1.13594  -1.13573  -1.13570
  Beta  occ. eigenvalues --   -1.13174  -1.13130  -1.13113  -1.13075  -1.13027
  Beta  occ. eigenvalues --   -1.12989  -1.12934  -1.12907  -1.12866  -1.12858
  Beta  occ. eigenvalues --   -1.12806  -1.12746  -1.12692  -1.12662  -1.12637
  Beta  occ. eigenvalues --   -0.17866  -0.12817  -0.12102
  Beta virt. eigenvalues --   -0.06676  -0.06028  -0.05365  -0.04226  -0.02372
  Beta virt. eigenvalues --   -0.02053  -0.01850  -0.01371  -0.01212  -0.00426
  Beta virt. eigenvalues --   -0.00204   0.00111   0.00334   0.00787   0.00821

 Mulliken charges and spin densities:
               1          2
     1  Na   0.254668  -0.134576
     2  Na  -0.243542   0.588629
     3  Na   0.308374  -0.049235
     4  Na   0.075045  -0.096130
     5  Na  -0.032300  -0.041086
     6  Na   0.160626  -0.072384
     7  Na  -0.522871   0.804782
 Sum of Mulliken charges =  -0.00000   1.00000

 Dipole moment (field-independent basis, Debye):
    X=             -0.2500    Y=              0.0353    Z=              0.1186  Tot=              0.2789
 Quadrupole moment (field-independent basis, Debye-Ang):
   XX=            -51.4663   YY=            -65.5293   ZZ=            -75.1577
   XY=             -0.0507   XZ=              0.1793   YZ=             -1.4020

 Normal termination of Gaussian 16 at Tue Dec  5 22:38:47 2023.
