 Gaussian 16, Revision B.01,
 Gaussian 16:  ES64L-G16RevB.01 20-Dec-2017

 -------------------------
 #P B3LYP/6-311+g(d) force
 -------------------------

 -----
 DPGEN
 -----
 Symbolic Z-matrix:
 Charge =  0 Multiplicity = 2

                         Standard orientation:
 ---------------------------------------------------------------------
 Center     Atomic      Atomic             Coordinates (Angstroms)
 Number     Number       Type             X           Y           Z
 ---------------------------------------------------------------------
      1         11           0        0.649385   -2.614172    0.237126
      2         11           0        0.008382    0.142918    2.127839
      3         11           0       -2.307164    1.892797    0.164897
      4         11           0       -0.082042   -0.028733   -1.615416
      5         11           0       -2.823077   -1.560920   -0.406164
      6         11           0        1.211859    2.624745   -0.294945
      7         11           0        3.342658   -0.456635   -0.213337
 ---------------------------------------------------------------------

 SCF Done:  E(UB3LYP) =  -1136.13836386     A.U. after   19 cycles

 The electronic state is 2-A.
 Alpha  occ. eigenvalues --  -38.44295 -38.43770 -38.43725 -38.43691 -38.43306
 Alpha  occ. eigenvalues --  -38.43251 -38.43154  -2.20089  -2.19612  -2.19595
 Alpha  occ. eigenvalues --   -2.19540  -2.19237  -2.19154  -2.19030  -1.13763
 Alpha  occ. eigenvalues --   -1.13743  -1.13735  -1.13286  -1.13278  -1.13258
 Alpha  occ. eigenvalues --   -1.13249  -1.13238  -1.13232  -1.13213  -1.13194
 Alpha  occ. eigenvalues --   -1.13161  -1.12944  -1.12930  -1.12858  -1.12817
 Alpha  occ. eigenvalues --   -1.12801  -1.12769  -1.12714  -1.12700  -1.12637
 Alpha  occ. eigenvalues --   -0.18608  -0.12954  -0.12341  -0.10883
 Alpha virt. eigenvalues --   -0.05798  -0.05151  -0.04422  -0.03157  -0.02903
 Alpha virt. eigenvalues --   -0.02681  -0.01732  -0.01120  -0.00294  -0.00239
 Alpha virt. eigenvalues --   -0.00024   0.00331   0.00766   0.00868   0.00908

  Beta  occ. eigenvalues --  -38.44294 -38.43762 -38.43685 -38.43623 -38.43299
  Beta  occ. eigenvalues --  -38.43193 -38.43145  -2.20090  -2.19584  -2.19533
  Beta  occ. eigenvalues --   -2.19423  -2.19145  -2.19131  -2.19017  -1.13756
  Beta  occ. eigenvalues --   -1.13740  -1.13735  -1.13266  -1.13245  -1.13228
  Beta  occ. eigenvalues --   -1.13214  -1.13188  -1.13160  -1.13148  -1.13102
  Beta  occ. eigenvalues --   -1.13090  -1.12896  -1.12863  -1.12798  -1.12792
  Beta  occ. eigenvalues --   -1.12765  -1.12748  -1.12700  -1.12661  -1.12633
  Beta  occ. eigenvalues --   -0.17878  -0.12729  -0.12089
  Beta virt. eigenvalues --   -0.06947  -0.05749  -0.05136  -0.04381  -0.02413
  Beta virt. eigenvalues --   -0.02122  -0.01644  -0.01603  -0.01063  -0.00342
  Beta virt. eigenvalues --   -0.00245   0.00106   0.00357   0.00835   0.00860

 Mulliken charges and spin densities:
               1          2
     1  Na   0.209675   0.016483
     2  Na  -0.417527   0.679362
     3  Na   0.227027   0.003739
     4  Na  -0.307067   0.462682
     5  Na   0.147745  -0.014866
     6  Na   0.116134  -0.069184
     7  Na   0.024012  -0.078215
 Sum of Mulliken charges =  -0.00000   1.00000

 Dipole moment (field-independent basis, Debye):
    X=              0.1159    Y=              0.0521    Z=              0.1316  Tot=              0.1829
 Quadrupole moment (field-independent basis, Debye-Ang):
   XX=            -54.2578   YY=            -64.9906   ZZ=            -73.7926
   XY=              0.1338   XZ=             -0.2351   YZ=             -0.0311

 Normal termination of Gaussian 16 at Thu Dec  7 10:41:57 2023.
