 Gaussian 16, Revision B.01,
 Gaussian 16:  ES64L-G16RevB.01 20-Dec-2017

 -------------------------
 #P B3LYP/6-311+g(d) force
 -------------------------

 -----
 DPGEN
 -----
 Symbolic Z-matrix:
 Charge =  0 Multiplicity = 2

                         Standard orientation:
 ---------------------------------------------------------------------
 Center     Atomic      Atomic             Coordinates (Angstroms)
 Number     Number       Type             X           Y           Z
 ---------------------------------------------------------------------
      1         11           0       -3.173549   -0.321687   -0.226124
      2         11           0       -1.364909    2.494176   -0.212969
      3         11           0        2.027198    1.991871   -0.001645
      4         11           0        3.156026   -1.135616   -0.180288
      5         11           0       -0.130302   -0.235055    2.276030
      6         11           0       -0.725673   -2.656653   -0.224311
      7         11           0        0.211208   -0.137035   -1.430693
 ---------------------------------------------------------------------

 SCF Done:  E(UB3LYP) =  -1136.13320616     A.U. after   19 cycles

 The electronic state is 2-A.
 Alpha  occ. eigenvalues --  -38.44323 -38.44285 -38.43856 -38.43482 -38.43284
 Alpha  occ. eigenvalues --  -38.43142 -38.42956  -2.20140  -2.20128  -2.19714
 Alpha  occ. eigenvalues --   -2.19370  -2.19206  -2.19173  -2.18828  -1.13816
 Alpha  occ. eigenvalues --   -1.13802  -1.13795  -1.13789  -1.13777  -1.13775
 Alpha  occ. eigenvalues --   -1.13369  -1.13336  -1.13331  -1.13122  -1.13045
 Alpha  occ. eigenvalues --   -1.13024  -1.12994  -1.12871  -1.12818  -1.12813
 Alpha  occ. eigenvalues --   -1.12769  -1.12752  -1.12509  -1.12480  -1.12469
 Alpha  occ. eigenvalues --   -0.18802  -0.13308  -0.12226  -0.10882
 Alpha virt. eigenvalues --   -0.06032  -0.05035  -0.04289  -0.03234  -0.02792
 Alpha virt. eigenvalues --   -0.02685  -0.01870  -0.00997  -0.00307  -0.00151
 Alpha virt. eigenvalues --   -0.00047   0.00319   0.00773   0.00872   0.00916

  Beta  occ. eigenvalues --  -38.44321 -38.44280 -38.43742 -38.43478 -38.43276
  Beta  occ. eigenvalues --  -38.43093 -38.42952  -2.20139  -2.20121  -2.19504
  Beta  occ. eigenvalues --   -2.19365  -2.19168  -2.19112  -2.18823  -1.13812
  Beta  occ. eigenvalues --   -1.13794  -1.13789  -1.13777  -1.13776  -1.13765
  Beta  occ. eigenvalues --   -1.13229  -1.13187  -1.13185  -1.13105  -1.13019
  Beta  occ. eigenvalues --   -1.12999  -1.12993  -1.12814  -1.12784  -1.12778
  Beta  occ. eigenvalues --   -1.12732  -1.12710  -1.12502  -1.12471  -1.12456
  Beta  occ. eigenvalues --   -0.18085  -0.13097  -0.11996
  Beta virt. eigenvalues --   -0.06863  -0.05989  -0.05034  -0.04271  -0.02469
  Beta virt. eigenvalues --   -0.01935  -0.01792  -0.01594  -0.00950  -0.00352
  Beta virt. eigenvalues --   -0.00186   0.00128   0.00357   0.00837   0.00871

 Mulliken charges and spin densities:
               1          2
     1  Na   0.253889   0.042332
     2  Na   0.176416   0.054054
     3  Na   0.270590   0.092382
     4  Na   0.325702   0.006016
     5  Na  -0.743773   0.727852
     6  Na   0.422971   0.034075
     7  Na  -0.705797   0.043290
 Sum of Mulliken charges =  -0.00000   1.00000

 Dipole moment (field-independent basis, Debye):
    X=              0.1378    Y=             -0.2525    Z=              0.2928  Tot=              0.4105
 Quadrupole moment (field-independent basis, Debye-Ang):
   XX=            -53.1435   YY=            -66.0530   ZZ=            -74.1346
   XY=             -0.6824   XZ=              0.6528   YZ=              0.2718

 Normal termination of Gaussian 16 at Sat Dec  9 05:39:04 2023.
