 Gaussian 16, Revision B.01,
 Gaussian 16:  ES64L-G16RevB.01 20-Dec-2017

 -------------------------
 #P B3LYP/6-311+g(d) force
 -------------------------

 -----
 DPGEN
 -----
 Symbolic Z-matrix:
 Charge =  0 Multiplicity = 2

                         Standard orientation:
 ---------------------------------------------------------------------
 Center     Atomic      Atomic             Coordinates (Angstroms)
 Number     Number       Type             X           Y           Z
 ---------------------------------------------------------------------
      1         11           0        0.052716   -0.024730   -1.862351
      2         11           0       -2.720193   -1.148436    0.317144
      3         11           0        0.149040   -2.807259   -0.313061
      4         11           0        0.115623   -0.027412    1.912435
      5         11           0        2.934866   -0.579482    0.137636
      6         11           0        1.519534    2.355250   -0.003091
      7         11           0       -2.051587    2.232068   -0.188712
 ---------------------------------------------------------------------

 SCF Done:  E(UB3LYP) =  -1136.14122281     A.U. after   18 cycles

 The electronic state is 2-A.
 Alpha  occ. eigenvalues --  -38.43631 -38.43624 -38.43532 -38.43452 -38.43418
 Alpha  occ. eigenvalues --  -38.43339 -38.43183  -2.19510  -2.19484  -2.19478
 Alpha  occ. eigenvalues --   -2.19384  -2.19288  -2.19235  -2.19072  -1.13221
 Alpha  occ. eigenvalues --   -1.13189  -1.13181  -1.13154  -1.13150  -1.13137
 Alpha  occ. eigenvalues --   -1.13129  -1.13104  -1.13080  -1.13063  -1.13053
 Alpha  occ. eigenvalues --   -1.13005  -1.12954  -1.12943  -1.12932  -1.12900
 Alpha  occ. eigenvalues --   -1.12897  -1.12848  -1.12751  -1.12725  -1.12694
 Alpha  occ. eigenvalues --   -0.19038  -0.13021  -0.12577  -0.11070
 Alpha virt. eigenvalues --   -0.05230  -0.05070  -0.04659  -0.03273  -0.03026
 Alpha virt. eigenvalues --   -0.02740  -0.01301  -0.01029  -0.00173  -0.00095
 Alpha virt. eigenvalues --    0.00009   0.00380   0.00863   0.00940   0.00942

  Beta  occ. eigenvalues --  -38.43625 -38.43618 -38.43449 -38.43449 -38.43335
  Beta  occ. eigenvalues --  -38.43332 -38.43174  -2.19503  -2.19475  -2.19325
  Beta  occ. eigenvalues --   -2.19286  -2.19233  -2.19227  -2.19059  -1.13203
  Beta  occ. eigenvalues --   -1.13165  -1.13164  -1.13136  -1.13129  -1.13123
  Beta  occ. eigenvalues --   -1.13053  -1.13008  -1.12980  -1.12975  -1.12964
  Beta  occ. eigenvalues --   -1.12947  -1.12938  -1.12926  -1.12884  -1.12880
  Beta  occ. eigenvalues --   -1.12862  -1.12839  -1.12731  -1.12695  -1.12687
  Beta  occ. eigenvalues --   -0.18280  -0.12763  -0.12313
  Beta virt. eigenvalues --   -0.07130  -0.05195  -0.05079  -0.04626  -0.02446
  Beta virt. eigenvalues --   -0.02225  -0.01672  -0.01216  -0.00958  -0.00198
  Beta virt. eigenvalues --   -0.00156   0.00113   0.00393   0.00916   0.00928

 Mulliken charges and spin densities:
               1          2
     1  Na  -0.333384   0.673738
     2  Na   0.083785  -0.038731
     3  Na   0.212163  -0.054044
     4  Na  -0.375189   0.670516
     5  Na   0.250641  -0.059632
     6  Na   0.148382  -0.091775
     7  Na   0.013601  -0.100072
 Sum of Mulliken charges =  -0.00000   1.00000

 Dipole moment (field-independent basis, Debye):
    X=              0.0015    Y=              0.0137    Z=              0.0667  Tot=              0.0681
 Quadrupole moment (field-independent basis, Debye-Ang):
   XX=            -58.6896   YY=            -62.9690   ZZ=            -72.6256
   XY=             -0.3998   XZ=             -0.1926   YZ=             -0.1572

 Normal termination of Gaussian 16 at Thu Dec  7 07:52:30 2023.
