 Gaussian 16, Revision B.01,
 Gaussian 16:  ES64L-G16RevB.01 20-Dec-2017

 -------------------------
 #P B3LYP/6-311+g(d) force
 -------------------------

 -----
 DPGEN
 -----
 Symbolic Z-matrix:
 Charge =  0 Multiplicity = 2

                         Standard orientation:
 ---------------------------------------------------------------------
 Center     Atomic      Atomic             Coordinates (Angstroms)
 Number     Number       Type             X           Y           Z
 ---------------------------------------------------------------------
      1         11           0        1.790888   -1.808086   -0.539257
      2         11           0       -2.267559    1.940501   -0.319143
      3         11           0       -3.852812   -1.032840    0.616647
      4         11           0        1.530164    1.868074   -0.814648
      5         11           0       -0.278630    0.069438    1.798208
      6         11           0        3.806777    0.014104    0.843289
      7         11           0       -0.728828   -1.051191   -1.585096
 ---------------------------------------------------------------------

 SCF Done:  E(UB3LYP) =  -1136.11556036     A.U. after   30 cycles

 The electronic state is 2-A.
 Alpha  occ. eigenvalues --  -38.45821 -38.45002 -38.44827 -38.43708 -38.43283
 Alpha  occ. eigenvalues --  -38.43080 -38.42938  -2.21643  -2.20799  -2.20686
 Alpha  occ. eigenvalues --   -2.19546  -2.19133  -2.19038  -2.18899  -1.15347
 Alpha  occ. eigenvalues --   -1.15290  -1.15258  -1.14465  -1.14441  -1.14415
 Alpha  occ. eigenvalues --   -1.14372  -1.14328  -1.14304  -1.13232  -1.13222
 Alpha  occ. eigenvalues --   -1.13174  -1.12937  -1.12817  -1.12804  -1.12767
 Alpha  occ. eigenvalues --   -1.12667  -1.12639  -1.12531  -1.12509  -1.12486
 Alpha  occ. eigenvalues --   -0.18603  -0.14437  -0.11105  -0.10894
 Alpha virt. eigenvalues --   -0.07338  -0.05373  -0.04404  -0.03150  -0.03041
 Alpha virt. eigenvalues --   -0.02408  -0.02127  -0.01328  -0.00841  -0.00291
 Alpha virt. eigenvalues --   -0.00043   0.00228   0.00287   0.00549   0.00752

  Beta  occ. eigenvalues --  -38.45798 -38.44952 -38.44788 -38.43705 -38.43270
  Beta  occ. eigenvalues --  -38.43018 -38.42925  -2.21600  -2.20704  -2.20613
  Beta  occ. eigenvalues --   -2.19547  -2.19114  -2.18932  -2.18877  -1.15310
  Beta  occ. eigenvalues --   -1.15265  -1.15223  -1.14400  -1.14373  -1.14355
  Beta  occ. eigenvalues --   -1.14325  -1.14281  -1.14254  -1.13226  -1.13226
  Beta  occ. eigenvalues --   -1.13152  -1.12872  -1.12805  -1.12774  -1.12744
  Beta  occ. eigenvalues --   -1.12592  -1.12556  -1.12517  -1.12499  -1.12422
  Beta  occ. eigenvalues --   -0.17969  -0.13996  -0.10636
  Beta virt. eigenvalues --   -0.07509  -0.07035  -0.05229  -0.03841  -0.02876
  Beta virt. eigenvalues --   -0.02802  -0.01873  -0.01467  -0.01180  -0.00586
  Beta virt. eigenvalues --   -0.00194   0.00036   0.00253   0.00435   0.00654

 Mulliken charges and spin densities:
               1          2
     1  Na  -0.354564   0.061077
     2  Na   0.176731   0.019654
     3  Na   0.199470   0.246455
     4  Na  -0.418485   0.003693
     5  Na  -0.338646   0.165432
     6  Na   0.735046   0.258053
     7  Na   0.000448   0.245637
 Sum of Mulliken charges =  -0.00000   1.00000

 Dipole moment (field-independent basis, Debye):
    X=             -0.4946    Y=              0.2039    Z=              0.7045  Tot=              0.8846
 Quadrupole moment (field-independent basis, Debye-Ang):
   XX=            -49.2554   YY=            -78.7446   ZZ=            -68.0375
   XY=              0.6420   XZ=              1.4355   YZ=             -4.0933

 Normal termination of Gaussian 16 at Tue Dec  5 22:16:07 2023.
