 Gaussian 16, Revision B.01,
 Gaussian 16:  ES64L-G16RevB.01 20-Dec-2017

 -------------------------
 #P B3LYP/6-311+g(d) force
 -------------------------

 -----
 DPGEN
 -----
 Symbolic Z-matrix:
 Charge =  0 Multiplicity = 2

                         Standard orientation:
 ---------------------------------------------------------------------
 Center     Atomic      Atomic             Coordinates (Angstroms)
 Number     Number       Type             X           Y           Z
 ---------------------------------------------------------------------
      1         11           0        0.020937    0.118912   -1.825737
      2         11           0        2.872369   -1.048557    0.073004
      3         11           0        1.853303    2.477993   -0.107519
      4         11           0       -2.694389   -0.807901   -0.121852
      5         11           0        0.003889   -0.105874    1.895379
      6         11           0       -1.864402    2.320302    0.174130
      7         11           0       -0.191707   -2.954875   -0.087406
 ---------------------------------------------------------------------

 SCF Done:  E(UB3LYP) =  -1136.14161454     A.U. after   19 cycles

 The electronic state is 2-A.
 Alpha  occ. eigenvalues --  -38.43786 -38.43762 -38.43512 -38.43417 -38.43377
 Alpha  occ. eigenvalues --  -38.43307 -38.43290  -2.19611  -2.19579  -2.19374
 Alpha  occ. eigenvalues --   -2.19311  -2.19284  -2.19241  -2.19223  -1.13291
 Alpha  occ. eigenvalues --   -1.13284  -1.13262  -1.13252  -1.13238  -1.13207
 Alpha  occ. eigenvalues --   -1.13081  -1.13045  -1.13024  -1.13014  -1.12971
 Alpha  occ. eigenvalues --   -1.12960  -1.12942  -1.12934  -1.12926  -1.12909
 Alpha  occ. eigenvalues --   -1.12895  -1.12867  -1.12854  -1.12840  -1.12832
 Alpha  occ. eigenvalues --   -0.18867  -0.12852  -0.12690  -0.10815
 Alpha virt. eigenvalues --   -0.05425  -0.05002  -0.04892  -0.03107  -0.03010
 Alpha virt. eigenvalues --   -0.02573  -0.01254  -0.01235  -0.00345  -0.00214
 Alpha virt. eigenvalues --   -0.00004   0.00378   0.00861   0.00885   0.00925

  Beta  occ. eigenvalues --  -38.43783 -38.43759 -38.43506 -38.43413 -38.43299
  Beta  occ. eigenvalues --  -38.43293 -38.43211  -2.19608  -2.19577  -2.19368
  Beta  occ. eigenvalues --   -2.19279  -2.19213  -2.19156  -2.19096  -1.13285
  Beta  occ. eigenvalues --   -1.13265  -1.13257  -1.13244  -1.13229  -1.13209
  Beta  occ. eigenvalues --   -1.13075  -1.13020  -1.13007  -1.12996  -1.12934
  Beta  occ. eigenvalues --   -1.12923  -1.12902  -1.12874  -1.12853  -1.12830
  Beta  occ. eigenvalues --   -1.12813  -1.12809  -1.12807  -1.12756  -1.12749
  Beta  occ. eigenvalues --   -0.18112  -0.12603  -0.12446
  Beta virt. eigenvalues --   -0.06890  -0.05443  -0.04937  -0.04889  -0.02291
  Beta virt. eigenvalues --   -0.02216  -0.01517  -0.01173  -0.01156  -0.00404
  Beta virt. eigenvalues --   -0.00280   0.00123   0.00390   0.00862   0.00909

 Mulliken charges and spin densities:
               1          2
     1  Na  -0.304794   0.687537
     2  Na   0.047108  -0.134386
     3  Na   0.027560  -0.139346
     4  Na   0.300883  -0.006141
     5  Na  -0.376065   0.745877
     6  Na   0.149529  -0.069956
     7  Na   0.155778  -0.083584
 Sum of Mulliken charges =  -0.00000   1.00000

 Dipole moment (field-independent basis, Debye):
    X=              0.2822    Y=              0.1052    Z=              0.0362  Tot=              0.3034
 Quadrupole moment (field-independent basis, Debye-Ang):
   XX=            -59.8486   YY=            -59.7509   ZZ=            -73.9478
   XY=             -0.2174   XZ=              0.0437   YZ=              0.5547

 Normal termination of Gaussian 16 at Thu Dec  7 17:00:05 2023.
