 Gaussian 16, Revision B.01,
 Gaussian 16:  ES64L-G16RevB.01 20-Dec-2017

 -------------------------
 #P B3LYP/6-311+g(d) force
 -------------------------

 -----
 DPGEN
 -----
 Symbolic Z-matrix:
 Charge =  0 Multiplicity = 2

                         Standard orientation:
 ---------------------------------------------------------------------
 Center     Atomic      Atomic             Coordinates (Angstroms)
 Number     Number       Type             X           Y           Z
 ---------------------------------------------------------------------
      1         11           0       -3.715482   -0.171547   -0.555194
      2         11           0        2.024622   -0.459892    1.301278
      3         11           0       -0.091122   -0.014793   -1.609142
      4         11           0       -1.109451    2.285604    0.579257
      5         11           0        2.388448    2.642047   -0.464574
      6         11           0       -1.158288   -1.287561    1.537483
      7         11           0        1.661272   -2.993858   -0.789108
 ---------------------------------------------------------------------

 SCF Done:  E(UB3LYP) =  -1136.13448368     A.U. after   19 cycles

 The electronic state is 2-A.
 Alpha  occ. eigenvalues --  -38.44245 -38.44149 -38.43627 -38.43564 -38.43553
 Alpha  occ. eigenvalues --  -38.43491 -38.43405  -2.20038  -2.19976  -2.19471
 Alpha  occ. eigenvalues --   -2.19445  -2.19379  -2.19343  -2.19302  -1.13709
 Alpha  occ. eigenvalues --   -1.13702  -1.13694  -1.13666  -1.13661  -1.13562
 Alpha  occ. eigenvalues --   -1.13183  -1.13133  -1.13121  -1.13102  -1.13090
 Alpha  occ. eigenvalues --   -1.13085  -1.13071  -1.13029  -1.13020  -1.13009
 Alpha  occ. eigenvalues --   -1.13001  -1.12977  -1.12955  -1.12947  -1.12893
 Alpha  occ. eigenvalues --   -0.18178  -0.12961  -0.12185  -0.10636
 Alpha virt. eigenvalues --   -0.05916  -0.05280  -0.04631  -0.03267  -0.02786
 Alpha virt. eigenvalues --   -0.02319  -0.01857  -0.01340  -0.00699  -0.00125
 Alpha virt. eigenvalues --    0.00170   0.00290   0.00665   0.00705   0.00781

  Beta  occ. eigenvalues --  -38.44241 -38.44141 -38.43609 -38.43553 -38.43503
  Beta  occ. eigenvalues --  -38.43435 -38.43372  -2.20031  -2.19963  -2.19413
  Beta  occ. eigenvalues --   -2.19361  -2.19344  -2.19279  -2.19244  -1.13705
  Beta  occ. eigenvalues --   -1.13688  -1.13687  -1.13663  -1.13628  -1.13557
  Beta  occ. eigenvalues --   -1.13112  -1.13099  -1.13079  -1.13058  -1.13029
  Beta  occ. eigenvalues --   -1.13020  -1.13016  -1.13007  -1.13000  -1.12975
  Beta  occ. eigenvalues --   -1.12952  -1.12937  -1.12906  -1.12880  -1.12858
  Beta  occ. eigenvalues --   -0.17454  -0.12787  -0.12007
  Beta virt. eigenvalues --   -0.06752  -0.05818  -0.05154  -0.04443  -0.02713
  Beta virt. eigenvalues --   -0.02276  -0.01774  -0.01421  -0.01223  -0.00397
  Beta virt. eigenvalues --   -0.00081   0.00223   0.00333   0.00694   0.00804

 Mulliken charges and spin densities:
               1          2
     1  Na   0.261833  -0.020390
     2  Na   0.174884   0.298701
     3  Na  -0.334833   0.649010
     4  Na  -0.087467   0.054672
     5  Na   0.215503  -0.123662
     6  Na  -0.108138   0.218737
     7  Na  -0.121782  -0.077068
 Sum of Mulliken charges =  -0.00000   1.00000

 Dipole moment (field-independent basis, Debye):
    X=             -0.5286    Y=              0.0491    Z=             -0.1138  Tot=              0.5430
 Quadrupole moment (field-independent basis, Debye-Ang):
   XX=            -55.3480   YY=            -63.6327   ZZ=            -72.8068
   XY=              0.1031   XZ=              0.3863   YZ=              1.3529

 Normal termination of Gaussian 16 at Thu Dec  7 02:26:53 2023.
