 Gaussian 16, Revision B.01,
 Gaussian 16:  ES64L-G16RevB.01 20-Dec-2017

 -------------------------
 #P B3LYP/6-311+g(d) force
 -------------------------

 -----
 DPGEN
 -----
 Symbolic Z-matrix:
 Charge =  0 Multiplicity = 2

                         Standard orientation:
 ---------------------------------------------------------------------
 Center     Atomic      Atomic             Coordinates (Angstroms)
 Number     Number       Type             X           Y           Z
 ---------------------------------------------------------------------
      1         11           0       -0.083586   -2.533143    0.354081
      2         11           0        1.800101    2.019242    0.005851
      3         11           0        2.941466   -0.997303   -0.590380
      4         11           0        0.132455    0.205137    2.436977
      5         11           0       -2.905736   -1.148256   -0.323926
      6         11           0       -1.794373    2.379658   -0.188707
      7         11           0       -0.090327    0.074664   -1.693897
 ---------------------------------------------------------------------

 SCF Done:  E(UB3LYP) =  -1136.13621737     A.U. after   19 cycles

 The electronic state is 2-A.
 Alpha  occ. eigenvalues --  -38.44546 -38.43749 -38.43637 -38.43448 -38.43348
 Alpha  occ. eigenvalues --  -38.43333 -38.42920  -2.20399  -2.19596  -2.19492
 Alpha  occ. eigenvalues --   -2.19460  -2.19232  -2.19186  -2.18823  -1.14045
 Alpha  occ. eigenvalues --   -1.14028  -1.14013  -1.13293  -1.13260  -1.13234
 Alpha  occ. eigenvalues --   -1.13199  -1.13161  -1.13151  -1.13136  -1.13111
 Alpha  occ. eigenvalues --   -1.13077  -1.12905  -1.12903  -1.12866  -1.12850
 Alpha  occ. eigenvalues --   -1.12839  -1.12804  -1.12510  -1.12490  -1.12446
 Alpha  occ. eigenvalues --   -0.18814  -0.12951  -0.12284  -0.11604
 Alpha virt. eigenvalues --   -0.05284  -0.05049  -0.04246  -0.03372  -0.03307
 Alpha virt. eigenvalues --   -0.03143  -0.01388  -0.00938  -0.00188   0.00040
 Alpha virt. eigenvalues --    0.00118   0.00359   0.00782   0.00925   0.00988

  Beta  occ. eigenvalues --  -38.44429 -38.43747 -38.43627 -38.43393 -38.43346
  Beta  occ. eigenvalues --  -38.43326 -38.42910  -2.20184  -2.19595  -2.19476
  Beta  occ. eigenvalues --   -2.19359  -2.19223  -2.19186  -2.18809  -1.13902
  Beta  occ. eigenvalues --   -1.13876  -1.13861  -1.13287  -1.13246  -1.13235
  Beta  occ. eigenvalues --   -1.13173  -1.13143  -1.13118  -1.13098  -1.13048
  Beta  occ. eigenvalues --   -1.13011  -1.12897  -1.12865  -1.12854  -1.12838
  Beta  occ. eigenvalues --   -1.12837  -1.12803  -1.12504  -1.12448  -1.12441
  Beta  occ. eigenvalues --   -0.18064  -0.12712  -0.12067
  Beta virt. eigenvalues --   -0.07544  -0.05235  -0.05044  -0.04153  -0.02583
  Beta virt. eigenvalues --   -0.02347  -0.02229  -0.01299  -0.00903  -0.00041
  Beta virt. eigenvalues --    0.00008   0.00121   0.00385   0.00891   0.00912

 Mulliken charges and spin densities:
               1          2
     1  Na   0.178279   0.182822
     2  Na   0.275075   0.113727
     3  Na   0.192576   0.011941
     4  Na  -0.592604   0.551598
     5  Na   0.142646  -0.048896
     6  Na   0.115810  -0.011597
     7  Na  -0.311782   0.200404
 Sum of Mulliken charges =  -0.00000   1.00000

 Dipole moment (field-independent basis, Debye):
    X=             -0.0883    Y=              0.1036    Z=              0.2880  Tot=              0.3186
 Quadrupole moment (field-independent basis, Debye-Ang):
   XX=            -58.3201   YY=            -67.3444   ZZ=            -69.6809
   XY=             -0.7044   XZ=             -0.5295   YZ=              0.4730

 Normal termination of Gaussian 16 at Thu Dec  7 10:48:26 2023.
