 Gaussian 16, Revision B.01,
 Gaussian 16:  ES64L-G16RevB.01 20-Dec-2017

 -------------------------
 #P B3LYP/6-311+g(d) force
 -------------------------

 -----
 DPGEN
 -----
 Symbolic Z-matrix:
 Charge =  0 Multiplicity = 2

                         Standard orientation:
 ---------------------------------------------------------------------
 Center     Atomic      Atomic             Coordinates (Angstroms)
 Number     Number       Type             X           Y           Z
 ---------------------------------------------------------------------
      1         11           0        1.724292    1.558617   -0.240790
      2         11           0       -0.961580    0.167836    1.540587
      3         11           0       -2.100908   -2.582792   -0.477863
      4         11           0        2.456718   -1.743527    0.646877
      5         11           0        5.099319   -0.117559   -0.735323
      6         11           0       -4.611471   -0.431162   -0.623888
      7         11           0       -1.606370    3.148587   -0.109599
 ---------------------------------------------------------------------

 SCF Done:  E(UB3LYP) =  -1136.12388401     A.U. after   20 cycles

 The electronic state is 2-A.
 Alpha  occ. eigenvalues --  -38.44364 -38.44333 -38.44186 -38.44157 -38.44075
 Alpha  occ. eigenvalues --  -38.43894 -38.43494  -2.20172  -2.20146  -2.20002
 Alpha  occ. eigenvalues --   -2.19980  -2.19885  -2.19680  -2.19282  -1.13884
 Alpha  occ. eigenvalues --   -1.13862  -1.13855  -1.13837  -1.13796  -1.13718
 Alpha  occ. eigenvalues --   -1.13691  -1.13664  -1.13640  -1.13620  -1.13617
 Alpha  occ. eigenvalues --   -1.13610  -1.13538  -1.13537  -1.13493  -1.13360
 Alpha  occ. eigenvalues --   -1.13347  -1.13313  -1.12957  -1.12943  -1.12905
 Alpha  occ. eigenvalues --   -0.16781  -0.13973  -0.11838  -0.10752
 Alpha virt. eigenvalues --   -0.05936  -0.05388  -0.05313  -0.03644  -0.02661
 Alpha virt. eigenvalues --   -0.02293  -0.02018  -0.01661  -0.00911  -0.00771
 Alpha virt. eigenvalues --   -0.00417   0.00058   0.00311   0.00479   0.00558

  Beta  occ. eigenvalues --  -38.44348 -38.44331 -38.44129 -38.44122 -38.44018
  Beta  occ. eigenvalues --  -38.43900 -38.43482  -2.20146  -2.20144  -2.19941
  Beta  occ. eigenvalues --   -2.19871  -2.19777  -2.19694  -2.19260  -1.13868
  Beta  occ. eigenvalues --   -1.13860  -1.13845  -1.13817  -1.13742  -1.13717
  Beta  occ. eigenvalues --   -1.13654  -1.13608  -1.13567  -1.13566  -1.13549
  Beta  occ. eigenvalues --   -1.13539  -1.13463  -1.13462  -1.13426  -1.13373
  Beta  occ. eigenvalues --   -1.13357  -1.13295  -1.12942  -1.12927  -1.12890
  Beta  occ. eigenvalues --   -0.16161  -0.13528  -0.11668
  Beta virt. eigenvalues --   -0.07362  -0.05772  -0.05020  -0.04602  -0.03528
  Beta virt. eigenvalues --   -0.02351  -0.01948  -0.01644  -0.01514  -0.00591
  Beta virt. eigenvalues --   -0.00496  -0.00317   0.00214   0.00469   0.00561

 Mulliken charges and spin densities:
               1          2
     1  Na  -0.970378  -0.076216
     2  Na   0.004644   0.220512
     3  Na   0.033736  -0.006739
     4  Na  -0.125636   0.056814
     5  Na   0.844590   0.317985
     6  Na   0.009221   0.325202
     7  Na   0.203822   0.162441
 Sum of Mulliken charges =  -0.00000   1.00000

 Dipole moment (field-independent basis, Debye):
    X=              0.4132    Y=             -0.0007    Z=             -0.1432  Tot=              0.4373
 Quadrupole moment (field-independent basis, Debye-Ang):
   XX=            -60.9111   YY=            -67.7322   ZZ=            -69.5323
   XY=             -5.2016   XZ=             -1.0536   YZ=             -1.6815

 Normal termination of Gaussian 16 at Wed Nov 29 02:43:11 2023.
