 Gaussian 16, Revision B.01,
 Gaussian 16:  ES64L-G16RevB.01 20-Dec-2017

 -------------------------
 #P B3LYP/6-311+g(d) force
 -------------------------

 -----
 DPGEN
 -----
 Symbolic Z-matrix:
 Charge =  0 Multiplicity = 2

                         Standard orientation:
 ---------------------------------------------------------------------
 Center     Atomic      Atomic             Coordinates (Angstroms)
 Number     Number       Type             X           Y           Z
 ---------------------------------------------------------------------
      1         11           0       -0.382251    2.784395    0.175225
      2         11           0       -0.319519   -2.481236   -0.958412
      3         11           0        1.336017    0.829747   -1.573141
      4         11           0        3.561960   -0.046469    0.220218
      5         11           0       -2.622878   -0.125871   -1.595802
      6         11           0       -2.702552   -0.021674    1.910778
      7         11           0        1.129224   -0.938891    1.821134
 ---------------------------------------------------------------------

 SCF Done:  E(UB3LYP) =  -1136.12024787     A.U. after   23 cycles

 The electronic state is 2-A.
 Alpha  occ. eigenvalues --  -38.44935 -38.44769 -38.44583 -38.43927 -38.43601
 Alpha  occ. eigenvalues --  -38.43485 -38.43088  -2.20721  -2.20639  -2.20396
 Alpha  occ. eigenvalues --   -2.19797  -2.19431  -2.19411  -2.18894  -1.14386
 Alpha  occ. eigenvalues --   -1.14357  -1.14348  -1.14346  -1.14334  -1.14242
 Alpha  occ. eigenvalues --   -1.14078  -1.14050  -1.14020  -1.13458  -1.13448
 Alpha  occ. eigenvalues --   -1.13433  -1.13116  -1.13100  -1.13077  -1.13070
 Alpha  occ. eigenvalues --   -1.13058  -1.13037  -1.12579  -1.12558  -1.12514
 Alpha  occ. eigenvalues --   -0.18027  -0.13518  -0.11793  -0.11266
 Alpha virt. eigenvalues --   -0.06334  -0.05413  -0.03937  -0.03666  -0.03266
 Alpha virt. eigenvalues --   -0.02866  -0.01887  -0.01096  -0.00414  -0.00052
 Alpha virt. eigenvalues --    0.00085   0.00206   0.00309   0.00658   0.00869

  Beta  occ. eigenvalues --  -38.44875 -38.44766 -38.44559 -38.43889 -38.43565
  Beta  occ. eigenvalues --  -38.43458 -38.43086  -2.20637  -2.20610  -2.20353
  Beta  occ. eigenvalues --   -2.19726  -2.19367  -2.19361  -2.18891  -1.14341
  Beta  occ. eigenvalues --   -1.14326  -1.14302  -1.14286  -1.14270  -1.14243
  Beta  occ. eigenvalues --   -1.14034  -1.14020  -1.13988  -1.13412  -1.13399
  Beta  occ. eigenvalues --   -1.13376  -1.13072  -1.13066  -1.13033  -1.13026
  Beta  occ. eigenvalues --   -1.13010  -1.12997  -1.12577  -1.12543  -1.12512
  Beta  occ. eigenvalues --   -0.17353  -0.13243  -0.11113
  Beta virt. eigenvalues --   -0.07937  -0.06252  -0.04735  -0.03679  -0.03476
  Beta virt. eigenvalues --   -0.02689  -0.02114  -0.01769  -0.00669  -0.00320
  Beta virt. eigenvalues --    0.00105   0.00168   0.00234   0.00345   0.00738

 Mulliken charges and spin densities:
               1          2
     1  Na  -0.357735  -0.077641
     2  Na  -0.252327   0.020431
     3  Na   0.368892   0.330103
     4  Na   0.212083  -0.202802
     5  Na   0.149249   0.148634
     6  Na  -0.100594   0.325015
     7  Na  -0.019569   0.456262
 Sum of Mulliken charges =  -0.00000   1.00000

 Dipole moment (field-independent basis, Debye):
    X=             -0.0806    Y=             -0.2469    Z=              0.2284  Tot=              0.3458
 Quadrupole moment (field-independent basis, Debye-Ang):
   XX=            -53.9509   YY=            -76.7939   ZZ=            -65.5405
   XY=             -0.7855   XZ=             -0.2887   YZ=              3.2345

 Normal termination of Gaussian 16 at Sun Dec  3 23:40:11 2023.
