 Gaussian 16, Revision B.01,
 Gaussian 16:  ES64L-G16RevB.01 20-Dec-2017

 -------------------------
 #P B3LYP/6-311+g(d) force
 -------------------------

 -----
 DPGEN
 -----
 Symbolic Z-matrix:
 Charge =  0 Multiplicity = 2

                         Standard orientation:
 ---------------------------------------------------------------------
 Center     Atomic      Atomic             Coordinates (Angstroms)
 Number     Number       Type             X           Y           Z
 ---------------------------------------------------------------------
      1         11           0        3.403152    0.249601    0.083943
      2         11           0        0.568217   -1.014741    2.154725
      3         11           0       -3.044267    1.549893   -0.045689
      4         11           0       -3.033797   -1.580363    0.255751
      5         11           0        0.869476    2.440701    0.657238
      6         11           0        1.096282   -2.343999   -1.053988
      7         11           0        0.140937    0.698907   -2.051980
 ---------------------------------------------------------------------

 SCF Done:  E(UB3LYP) =  -1136.12635422     A.U. after   21 cycles

 The electronic state is 2-A.
 Alpha  occ. eigenvalues --  -38.45097 -38.44366 -38.44210 -38.44117 -38.44024
 Alpha  occ. eigenvalues --  -38.43267 -38.43058  -2.20901  -2.20180  -2.19993
 Alpha  occ. eigenvalues --   -2.19986  -2.19823  -2.19110  -2.18903  -1.14576
 Alpha  occ. eigenvalues --   -1.14556  -1.14542  -1.13847  -1.13821  -1.13798
 Alpha  occ. eigenvalues --   -1.13710  -1.13663  -1.13660  -1.13631  -1.13627
 Alpha  occ. eigenvalues --   -1.13600  -1.13492  -1.13471  -1.13449  -1.12800
 Alpha  occ. eigenvalues --   -1.12751  -1.12738  -1.12588  -1.12572  -1.12528
 Alpha  occ. eigenvalues --   -0.17888  -0.13234  -0.11577  -0.11371
 Alpha virt. eigenvalues --   -0.06488  -0.05213  -0.04038  -0.03450  -0.03279
 Alpha virt. eigenvalues --   -0.02961  -0.01992  -0.01008  -0.00366  -0.00241
 Alpha virt. eigenvalues --   -0.00154   0.00281   0.00361   0.00709   0.00844

  Beta  occ. eigenvalues --  -38.45094 -38.44299 -38.44211 -38.44040 -38.44025
  Beta  occ. eigenvalues --  -38.43233 -38.43045  -2.20899  -2.20056  -2.19995
  Beta  occ. eigenvalues --   -2.19846  -2.19825  -2.19050  -2.18882  -1.14560
  Beta  occ. eigenvalues --   -1.14548  -1.14543  -1.13765  -1.13737  -1.13713
  Beta  occ. eigenvalues --   -1.13705  -1.13654  -1.13630  -1.13573  -1.13526
  Beta  occ. eigenvalues --   -1.13499  -1.13486  -1.13473  -1.13451  -1.12753
  Beta  occ. eigenvalues --   -1.12707  -1.12688  -1.12577  -1.12544  -1.12507
  Beta  occ. eigenvalues --   -0.17115  -0.13102  -0.11350
  Beta virt. eigenvalues --   -0.07445  -0.06309  -0.05216  -0.03693  -0.02931
  Beta virt. eigenvalues --   -0.02698  -0.01953  -0.01901  -0.00972  -0.00331
  Beta virt. eigenvalues --   -0.00194  -0.00012   0.00387   0.00517   0.00817

 Mulliken charges and spin densities:
               1          2
     1  Na   0.446305   0.022417
     2  Na  -0.255444   0.481697
     3  Na   0.081190  -0.067255
     4  Na  -0.076385  -0.036820
     5  Na  -0.230108   0.056848
     6  Na  -0.054441   0.096010
     7  Na   0.088883   0.447103
 Sum of Mulliken charges =  -0.00000   1.00000

 Dipole moment (field-independent basis, Debye):
    X=              0.4844    Y=             -0.0475    Z=              0.1677  Tot=              0.5148
 Quadrupole moment (field-independent basis, Debye-Ang):
   XX=            -54.6774   YY=            -71.9457   ZZ=            -69.6467
   XY=             -0.0437   XZ=             -0.3174   YZ=              1.5929

 Normal termination of Gaussian 16 at Sun Dec  3 16:59:09 2023.
