 Gaussian 16, Revision B.01,
 Gaussian 16:  ES64L-G16RevB.01 20-Dec-2017

 -------------------------
 #P B3LYP/6-311+g(d) force
 -------------------------

 -----
 DPGEN
 -----
 Symbolic Z-matrix:
 Charge =  0 Multiplicity = 2

                         Standard orientation:
 ---------------------------------------------------------------------
 Center     Atomic      Atomic             Coordinates (Angstroms)
 Number     Number       Type             X           Y           Z
 ---------------------------------------------------------------------
      1         11           0       -0.105838    3.293017   -0.022718
      2         11           0        2.727011    1.341148   -0.029454
      3         11           0        3.576555   -1.954887   -0.122509
      4         11           0       -0.310417    0.155536   -1.041411
      5         11           0       -3.021572    1.075299    0.621034
      6         11           0       -3.377252   -2.309322   -0.453853
      7         11           0        0.511512   -1.600792    1.048912
 ---------------------------------------------------------------------

 SCF Done:  E(UB3LYP) =  -1136.11845841     A.U. after   25 cycles

 The electronic state is 2-A.
 Alpha  occ. eigenvalues --  -38.44707 -38.44294 -38.44190 -38.43749 -38.43717
 Alpha  occ. eigenvalues --  -38.43594 -38.43549  -2.20471  -2.20117  -2.20045
 Alpha  occ. eigenvalues --   -2.19773  -2.19638  -2.19435  -2.19387  -1.14154
 Alpha  occ. eigenvalues --   -1.14123  -1.14096  -1.13809  -1.13793  -1.13752
 Alpha  occ. eigenvalues --   -1.13723  -1.13722  -1.13662  -1.13656  -1.13419
 Alpha  occ. eigenvalues --   -1.13363  -1.13282  -1.13235  -1.13214  -1.13095
 Alpha  occ. eigenvalues --   -1.13079  -1.13057  -1.13052  -1.13036  -1.13032
 Alpha  occ. eigenvalues --   -0.18064  -0.13899  -0.12596  -0.09300
 Alpha virt. eigenvalues --   -0.06890  -0.05775  -0.05075  -0.02866  -0.02779
 Alpha virt. eigenvalues --   -0.02329  -0.02207  -0.01481  -0.00932  -0.00471
 Alpha virt. eigenvalues --   -0.00057   0.00142   0.00463   0.00496   0.00635

  Beta  occ. eigenvalues --  -38.44687 -38.44262 -38.44173 -38.43701 -38.43673
  Beta  occ. eigenvalues --  -38.43550 -38.43548  -2.20436  -2.20060  -2.20015
  Beta  occ. eigenvalues --   -2.19689  -2.19561  -2.19388  -2.19351  -1.14133
  Beta  occ. eigenvalues --   -1.14088  -1.14065  -1.13772  -1.13742  -1.13734
  Beta  occ. eigenvalues --   -1.13691  -1.13677  -1.13624  -1.13574  -1.13368
  Beta  occ. eigenvalues --   -1.13314  -1.13233  -1.13181  -1.13153  -1.13058
  Beta  occ. eigenvalues --   -1.13040  -1.13035  -1.13029  -1.13013  -1.12991
  Beta  occ. eigenvalues --   -0.17551  -0.13297  -0.12427
  Beta virt. eigenvalues --   -0.06666  -0.05966  -0.05567  -0.04846  -0.02569
  Beta virt. eigenvalues --   -0.02345  -0.02131  -0.01860  -0.01067  -0.00802
  Beta virt. eigenvalues --   -0.00339   0.00134   0.00348   0.00551   0.00667

 Mulliken charges and spin densities:
               1          2
     1  Na   0.107308  -0.091398
     2  Na   0.118288   0.239661
     3  Na   0.349987   0.307812
     4  Na  -0.575254   0.114036
     5  Na   0.143242   0.361080
     6  Na   0.315664   0.239797
     7  Na  -0.459233  -0.170988
 Sum of Mulliken charges =  -0.00000   1.00000

 Dipole moment (field-independent basis, Debye):
    X=             -0.5377    Y=             -0.4086    Z=              0.0867  Tot=              0.6809
 Quadrupole moment (field-independent basis, Debye-Ang):
   XX=            -79.6491   YY=            -60.1044   ZZ=            -66.2236
   XY=              3.0402   XZ=             -0.1369   YZ=              2.2956

 Normal termination of Gaussian 16 at Wed Dec  6 00:06:05 2023.
