 Gaussian 16, Revision B.01,
 Gaussian 16:  ES64L-G16RevB.01 20-Dec-2017

 -------------------------
 #P B3LYP/6-311+g(d) force
 -------------------------

 -----
 DPGEN
 -----
 Symbolic Z-matrix:
 Charge =  0 Multiplicity = 2

                         Standard orientation:
 ---------------------------------------------------------------------
 Center     Atomic      Atomic             Coordinates (Angstroms)
 Number     Number       Type             X           Y           Z
 ---------------------------------------------------------------------
      1         11           0       -0.307202   -2.036032   -0.010700
      2         11           0       -3.647057   -2.717532   -0.308729
      3         11           0       -3.305425    0.243018    0.182909
      4         11           0        0.245176    1.297524   -0.354219
      5         11           0        2.620103   -0.158777    1.197006
      6         11           0       -2.095678    3.671027   -0.117596
      7         11           0        6.490084   -0.299227   -0.588671
 ---------------------------------------------------------------------

 SCF Done:  E(UB3LYP) =  -1136.12117641     A.U. after   20 cycles

 The electronic state is 2-A.
 Alpha  occ. eigenvalues --  -38.45527 -38.44327 -38.44001 -38.43939 -38.43758
 Alpha  occ. eigenvalues --  -38.43511 -38.43129  -2.21306  -2.20167  -2.19866
 Alpha  occ. eigenvalues --   -2.19742  -2.19614  -2.19408  -2.18934  -1.14930
 Alpha  occ. eigenvalues --   -1.14930  -1.14906  -1.13883  -1.13859  -1.13746
 Alpha  occ. eigenvalues --   -1.13570  -1.13552  -1.13530  -1.13452  -1.13402
 Alpha  occ. eigenvalues --   -1.13382  -1.13258  -1.13254  -1.13226  -1.13117
 Alpha  occ. eigenvalues --   -1.13092  -1.12996  -1.12599  -1.12596  -1.12564
 Alpha  occ. eigenvalues --   -0.16926  -0.13735  -0.12391  -0.11645
 Alpha virt. eigenvalues --   -0.05839  -0.05214  -0.04912  -0.03855  -0.02735
 Alpha virt. eigenvalues --   -0.02213  -0.01881  -0.01554  -0.01301  -0.01029
 Alpha virt. eigenvalues --   -0.00604  -0.00061   0.00102   0.00363   0.00643

  Beta  occ. eigenvalues --  -38.45370 -38.44307 -38.43989 -38.43948 -38.43749
  Beta  occ. eigenvalues --  -38.43499 -38.43125  -2.21013  -2.20131  -2.19844
  Beta  occ. eigenvalues --   -2.19763  -2.19598  -2.19387  -2.18926  -1.14732
  Beta  occ. eigenvalues --   -1.14731  -1.14708  -1.13858  -1.13835  -1.13716
  Beta  occ. eigenvalues --   -1.13554  -1.13536  -1.13513  -1.13467  -1.13419
  Beta  occ. eigenvalues --   -1.13369  -1.13244  -1.13242  -1.13217  -1.13105
  Beta  occ. eigenvalues --   -1.13077  -1.12977  -1.12593  -1.12591  -1.12559
  Beta  occ. eigenvalues --   -0.16654  -0.13035  -0.12091
  Beta virt. eigenvalues --   -0.07631  -0.05386  -0.05118  -0.04801  -0.03612
  Beta virt. eigenvalues --   -0.02407  -0.01719  -0.01567  -0.01236  -0.00918
  Beta virt. eigenvalues --   -0.00484  -0.00325   0.00118   0.00231   0.00533

 Mulliken charges and spin densities:
               1          2
     1  Na  -0.710291   0.040781
     2  Na   0.798987   0.031124
     3  Na  -0.363244   0.160257
     4  Na  -1.405861  -0.064856
     5  Na   0.791864  -0.010378
     6  Na   0.883249   0.052485
     7  Na   0.005296   0.790586
 Sum of Mulliken charges =  -0.00000   1.00000

 Dipole moment (field-independent basis, Debye):
    X=             -0.1433    Y=             -0.6976    Z=              0.0053  Tot=              0.7122
 Quadrupole moment (field-independent basis, Debye-Ang):
   XX=            -63.1918   YY=            -63.9570   ZZ=            -70.4285
   XY=              2.4691   XZ=             -0.4507   YZ=              1.1697

 Normal termination of Gaussian 16 at Wed Nov 29 01:26:34 2023.
