 Gaussian 16, Revision B.01,
 Gaussian 16:  ES64L-G16RevB.01 20-Dec-2017

 -------------------------
 #P B3LYP/6-311+g(d) force
 -------------------------

 -----
 DPGEN
 -----
 Symbolic Z-matrix:
 Charge =  0 Multiplicity = 2

                         Standard orientation:
 ---------------------------------------------------------------------
 Center     Atomic      Atomic             Coordinates (Angstroms)
 Number     Number       Type             X           Y           Z
 ---------------------------------------------------------------------
      1         11           0       -1.473749   -2.001156    1.490810
      2         11           0        2.007620    2.083770   -0.338585
      3         11           0        1.233364   -0.040644    1.989915
      4         11           0        0.080423   -0.607176   -0.948515
      5         11           0        3.339805   -1.303229   -1.234321
      6         11           0       -3.558382   -0.187996   -1.585252
      7         11           0       -1.629080    2.056431    0.625947
 ---------------------------------------------------------------------

 SCF Done:  E(UB3LYP) =  -1136.12508999     A.U. after   25 cycles

 The electronic state is 2-A.
 Alpha  occ. eigenvalues --  -38.44805 -38.44315 -38.44202 -38.43542 -38.43256
 Alpha  occ. eigenvalues --  -38.43205 -38.43178  -2.20588  -2.20242  -2.20010
 Alpha  occ. eigenvalues --   -2.19390  -2.19251  -2.19045  -2.19017  -1.14256
 Alpha  occ. eigenvalues --   -1.14226  -1.14200  -1.13953  -1.13887  -1.13838
 Alpha  occ. eigenvalues --   -1.13685  -1.13650  -1.13632  -1.13112  -1.13047
 Alpha  occ. eigenvalues --   -1.13002  -1.12975  -1.12904  -1.12860  -1.12737
 Alpha  occ. eigenvalues --   -1.12724  -1.12703  -1.12703  -1.12644  -1.12623
 Alpha  occ. eigenvalues --   -0.18346  -0.13537  -0.11712  -0.11002
 Alpha virt. eigenvalues --   -0.05891  -0.05318  -0.04668  -0.03023  -0.02699
 Alpha virt. eigenvalues --   -0.02523  -0.02009  -0.01185  -0.00784  -0.00097
 Alpha virt. eigenvalues --    0.00190   0.00271   0.00442   0.00599   0.00694

  Beta  occ. eigenvalues --  -38.44751 -38.44248 -38.44162 -38.43505 -38.43244
  Beta  occ. eigenvalues --  -38.43208 -38.43174  -2.20487  -2.20124  -2.19937
  Beta  occ. eigenvalues --   -2.19325  -2.19232  -2.19039  -2.19026  -1.14184
  Beta  occ. eigenvalues --   -1.14157  -1.14137  -1.13876  -1.13785  -1.13755
  Beta  occ. eigenvalues --   -1.13629  -1.13599  -1.13586  -1.13070  -1.12991
  Beta  occ. eigenvalues --   -1.12947  -1.12940  -1.12888  -1.12849  -1.12728
  Beta  occ. eigenvalues --   -1.12723  -1.12711  -1.12696  -1.12638  -1.12618
  Beta  occ. eigenvalues --   -0.17681  -0.13051  -0.10781
  Beta virt. eigenvalues --   -0.07995  -0.05502  -0.05050  -0.04394  -0.02793
  Beta virt. eigenvalues --   -0.02206  -0.01857  -0.01736  -0.00940  -0.00572
  Beta virt. eigenvalues --    0.00076   0.00246   0.00361   0.00584   0.00629

 Mulliken charges and spin densities:
               1          2
     1  Na  -0.104694   0.169992
     2  Na   0.240609   0.049874
     3  Na   0.419136   0.324905
     4  Na  -1.413384   0.132875
     5  Na   0.463355   0.150491
     6  Na   0.477556   0.186513
     7  Na  -0.082578  -0.014650
 Sum of Mulliken charges =  -0.00000   1.00000

 Dipole moment (field-independent basis, Debye):
    X=             -0.0826    Y=             -0.1263    Z=             -0.0051  Tot=              0.1510
 Quadrupole moment (field-independent basis, Debye-Ang):
   XX=            -52.0009   YY=            -75.3856   ZZ=            -64.7323
   XY=              0.6965   XZ=              1.1324   YZ=             -0.2917

 Normal termination of Gaussian 16 at Thu Dec  7 22:24:47 2023.
