 Gaussian 16, Revision B.01,
 Gaussian 16:  ES64L-G16RevB.01 20-Dec-2017

 -------------------------
 #P B3LYP/6-311+g(d) force
 -------------------------

 -----
 DPGEN
 -----
 Symbolic Z-matrix:
 Charge =  0 Multiplicity = 2

                         Standard orientation:
 ---------------------------------------------------------------------
 Center     Atomic      Atomic             Coordinates (Angstroms)
 Number     Number       Type             X           Y           Z
 ---------------------------------------------------------------------
      1         11           0        3.190586   -0.833274    0.039789
      2         11           0       -0.527798   -0.291887    1.719445
      3         11           0       -0.270874   -2.446277   -0.236771
      4         11           0       -3.128671   -0.790150    0.058911
      5         11           0        1.723748    1.948131    0.693420
      6         11           0        0.697814    0.032712   -1.732177
      7         11           0       -1.684805    2.380745   -0.542617
 ---------------------------------------------------------------------

 SCF Done:  E(UB3LYP) =  -1136.12925396     A.U. after   19 cycles

 The electronic state is 2-A.
 Alpha  occ. eigenvalues --  -38.44434 -38.44420 -38.43498 -38.43348 -38.43317
 Alpha  occ. eigenvalues --  -38.43130 -38.43061  -2.20293  -2.20286  -2.19512
 Alpha  occ. eigenvalues --   -2.19356  -2.19233  -2.19020  -2.18966  -1.13991
 Alpha  occ. eigenvalues --   -1.13986  -1.13958  -1.13940  -1.13922  -1.13915
 Alpha  occ. eigenvalues --   -1.13269  -1.13154  -1.13123  -1.13072  -1.13033
 Alpha  occ. eigenvalues --   -1.12962  -1.12904  -1.12877  -1.12849  -1.12701
 Alpha  occ. eigenvalues --   -1.12677  -1.12639  -1.12620  -1.12607  -1.12591
 Alpha  occ. eigenvalues --   -0.19196  -0.13645  -0.12139  -0.10896
 Alpha virt. eigenvalues --   -0.06156  -0.04911  -0.04076  -0.03517  -0.02803
 Alpha virt. eigenvalues --   -0.02368  -0.01926  -0.00906  -0.00144  -0.00004
 Alpha virt. eigenvalues --    0.00092   0.00335   0.00784   0.00889   0.00906

  Beta  occ. eigenvalues --  -38.44431 -38.44419 -38.43428 -38.43295 -38.43274
  Beta  occ. eigenvalues --  -38.43118 -38.43048  -2.20292  -2.20285  -2.19384
  Beta  occ. eigenvalues --   -2.19221  -2.19195  -2.19002  -2.18946  -1.13987
  Beta  occ. eigenvalues --   -1.13982  -1.13936  -1.13931  -1.13924  -1.13910
  Beta  occ. eigenvalues --   -1.13189  -1.13065  -1.13032  -1.12985  -1.12957
  Beta  occ. eigenvalues --   -1.12866  -1.12858  -1.12837  -1.12810  -1.12683
  Beta  occ. eigenvalues --   -1.12625  -1.12618  -1.12600  -1.12594  -1.12577
  Beta  occ. eigenvalues --   -0.18474  -0.13413  -0.11854
  Beta virt. eigenvalues --   -0.06975  -0.06064  -0.04881  -0.04031  -0.02771
  Beta virt. eigenvalues --   -0.02040  -0.01854  -0.01354  -0.00837  -0.00056
  Beta virt. eigenvalues --   -0.00002   0.00137   0.00366   0.00861   0.00909

 Mulliken charges and spin densities:
               1          2
     1  Na   0.195947  -0.079872
     2  Na  -0.307371   0.490945
     3  Na   0.212225  -0.154307
     4  Na   0.192102  -0.020300
     5  Na   0.124263   0.114960
     6  Na  -0.357045   0.668708
     7  Na  -0.060121  -0.020135
 Sum of Mulliken charges =  -0.00000   1.00000

 Dipole moment (field-independent basis, Debye):
    X=              0.0323    Y=             -0.1627    Z=              0.0049  Tot=              0.1659
 Quadrupole moment (field-independent basis, Debye-Ang):
   XX=            -51.1421   YY=            -68.6005   ZZ=            -73.3672
   XY=             -0.7158   XZ=              1.9791   YZ=              0.3509

 Normal termination of Gaussian 16 at Thu Dec  7 09:25:54 2023.
