 Gaussian 16, Revision B.01,
 Gaussian 16:  ES64L-G16RevB.01 20-Dec-2017

 -------------------------
 #P B3LYP/6-311+g(d) force
 -------------------------

 -----
 DPGEN
 -----
 Symbolic Z-matrix:
 Charge =  0 Multiplicity = 2

                         Standard orientation:
 ---------------------------------------------------------------------
 Center     Atomic      Atomic             Coordinates (Angstroms)
 Number     Number       Type             X           Y           Z
 ---------------------------------------------------------------------
      1         11           0        2.590392    2.110741    0.691162
      2         11           0        4.272754   -0.451341   -0.791295
      3         11           0       -3.092546   -1.050751   -0.867789
      4         11           0       -1.189057   -2.583425    1.879585
      5         11           0        0.858748   -1.674969   -1.567522
      6         11           0       -3.232687    2.533629   -0.867463
      7         11           0       -0.207605    1.116116    1.523323
 ---------------------------------------------------------------------

 SCF Done:  E(UB3LYP) =  -1136.11323643     A.U. after   21 cycles

 The electronic state is 2-A.
 Alpha  occ. eigenvalues --  -38.44998 -38.44723 -38.44640 -38.44459 -38.44045
 Alpha  occ. eigenvalues --  -38.44024 -38.43891  -2.20736  -2.20505  -2.20422
 Alpha  occ. eigenvalues --   -2.20243  -2.19875  -2.19852  -2.19650  -1.14432
 Alpha  occ. eigenvalues --   -1.14415  -1.14339  -1.14205  -1.14168  -1.14113
 Alpha  occ. eigenvalues --   -1.14087  -1.14073  -1.14058  -1.13905  -1.13900
 Alpha  occ. eigenvalues --   -1.13852  -1.13661  -1.13534  -1.13513  -1.13494
 Alpha  occ. eigenvalues --   -1.13471  -1.13441  -1.13320  -1.13300  -1.13287
 Alpha  occ. eigenvalues --   -0.16677  -0.13656  -0.11725  -0.11244
 Alpha virt. eigenvalues --   -0.06636  -0.06034  -0.04318  -0.03391  -0.03223
 Alpha virt. eigenvalues --   -0.02509  -0.02156  -0.01571  -0.00983  -0.00633
 Alpha virt. eigenvalues --   -0.00241   0.00053   0.00182   0.00338   0.00643

  Beta  occ. eigenvalues --  -38.44982 -38.44702 -38.44614 -38.44408 -38.44004
  Beta  occ. eigenvalues --  -38.43991 -38.43865  -2.20707  -2.20466  -2.20375
  Beta  occ. eigenvalues --   -2.20147  -2.19820  -2.19778  -2.19604  -1.14412
  Beta  occ. eigenvalues --   -1.14394  -1.14314  -1.14175  -1.14146  -1.14074
  Beta  occ. eigenvalues --   -1.14055  -1.14042  -1.14023  -1.13838  -1.13829
  Beta  occ. eigenvalues --   -1.13793  -1.13604  -1.13488  -1.13470  -1.13454
  Beta  occ. eigenvalues --   -1.13428  -1.13380  -1.13289  -1.13260  -1.13258
  Beta  occ. eigenvalues --   -0.16105  -0.13234  -0.11235
  Beta virt. eigenvalues --   -0.07928  -0.06364  -0.05597  -0.04043  -0.03032
  Beta virt. eigenvalues --   -0.02851  -0.02266  -0.01707  -0.01387  -0.00738
  Beta virt. eigenvalues --   -0.00494  -0.00113   0.00164   0.00278   0.00511

 Mulliken charges and spin densities:
               1          2
     1  Na   0.093092   0.058050
     2  Na   0.064763   0.079373
     3  Na   0.190817   0.246360
     4  Na   0.186912   0.101256
     5  Na  -0.221018   0.116692
     6  Na  -0.004928   0.116796
     7  Na  -0.309636   0.281473
 Sum of Mulliken charges =  -0.00000   1.00000

 Dipole moment (field-independent basis, Debye):
    X=              0.5211    Y=             -0.7715    Z=             -0.0669  Tot=              0.9334
 Quadrupole moment (field-independent basis, Debye-Ang):
   XX=            -58.9231   YY=            -69.0958   ZZ=            -69.4496
   XY=              3.2912   XZ=             -0.0560   YZ=             -2.7328

 Normal termination of Gaussian 16 at Mon Dec  4 00:07:54 2023.
