 Gaussian 16, Revision B.01,
 Gaussian 16:  ES64L-G16RevB.01 20-Dec-2017

 -------------------------
 #P B3LYP/6-311+g(d) force
 -------------------------

 -----
 DPGEN
 -----
 Symbolic Z-matrix:
 Charge =  0 Multiplicity = 2

                         Standard orientation:
 ---------------------------------------------------------------------
 Center     Atomic      Atomic             Coordinates (Angstroms)
 Number     Number       Type             X           Y           Z
 ---------------------------------------------------------------------
      1         11           0        1.594990    2.467399    0.340815
      2         11           0        3.655133   -0.058591   -0.719588
      3         11           0       -2.099121    1.862311    0.388315
      4         11           0        1.703314   -2.333463    0.687356
      5         11           0       -0.093721   -0.234506   -1.251471
      6         11           0       -1.532158   -0.800562    2.006767
      7         11           0       -3.228439   -0.902589   -1.452195
 ---------------------------------------------------------------------

 SCF Done:  E(UB3LYP) =  -1136.12659066     A.U. after   22 cycles

 The electronic state is 2-A.
 Alpha  occ. eigenvalues --  -38.44681 -38.44531 -38.44131 -38.43898 -38.43715
 Alpha  occ. eigenvalues --  -38.43244 -38.43002  -2.20502  -2.20386  -2.19998
 Alpha  occ. eigenvalues --   -2.19852  -2.19606  -2.19073  -2.18807  -1.14181
 Alpha  occ. eigenvalues --   -1.14149  -1.14139  -1.14067  -1.14020  -1.13997
 Alpha  occ. eigenvalues --   -1.13685  -1.13638  -1.13618  -1.13558  -1.13511
 Alpha  occ. eigenvalues --   -1.13481  -1.13289  -1.13271  -1.13209  -1.12752
 Alpha  occ. eigenvalues --   -1.12737  -1.12709  -1.12485  -1.12482  -1.12445
 Alpha  occ. eigenvalues --   -0.18270  -0.14066  -0.11361  -0.11212
 Alpha virt. eigenvalues --   -0.06422  -0.05397  -0.04642  -0.03161  -0.02586
 Alpha virt. eigenvalues --   -0.02553  -0.02269  -0.01028  -0.00745  -0.00205
 Alpha virt. eigenvalues --    0.00011   0.00202   0.00368   0.00608   0.00802

  Beta  occ. eigenvalues --  -38.44676 -38.44462 -38.44052 -38.43870 -38.43696
  Beta  occ. eigenvalues --  -38.43238 -38.43010  -2.20493  -2.20261  -2.19853
  Beta  occ. eigenvalues --   -2.19802  -2.19576  -2.19064  -2.18822  -1.14173
  Beta  occ. eigenvalues --   -1.14143  -1.14137  -1.13972  -1.13934  -1.13913
  Beta  occ. eigenvalues --   -1.13590  -1.13536  -1.13521  -1.13502  -1.13477
  Beta  occ. eigenvalues --   -1.13437  -1.13263  -1.13228  -1.13187  -1.12748
  Beta  occ. eigenvalues --   -1.12729  -1.12692  -1.12496  -1.12490  -1.12449
  Beta  occ. eigenvalues --   -0.17630  -0.13816  -0.11153
  Beta virt. eigenvalues --   -0.07312  -0.06186  -0.05271  -0.04216  -0.02965
  Beta virt. eigenvalues --   -0.02199  -0.01931  -0.01622  -0.00928  -0.00418
  Beta virt. eigenvalues --   -0.00064   0.00054   0.00262   0.00538   0.00735

 Mulliken charges and spin densities:
               1          2
     1  Na  -0.260278  -0.051847
     2  Na   1.283055  -0.033703
     3  Na   0.169343   0.223353
     4  Na  -0.304728   0.099976
     5  Na  -1.189755   0.242954
     6  Na  -0.050112   0.360333
     7  Na   0.352476   0.158935
 Sum of Mulliken charges =  -0.00000   1.00000

 Dipole moment (field-independent basis, Debye):
    X=             -0.1468    Y=             -0.2516    Z=              0.0174  Tot=              0.2918
 Quadrupole moment (field-independent basis, Debye-Ang):
   XX=            -49.6473   YY=            -74.0435   ZZ=            -70.5444
   XY=             -0.1611   XZ=             -1.0374   YZ=              0.7539

 Normal termination of Gaussian 16 at Tue Dec  5 10:46:18 2023.
