 Gaussian 16, Revision B.01,
 Gaussian 16:  ES64L-G16RevB.01 20-Dec-2017

 -------------------------
 #P B3LYP/6-311+g(d) force
 -------------------------

 -----
 DPGEN
 -----
 Symbolic Z-matrix:
 Charge =  0 Multiplicity = 2

                         Standard orientation:
 ---------------------------------------------------------------------
 Center     Atomic      Atomic             Coordinates (Angstroms)
 Number     Number       Type             X           Y           Z
 ---------------------------------------------------------------------
      1         11           0       -2.944283   -1.966684   -0.354797
      2         11           0        0.245303   -2.923783   -0.426010
      3         11           0       -0.405988    0.181900    1.952942
      4         11           0        3.526527   -1.718783   -0.223868
      5         11           0        0.082358    3.257275   -0.743251
      6         11           0       -3.131767    1.308563   -0.215673
      7         11           0        2.627849    1.861512    0.010657
 ---------------------------------------------------------------------

 SCF Done:  E(UB3LYP) =  -1136.11622109     A.U. after   25 cycles

 The electronic state is 2-A.
 Alpha  occ. eigenvalues --  -38.45167 -38.44999 -38.44560 -38.44542 -38.44314
 Alpha  occ. eigenvalues --  -38.44215 -38.43234  -2.20956  -2.20755  -2.20357
 Alpha  occ. eigenvalues --   -2.20342  -2.20136  -2.20035  -2.19077  -1.14632
 Alpha  occ. eigenvalues --   -1.14620  -1.14605  -1.14428  -1.14411  -1.14404
 Alpha  occ. eigenvalues --   -1.14103  -1.14024  -1.14014  -1.14014  -1.13994
 Alpha  occ. eigenvalues --   -1.13992  -1.13797  -1.13792  -1.13774  -1.13693
 Alpha  occ. eigenvalues --   -1.13682  -1.13656  -1.12721  -1.12705  -1.12699
 Alpha  occ. eigenvalues --   -0.17141  -0.13619  -0.13061  -0.09833
 Alpha virt. eigenvalues --   -0.07439  -0.06626  -0.04045  -0.03263  -0.02940
 Alpha virt. eigenvalues --   -0.02609  -0.02152  -0.01730  -0.01497  -0.00996
 Alpha virt. eigenvalues --    0.00050   0.00285   0.00414   0.00470   0.00606

  Beta  occ. eigenvalues --  -38.45161 -38.44999 -38.44557 -38.44536 -38.44295
  Beta  occ. eigenvalues --  -38.44197 -38.43114  -2.20946  -2.20755  -2.20348
  Beta  occ. eigenvalues --   -2.20338  -2.20101  -2.20001  -2.18855  -1.14624
  Beta  occ. eigenvalues --   -1.14610  -1.14583  -1.14425  -1.14413  -1.14403
  Beta  occ. eigenvalues --   -1.14096  -1.14022  -1.14006  -1.14003  -1.13980
  Beta  occ. eigenvalues --   -1.13976  -1.13773  -1.13769  -1.13740  -1.13672
  Beta  occ. eigenvalues --   -1.13659  -1.13625  -1.12570  -1.12552  -1.12548
  Beta  occ. eigenvalues --   -0.16558  -0.13353  -0.12902
  Beta virt. eigenvalues --   -0.07266  -0.06491  -0.06160  -0.03880  -0.02776
  Beta virt. eigenvalues --   -0.02448  -0.02359  -0.02015  -0.01485  -0.00984
  Beta virt. eigenvalues --   -0.00852   0.00250   0.00411   0.00563   0.00586

 Mulliken charges and spin densities:
               1          2
     1  Na   0.459011   0.090578
     2  Na  -0.457994   0.040890
     3  Na  -0.179944   0.634223
     4  Na   0.454342  -0.076015
     5  Na   0.262437  -0.003391
     6  Na  -0.158917   0.158431
     7  Na  -0.378935   0.155284
 Sum of Mulliken charges =  -0.00000   1.00000

 Dipole moment (field-independent basis, Debye):
    X=              0.1202    Y=             -0.1541    Z=             -0.1646  Tot=              0.2556
 Quadrupole moment (field-independent basis, Debye-Ang):
   XX=            -55.7452   YY=            -65.4466   ZZ=            -78.2689
   XY=             -3.6545   XZ=              0.6438   YZ=             -0.2515

 Normal termination of Gaussian 16 at Mon Dec  4 04:40:01 2023.
