 Gaussian 16, Revision B.01,
 Gaussian 16:  ES64L-G16RevB.01 20-Dec-2017

 -------------------------
 #P B3LYP/6-311+g(d) force
 -------------------------

 -----
 DPGEN
 -----
 Symbolic Z-matrix:
 Charge =  0 Multiplicity = 2

                         Standard orientation:
 ---------------------------------------------------------------------
 Center     Atomic      Atomic             Coordinates (Angstroms)
 Number     Number       Type             X           Y           Z
 ---------------------------------------------------------------------
      1         11           0        1.270568    1.793428    1.324017
      2         11           0       -0.107247    1.664249   -2.116953
      3         11           0        3.244090   -0.314615   -0.326408
      4         11           0        0.670060   -1.824237   -0.874797
      5         11           0       -2.355711    1.399272    0.923281
      6         11           0       -2.425091   -1.236928   -1.046996
      7         11           0       -0.296669   -1.481169    2.117856
 ---------------------------------------------------------------------

 SCF Done:  E(UB3LYP) =  -1136.12872432     A.U. after   21 cycles

 The electronic state is 2-A.
 Alpha  occ. eigenvalues --  -38.44616 -38.44580 -38.44006 -38.43701 -38.43699
 Alpha  occ. eigenvalues --  -38.43434 -38.42669  -2.20436  -2.20419  -2.19852
 Alpha  occ. eigenvalues --   -2.19569  -2.19533  -2.19278  -2.18631  -1.14115
 Alpha  occ. eigenvalues --   -1.14090  -1.14076  -1.14050  -1.14044  -1.14041
 Alpha  occ. eigenvalues --   -1.13565  -1.13508  -1.13477  -1.13277  -1.13266
 Alpha  occ. eigenvalues --   -1.13208  -1.13189  -1.13167  -1.13155  -1.12958
 Alpha  occ. eigenvalues --   -1.12931  -1.12909  -1.12305  -1.12294  -1.12271
 Alpha  occ. eigenvalues --   -0.18545  -0.12914  -0.12248  -0.11573
 Alpha virt. eigenvalues --   -0.05722  -0.04882  -0.04297  -0.03587  -0.03464
 Alpha virt. eigenvalues --   -0.03159  -0.01321  -0.00731  -0.00569   0.00172
 Alpha virt. eigenvalues --    0.00253   0.00349   0.00422   0.00678   0.00887

  Beta  occ. eigenvalues --  -38.44555 -38.44513 -38.44005 -38.43691 -38.43683
  Beta  occ. eigenvalues --  -38.43411 -38.42650  -2.20312  -2.20307  -2.19852
  Beta  occ. eigenvalues --   -2.19542  -2.19518  -2.19237  -2.18600  -1.14036
  Beta  occ. eigenvalues --   -1.14009  -1.13976  -1.13972  -1.13963  -1.13959
  Beta  occ. eigenvalues --   -1.13562  -1.13506  -1.13473  -1.13260  -1.13247
  Beta  occ. eigenvalues --   -1.13182  -1.13163  -1.13149  -1.13144  -1.12927
  Beta  occ. eigenvalues --   -1.12889  -1.12885  -1.12284  -1.12264  -1.12234
  Beta  occ. eigenvalues --   -0.17695  -0.12770  -0.11408
  Beta virt. eigenvalues --   -0.08232  -0.05497  -0.04633  -0.03698  -0.03273
  Beta virt. eigenvalues --   -0.03037  -0.02241  -0.01258  -0.00537  -0.00328
  Beta virt. eigenvalues --    0.00203   0.00315   0.00444   0.00463   0.00801

 Mulliken charges and spin densities:
               1          2
     1  Na   0.073489   0.080985
     2  Na  -0.530031   0.357388
     3  Na   0.180855  -0.090592
     4  Na   0.357178   0.160621
     5  Na   0.085278   0.009941
     6  Na   0.308939   0.059782
     7  Na  -0.475708   0.421874
 Sum of Mulliken charges =  -0.00000   1.00000

 Dipole moment (field-independent basis, Debye):
    X=             -0.0648    Y=              0.2339    Z=              0.0505  Tot=              0.2479
 Quadrupole moment (field-independent basis, Debye-Ang):
   XX=            -60.2004   YY=            -75.1788   ZZ=            -61.1670
   XY=              0.4530   XZ=             -0.2833   YZ=             -1.3469

 Normal termination of Gaussian 16 at Thu Dec  7 04:57:49 2023.
