 Gaussian 16, Revision B.01,
 Gaussian 16:  ES64L-G16RevB.01 20-Dec-2017

 -------------------------
 #P B3LYP/6-311+g(d) force
 -------------------------

 -----
 DPGEN
 -----
 Symbolic Z-matrix:
 Charge =  0 Multiplicity = 2

                         Standard orientation:
 ---------------------------------------------------------------------
 Center     Atomic      Atomic             Coordinates (Angstroms)
 Number     Number       Type             X           Y           Z
 ---------------------------------------------------------------------
      1         11           0       -0.280127    2.743049    0.583818
      2         11           0       -2.448062    1.684600   -1.203061
      3         11           0       -0.677999   -0.753020    1.622307
      4         11           0       -3.848807   -1.106356   -0.006481
      5         11           0       -0.764934   -2.227360   -0.695454
      6         11           0        2.339101   -0.106709    0.157990
      7         11           0        5.680828   -0.234204   -0.459119
 ---------------------------------------------------------------------

 SCF Done:  E(UB3LYP) =  -1136.11496533     A.U. after   22 cycles

 The electronic state is 2-A.
 Alpha  occ. eigenvalues --  -38.44804 -38.44721 -38.44480 -38.44171 -38.43623
 Alpha  occ. eigenvalues --  -38.43188 -38.43054  -2.20771  -2.20523  -2.20386
 Alpha  occ. eigenvalues --   -2.20033  -2.19491  -2.19008  -2.18906  -1.14673
 Alpha  occ. eigenvalues --   -1.14377  -1.14372  -1.14152  -1.14151  -1.14141
 Alpha  occ. eigenvalues --   -1.14022  -1.14015  -1.13965  -1.13702  -1.13690
 Alpha  occ. eigenvalues --   -1.13644  -1.13193  -1.13154  -1.13127  -1.12711
 Alpha  occ. eigenvalues --   -1.12677  -1.12665  -1.12574  -1.12565  -1.12527
 Alpha  occ. eigenvalues --   -0.17976  -0.13753  -0.11999  -0.11510
 Alpha virt. eigenvalues --   -0.06584  -0.04868  -0.04523  -0.03682  -0.02762
 Alpha virt. eigenvalues --   -0.02363  -0.01825  -0.01488  -0.01229  -0.00573
 Alpha virt. eigenvalues --   -0.00303   0.00002   0.00349   0.00684   0.00729

  Beta  occ. eigenvalues --  -38.44762 -38.44608 -38.44469 -38.44133 -38.43605
  Beta  occ. eigenvalues --  -38.43190 -38.43049  -2.20697  -2.20369  -2.20312
  Beta  occ. eigenvalues --   -2.19963  -2.19459  -2.19023  -2.18897  -1.14625
  Beta  occ. eigenvalues --   -1.14326  -1.14313  -1.14012  -1.14009  -1.14007
  Beta  occ. eigenvalues --   -1.14001  -1.13992  -1.13945  -1.13653  -1.13641
  Beta  occ. eigenvalues --   -1.13596  -1.13167  -1.13132  -1.13102  -1.12729
  Beta  occ. eigenvalues --   -1.12689  -1.12618  -1.12570  -1.12558  -1.12516
  Beta  occ. eigenvalues --   -0.17521  -0.12668  -0.11913
  Beta virt. eigenvalues --   -0.08010  -0.06411  -0.04315  -0.04248  -0.03503
  Beta virt. eigenvalues --   -0.02425  -0.02217  -0.01349  -0.01069  -0.00746
  Beta virt. eigenvalues --   -0.00348  -0.00210   0.00166   0.00422   0.00741

 Mulliken charges and spin densities:
               1          2
     1  Na   0.246922   0.045306
     2  Na  -0.204014  -0.001600
     3  Na   1.286173   0.013003
     4  Na   0.294076   0.316001
     5  Na   0.261800  -0.041950
     6  Na  -1.245894   0.285847
     7  Na  -0.639064   0.383393
 Sum of Mulliken charges =  -0.00000   1.00000

 Dipole moment (field-independent basis, Debye):
    X=             -0.6115    Y=             -0.7268    Z=              0.0583  Tot=              0.9516
 Quadrupole moment (field-independent basis, Debye-Ang):
   XX=            -60.9196   YY=            -74.3357   ZZ=            -63.9336
   XY=              3.2690   XZ=             -2.4863   YZ=              2.4098

 Normal termination of Gaussian 16 at Tue Dec  5 22:34:13 2023.
