 Gaussian 16, Revision B.01,
 Gaussian 16:  ES64L-G16RevB.01 20-Dec-2017

 -------------------------
 #P B3LYP/6-311+g(d) force
 -------------------------

 -----
 DPGEN
 -----
 Symbolic Z-matrix:
 Charge =  0 Multiplicity = 2

                         Standard orientation:
 ---------------------------------------------------------------------
 Center     Atomic      Atomic             Coordinates (Angstroms)
 Number     Number       Type             X           Y           Z
 ---------------------------------------------------------------------
      1         11           0        1.908886    2.488410   -0.116554
      2         11           0       -0.150286   -0.107344   -1.315676
      3         11           0       -1.592857    2.526617    0.002092
      4         11           0        0.320776   -0.186606    2.160375
      5         11           0        2.999168   -1.246540   -0.528961
      6         11           0       -3.103288   -0.635124   -0.310402
      7         11           0       -0.382398   -2.839413    0.109127
 ---------------------------------------------------------------------

 SCF Done:  E(UB3LYP) =  -1136.13641192     A.U. after   19 cycles

 The electronic state is 2-A.
 Alpha  occ. eigenvalues --  -38.44019 -38.43844 -38.43714 -38.43585 -38.43549
 Alpha  occ. eigenvalues --  -38.43546 -38.42858  -2.19821  -2.19653  -2.19568
 Alpha  occ. eigenvalues --   -2.19466  -2.19425  -2.19393  -2.18913  -1.13500
 Alpha  occ. eigenvalues --   -1.13469  -1.13457  -1.13333  -1.13317  -1.13290
 Alpha  occ. eigenvalues --   -1.13275  -1.13222  -1.13214  -1.13185  -1.13146
 Alpha  occ. eigenvalues --   -1.13090  -1.13082  -1.13069  -1.13055  -1.13039
 Alpha  occ. eigenvalues --   -1.13031  -1.13014  -1.12604  -1.12555  -1.12531
 Alpha  occ. eigenvalues --   -0.18575  -0.12790  -0.12684  -0.10563
 Alpha virt. eigenvalues --   -0.05573  -0.05249  -0.04882  -0.02908  -0.02884
 Alpha virt. eigenvalues --   -0.02398  -0.01566  -0.01265  -0.00475  -0.00455
 Alpha virt. eigenvalues --   -0.00009   0.00324   0.00777   0.00836   0.00873

  Beta  occ. eigenvalues --  -38.44004 -38.43843 -38.43709 -38.43577 -38.43544
  Beta  occ. eigenvalues --  -38.43442 -38.42815  -2.19794  -2.19652  -2.19560
  Beta  occ. eigenvalues --   -2.19456  -2.19391  -2.19227  -2.18837  -1.13470
  Beta  occ. eigenvalues --   -1.13450  -1.13440  -1.13328  -1.13308  -1.13290
  Beta  occ. eigenvalues --   -1.13266  -1.13212  -1.13203  -1.13178  -1.13097
  Beta  occ. eigenvalues --   -1.13084  -1.13067  -1.13042  -1.13013  -1.12957
  Beta  occ. eigenvalues --   -1.12905  -1.12894  -1.12541  -1.12502  -1.12473
  Beta  occ. eigenvalues --   -0.17886  -0.12534  -0.12469
  Beta virt. eigenvalues --   -0.06645  -0.05523  -0.05214  -0.04822  -0.02209
  Beta virt. eigenvalues --   -0.02123  -0.01465  -0.01340  -0.01201  -0.00502
  Beta virt. eigenvalues --   -0.00484   0.00152   0.00376   0.00830   0.00846

 Mulliken charges and spin densities:
               1          2
     1  Na   0.084528  -0.013029
     2  Na  -0.734548   0.128950
     3  Na   0.185349   0.024435
     4  Na  -0.478178   0.679945
     5  Na   0.110989   0.037612
     6  Na   0.381562   0.048399
     7  Na   0.450298   0.093688
 Sum of Mulliken charges =  -0.00000   1.00000

 Dipole moment (field-independent basis, Debye):
    X=              0.1594    Y=              0.0065    Z=              0.2038  Tot=              0.2589
 Quadrupole moment (field-independent basis, Debye-Ang):
   XX=            -56.3674   YY=            -60.3656   ZZ=            -75.5362
   XY=              0.2883   XZ=             -0.9142   YZ=              0.3871

 Normal termination of Gaussian 16 at Fri Dec  8 03:43:58 2023.
