 Gaussian 16, Revision B.01,
 Gaussian 16:  ES64L-G16RevB.01 20-Dec-2017

 -------------------------
 #P B3LYP/6-311+g(d) force
 -------------------------

 -----
 DPGEN
 -----
 Symbolic Z-matrix:
 Charge =  0 Multiplicity = 2

                         Standard orientation:
 ---------------------------------------------------------------------
 Center     Atomic      Atomic             Coordinates (Angstroms)
 Number     Number       Type             X           Y           Z
 ---------------------------------------------------------------------
      1         11           0       -2.184779    2.173439   -0.014862
      2         11           0        1.336520    2.447941   -0.319588
      3         11           0       -2.724934   -1.589981    0.269268
      4         11           0        0.954800   -2.658926   -0.357543
      5         11           0       -0.594202   -0.200252   -1.859589
      6         11           0        3.111063   -0.139089    0.044221
      7         11           0        0.101532   -0.033132    2.238092
 ---------------------------------------------------------------------

 SCF Done:  E(UB3LYP) =  -1136.13725468     A.U. after   18 cycles

 The electronic state is 2-A.
 Alpha  occ. eigenvalues --  -38.44188 -38.44115 -38.43730 -38.43708 -38.43588
 Alpha  occ. eigenvalues --  -38.43366 -38.43248  -2.20033  -2.19927  -2.19584
 Alpha  occ. eigenvalues --   -2.19529  -2.19518  -2.19218  -2.19108  -1.13689
 Alpha  occ. eigenvalues --   -1.13663  -1.13656  -1.13612  -1.13588  -1.13559
 Alpha  occ. eigenvalues --   -1.13278  -1.13242  -1.13238  -1.13231  -1.13199
 Alpha  occ. eigenvalues --   -1.13189  -1.13166  -1.13145  -1.13136  -1.12902
 Alpha  occ. eigenvalues --   -1.12874  -1.12840  -1.12784  -1.12766  -1.12743
 Alpha  occ. eigenvalues --   -0.18447  -0.12959  -0.12308  -0.11159
 Alpha virt. eigenvalues --   -0.05624  -0.05249  -0.04433  -0.03420  -0.03049
 Alpha virt. eigenvalues --   -0.03004  -0.01397  -0.01088  -0.00300  -0.00166
 Alpha virt. eigenvalues --   -0.00074   0.00383   0.00773   0.00870   0.00883

  Beta  occ. eigenvalues --  -38.44110 -38.44089 -38.43730 -38.43706 -38.43522
  Beta  occ. eigenvalues --  -38.43358 -38.43242  -2.19921  -2.19850  -2.19586
  Beta  occ. eigenvalues --   -2.19528  -2.19396  -2.19206  -2.19100  -1.13603
  Beta  occ. eigenvalues --   -1.13578  -1.13563  -1.13558  -1.13534  -1.13519
  Beta  occ. eigenvalues --   -1.13282  -1.13245  -1.13219  -1.13213  -1.13182
  Beta  occ. eigenvalues --   -1.13164  -1.13116  -1.13063  -1.13057  -1.12884
  Beta  occ. eigenvalues --   -1.12849  -1.12836  -1.12778  -1.12746  -1.12737
  Beta  occ. eigenvalues --   -0.17696  -0.12777  -0.12079
  Beta virt. eigenvalues --   -0.07222  -0.05595  -0.05174  -0.04361  -0.02654
  Beta virt. eigenvalues --   -0.02270  -0.01955  -0.01302  -0.01025  -0.00343
  Beta virt. eigenvalues --   -0.00211   0.00081   0.00411   0.00852   0.00889

 Mulliken charges and spin densities:
               1          2
     1  Na   0.124040  -0.055945
     2  Na   0.060842  -0.035761
     3  Na   0.141108  -0.058931
     4  Na   0.207070  -0.046077
     5  Na  -0.059927   0.460662
     6  Na   0.069085  -0.009602
     7  Na  -0.542216   0.745654
 Sum of Mulliken charges =  -0.00000   1.00000

 Dipole moment (field-independent basis, Debye):
    X=             -0.3916    Y=             -0.1349    Z=              0.2321  Tot=              0.4747
 Quadrupole moment (field-independent basis, Debye-Ang):
   XX=            -58.2707   YY=            -65.4930   ZZ=            -71.6254
   XY=             -0.0411   XZ=             -1.2337   YZ=             -0.4198

 Normal termination of Gaussian 16 at Thu Dec  7 07:17:18 2023.
