 Gaussian 16, Revision B.01,
 Gaussian 16:  ES64L-G16RevB.01 20-Dec-2017

 -------------------------
 #P B3LYP/6-311+g(d) force
 -------------------------

 -----
 DPGEN
 -----
 Symbolic Z-matrix:
 Charge =  0 Multiplicity = 2

                         Standard orientation:
 ---------------------------------------------------------------------
 Center     Atomic      Atomic             Coordinates (Angstroms)
 Number     Number       Type             X           Y           Z
 ---------------------------------------------------------------------
      1         11           0        0.018302   -0.381883    1.994407
      2         11           0        0.009227    0.521041   -1.786656
      3         11           0        2.219642    1.793933    0.139439
      4         11           0        2.565198   -1.379045   -0.172837
      5         11           0       -0.526914   -2.297485   -0.307824
      6         11           0       -1.336219    2.163060    0.214058
      7         11           0       -2.949236   -0.419620   -0.080587
 ---------------------------------------------------------------------

 SCF Done:  E(UB3LYP) =  -1136.13039083     A.U. after   19 cycles

 The electronic state is 2-A.
 Alpha  occ. eigenvalues --  -38.43941 -38.43736 -38.43642 -38.43508 -38.43477
 Alpha  occ. eigenvalues --  -38.43164 -38.42803  -2.19870  -2.19711  -2.19551
 Alpha  occ. eigenvalues --   -2.19545  -2.19375  -2.19134  -2.18801  -1.13565
 Alpha  occ. eigenvalues --   -1.13560  -1.13505  -1.13412  -1.13352  -1.13320
 Alpha  occ. eigenvalues --   -1.13305  -1.13246  -1.13225  -1.13195  -1.13192
 Alpha  occ. eigenvalues --   -1.13170  -1.13030  -1.13021  -1.12995  -1.12800
 Alpha  occ. eigenvalues --   -1.12779  -1.12738  -1.12487  -1.12455  -1.12422
 Alpha  occ. eigenvalues --   -0.19786  -0.13531  -0.12402  -0.11428
 Alpha virt. eigenvalues --   -0.05527  -0.04938  -0.03971  -0.03511  -0.03071
 Alpha virt. eigenvalues --   -0.02773  -0.01455  -0.00775  -0.00068   0.00198
 Alpha virt. eigenvalues --    0.00243   0.00389   0.00849   0.00994   0.01022

  Beta  occ. eigenvalues --  -38.43936 -38.43646 -38.43638 -38.43472 -38.43434
  Beta  occ. eigenvalues --  -38.43153 -38.42788  -2.19865  -2.19547  -2.19540
  Beta  occ. eigenvalues --   -2.19416  -2.19370  -2.19119  -2.18779  -1.13565
  Beta  occ. eigenvalues --   -1.13558  -1.13472  -1.13311  -1.13247  -1.13237
  Beta  occ. eigenvalues --   -1.13219  -1.13217  -1.13195  -1.13158  -1.13108
  Beta  occ. eigenvalues --   -1.13104  -1.13009  -1.12999  -1.12978  -1.12784
  Beta  occ. eigenvalues --   -1.12733  -1.12726  -1.12476  -1.12414  -1.12394
  Beta  occ. eigenvalues --   -0.18984  -0.13264  -0.12138
  Beta virt. eigenvalues --   -0.07391  -0.05492  -0.04940  -0.03957  -0.02655
  Beta virt. eigenvalues --   -0.02250  -0.01673  -0.01372  -0.00725   0.00084
  Beta virt. eigenvalues --    0.00150   0.00208   0.00399   0.00909   0.00976

 Mulliken charges and spin densities:
               1          2
     1  Na  -0.983116   0.600286
     2  Na  -0.885343   0.442083
     3  Na   0.328685  -0.038743
     4  Na   0.170195  -0.061446
     5  Na   0.615895   0.063133
     6  Na   0.604712   0.037042
     7  Na   0.148973  -0.042356
 Sum of Mulliken charges =  -0.00000   1.00000

 Dipole moment (field-independent basis, Debye):
    X=              0.1198    Y=              0.0468    Z=              0.1675  Tot=              0.2112
 Quadrupole moment (field-independent basis, Debye-Ang):
   XX=            -56.0845   YY=            -68.6486   ZZ=            -70.5087
   XY=              0.1499   XZ=              0.0342   YZ=              1.7228

 Normal termination of Gaussian 16 at Thu Dec  7 22:27:20 2023.
