 Gaussian 16, Revision B.01,
 Gaussian 16:  ES64L-G16RevB.01 20-Dec-2017

 -------------------------
 #P B3LYP/6-311+g(d) force
 -------------------------

 -----
 DPGEN
 -----
 Symbolic Z-matrix:
 Charge =  0 Multiplicity = 2

                         Standard orientation:
 ---------------------------------------------------------------------
 Center     Atomic      Atomic             Coordinates (Angstroms)
 Number     Number       Type             X           Y           Z
 ---------------------------------------------------------------------
      1         11           0       -1.181996   -0.538971   -1.320165
      2         11           0        1.200403    1.504463   -1.391786
      3         11           0        0.320917    0.424333    2.049023
      4         11           0       -2.345116    2.041963    0.187080
      5         11           0       -3.679149   -1.527928    0.352572
      6         11           0        1.810513   -1.920784   -0.344479
      7         11           0        3.874428    0.016924    0.467754
 ---------------------------------------------------------------------

 SCF Done:  E(UB3LYP) =  -1136.11517964     A.U. after   59 cycles

 The electronic state is 2-A.
 Alpha  occ. eigenvalues --  -38.45450 -38.44875 -38.44156 -38.44005 -38.43742
 Alpha  occ. eigenvalues --  -38.43152 -38.43123  -2.21294  -2.20700  -2.19989
 Alpha  occ. eigenvalues --   -2.19905  -2.19531  -2.19154  -2.19030  -1.15009
 Alpha  occ. eigenvalues --   -1.14944  -1.14918  -1.14389  -1.14334  -1.14310
 Alpha  occ. eigenvalues --   -1.13688  -1.13657  -1.13591  -1.13581  -1.13559
 Alpha  occ. eigenvalues --   -1.13544  -1.13234  -1.13192  -1.13184  -1.12871
 Alpha  occ. eigenvalues --   -1.12819  -1.12796  -1.12682  -1.12671  -1.12616
 Alpha  occ. eigenvalues --   -0.18683  -0.14175  -0.11277  -0.10771
 Alpha virt. eigenvalues --   -0.07282  -0.05503  -0.04276  -0.03122  -0.02928
 Alpha virt. eigenvalues --   -0.02357  -0.02313  -0.01282  -0.00907  -0.00196
 Alpha virt. eigenvalues --    0.00028   0.00196   0.00332   0.00591   0.00681

  Beta  occ. eigenvalues --  -38.45449 -38.44809 -38.44146 -38.43978 -38.43769
  Beta  occ. eigenvalues --  -38.43098 -38.43070  -2.21293  -2.20578  -2.19971
  Beta  occ. eigenvalues --   -2.19860  -2.19581  -2.19059  -2.18935  -1.15013
  Beta  occ. eigenvalues --   -1.14933  -1.14912  -1.14302  -1.14249  -1.14218
  Beta  occ. eigenvalues --   -1.13672  -1.13634  -1.13585  -1.13553  -1.13530
  Beta  occ. eigenvalues --   -1.13480  -1.13265  -1.13225  -1.13214  -1.12810
  Beta  occ. eigenvalues --   -1.12737  -1.12717  -1.12617  -1.12589  -1.12554
  Beta  occ. eigenvalues --   -0.17843  -0.14152  -0.10616
  Beta virt. eigenvalues --   -0.07315  -0.06940  -0.05437  -0.03737  -0.02844
  Beta virt. eigenvalues --   -0.02604  -0.01807  -0.01586  -0.01144  -0.00622
  Beta virt. eigenvalues --   -0.00165   0.00037   0.00205   0.00507   0.00638

 Mulliken charges and spin densities:
               1          2
     1  Na   0.069499   0.103418
     2  Na  -0.139051   0.126571
     3  Na  -0.436117   0.549723
     4  Na   0.178243   0.071476
     5  Na   0.001864  -0.080067
     6  Na  -0.142686   0.105451
     7  Na   0.468249   0.123427
 Sum of Mulliken charges =  -0.00000   1.00000

 Dipole moment (field-independent basis, Debye):
    X=              1.0213    Y=              0.9152    Z=              0.7482  Tot=              1.5622
 Quadrupole moment (field-independent basis, Debye-Ang):
   XX=            -50.1019   YY=            -74.3726   ZZ=            -71.0600
   XY=             -1.2283   XZ=             -1.7565   YZ=             -0.9630

 Normal termination of Gaussian 16 at Thu Dec  7 21:01:51 2023.
