 Gaussian 16, Revision B.01,
 Gaussian 16:  ES64L-G16RevB.01 20-Dec-2017

 -------------------------
 #P B3LYP/6-311+g(d) force
 -------------------------

 -----
 DPGEN
 -----
 Symbolic Z-matrix:
 Charge =  0 Multiplicity = 2

                         Standard orientation:
 ---------------------------------------------------------------------
 Center     Atomic      Atomic             Coordinates (Angstroms)
 Number     Number       Type             X           Y           Z
 ---------------------------------------------------------------------
      1         11           0       -0.038884    2.281696    1.144537
      2         11           0        2.949505   -1.779260   -0.013705
      3         11           0        2.897944    1.475754   -0.879737
      4         11           0       -0.148149   -0.325652   -1.376210
      5         11           0       -0.123908   -1.280643    2.102592
      6         11           0       -2.725676   -2.257652   -0.663751
      7         11           0       -2.810833    1.885757   -0.313726
 ---------------------------------------------------------------------

 SCF Done:  E(UB3LYP) =  -1136.12731389     A.U. after   20 cycles

 The electronic state is 2-A.
 Alpha  occ. eigenvalues --  -38.44596 -38.44467 -38.44103 -38.43895 -38.43806
 Alpha  occ. eigenvalues --  -38.43536 -38.42979  -2.20388  -2.20270  -2.19925
 Alpha  occ. eigenvalues --   -2.19729  -2.19597  -2.19452  -2.18850  -1.14061
 Alpha  occ. eigenvalues --   -1.14043  -1.14040  -1.13952  -1.13941  -1.13897
 Alpha  occ. eigenvalues --   -1.13597  -1.13574  -1.13556  -1.13396  -1.13356
 Alpha  occ. eigenvalues --   -1.13342  -1.13288  -1.13244  -1.13237  -1.13158
 Alpha  occ. eigenvalues --   -1.13098  -1.13068  -1.12524  -1.12499  -1.12490
 Alpha  occ. eigenvalues --   -0.17869  -0.13212  -0.11830  -0.10960
 Alpha virt. eigenvalues --   -0.06278  -0.05601  -0.03916  -0.03351  -0.03285
 Alpha virt. eigenvalues --   -0.02495  -0.01955  -0.01492  -0.00408  -0.00272
 Alpha virt. eigenvalues --    0.00096   0.00249   0.00333   0.00660   0.00714

  Beta  occ. eigenvalues --  -38.44595 -38.44466 -38.44082 -38.43800 -38.43793
  Beta  occ. eigenvalues --  -38.43505 -38.42954  -2.20388  -2.20270  -2.19886
  Beta  occ. eigenvalues --   -2.19575  -2.19554  -2.19397  -2.18804  -1.14061
  Beta  occ. eigenvalues --   -1.14045  -1.14020  -1.13950  -1.13935  -1.13896
  Beta  occ. eigenvalues --   -1.13563  -1.13550  -1.13529  -1.13280  -1.13266
  Beta  occ. eigenvalues --   -1.13238  -1.13231  -1.13221  -1.13209  -1.13107
  Beta  occ. eigenvalues --   -1.13063  -1.13025  -1.12496  -1.12471  -1.12438
  Beta  occ. eigenvalues --   -0.17205  -0.12914  -0.11643
  Beta virt. eigenvalues --   -0.07154  -0.06234  -0.05425  -0.03603  -0.02888
  Beta virt. eigenvalues --   -0.02631  -0.01864  -0.01615  -0.01390  -0.00392
  Beta virt. eigenvalues --   -0.00030   0.00103   0.00328   0.00436   0.00690

 Mulliken charges and spin densities:
               1          2
     1  Na  -0.218166   0.232342
     2  Na  -0.037657   0.141693
     3  Na   0.623231   0.047228
     4  Na  -0.500255   0.055628
     5  Na  -0.120060   0.425636
     6  Na   0.152656   0.160258
     7  Na   0.100251  -0.062785
 Sum of Mulliken charges =  -0.00000   1.00000

 Dipole moment (field-independent basis, Debye):
    X=              0.1003    Y=             -0.2183    Z=             -0.0729  Tot=              0.2510
 Quadrupole moment (field-independent basis, Debye-Ang):
   XX=            -53.8824   YY=            -67.2700   ZZ=            -72.4486
   XY=             -1.0250   XZ=              0.3121   YZ=             -1.2063

 Normal termination of Gaussian 16 at Tue Dec  5 23:22:19 2023.
