 Gaussian 16, Revision B.01,
 Gaussian 16:  ES64L-G16RevB.01 20-Dec-2017

 -------------------------
 #P B3LYP/6-311+g(d) force
 -------------------------

 -----
 DPGEN
 -----
 Symbolic Z-matrix:
 Charge =  0 Multiplicity = 2

                         Standard orientation:
 ---------------------------------------------------------------------
 Center     Atomic      Atomic             Coordinates (Angstroms)
 Number     Number       Type             X           Y           Z
 ---------------------------------------------------------------------
      1         11           0        1.972374    2.328616   -0.166405
      2         11           0       -0.160810   -0.058288   -1.362223
      3         11           0       -1.523506    2.604448    0.115126
      4         11           0        0.301789   -0.298045    2.193689
      5         11           0        2.912199   -1.184761   -0.469428
      6         11           0       -3.017650   -0.498476   -0.331216
      7         11           0       -0.484396   -2.893495    0.020458
 ---------------------------------------------------------------------

 SCF Done:  E(UB3LYP) =  -1136.13750404     A.U. after   19 cycles

 The electronic state is 2-A.
 Alpha  occ. eigenvalues --  -38.43900 -38.43717 -38.43692 -38.43644 -38.43580
 Alpha  occ. eigenvalues --  -38.43501 -38.42854  -2.19719  -2.19563  -2.19544
 Alpha  occ. eigenvalues --   -2.19512  -2.19449  -2.19344  -2.18914  -1.13403
 Alpha  occ. eigenvalues --   -1.13374  -1.13353  -1.13293  -1.13230  -1.13213
 Alpha  occ. eigenvalues --   -1.13209  -1.13199  -1.13180  -1.13176  -1.13147
 Alpha  occ. eigenvalues --   -1.13142  -1.13129  -1.13094  -1.13061  -1.13028
 Alpha  occ. eigenvalues --   -1.13005  -1.12974  -1.12598  -1.12549  -1.12542
 Alpha  occ. eigenvalues --   -0.18647  -0.12874  -0.12657  -0.10671
 Alpha virt. eigenvalues --   -0.05467  -0.05154  -0.04920  -0.02978  -0.02924
 Alpha virt. eigenvalues --   -0.02509  -0.01438  -0.01223  -0.00431  -0.00397
 Alpha virt. eigenvalues --   -0.00007   0.00339   0.00812   0.00862   0.00878

  Beta  occ. eigenvalues --  -38.43888 -38.43714 -38.43685 -38.43573 -38.43538
  Beta  occ. eigenvalues --  -38.43499 -38.42808  -2.19700  -2.19553  -2.19541
  Beta  occ. eigenvalues --   -2.19441  -2.19343  -2.19314  -2.18831  -1.13380
  Beta  occ. eigenvalues --   -1.13356  -1.13339  -1.13280  -1.13225  -1.13195
  Beta  occ. eigenvalues --   -1.13194  -1.13190  -1.13175  -1.13147  -1.13088
  Beta  occ. eigenvalues --   -1.13062  -1.13035  -1.13024  -1.12995  -1.12992
  Beta  occ. eigenvalues --   -1.12981  -1.12972  -1.12532  -1.12489  -1.12482
  Beta  occ. eigenvalues --   -0.17951  -0.12617  -0.12446
  Beta virt. eigenvalues --   -0.06723  -0.05452  -0.05130  -0.04844  -0.02244
  Beta virt. eigenvalues --   -0.02152  -0.01431  -0.01341  -0.01158  -0.00471
  Beta virt. eigenvalues --   -0.00432   0.00155   0.00386   0.00852   0.00877

 Mulliken charges and spin densities:
               1          2
     1  Na   0.116291  -0.001090
     2  Na  -0.641320   0.102908
     3  Na   0.143292   0.039889
     4  Na  -0.595536   0.741411
     5  Na   0.190145   0.012874
     6  Na   0.405037   0.057003
     7  Na   0.382090   0.047006
 Sum of Mulliken charges =  -0.00000   1.00000

 Dipole moment (field-independent basis, Debye):
    X=              0.1398    Y=             -0.0622    Z=              0.2145  Tot=              0.2634
 Quadrupole moment (field-independent basis, Debye-Ang):
   XX=            -57.6519   YY=            -60.1360   ZZ=            -75.0209
   XY=             -0.0870   XZ=             -0.8988   YZ=              0.7510

 Normal termination of Gaussian 16 at Fri Dec  8 01:56:34 2023.
