 Gaussian 16, Revision B.01,
 Gaussian 16:  ES64L-G16RevB.01 20-Dec-2017

 -------------------------
 #P B3LYP/6-311+g(d) force
 -------------------------

 -----
 DPGEN
 -----
 Symbolic Z-matrix:
 Charge =  0 Multiplicity = 2

                         Standard orientation:
 ---------------------------------------------------------------------
 Center     Atomic      Atomic             Coordinates (Angstroms)
 Number     Number       Type             X           Y           Z
 ---------------------------------------------------------------------
      1         11           0        1.102006   -2.770048   -0.386893
      2         11           0       -3.298484    1.308365   -0.068787
      3         11           0       -2.142788   -1.829481   -0.426975
      4         11           0        0.027041   -0.289298    2.461688
      5         11           0        1.060204    3.220971   -0.199320
      6         11           0        3.307982    0.018162   -0.192604
      7         11           0       -0.055961    0.341329   -1.187109
 ---------------------------------------------------------------------

 SCF Done:  E(UB3LYP) =  -1136.12946580     A.U. after   20 cycles

 The electronic state is 2-A.
 Alpha  occ. eigenvalues --  -38.44642 -38.44509 -38.43960 -38.43928 -38.43527
 Alpha  occ. eigenvalues --  -38.43191 -38.42988  -2.20427  -2.20293  -2.19751
 Alpha  occ. eigenvalues --   -2.19740  -2.19421  -2.19044  -2.18989  -1.14108
 Alpha  occ. eigenvalues --   -1.14088  -1.14055  -1.13959  -1.13952  -1.13939
 Alpha  occ. eigenvalues --   -1.13435  -1.13399  -1.13392  -1.13371  -1.13367
 Alpha  occ. eigenvalues --   -1.13365  -1.13159  -1.13070  -1.13042  -1.12736
 Alpha  occ. eigenvalues --   -1.12698  -1.12689  -1.12682  -1.12642  -1.12601
 Alpha  occ. eigenvalues --   -0.18090  -0.12964  -0.12160  -0.10646
 Alpha virt. eigenvalues --   -0.06337  -0.05039  -0.04818  -0.02960  -0.02760
 Alpha virt. eigenvalues --   -0.02549  -0.01928  -0.01262  -0.00879  -0.00449
 Alpha virt. eigenvalues --   -0.00063   0.00275   0.00715   0.00746   0.00844

  Beta  occ. eigenvalues --  -38.44639 -38.44510 -38.43961 -38.43801 -38.43516
  Beta  occ. eigenvalues --  -38.43183 -38.42959  -2.20422  -2.20296  -2.19743
  Beta  occ. eigenvalues --   -2.19515  -2.19404  -2.19032  -2.18938  -1.14095
  Beta  occ. eigenvalues --   -1.14083  -1.14055  -1.13957  -1.13951  -1.13941
  Beta  occ. eigenvalues --   -1.13434  -1.13395  -1.13370  -1.13233  -1.13208
  Beta  occ. eigenvalues --   -1.13201  -1.13144  -1.13038  -1.13033  -1.12723
  Beta  occ. eigenvalues --   -1.12684  -1.12670  -1.12637  -1.12602  -1.12566
  Beta  occ. eigenvalues --   -0.17424  -0.12806  -0.11999
  Beta virt. eigenvalues --   -0.06508  -0.06314  -0.04976  -0.04800  -0.02287
  Beta virt. eigenvalues --   -0.01923  -0.01838  -0.01557  -0.01181  -0.00896
  Beta virt. eigenvalues --   -0.00478   0.00157   0.00339   0.00729   0.00834

 Mulliken charges and spin densities:
               1          2
     1  Na   0.263456   0.091959
     2  Na   0.125445   0.043106
     3  Na   0.537180   0.106674
     4  Na  -0.673562   0.752533
     5  Na   0.045105   0.022814
     6  Na   0.183458   0.033002
     7  Na  -0.481082  -0.050087
 Sum of Mulliken charges =  -0.00000   1.00000

 Dipole moment (field-independent basis, Debye):
    X=              0.0604    Y=              0.3933    Z=              0.1665  Tot=              0.4313
 Quadrupole moment (field-independent basis, Debye-Ang):
   XX=            -54.0979   YY=            -61.9746   ZZ=            -76.4796
   XY=             -1.7701   XZ=             -0.1952   YZ=              1.4642

 Normal termination of Gaussian 16 at Fri Dec  8 04:48:54 2023.
