 Gaussian 16, Revision B.01,
 Gaussian 16:  ES64L-G16RevB.01 20-Dec-2017

 -------------------------
 #P B3LYP/6-311+g(d) force
 -------------------------

 -----
 DPGEN
 -----
 Symbolic Z-matrix:
 Charge =  0 Multiplicity = 2

                         Standard orientation:
 ---------------------------------------------------------------------
 Center     Atomic      Atomic             Coordinates (Angstroms)
 Number     Number       Type             X           Y           Z
 ---------------------------------------------------------------------
      1         11           0        0.572563   -1.796701    0.895326
      2         11           0        4.055880   -2.642329   -0.492877
      3         11           0        2.831495    0.129750   -0.236894
      4         11           0        0.905573    4.114774   -0.551480
      5         11           0       -0.108401    1.737849    1.199548
      6         11           0       -2.139356   -0.402509   -0.550708
      7         11           0       -6.117755   -1.140835   -0.262916
 ---------------------------------------------------------------------

 SCF Done:  E(UB3LYP) =  -1136.11525843     A.U. after   20 cycles

 The electronic state is 2-A.
 Alpha  occ. eigenvalues --  -38.44885 -38.44488 -38.44391 -38.44270 -38.43725
 Alpha  occ. eigenvalues --  -38.43689 -38.43641  -2.20657  -2.20369  -2.20221
 Alpha  occ. eigenvalues --   -2.20154  -2.19581  -2.19519  -2.19447  -1.14291
 Alpha  occ. eigenvalues --   -1.14290  -1.14256  -1.14103  -1.14063  -1.14045
 Alpha  occ. eigenvalues --   -1.13866  -1.13860  -1.13843  -1.13832  -1.13801
 Alpha  occ. eigenvalues --   -1.13726  -1.13299  -1.13260  -1.13252  -1.13205
 Alpha  occ. eigenvalues --   -1.13193  -1.13149  -1.13097  -1.13091  -1.13049
 Alpha  occ. eigenvalues --   -0.17287  -0.13476  -0.12602  -0.11083
 Alpha virt. eigenvalues --   -0.06178  -0.05401  -0.05124  -0.03371  -0.02744
 Alpha virt. eigenvalues --   -0.02338  -0.02040  -0.01491  -0.01391  -0.00855
 Alpha virt. eigenvalues --   -0.00651  -0.00147   0.00190   0.00438   0.00529

  Beta  occ. eigenvalues --  -38.44753 -38.44485 -38.44367 -38.44233 -38.43742
  Beta  occ. eigenvalues --  -38.43682 -38.43618  -2.20411  -2.20365  -2.20177
  Beta  occ. eigenvalues --   -2.20088  -2.19573  -2.19558  -2.19402  -1.14124
  Beta  occ. eigenvalues --   -1.14124  -1.14093  -1.14084  -1.14057  -1.14038
  Beta  occ. eigenvalues --   -1.13837  -1.13827  -1.13801  -1.13790  -1.13781
  Beta  occ. eigenvalues --   -1.13674  -1.13294  -1.13262  -1.13253  -1.13224
  Beta  occ. eigenvalues --   -1.13208  -1.13137  -1.13066  -1.13059  -1.13022
  Beta  occ. eigenvalues --   -0.16940  -0.13114  -0.11740
  Beta virt. eigenvalues --   -0.07682  -0.05801  -0.05205  -0.04890  -0.03090
  Beta virt. eigenvalues --   -0.02545  -0.02112  -0.01872  -0.00993  -0.00863
  Beta virt. eigenvalues --   -0.00633  -0.00266   0.00053   0.00311   0.00540

 Mulliken charges and spin densities:
               1          2
     1  Na  -0.245602   0.032351
     2  Na   0.749406   0.068833
     3  Na  -0.671615   0.119697
     4  Na   0.242671   0.129369
     5  Na  -0.000005   0.069096
     6  Na  -0.029405  -0.062338
     7  Na  -0.045450   0.642991
 Sum of Mulliken charges =  -0.00000   1.00000

 Dipole moment (field-independent basis, Debye):
    X=              1.1616    Y=             -0.9459    Z=             -0.0499  Tot=              1.4988
 Quadrupole moment (field-independent basis, Debye-Ang):
   XX=            -67.4057   YY=            -63.6778   ZZ=            -68.3759
   XY=             -6.4925   XZ=             -2.2831   YZ=             -2.2583

 Normal termination of Gaussian 16 at Tue Nov 28 19:29:13 2023.
