 Gaussian 16, Revision B.01,
 Gaussian 16:  ES64L-G16RevB.01 20-Dec-2017

 -------------------------
 #P B3LYP/6-311+g(d) force
 -------------------------

 -----
 DPGEN
 -----
 Symbolic Z-matrix:
 Charge =  0 Multiplicity = 2

                         Standard orientation:
 ---------------------------------------------------------------------
 Center     Atomic      Atomic             Coordinates (Angstroms)
 Number     Number       Type             X           Y           Z
 ---------------------------------------------------------------------
      1         11           0        0.316956   -0.743256   -0.425459
      2         11           0       -2.095201    0.544701   -1.939251
      3         11           0       -2.626955   -2.328283    0.012014
      4         11           0       -0.317646    2.589836    0.202353
      5         11           0       -1.825881    0.480333    2.184063
      6         11           0        3.728005   -1.661212    0.276128
      7         11           0        2.820722    1.117882   -0.309848
 ---------------------------------------------------------------------

 SCF Done:  E(UB3LYP) =  -1136.12468069     A.U. after   21 cycles

 The electronic state is 2-A.
 Alpha  occ. eigenvalues --  -38.44360 -38.44232 -38.44226 -38.44189 -38.43499
 Alpha  occ. eigenvalues --  -38.43403 -38.42303  -2.20252  -2.20138  -2.20060
 Alpha  occ. eigenvalues --   -2.20057  -2.19502  -2.19234  -2.18204  -1.13960
 Alpha  occ. eigenvalues --   -1.13911  -1.13882  -1.13843  -1.13838  -1.13786
 Alpha  occ. eigenvalues --   -1.13720  -1.13703  -1.13699  -1.13695  -1.13659
 Alpha  occ. eigenvalues --   -1.13622  -1.13218  -1.13163  -1.13131  -1.12904
 Alpha  occ. eigenvalues --   -1.12886  -1.12877  -1.11884  -1.11863  -1.11856
 Alpha  occ. eigenvalues --   -0.18379  -0.14052  -0.11665  -0.11138
 Alpha virt. eigenvalues --   -0.06115  -0.05524  -0.03879  -0.03321  -0.02983
 Alpha virt. eigenvalues --   -0.02605  -0.02004  -0.01168  -0.00553  -0.00502
 Alpha virt. eigenvalues --    0.00187   0.00283   0.00504   0.00752   0.00802

  Beta  occ. eigenvalues --  -38.44282 -38.44233 -38.44229 -38.44090 -38.43482
  Beta  occ. eigenvalues --  -38.43399 -38.42297  -2.20140  -2.20109  -2.20067
  Beta  occ. eigenvalues --   -2.19873  -2.19476  -2.19229  -2.18197  -1.13916
  Beta  occ. eigenvalues --   -1.13859  -1.13840  -1.13785  -1.13785  -1.13739
  Beta  occ. eigenvalues --   -1.13707  -1.13704  -1.13627  -1.13595  -1.13572
  Beta  occ. eigenvalues --   -1.13526  -1.13155  -1.13153  -1.13120  -1.12904
  Beta  occ. eigenvalues --   -1.12879  -1.12856  -1.11882  -1.11864  -1.11815
  Beta  occ. eigenvalues --   -0.17711  -0.13838  -0.11456
  Beta virt. eigenvalues --   -0.07118  -0.05873  -0.05465  -0.03724  -0.02957
  Beta virt. eigenvalues --   -0.02230  -0.01951  -0.01690  -0.01072  -0.00475
  Beta virt. eigenvalues --   -0.00125   0.00249   0.00323   0.00699   0.00757

 Mulliken charges and spin densities:
               1          2
     1  Na  -1.791628   0.663421
     2  Na   0.394280   0.031580
     3  Na   0.343388   0.017161
     4  Na   0.495195   0.233023
     5  Na  -0.399247   0.295907
     6  Na   0.450410  -0.097776
     7  Na   0.507602  -0.143317
 Sum of Mulliken charges =  -0.00000   1.00000

 Dipole moment (field-independent basis, Debye):
    X=              0.3675    Y=             -0.1908    Z=              0.0094  Tot=              0.4142
 Quadrupole moment (field-independent basis, Debye-Ang):
   XX=            -55.5357   YY=            -67.2229   ZZ=            -70.7615
   XY=             -0.7634   XZ=              1.8030   YZ=             -2.5285

 Normal termination of Gaussian 16 at Tue Dec  5 10:42:42 2023.
