 Gaussian 16, Revision B.01,
 Gaussian 16:  ES64L-G16RevB.01 20-Dec-2017

 -------------------------
 #P B3LYP/6-311+g(d) force
 -------------------------

 -----
 DPGEN
 -----
 Symbolic Z-matrix:
 Charge =  0 Multiplicity = 2

                         Standard orientation:
 ---------------------------------------------------------------------
 Center     Atomic      Atomic             Coordinates (Angstroms)
 Number     Number       Type             X           Y           Z
 ---------------------------------------------------------------------
      1         11           0        3.230827   -1.229488   -0.022857
      2         11           0       -1.452445    2.339129   -0.481426
      3         11           0        2.434014    1.861539    0.110771
      4         11           0       -0.144170   -0.327204   -1.731314
      5         11           0       -0.258098   -2.485489    0.521372
      6         11           0       -2.944636   -0.968122   -0.181672
      7         11           0       -0.865492    0.809635    1.785126
 ---------------------------------------------------------------------

 SCF Done:  E(UB3LYP) =  -1136.12761901     A.U. after   20 cycles

 The electronic state is 2-A.
 Alpha  occ. eigenvalues --  -38.44274 -38.44218 -38.44117 -38.43514 -38.43408
 Alpha  occ. eigenvalues --  -38.43385 -38.43158  -2.20184  -2.20022  -2.19928
 Alpha  occ. eigenvalues --   -2.19492  -2.19370  -2.19342  -2.19063  -1.13872
 Alpha  occ. eigenvalues --   -1.13850  -1.13819  -1.13736  -1.13688  -1.13661
 Alpha  occ. eigenvalues --   -1.13602  -1.13579  -1.13545  -1.13394  -1.13136
 Alpha  occ. eigenvalues --   -1.13084  -1.13076  -1.13070  -1.12978  -1.12946
 Alpha  occ. eigenvalues --   -1.12923  -1.12906  -1.12745  -1.12713  -1.12682
 Alpha  occ. eigenvalues --   -0.18968  -0.13462  -0.12328  -0.10787
 Alpha virt. eigenvalues --   -0.06014  -0.05463  -0.04181  -0.03236  -0.02976
 Alpha virt. eigenvalues --   -0.02372  -0.01710  -0.01092  -0.00337  -0.00178
 Alpha virt. eigenvalues --   -0.00015   0.00343   0.00820   0.00855   0.00880

  Beta  occ. eigenvalues --  -38.44263 -38.44220 -38.44117 -38.43443 -38.43392
  Beta  occ. eigenvalues --  -38.43308 -38.43144  -2.20169  -2.20029  -2.19929
  Beta  occ. eigenvalues --   -2.19369  -2.19311  -2.19230  -2.19041  -1.13867
  Beta  occ. eigenvalues --   -1.13816  -1.13795  -1.13742  -1.13684  -1.13666
  Beta  occ. eigenvalues --   -1.13588  -1.13580  -1.13550  -1.13332  -1.13053
  Beta  occ. eigenvalues --   -1.12996  -1.12994  -1.12983  -1.12910  -1.12884
  Beta  occ. eigenvalues --   -1.12865  -1.12844  -1.12725  -1.12676  -1.12661
  Beta  occ. eigenvalues --   -0.18215  -0.13287  -0.12088
  Beta virt. eigenvalues --   -0.06789  -0.05918  -0.05457  -0.04126  -0.02578
  Beta virt. eigenvalues --   -0.02193  -0.01664  -0.01301  -0.01062  -0.00361
  Beta virt. eigenvalues --   -0.00166   0.00142   0.00386   0.00838   0.00902

 Mulliken charges and spin densities:
               1          2
     1  Na  -0.018171  -0.055459
     2  Na   0.186532  -0.112537
     3  Na  -0.106233  -0.093699
     4  Na  -0.164728   0.578047
     5  Na  -0.248472   0.028493
     6  Na   0.575760   0.081156
     7  Na  -0.224688   0.573999
 Sum of Mulliken charges =  -0.00000   1.00000

 Dipole moment (field-independent basis, Debye):
    X=              0.1638    Y=             -0.0839    Z=             -0.0079  Tot=              0.1842
 Quadrupole moment (field-independent basis, Debye-Ang):
   XX=            -53.9388   YY=            -66.6174   ZZ=            -73.8857
   XY=              0.1936   XZ=              1.1827   YZ=             -1.6076

 Normal termination of Gaussian 16 at Tue Dec  5 16:42:40 2023.
