 Gaussian 16, Revision B.01,
 Gaussian 16:  ES64L-G16RevB.01 20-Dec-2017

 -------------------------
 #P B3LYP/6-311+g(d) force
 -------------------------

 -----
 DPGEN
 -----
 Symbolic Z-matrix:
 Charge =  0 Multiplicity = 2

                         Standard orientation:
 ---------------------------------------------------------------------
 Center     Atomic      Atomic             Coordinates (Angstroms)
 Number     Number       Type             X           Y           Z
 ---------------------------------------------------------------------
      1         11           0       -0.031259   -0.541091   -1.441931
      2         11           0       -0.605047    2.544661    0.140435
      3         11           0       -3.195541    0.749894   -0.318507
      4         11           0        0.283577   -0.213313    2.209574
      5         11           0        3.005715   -1.974726   -0.140899
      6         11           0       -2.259660   -2.271774   -0.015072
      7         11           0        2.802216    1.706350   -0.433602
 ---------------------------------------------------------------------

 SCF Done:  E(UB3LYP) =  -1136.12794769     A.U. after   22 cycles

 The electronic state is 2-A.
 Alpha  occ. eigenvalues --  -38.44523 -38.44499 -38.44440 -38.43870 -38.43711
 Alpha  occ. eigenvalues --  -38.43711 -38.42556  -2.20315  -2.20309  -2.20266
 Alpha  occ. eigenvalues --   -2.19724  -2.19635  -2.19560  -2.18437  -1.13995
 Alpha  occ. eigenvalues --   -1.13986  -1.13970  -1.13969  -1.13961  -1.13953
 Alpha  occ. eigenvalues --   -1.13941  -1.13920  -1.13904  -1.13455  -1.13378
 Alpha  occ. eigenvalues --   -1.13361  -1.13330  -1.13276  -1.13237  -1.13217
 Alpha  occ. eigenvalues --   -1.13178  -1.13175  -1.12123  -1.12093  -1.12085
 Alpha  occ. eigenvalues --   -0.18281  -0.13580  -0.11779  -0.10610
 Alpha virt. eigenvalues --   -0.06299  -0.06007  -0.03933  -0.03385  -0.02638
 Alpha virt. eigenvalues --   -0.02506  -0.02107  -0.01518  -0.00757  -0.00166
 Alpha virt. eigenvalues --   -0.00046   0.00245   0.00606   0.00679   0.00825

  Beta  occ. eigenvalues --  -38.44512 -38.44499 -38.44433 -38.43867 -38.43677
  Beta  occ. eigenvalues --  -38.43595 -38.42550  -2.20298  -2.20296  -2.20268
  Beta  occ. eigenvalues --   -2.19722  -2.19575  -2.19346  -2.18429  -1.13981
  Beta  occ. eigenvalues --   -1.13972  -1.13964  -1.13957  -1.13943  -1.13937
  Beta  occ. eigenvalues --   -1.13935  -1.13915  -1.13904  -1.13443  -1.13379
  Beta  occ. eigenvalues --   -1.13338  -1.13284  -1.13234  -1.13194  -1.13074
  Beta  occ. eigenvalues --   -1.13030  -1.13023  -1.12121  -1.12085  -1.12057
  Beta  occ. eigenvalues --   -0.17600  -0.13345  -0.11601
  Beta virt. eigenvalues --   -0.06678  -0.06261  -0.05908  -0.03911  -0.02691
  Beta virt. eigenvalues --   -0.02023  -0.01822  -0.01644  -0.01312  -0.00782
  Beta virt. eigenvalues --   -0.00146   0.00115   0.00308   0.00691   0.00713

 Mulliken charges and spin densities:
               1          2
     1  Na  -0.366689   0.029372
     2  Na   0.038170   0.094306
     3  Na   0.111785   0.027526
     4  Na  -0.494264   0.628551
     5  Na   0.136630   0.044778
     6  Na   0.487441   0.130615
     7  Na   0.086928   0.044852
 Sum of Mulliken charges =  -0.00000   1.00000

 Dipole moment (field-independent basis, Debye):
    X=              0.3506    Y=             -0.3529    Z=              0.0235  Tot=              0.4980
 Quadrupole moment (field-independent basis, Debye-Ang):
   XX=            -51.3132   YY=            -67.0173   ZZ=            -75.2383
   XY=              0.0870   XZ=             -0.3809   YZ=             -1.1207

 Normal termination of Gaussian 16 at Thu Dec  7 04:45:52 2023.
