 Gaussian 16, Revision B.01,
 Gaussian 16:  ES64L-G16RevB.01 20-Dec-2017

 -------------------------
 #P B3LYP/6-311+g(d) force
 -------------------------

 -----
 DPGEN
 -----
 Symbolic Z-matrix:
 Charge =  0 Multiplicity = 2

                         Standard orientation:
 ---------------------------------------------------------------------
 Center     Atomic      Atomic             Coordinates (Angstroms)
 Number     Number       Type             X           Y           Z
 ---------------------------------------------------------------------
      1         11           0       -3.101005    1.560771    0.189727
      2         11           0        1.064240   -2.590691   -0.044999
      3         11           0       -2.583091   -1.881319   -0.275241
      4         11           0       -0.482220    0.395049   -1.266760
      5         11           0        1.361119    2.867026   -0.182188
      6         11           0        3.079242   -0.307030   -0.613340
      7         11           0        0.661715   -0.043806    2.192801
 ---------------------------------------------------------------------

 SCF Done:  E(UB3LYP) =  -1136.13099768     A.U. after   20 cycles

 The electronic state is 2-A.
 Alpha  occ. eigenvalues --  -38.44785 -38.44230 -38.44119 -38.43571 -38.43480
 Alpha  occ. eigenvalues --  -38.43094 -38.43015  -2.20582  -2.20093  -2.19942
 Alpha  occ. eigenvalues --   -2.19385  -2.19349  -2.19081  -2.18902  -1.14267
 Alpha  occ. eigenvalues --   -1.14240  -1.14212  -1.13785  -1.13748  -1.13721
 Alpha  occ. eigenvalues --   -1.13639  -1.13601  -1.13564  -1.13082  -1.13043
 Alpha  occ. eigenvalues --   -1.13021  -1.13009  -1.12973  -1.12962  -1.12777
 Alpha  occ. eigenvalues --   -1.12733  -1.12712  -1.12582  -1.12559  -1.12541
 Alpha  occ. eigenvalues --   -0.18341  -0.13447  -0.12108  -0.10416
 Alpha virt. eigenvalues --   -0.06222  -0.05448  -0.04469  -0.03229  -0.02580
 Alpha virt. eigenvalues --   -0.02405  -0.01863  -0.01312  -0.00707  -0.00370
 Alpha virt. eigenvalues --   -0.00026   0.00303   0.00700   0.00755   0.00870

  Beta  occ. eigenvalues --  -38.44788 -38.44210 -38.44116 -38.43567 -38.43371
  Beta  occ. eigenvalues --  -38.43061 -38.43007  -2.20587  -2.20058  -2.19938
  Beta  occ. eigenvalues --   -2.19381  -2.19148  -2.19025  -2.18892  -1.14268
  Beta  occ. eigenvalues --   -1.14238  -1.14216  -1.13763  -1.13702  -1.13699
  Beta  occ. eigenvalues --   -1.13632  -1.13591  -1.13565  -1.13076  -1.13028
  Beta  occ. eigenvalues --   -1.13013  -1.12876  -1.12834  -1.12820  -1.12726
  Beta  occ. eigenvalues --   -1.12691  -1.12670  -1.12578  -1.12542  -1.12512
  Beta  occ. eigenvalues --   -0.17666  -0.13240  -0.11906
  Beta virt. eigenvalues --   -0.06494  -0.06150  -0.05377  -0.04438  -0.02584
  Beta virt. eigenvalues --   -0.01873  -0.01772  -0.01329  -0.01239  -0.00704
  Beta virt. eigenvalues --   -0.00377   0.00164   0.00370   0.00740   0.00815

 Mulliken charges and spin densities:
               1          2
     1  Na   0.057539  -0.023761
     2  Na   0.176923   0.073776
     3  Na   0.119159  -0.016792
     4  Na  -0.038515   0.142991
     5  Na   0.036710   0.003895
     6  Na   0.240026   0.103138
     7  Na  -0.591842   0.716752
 Sum of Mulliken charges =  -0.00000   1.00000

 Dipole moment (field-independent basis, Debye):
    X=             -0.6669    Y=              0.3319    Z=              0.1590  Tot=              0.7617
 Quadrupole moment (field-independent basis, Debye-Ang):
   XX=            -53.4200   YY=            -63.1525   ZZ=            -76.0715
   XY=             -0.1938   XZ=             -2.3331   YZ=              1.2857

 Normal termination of Gaussian 16 at Fri Dec  8 06:07:07 2023.
