 Gaussian 16, Revision B.01,
 Gaussian 16:  ES64L-G16RevB.01 20-Dec-2017

 -------------------------
 #P B3LYP/6-311+g(d) force
 -------------------------

 -----
 DPGEN
 -----
 Symbolic Z-matrix:
 Charge =  0 Multiplicity = 2

                         Standard orientation:
 ---------------------------------------------------------------------
 Center     Atomic      Atomic             Coordinates (Angstroms)
 Number     Number       Type             X           Y           Z
 ---------------------------------------------------------------------
      1         11           0       -0.632569    2.560607    0.160162
      2         11           0        0.610807    0.006727    1.922601
      3         11           0        2.857014    1.556344   -0.245073
      4         11           0       -0.447153   -0.062143   -1.897979
      5         11           0       -3.408085    0.248526    0.005792
      6         11           0       -1.112093   -2.212509    0.406263
      7         11           0        2.132080   -2.097553   -0.351766
 ---------------------------------------------------------------------

 SCF Done:  E(UB3LYP) =  -1136.13681963     A.U. after   18 cycles

 The electronic state is 2-A.
 Alpha  occ. eigenvalues --  -38.44302 -38.44082 -38.43665 -38.43479 -38.43464
 Alpha  occ. eigenvalues --  -38.43204 -38.42943  -2.20118  -2.19886  -2.19594
 Alpha  occ. eigenvalues --   -2.19410  -2.19335  -2.19068  -2.18882  -1.13785
 Alpha  occ. eigenvalues --   -1.13783  -1.13761  -1.13562  -1.13542  -1.13528
 Alpha  occ. eigenvalues --   -1.13286  -1.13246  -1.13197  -1.13102  -1.13058
 Alpha  occ. eigenvalues --   -1.13038  -1.13001  -1.12985  -1.12974  -1.12759
 Alpha  occ. eigenvalues --   -1.12750  -1.12668  -1.12574  -1.12551  -1.12486
 Alpha  occ. eigenvalues --   -0.18778  -0.13090  -0.12268  -0.10949
 Alpha virt. eigenvalues --   -0.05963  -0.05072  -0.04149  -0.03344  -0.02955
 Alpha virt. eigenvalues --   -0.02648  -0.01805  -0.01037  -0.00198  -0.00072
 Alpha virt. eigenvalues --    0.00024   0.00340   0.00757   0.00874   0.00914

  Beta  occ. eigenvalues --  -38.44303 -38.44080 -38.43590 -38.43472 -38.43382
  Beta  occ. eigenvalues --  -38.43196 -38.42928  -2.20122  -2.19884  -2.19456
  Beta  occ. eigenvalues --   -2.19324  -2.19260  -2.19056  -2.18858  -1.13789
  Beta  occ. eigenvalues --   -1.13770  -1.13765  -1.13551  -1.13535  -1.13527
  Beta  occ. eigenvalues --   -1.13196  -1.13148  -1.13096  -1.13022  -1.12989
  Beta  occ. eigenvalues --   -1.12980  -1.12965  -1.12931  -1.12913  -1.12752
  Beta  occ. eigenvalues --   -1.12711  -1.12665  -1.12561  -1.12493  -1.12477
  Beta  occ. eigenvalues --   -0.18017  -0.12904  -0.12013
  Beta virt. eigenvalues --   -0.07016  -0.05875  -0.05068  -0.04113  -0.02626
  Beta virt. eigenvalues --   -0.02145  -0.01719  -0.01602  -0.00986  -0.00199
  Beta virt. eigenvalues --   -0.00035   0.00086   0.00359   0.00837   0.00881

 Mulliken charges and spin densities:
               1          2
     1  Na   0.095657  -0.138352
     2  Na  -0.255323   0.558415
     3  Na   0.032379  -0.081625
     4  Na  -0.523763   0.730040
     5  Na   0.154552  -0.069877
     6  Na   0.385896   0.025776
     7  Na   0.110602  -0.024378
 Sum of Mulliken charges =  -0.00000   1.00000

 Dipole moment (field-independent basis, Debye):
    X=             -0.0098    Y=              0.1934    Z=             -0.1349  Tot=              0.2360
 Quadrupole moment (field-independent basis, Debye-Ang):
   XX=            -52.8585   YY=            -67.8296   ZZ=            -72.5726
   XY=             -0.4160   XZ=             -2.0797   YZ=             -0.0150

 Normal termination of Gaussian 16 at Mon Dec  4 02:58:31 2023.
