 Gaussian 16, Revision B.01,
 Gaussian 16:  ES64L-G16RevB.01 20-Dec-2017

 -------------------------
 #P B3LYP/6-311+g(d) force
 -------------------------

 -----
 DPGEN
 -----
 Symbolic Z-matrix:
 Charge =  0 Multiplicity = 2

                         Standard orientation:
 ---------------------------------------------------------------------
 Center     Atomic      Atomic             Coordinates (Angstroms)
 Number     Number       Type             X           Y           Z
 ---------------------------------------------------------------------
      1         11           0        1.669070   -2.093517    0.945103
      2         11           0        2.293985   -0.376963   -1.669162
      3         11           0        3.029955    1.665813    0.324544
      4         11           0       -0.701949    2.777662    0.313786
      5         11           0       -1.731413   -0.469626    2.097378
      6         11           0       -3.440641    0.531513   -1.235714
      7         11           0       -1.119006   -2.034882   -0.775935
 ---------------------------------------------------------------------

 SCF Done:  E(UB3LYP) =  -1136.12355598     A.U. after   20 cycles

 The electronic state is 2-A.
 Alpha  occ. eigenvalues --  -38.44317 -38.44310 -38.44267 -38.44132 -38.44042
 Alpha  occ. eigenvalues --  -38.43919 -38.43412  -2.20200  -2.20118  -2.20093
 Alpha  occ. eigenvalues --   -2.19955  -2.19787  -2.19775  -2.19283  -1.13963
 Alpha  occ. eigenvalues --   -1.13854  -1.13840  -1.13782  -1.13770  -1.13760
 Alpha  occ. eigenvalues --   -1.13752  -1.13736  -1.13700  -1.13611  -1.13590
 Alpha  occ. eigenvalues --   -1.13571  -1.13473  -1.13462  -1.13457  -1.13430
 Alpha  occ. eigenvalues --   -1.13409  -1.13408  -1.12965  -1.12959  -1.12909
 Alpha  occ. eigenvalues --   -0.17564  -0.13771  -0.11917  -0.10759
 Alpha virt. eigenvalues --   -0.06020  -0.05467  -0.05116  -0.03624  -0.02932
 Alpha virt. eigenvalues --   -0.02580  -0.01578  -0.01033  -0.00499  -0.00440
 Alpha virt. eigenvalues --   -0.00218   0.00266   0.00322   0.00474   0.00590

  Beta  occ. eigenvalues --  -38.44285 -38.44266 -38.44203 -38.44135 -38.44034
  Beta  occ. eigenvalues --  -38.43907 -38.43396  -2.20152  -2.20022  -2.19976
  Beta  occ. eigenvalues --   -2.19962  -2.19774  -2.19756  -2.19257  -1.13937
  Beta  occ. eigenvalues --   -1.13825  -1.13806  -1.13712  -1.13704  -1.13684
  Beta  occ. eigenvalues --   -1.13672  -1.13664  -1.13613  -1.13609  -1.13591
  Beta  occ. eigenvalues --   -1.13571  -1.13455  -1.13449  -1.13446  -1.13413
  Beta  occ. eigenvalues --   -1.13403  -1.13378  -1.12951  -1.12923  -1.12877
  Beta  occ. eigenvalues --   -0.17006  -0.13441  -0.11747
  Beta virt. eigenvalues --   -0.07158  -0.05856  -0.05288  -0.04524  -0.03458
  Beta virt. eigenvalues --   -0.02379  -0.01838  -0.01375  -0.00905  -0.00420
  Beta virt. eigenvalues --   -0.00190  -0.00090   0.00411   0.00474   0.00636

 Mulliken charges and spin densities:
               1          2
     1  Na   0.817119   0.196542
     2  Na  -0.210425  -0.007909
     3  Na  -0.188588  -0.078371
     4  Na  -0.044626   0.145472
     5  Na  -0.523229   0.255305
     6  Na   0.003713   0.077131
     7  Na   0.146036   0.411830
 Sum of Mulliken charges =  -0.00000   1.00000

 Dipole moment (field-independent basis, Debye):
    X=              0.1909    Y=              0.0011    Z=              0.1413  Tot=              0.2375
 Quadrupole moment (field-independent basis, Debye-Ang):
   XX=            -59.4014   YY=            -71.5455   ZZ=            -67.6328
   XY=             -1.3082   XZ=              1.7357   YZ=             -0.5553

 Normal termination of Gaussian 16 at Sun Dec  3 13:01:07 2023.
