 Gaussian 16, Revision B.01,
 Gaussian 16:  ES64L-G16RevB.01 20-Dec-2017

 -------------------------
 #P B3LYP/6-311+g(d) force
 -------------------------

 -----
 DPGEN
 -----
 Symbolic Z-matrix:
 Charge =  0 Multiplicity = 2

                         Standard orientation:
 ---------------------------------------------------------------------
 Center     Atomic      Atomic             Coordinates (Angstroms)
 Number     Number       Type             X           Y           Z
 ---------------------------------------------------------------------
      1         11           0       -0.434342   -1.945334   -0.022774
      2         11           0        0.042453   -0.079380    1.887358
      3         11           0        1.791815    1.618449    0.108387
      4         11           0       -1.034627    1.757631    0.059628
      5         11           0       -2.638239   -0.265483   -0.101037
      6         11           0        0.162840    0.170561   -1.841920
      7         11           0        2.110099   -1.256444   -0.089642
 ---------------------------------------------------------------------

 SCF Done:  E(UB3LYP) =  -1136.06684535     A.U. after   20 cycles

 The electronic state is 2-A.
 Alpha  occ. eigenvalues --  -38.44629 -38.44518 -38.44330 -38.43816 -38.43778
 Alpha  occ. eigenvalues --  -38.43605 -38.43425  -2.20861  -2.20769  -2.20436
 Alpha  occ. eigenvalues --   -2.20030  -2.19978  -2.19843  -2.19553  -1.14723
 Alpha  occ. eigenvalues --   -1.14604  -1.14564  -1.14507  -1.14484  -1.14426
 Alpha  occ. eigenvalues --   -1.14370  -1.14209  -1.13991  -1.13951  -1.13707
 Alpha  occ. eigenvalues --   -1.13657  -1.13609  -1.13560  -1.13493  -1.13436
 Alpha  occ. eigenvalues --   -1.13422  -1.13241  -1.13196  -1.13177  -1.13100
 Alpha  occ. eigenvalues --   -0.22019  -0.14009  -0.12836  -0.12690
 Alpha virt. eigenvalues --   -0.05215  -0.04137  -0.03940  -0.03897  -0.03300
 Alpha virt. eigenvalues --   -0.03045  -0.01052  -0.00369  -0.00164   0.00327
 Alpha virt. eigenvalues --    0.00853   0.00915   0.01065   0.01190   0.01281

  Beta  occ. eigenvalues --  -38.44526 -38.44420 -38.44322 -38.43804 -38.43758
  Beta  occ. eigenvalues --  -38.43585 -38.43412  -2.20676  -2.20592  -2.20427
  Beta  occ. eigenvalues --   -2.20004  -2.19960  -2.19818  -2.19536  -1.14632
  Beta  occ. eigenvalues --   -1.14494  -1.14448  -1.14442  -1.14369  -1.14317
  Beta  occ. eigenvalues --   -1.14265  -1.14185  -1.13941  -1.13935  -1.13691
  Beta  occ. eigenvalues --   -1.13649  -1.13519  -1.13488  -1.13483  -1.13412
  Beta  occ. eigenvalues --   -1.13340  -1.13234  -1.13190  -1.13111  -1.13096
  Beta  occ. eigenvalues --   -0.21140  -0.13620  -0.12428
  Beta virt. eigenvalues --   -0.08461  -0.05243  -0.04127  -0.03843  -0.02902
  Beta virt. eigenvalues --   -0.02355  -0.02028  -0.00978  -0.00331  -0.00002
  Beta virt. eigenvalues --    0.00347   0.00866   0.00897   0.01095   0.01184

 Mulliken charges and spin densities:
               1          2
     1  Na   0.121018   0.053786
     2  Na  -0.069180   0.501701
     3  Na   0.063023  -0.010007
     4  Na   0.046476   0.043006
     5  Na  -0.227601  -0.081235
     6  Na  -0.027893   0.505408
     7  Na   0.094157  -0.012658
 Sum of Mulliken charges =  -0.00000   1.00000

 Dipole moment (field-independent basis, Debye):
    X=              0.0411    Y=              0.0318    Z=              0.0258  Tot=              0.0580
 Quadrupole moment (field-independent basis, Debye-Ang):
   XX=            -60.3518   YY=            -72.0925   ZZ=            -66.4686
   XY=              0.5670   XZ=              0.3007   YZ=              0.5259

 Normal termination of Gaussian 16 at Thu Dec  7 08:54:47 2023.
