 Gaussian 16, Revision B.01,
 Gaussian 16:  ES64L-G16RevB.01 20-Dec-2017

 -------------------------
 #P B3LYP/6-311+g(d) force
 -------------------------

 -----
 DPGEN
 -----
 Symbolic Z-matrix:
 Charge =  0 Multiplicity = 2

                         Standard orientation:
 ---------------------------------------------------------------------
 Center     Atomic      Atomic             Coordinates (Angstroms)
 Number     Number       Type             X           Y           Z
 ---------------------------------------------------------------------
      1         11           0        1.136379   -2.582049    0.054349
      2         11           0        0.200058   -0.141502    2.265066
      3         11           0       -2.336640   -1.909374   -0.460902
      4         11           0       -0.140539    0.091489   -1.664715
      5         11           0       -2.557608    1.592807    0.337022
      6         11           0        2.946000    0.168308   -0.257330
      7         11           0        0.752350    2.780320   -0.273490
 ---------------------------------------------------------------------

 SCF Done:  E(UB3LYP) =  -1136.13930062     A.U. after   19 cycles

 The electronic state is 2-A.
 Alpha  occ. eigenvalues --  -38.44138 -38.43717 -38.43536 -38.43532 -38.43287
 Alpha  occ. eigenvalues --  -38.43266 -38.43254  -2.19999  -2.19546  -2.19407
 Alpha  occ. eigenvalues --   -2.19381  -2.19263  -2.19158  -2.19147  -1.13653
 Alpha  occ. eigenvalues --   -1.13628  -1.13618  -1.13219  -1.13216  -1.13186
 Alpha  occ. eigenvalues --   -1.13113  -1.13099  -1.13067  -1.13059  -1.13031
 Alpha  occ. eigenvalues --   -1.13009  -1.12972  -1.12923  -1.12877  -1.12820
 Alpha  occ. eigenvalues --   -1.12817  -1.12808  -1.12796  -1.12777  -1.12769
 Alpha  occ. eigenvalues --   -0.18783  -0.12835  -0.12567  -0.11233
 Alpha virt. eigenvalues --   -0.05202  -0.05049  -0.04677  -0.03302  -0.03077
 Alpha virt. eigenvalues --   -0.02985  -0.01239  -0.01046  -0.00220  -0.00106
 Alpha virt. eigenvalues --   -0.00021   0.00370   0.00850   0.00916   0.00941

  Beta  occ. eigenvalues --  -38.44034 -38.43711 -38.43527 -38.43527 -38.43282
  Beta  occ. eigenvalues --  -38.43261 -38.43193  -2.19806  -2.19538  -2.19400
  Beta  occ. eigenvalues --   -2.19368  -2.19156  -2.19148  -2.19141  -1.13526
  Beta  occ. eigenvalues --   -1.13494  -1.13479  -1.13215  -1.13192  -1.13182
  Beta  occ. eigenvalues --   -1.13096  -1.13081  -1.13064  -1.13035  -1.13014
  Beta  occ. eigenvalues --   -1.13002  -1.12922  -1.12865  -1.12816  -1.12799
  Beta  occ. eigenvalues --   -1.12794  -1.12784  -1.12772  -1.12763  -1.12751
  Beta  occ. eigenvalues --   -0.18042  -0.12610  -0.12313
  Beta virt. eigenvalues --   -0.07259  -0.05157  -0.05041  -0.04615  -0.02501
  Beta virt. eigenvalues --   -0.02298  -0.01902  -0.01154  -0.00966  -0.00234
  Beta virt. eigenvalues --   -0.00159   0.00109   0.00394   0.00912   0.00921

 Mulliken charges and spin densities:
               1          2
     1  Na   0.272766   0.032946
     2  Na  -0.662893   0.692780
     3  Na   0.186071  -0.023501
     4  Na  -0.249563   0.280373
     5  Na   0.048054   0.053803
     6  Na   0.197674  -0.023880
     7  Na   0.207890  -0.012520
 Sum of Mulliken charges =  -0.00000   1.00000

 Dipole moment (field-independent basis, Debye):
    X=             -0.1046    Y=              0.0316    Z=              0.3016  Tot=              0.3207
 Quadrupole moment (field-independent basis, Debye-Ang):
   XX=            -59.8469   YY=            -63.1883   ZZ=            -71.7575
   XY=             -0.0110   XZ=             -0.8067   YZ=              0.7101

 Normal termination of Gaussian 16 at Thu Dec  7 09:37:29 2023.
