 Gaussian 16, Revision B.01,
 Gaussian 16:  ES64L-G16RevB.01 20-Dec-2017

 -------------------------
 #P B3LYP/6-311+g(d) force
 -------------------------

 -----
 DPGEN
 -----
 Symbolic Z-matrix:
 Charge =  0 Multiplicity = 2

                         Standard orientation:
 ---------------------------------------------------------------------
 Center     Atomic      Atomic             Coordinates (Angstroms)
 Number     Number       Type             X           Y           Z
 ---------------------------------------------------------------------
      1         11           0        0.623738   -2.703191    0.695102
      2         11           0       -0.532363    0.072081    2.341153
      3         11           0        3.404299   -0.490831   -0.128119
      4         11           0        1.757639    2.692056   -0.242555
      5         11           0        0.045064   -0.257359   -2.051466
      6         11           0       -2.516505    2.212606    0.223549
      7         11           0       -2.781872   -1.525362   -0.837664
 ---------------------------------------------------------------------

 SCF Done:  E(UB3LYP) =  -1136.12872526     A.U. after   20 cycles

 The electronic state is 2-A.
 Alpha  occ. eigenvalues --  -38.44628 -38.44504 -38.44183 -38.44183 -38.43963
 Alpha  occ. eigenvalues --  -38.43763 -38.43221  -2.20448  -2.20342  -2.19985
 Alpha  occ. eigenvalues --   -2.19960  -2.19724  -2.19523  -2.19047  -1.14102
 Alpha  occ. eigenvalues --   -1.14083  -1.14068  -1.14016  -1.13978  -1.13975
 Alpha  occ. eigenvalues --   -1.13668  -1.13641  -1.13625  -1.13616  -1.13614
 Alpha  occ. eigenvalues --   -1.13603  -1.13404  -1.13378  -1.13369  -1.13210
 Alpha  occ. eigenvalues --   -1.13188  -1.13154  -1.12738  -1.12703  -1.12675
 Alpha  occ. eigenvalues --   -0.17547  -0.12722  -0.11812  -0.11537
 Alpha virt. eigenvalues --   -0.05795  -0.05460  -0.04570  -0.03423  -0.03252
 Alpha virt. eigenvalues --   -0.03126  -0.01584  -0.01179  -0.00534  -0.00436
 Alpha virt. eigenvalues --   -0.00127   0.00346   0.00590   0.00686   0.00822

  Beta  occ. eigenvalues --  -38.44532 -38.44436 -38.44185 -38.44159 -38.43962
  Beta  occ. eigenvalues --  -38.43764 -38.43204  -2.20272  -2.20218  -2.19966
  Beta  occ. eigenvalues --   -2.19943  -2.19723  -2.19527  -2.19019  -1.13985
  Beta  occ. eigenvalues --   -1.13965  -1.13937  -1.13933  -1.13896  -1.13874
  Beta  occ. eigenvalues --   -1.13640  -1.13623  -1.13620  -1.13604  -1.13595
  Beta  occ. eigenvalues --   -1.13590  -1.13390  -1.13379  -1.13369  -1.13206
  Beta  occ. eigenvalues --   -1.13192  -1.13156  -1.12711  -1.12674  -1.12656
  Beta  occ. eigenvalues --   -0.16794  -0.12518  -0.11602
  Beta virt. eigenvalues --   -0.07615  -0.05722  -0.05349  -0.04328  -0.02804
  Beta virt. eigenvalues --   -0.02498  -0.02312  -0.01471  -0.01091  -0.00572
  Beta virt. eigenvalues --   -0.00393   0.00010   0.00400   0.00773   0.00800

 Mulliken charges and spin densities:
               1          2
     1  Na   0.035053   0.088666
     2  Na  -0.132861   0.580211
     3  Na   0.052191  -0.080283
     4  Na  -0.061376  -0.083169
     5  Na  -0.038300   0.507894
     6  Na  -0.080224  -0.082366
     7  Na   0.225517   0.069048
 Sum of Mulliken charges =  -0.00000   1.00000

 Dipole moment (field-independent basis, Debye):
    X=             -0.1382    Y=             -0.0747    Z=             -0.0587  Tot=              0.1677
 Quadrupole moment (field-independent basis, Debye-Ang):
   XX=            -58.7680   YY=            -67.6662   ZZ=            -70.1676
   XY=             -0.2733   XZ=              1.1408   YZ=             -0.1160

 Normal termination of Gaussian 16 at Mon Dec  4 05:13:30 2023.
