 Gaussian 16, Revision B.01,
 Gaussian 16:  ES64L-G16RevB.01 20-Dec-2017

 -------------------------
 #P B3LYP/6-311+g(d) force
 -------------------------

 -----
 DPGEN
 -----
 Symbolic Z-matrix:
 Charge =  0 Multiplicity = 2

                         Standard orientation:
 ---------------------------------------------------------------------
 Center     Atomic      Atomic             Coordinates (Angstroms)
 Number     Number       Type             X           Y           Z
 ---------------------------------------------------------------------
      1         11           0        0.044750    2.748969   -0.450403
      2         11           0       -0.430694   -0.856946   -1.329306
      3         11           0       -2.711091   -2.551749    0.170900
      4         11           0        0.243756   -0.224304    1.959803
      5         11           0        2.915609    1.209007    0.131470
      6         11           0        2.638543   -2.202143   -0.421983
      7         11           0       -2.700873    1.877166   -0.060480
 ---------------------------------------------------------------------

 SCF Done:  E(UB3LYP) =  -1136.12439330     A.U. after   22 cycles

 The electronic state is 2-A.
 Alpha  occ. eigenvalues --  -38.44512 -38.44488 -38.44377 -38.44258 -38.43574
 Alpha  occ. eigenvalues --  -38.43316 -38.43192  -2.20347  -2.20261  -2.20183
 Alpha  occ. eigenvalues --   -2.20093  -2.19443  -2.19228  -2.19096  -1.14085
 Alpha  occ. eigenvalues --   -1.13996  -1.13962  -1.13947  -1.13911  -1.13901
 Alpha  occ. eigenvalues --   -1.13849  -1.13836  -1.13829  -1.13775  -1.13755
 Alpha  occ. eigenvalues --   -1.13719  -1.13132  -1.13072  -1.13045  -1.12926
 Alpha  occ. eigenvalues --   -1.12878  -1.12850  -1.12787  -1.12745  -1.12723
 Alpha  occ. eigenvalues --   -0.18137  -0.13132  -0.12516  -0.10121
 Alpha virt. eigenvalues --   -0.06578  -0.05771  -0.04419  -0.03059  -0.02749
 Alpha virt. eigenvalues --   -0.02128  -0.01925  -0.01847  -0.00783  -0.00345
 Alpha virt. eigenvalues --   -0.00036   0.00273   0.00568   0.00609   0.00755

  Beta  occ. eigenvalues --  -38.44507 -38.44489 -38.44353 -38.44252 -38.43480
  Beta  occ. eigenvalues --  -38.43284 -38.43183  -2.20341  -2.20265  -2.20139
  Beta  occ. eigenvalues --   -2.20085  -2.19268  -2.19169  -2.19082  -1.14082
  Beta  occ. eigenvalues --   -1.13978  -1.13958  -1.13947  -1.13914  -1.13899
  Beta  occ. eigenvalues --   -1.13813  -1.13810  -1.13794  -1.13773  -1.13729
  Beta  occ. eigenvalues --   -1.13707  -1.13018  -1.12954  -1.12918  -1.12875
  Beta  occ. eigenvalues --   -1.12833  -1.12803  -1.12781  -1.12737  -1.12688
  Beta  occ. eigenvalues --   -0.17490  -0.12884  -0.12296
  Beta virt. eigenvalues --   -0.06616  -0.06248  -0.05636  -0.04350  -0.02425
  Beta virt. eigenvalues --   -0.02149  -0.01807  -0.01763  -0.01126  -0.00777
  Beta virt. eigenvalues --   -0.00328   0.00142   0.00339   0.00613   0.00730

 Mulliken charges and spin densities:
               1          2
     1  Na  -0.163056   0.066931
     2  Na  -0.069215   0.112359
     3  Na   0.007224   0.006854
     4  Na  -0.291768   0.564515
     5  Na   0.322670   0.134417
     6  Na   0.085984   0.134499
     7  Na   0.108160  -0.019575
 Sum of Mulliken charges =  -0.00000   1.00000

 Dipole moment (field-independent basis, Debye):
    X=             -0.1933    Y=             -0.5117    Z=              0.2803  Tot=              0.6146
 Quadrupole moment (field-independent basis, Debye-Ang):
   XX=            -53.0745   YY=            -63.1039   ZZ=            -76.9654
   XY=              1.2860   XZ=             -1.5949   YZ=             -1.0450

 Normal termination of Gaussian 16 at Tue Dec  5 12:34:41 2023.
