 Gaussian 16, Revision B.01,
 Gaussian 16:  ES64L-G16RevB.01 20-Dec-2017

 -------------------------
 #P B3LYP/6-311+g(d) force
 -------------------------

 -----
 DPGEN
 -----
 Symbolic Z-matrix:
 Charge =  0 Multiplicity = 2

                         Standard orientation:
 ---------------------------------------------------------------------
 Center     Atomic      Atomic             Coordinates (Angstroms)
 Number     Number       Type             X           Y           Z
 ---------------------------------------------------------------------
      1         11           0        3.165074   -0.072772   -0.746761
      2         11           0       -1.345335   -1.986598   -0.842118
      3         11           0        1.339945    3.171677    0.222342
      4         11           0       -1.211855    1.739010   -1.077569
      5         11           0       -3.708496   -0.022287    0.242749
      6         11           0        0.105925   -0.008980    2.011605
      7         11           0        1.654743   -2.820050    0.189753
 ---------------------------------------------------------------------

 SCF Done:  E(UB3LYP) =  -1136.12814304     A.U. after   21 cycles

 The electronic state is 2-A.
 Alpha  occ. eigenvalues --  -38.44662 -38.44650 -38.44161 -38.43887 -38.43671
 Alpha  occ. eigenvalues --  -38.43499 -38.43324  -2.20482  -2.20438  -2.20016
 Alpha  occ. eigenvalues --   -2.19748  -2.19480  -2.19347  -2.19179  -1.14159
 Alpha  occ. eigenvalues --   -1.14141  -1.14129  -1.14110  -1.14099  -1.14066
 Alpha  occ. eigenvalues --   -1.13702  -1.13685  -1.13648  -1.13433  -1.13427
 Alpha  occ. eigenvalues --   -1.13389  -1.13148  -1.13130  -1.13120  -1.13021
 Alpha  occ. eigenvalues --   -1.13007  -1.12993  -1.12839  -1.12810  -1.12790
 Alpha  occ. eigenvalues --   -0.17814  -0.13408  -0.12682  -0.10096
 Alpha virt. eigenvalues --   -0.06540  -0.05439  -0.04929  -0.03255  -0.02957
 Alpha virt. eigenvalues --   -0.02319  -0.01913  -0.01202  -0.00946  -0.00595
 Alpha virt. eigenvalues --    0.00003   0.00263   0.00604   0.00638   0.00793

  Beta  occ. eigenvalues --  -38.44663 -38.44617 -38.44152 -38.43871 -38.43671
  Beta  occ. eigenvalues --  -38.43497 -38.43215  -2.20487  -2.20377  -2.20001
  Beta  occ. eigenvalues --   -2.19720  -2.19483  -2.19346  -2.18978  -1.14165
  Beta  occ. eigenvalues --   -1.14144  -1.14115  -1.14063  -1.14058  -1.14021
  Beta  occ. eigenvalues --   -1.13694  -1.13656  -1.13639  -1.13416  -1.13393
  Beta  occ. eigenvalues --   -1.13374  -1.13149  -1.13124  -1.13116  -1.13024
  Beta  occ. eigenvalues --   -1.13008  -1.12965  -1.12704  -1.12674  -1.12646
  Beta  occ. eigenvalues --   -0.17203  -0.13091  -0.12548
  Beta virt. eigenvalues --   -0.06462  -0.06290  -0.05355  -0.04864  -0.02631
  Beta virt. eigenvalues --   -0.02299  -0.01938  -0.01333  -0.01147  -0.00897
  Beta virt. eigenvalues --   -0.00481   0.00183   0.00364   0.00657   0.00733

 Mulliken charges and spin densities:
               1          2
     1  Na  -0.215837   0.102080
     2  Na  -0.252305   0.019258
     3  Na   0.354460   0.046418
     4  Na  -0.411095   0.101070
     5  Na   0.726301   0.015784
     6  Na  -0.661823   0.578935
     7  Na   0.460298   0.136454
 Sum of Mulliken charges =  -0.00000   1.00000

 Dipole moment (field-independent basis, Debye):
    X=             -0.6057    Y=              0.0538    Z=              0.0923  Tot=              0.6151
 Quadrupole moment (field-independent basis, Debye-Ang):
   XX=            -56.3752   YY=            -64.1908   ZZ=            -75.2611
   XY=              1.1327   XZ=             -1.4267   YZ=              0.6477

 Normal termination of Gaussian 16 at Thu Dec  7 09:57:51 2023.
