 Gaussian 16, Revision B.01,
 Gaussian 16:  ES64L-G16RevB.01 20-Dec-2017

 -------------------------
 #P B3LYP/6-311+g(d) force
 -------------------------

 -----
 DPGEN
 -----
 Symbolic Z-matrix:
 Charge =  0 Multiplicity = 2

                         Standard orientation:
 ---------------------------------------------------------------------
 Center     Atomic      Atomic             Coordinates (Angstroms)
 Number     Number       Type             X           Y           Z
 ---------------------------------------------------------------------
      1         11           0        0.536237   -1.690467    1.086048
      2         11           0        3.231963   -3.056854   -0.413188
      3         11           0        2.734460    0.039781   -0.841389
      4         11           0        2.422344    3.650385   -0.004319
      5         11           0       -0.112732    1.757414    0.547455
      6         11           0       -3.122454   -0.760067    0.387362
      7         11           0       -5.689819    0.059808   -0.761970
 ---------------------------------------------------------------------

 SCF Done:  E(UB3LYP) =  -1136.12529042     A.U. after   19 cycles

 The electronic state is 2-A.
 Alpha  occ. eigenvalues --  -38.44425 -38.44108 -38.44056 -38.43971 -38.43935
 Alpha  occ. eigenvalues --  -38.43934 -38.43131  -2.20303  -2.19983  -2.19912
 Alpha  occ. eigenvalues --   -2.19820  -2.19781  -2.19749  -2.18974  -1.14011
 Alpha  occ. eigenvalues --   -1.13996  -1.13912  -1.13681  -1.13657  -1.13604
 Alpha  occ. eigenvalues --   -1.13600  -1.13580  -1.13547  -1.13487  -1.13480
 Alpha  occ. eigenvalues --   -1.13466  -1.13435  -1.13404  -1.13402  -1.13397
 Alpha  occ. eigenvalues --   -1.13396  -1.13358  -1.12652  -1.12640  -1.12626
 Alpha  occ. eigenvalues --   -0.17257  -0.13790  -0.12922  -0.11058
 Alpha virt. eigenvalues --   -0.05785  -0.05106  -0.04848  -0.03913  -0.02290
 Alpha virt. eigenvalues --   -0.02168  -0.02091  -0.01852  -0.01269  -0.00829
 Alpha virt. eigenvalues --   -0.00131   0.00047   0.00288   0.00496   0.00623

  Beta  occ. eigenvalues --  -38.44403 -38.44059 -38.44033 -38.43950 -38.43918
  Beta  occ. eigenvalues --  -38.43855 -38.43128  -2.20263  -2.19896  -2.19874
  Beta  occ. eigenvalues --   -2.19780  -2.19720  -2.19632  -2.18980  -1.13973
  Beta  occ. eigenvalues --   -1.13971  -1.13877  -1.13624  -1.13602  -1.13579
  Beta  occ. eigenvalues --   -1.13568  -1.13519  -1.13501  -1.13442  -1.13439
  Beta  occ. eigenvalues --   -1.13406  -1.13392  -1.13384  -1.13377  -1.13337
  Beta  occ. eigenvalues --   -1.13296  -1.13294  -1.12657  -1.12654  -1.12565
  Beta  occ. eigenvalues --   -0.16637  -0.13023  -0.12710
  Beta virt. eigenvalues --   -0.07627  -0.05636  -0.04746  -0.04384  -0.03607
  Beta virt. eigenvalues --   -0.02107  -0.01992  -0.01928  -0.01378  -0.01028
  Beta virt. eigenvalues --   -0.00467   0.00133   0.00200   0.00439   0.00590

 Mulliken charges and spin densities:
               1          2
     1  Na  -0.717363  -0.043343
     2  Na   0.966903   0.076103
     3  Na  -0.478257   0.255294
     4  Na   0.584483   0.124706
     5  Na  -0.546184   0.023544
     6  Na  -0.346444   0.233772
     7  Na   0.536861   0.329923
 Sum of Mulliken charges =  -0.00000   1.00000

 Dipole moment (field-independent basis, Debye):
    X=              1.5790    Y=              0.0700    Z=             -0.0522  Tot=              1.5814
 Quadrupole moment (field-independent basis, Debye-Ang):
   XX=            -65.5736   YY=            -59.2242   ZZ=            -70.5109
   XY=             -2.7557   XZ=              0.8917   YZ=             -0.5762

 Normal termination of Gaussian 16 at Wed Nov 29 03:44:14 2023.
