 Gaussian 16, Revision B.01,
 Gaussian 16:  ES64L-G16RevB.01 20-Dec-2017

 -------------------------
 #P B3LYP/6-311+g(d) force
 -------------------------

 -----
 DPGEN
 -----
 Symbolic Z-matrix:
 Charge =  0 Multiplicity = 2

                         Standard orientation:
 ---------------------------------------------------------------------
 Center     Atomic      Atomic             Coordinates (Angstroms)
 Number     Number       Type             X           Y           Z
 ---------------------------------------------------------------------
      1         11           0       -0.489035    2.567347   -0.071102
      2         11           0       -1.083558   -2.482530    0.004759
      3         11           0       -0.804117    0.152079    2.178511
      4         11           0        2.657793   -1.895736    0.245142
      5         11           0       -3.403181    0.192208   -0.593784
      6         11           0        0.518809   -0.269789   -1.746643
      7         11           0        2.603290    1.736421   -0.016884
 ---------------------------------------------------------------------

 SCF Done:  E(UB3LYP) =  -1136.13441623     A.U. after   20 cycles

 The electronic state is 2-A.
 Alpha  occ. eigenvalues --  -38.44567 -38.43971 -38.43811 -38.43788 -38.43550
 Alpha  occ. eigenvalues --  -38.43407 -38.42966  -2.20352  -2.19776  -2.19680
 Alpha  occ. eigenvalues --   -2.19636  -2.19489  -2.19266  -2.18855  -1.14019
 Alpha  occ. eigenvalues --   -1.14009  -1.13990  -1.13456  -1.13442  -1.13415
 Alpha  occ. eigenvalues --   -1.13342  -1.13330  -1.13324  -1.13296  -1.13289
 Alpha  occ. eigenvalues --   -1.13277  -1.13185  -1.13137  -1.13104  -1.12950
 Alpha  occ. eigenvalues --   -1.12943  -1.12868  -1.12543  -1.12524  -1.12477
 Alpha  occ. eigenvalues --   -0.18376  -0.13095  -0.12245  -0.10809
 Alpha virt. eigenvalues --   -0.06032  -0.05245  -0.04312  -0.03408  -0.02942
 Alpha virt. eigenvalues --   -0.02611  -0.01847  -0.01063  -0.00297  -0.00172
 Alpha virt. eigenvalues --   -0.00090   0.00318   0.00718   0.00830   0.00852

  Beta  occ. eigenvalues --  -38.44554 -38.43971 -38.43788 -38.43717 -38.43495
  Beta  occ. eigenvalues --  -38.43398 -38.42958  -2.20330  -2.19776  -2.19639
  Beta  occ. eigenvalues --   -2.19506  -2.19389  -2.19254  -2.18844  -1.13997
  Beta  occ. eigenvalues --   -1.13985  -1.13977  -1.13451  -1.13436  -1.13415
  Beta  occ. eigenvalues --   -1.13328  -1.13284  -1.13282  -1.13227  -1.13198
  Beta  occ. eigenvalues --   -1.13169  -1.13122  -1.13071  -1.13028  -1.12939
  Beta  occ. eigenvalues --   -1.12900  -1.12863  -1.12539  -1.12482  -1.12475
  Beta  occ. eigenvalues --   -0.17666  -0.12894  -0.12030
  Beta virt. eigenvalues --   -0.06952  -0.05887  -0.05224  -0.04225  -0.02743
  Beta virt. eigenvalues --   -0.02168  -0.01746  -0.01590  -0.01002  -0.00338
  Beta virt. eigenvalues --   -0.00181   0.00079   0.00365   0.00814   0.00846

 Mulliken charges and spin densities:
               1          2
     1  Na   0.126957   0.009756
     2  Na   0.120363   0.014746
     3  Na  -0.468959   0.615566
     4  Na   0.078093  -0.042054
     5  Na   0.124631   0.025270
     6  Na  -0.088695   0.462475
     7  Na   0.107610  -0.085759
 Sum of Mulliken charges =  -0.00000   1.00000

 Dipole moment (field-independent basis, Debye):
    X=             -0.0797    Y=             -0.1466    Z=              0.0743  Tot=              0.1826
 Quadrupole moment (field-independent basis, Debye-Ang):
   XX=            -53.6049   YY=            -67.6365   ZZ=            -72.7258
   XY=             -0.5505   XZ=              2.9466   YZ=             -1.0432

 Normal termination of Gaussian 16 at Tue Dec  5 17:19:07 2023.
