 Gaussian 16, Revision B.01,
 Gaussian 16:  ES64L-G16RevB.01 20-Dec-2017

 -------------------------
 #P B3LYP/6-311+g(d) force
 -------------------------

 -----
 DPGEN
 -----
 Symbolic Z-matrix:
 Charge =  0 Multiplicity = 2

                         Standard orientation:
 ---------------------------------------------------------------------
 Center     Atomic      Atomic             Coordinates (Angstroms)
 Number     Number       Type             X           Y           Z
 ---------------------------------------------------------------------
      1         11           0        2.774526   -1.819412    0.030970
      2         11           0       -3.638088   -0.196670   -0.023807
      3         11           0       -0.947045   -2.199269   -0.023760
      4         11           0        0.067338    0.046896    1.954860
      5         11           0        0.622786   -0.155380   -1.774399
      6         11           0        2.144545    2.136958    0.192699
      7         11           0       -1.024062    2.186876   -0.356563
 ---------------------------------------------------------------------

 SCF Done:  E(UB3LYP) =  -1136.13217263     A.U. after   19 cycles

 The electronic state is 2-A.
 Alpha  occ. eigenvalues --  -38.44520 -38.44013 -38.43661 -38.43523 -38.43366
 Alpha  occ. eigenvalues --  -38.43255 -38.42971  -2.20312  -2.19830  -2.19603
 Alpha  occ. eigenvalues --   -2.19400  -2.19366  -2.19174  -2.18898  -1.13985
 Alpha  occ. eigenvalues --   -1.13973  -1.13950  -1.13519  -1.13483  -1.13468
 Alpha  occ. eigenvalues --   -1.13303  -1.13251  -1.13207  -1.13096  -1.13089
 Alpha  occ. eigenvalues --   -1.13059  -1.13042  -1.13000  -1.12974  -1.12866
 Alpha  occ. eigenvalues --   -1.12843  -1.12746  -1.12594  -1.12569  -1.12496
 Alpha  occ. eigenvalues --   -0.18976  -0.13100  -0.12287  -0.10931
 Alpha virt. eigenvalues --   -0.06172  -0.05082  -0.03924  -0.03183  -0.02877
 Alpha virt. eigenvalues --   -0.02638  -0.02005  -0.01211  -0.00136  -0.00028
 Alpha virt. eigenvalues --    0.00115   0.00271   0.00758   0.00855   0.00883

  Beta  occ. eigenvalues --  -38.44525 -38.44011 -38.43569 -38.43517 -38.43291
  Beta  occ. eigenvalues --  -38.43242 -38.42958  -2.20322  -2.19829  -2.19434
  Beta  occ. eigenvalues --   -2.19392  -2.19228  -2.19157  -2.18878  -1.13994
  Beta  occ. eigenvalues --   -1.13970  -1.13958  -1.13508  -1.13474  -1.13468
  Beta  occ. eigenvalues --   -1.13194  -1.13139  -1.13092  -1.13071  -1.13042
  Beta  occ. eigenvalues --   -1.13021  -1.13007  -1.12913  -1.12882  -1.12836
  Beta  occ. eigenvalues --   -1.12788  -1.12740  -1.12581  -1.12519  -1.12488
  Beta  occ. eigenvalues --   -0.18204  -0.12924  -0.12012
  Beta virt. eigenvalues --   -0.06950  -0.06088  -0.05085  -0.03927  -0.02465
  Beta virt. eigenvalues --   -0.02046  -0.01948  -0.01545  -0.01162  -0.00101
  Beta virt. eigenvalues --    0.00062   0.00085   0.00286   0.00805   0.00860

 Mulliken charges and spin densities:
               1          2
     1  Na   0.276737  -0.109776
     2  Na  -0.118425  -0.097205
     3  Na   0.405788   0.010287
     4  Na  -0.643251   0.701195
     5  Na  -0.482879   0.493938
     6  Na   0.240849  -0.059271
     7  Na   0.321181   0.060832
 Sum of Mulliken charges =  -0.00000   1.00000

 Dipole moment (field-independent basis, Debye):
    X=              0.0279    Y=             -0.0726    Z=              0.1831  Tot=              0.1989
 Quadrupole moment (field-independent basis, Debye-Ang):
   XX=            -50.4516   YY=            -68.4840   ZZ=            -73.4286
   XY=             -0.3575   XZ=              1.1269   YZ=             -0.3385

 Normal termination of Gaussian 16 at Thu Dec  7 19:36:28 2023.
