 Gaussian 16, Revision B.01,
 Gaussian 16:  ES64L-G16RevB.01 20-Dec-2017

 -------------------------
 #P B3LYP/6-311+g(d) force
 -------------------------

 -----
 DPGEN
 -----
 Symbolic Z-matrix:
 Charge =  0 Multiplicity = 2

                         Standard orientation:
 ---------------------------------------------------------------------
 Center     Atomic      Atomic             Coordinates (Angstroms)
 Number     Number       Type             X           Y           Z
 ---------------------------------------------------------------------
      1         11           0        1.678295   -2.220266    0.334816
      2         11           0        1.907283    1.557049   -0.257974
      3         11           0       -1.527066    0.783900   -1.064572
      4         11           0       -1.603689   -1.894218    0.889977
      5         11           0       -4.457963   -0.566632   -0.483166
      6         11           0       -0.339855    2.941266    1.056018
      7         11           0        4.342995   -0.601097   -0.475100
 ---------------------------------------------------------------------

 SCF Done:  E(UB3LYP) =  -1136.12607607     A.U. after   18 cycles

 The electronic state is 2-A.
 Alpha  occ. eigenvalues --  -38.44373 -38.43824 -38.43782 -38.43704 -38.43649
 Alpha  occ. eigenvalues --  -38.43490 -38.43399  -2.20276  -2.19673  -2.19659
 Alpha  occ. eigenvalues --   -2.19581  -2.19568  -2.19346  -2.19265  -1.13982
 Alpha  occ. eigenvalues --   -1.13976  -1.13887  -1.13460  -1.13329  -1.13314
 Alpha  occ. eigenvalues --   -1.13305  -1.13299  -1.13291  -1.13272  -1.13252
 Alpha  occ. eigenvalues --   -1.13243  -1.13221  -1.13191  -1.13132  -1.13021
 Alpha  occ. eigenvalues --   -1.13020  -1.13009  -1.12909  -1.12900  -1.12859
 Alpha  occ. eigenvalues --   -0.17577  -0.14208  -0.12740  -0.10707
 Alpha virt. eigenvalues --   -0.06029  -0.05263  -0.04306  -0.03777  -0.02704
 Alpha virt. eigenvalues --   -0.02526  -0.01758  -0.01148  -0.00708  -0.00484
 Alpha virt. eigenvalues --   -0.00219  -0.00016   0.00514   0.00655   0.00851

  Beta  occ. eigenvalues --  -38.44365 -38.43781 -38.43761 -38.43660 -38.43638
  Beta  occ. eigenvalues --  -38.43456 -38.43349  -2.20265  -2.19657  -2.19555
  Beta  occ. eigenvalues --   -2.19551  -2.19506  -2.19292  -2.19171  -1.13977
  Beta  occ. eigenvalues --   -1.13955  -1.13870  -1.13449  -1.13301  -1.13288
  Beta  occ. eigenvalues --   -1.13245  -1.13243  -1.13234  -1.13230  -1.13218
  Beta  occ. eigenvalues --   -1.13212  -1.13197  -1.13107  -1.13103  -1.12991
  Beta  occ. eigenvalues --   -1.12979  -1.12942  -1.12841  -1.12836  -1.12799
  Beta  occ. eigenvalues --   -0.17086  -0.13646  -0.12337
  Beta virt. eigenvalues --   -0.07052  -0.05907  -0.05172  -0.03795  -0.03398
  Beta virt. eigenvalues --   -0.02493  -0.02200  -0.01351  -0.00838  -0.00554
  Beta virt. eigenvalues --   -0.00235  -0.00033   0.00228   0.00669   0.00781

 Mulliken charges and spin densities:
               1          2
     1  Na  -0.331608   0.117062
     2  Na  -0.593389   0.090260
     3  Na  -0.220404   0.017723
     4  Na  -0.134992   0.073568
     5  Na   0.459628   0.300024
     6  Na   0.426503   0.146632
     7  Na   0.394263   0.254730
 Sum of Mulliken charges =  -0.00000   1.00000

 Dipole moment (field-independent basis, Debye):
    X=             -0.6661    Y=              0.4623    Z=              0.4713  Tot=              0.9378
 Quadrupole moment (field-independent basis, Debye-Ang):
   XX=            -62.9029   YY=            -69.2551   ZZ=            -66.9874
   XY=             -0.7757   XZ=             -2.2211   YZ=              1.5770

 Normal termination of Gaussian 16 at Wed Nov 29 03:10:05 2023.
