 Gaussian 16, Revision B.01,
 Gaussian 16:  ES64L-G16RevB.01 20-Dec-2017

 -------------------------
 #P B3LYP/6-311+g(d) force
 -------------------------

 -----
 DPGEN
 -----
 Symbolic Z-matrix:
 Charge =  0 Multiplicity = 2

                         Standard orientation:
 ---------------------------------------------------------------------
 Center     Atomic      Atomic             Coordinates (Angstroms)
 Number     Number       Type             X           Y           Z
 ---------------------------------------------------------------------
      1         11           0        0.138590   -0.709889   -1.544381
      2         11           0        3.079008    1.280935   -0.396856
      3         11           0       -1.834677   -2.586677    0.276338
      4         11           0       -3.418911    0.588680   -0.344279
      5         11           0       -0.504042    3.008657   -0.152309
      6         11           0        2.391179   -2.152572    0.163837
      7         11           0        0.148854    0.570866    1.997649
 ---------------------------------------------------------------------

 SCF Done:  E(UB3LYP) =  -1136.13143451     A.U. after   20 cycles

 The electronic state is 2-A.
 Alpha  occ. eigenvalues --  -38.44568 -38.44457 -38.44146 -38.43887 -38.43530
 Alpha  occ. eigenvalues --  -38.43495 -38.43243  -2.20337  -2.20247  -2.19968
 Alpha  occ. eigenvalues --   -2.19693  -2.19441  -2.19298  -2.19109  -1.14016
 Alpha  occ. eigenvalues --   -1.13984  -1.13979  -1.13925  -1.13902  -1.13885
 Alpha  occ. eigenvalues --   -1.13673  -1.13623  -1.13594  -1.13391  -1.13354
 Alpha  occ. eigenvalues --   -1.13323  -1.13132  -1.13086  -1.13056  -1.12997
 Alpha  occ. eigenvalues --   -1.12965  -1.12928  -1.12773  -1.12731  -1.12726
 Alpha  occ. eigenvalues --   -0.17909  -0.13058  -0.12265  -0.10126
 Alpha virt. eigenvalues --   -0.06093  -0.05754  -0.04751  -0.03075  -0.02867
 Alpha virt. eigenvalues --   -0.02131  -0.01896  -0.01414  -0.00824  -0.00666
 Alpha virt. eigenvalues --   -0.00033   0.00306   0.00677   0.00757   0.00797

  Beta  occ. eigenvalues --  -38.44559 -38.44446 -38.44142 -38.43883 -38.43492
  Beta  occ. eigenvalues --  -38.43490 -38.43150  -2.20322  -2.20228  -2.19965
  Beta  occ. eigenvalues --   -2.19688  -2.19368  -2.19295  -2.18938  -1.13994
  Beta  occ. eigenvalues --   -1.13975  -1.13971  -1.13898  -1.13892  -1.13869
  Beta  occ. eigenvalues --   -1.13668  -1.13612  -1.13585  -1.13385  -1.13342
  Beta  occ. eigenvalues --   -1.13315  -1.13075  -1.13036  -1.13001  -1.12984
  Beta  occ. eigenvalues --   -1.12950  -1.12929  -1.12658  -1.12613  -1.12604
  Beta  occ. eigenvalues --   -0.17247  -0.12834  -0.12075
  Beta virt. eigenvalues --   -0.06404  -0.05970  -0.05721  -0.04632  -0.02415
  Beta virt. eigenvalues --   -0.02156  -0.01779  -0.01362  -0.01176  -0.00842
  Beta virt. eigenvalues --   -0.00670   0.00136   0.00368   0.00751   0.00780

 Mulliken charges and spin densities:
               1          2
     1  Na   0.007050   0.372581
     2  Na   0.046919  -0.024566
     3  Na   0.048505   0.005818
     4  Na  -0.023189  -0.005526
     5  Na  -0.035305  -0.073888
     6  Na   0.218913   0.020661
     7  Na  -0.262893   0.704919
 Sum of Mulliken charges =  -0.00000   1.00000

 Dipole moment (field-independent basis, Debye):
    X=              0.1059    Y=             -0.1544    Z=             -0.0080  Tot=              0.1874
 Quadrupole moment (field-independent basis, Debye-Ang):
   XX=            -53.3007   YY=            -62.5414   ZZ=            -76.7586
   XY=              0.0530   XZ=              0.1255   YZ=             -3.1306

 Normal termination of Gaussian 16 at Thu Dec  7 18:58:33 2023.
