 Gaussian 16, Revision B.01,
 Gaussian 16:  ES64L-G16RevB.01 20-Dec-2017

 -------------------------
 #P B3LYP/6-311+g(d) force
 -------------------------

 -----
 DPGEN
 -----
 Symbolic Z-matrix:
 Charge =  0 Multiplicity = 2

                         Standard orientation:
 ---------------------------------------------------------------------
 Center     Atomic      Atomic             Coordinates (Angstroms)
 Number     Number       Type             X           Y           Z
 ---------------------------------------------------------------------
      1         11           0        0.210694    2.839993    0.376621
      2         11           0        0.254379    0.074966   -1.787089
      3         11           0       -2.713165    1.207930    0.056535
      4         11           0        1.428707   -2.463550    0.483660
      5         11           0        0.126738   -0.274612    1.932596
      6         11           0       -2.422598   -1.901125   -0.524047
      7         11           0        3.115244    0.516399   -0.538276
 ---------------------------------------------------------------------

 SCF Done:  E(UB3LYP) =  -1136.13534780     A.U. after   19 cycles

 The electronic state is 2-A.
 Alpha  occ. eigenvalues --  -38.44141 -38.43761 -38.43648 -38.43647 -38.43595
 Alpha  occ. eigenvalues --  -38.43482 -38.43047  -2.19985  -2.19709  -2.19594
 Alpha  occ. eigenvalues --   -2.19519  -2.19435  -2.19366  -2.18904  -1.13701
 Alpha  occ. eigenvalues --   -1.13627  -1.13610  -1.13471  -1.13353  -1.13313
 Alpha  occ. eigenvalues --   -1.13269  -1.13244  -1.13224  -1.13219  -1.13183
 Alpha  occ. eigenvalues --   -1.13173  -1.13098  -1.13067  -1.13055  -1.13038
 Alpha  occ. eigenvalues --   -1.13000  -1.12966  -1.12582  -1.12572  -1.12533
 Alpha  occ. eigenvalues --   -0.18767  -0.13219  -0.12294  -0.11193
 Alpha virt. eigenvalues --   -0.05577  -0.04966  -0.04476  -0.03411  -0.03089
 Alpha virt. eigenvalues --   -0.02715  -0.01565  -0.00977  -0.00294  -0.00071
 Alpha virt. eigenvalues --    0.00010   0.00343   0.00822   0.00898   0.00925

  Beta  occ. eigenvalues --  -38.44124 -38.43673 -38.43645 -38.43584 -38.43581
  Beta  occ. eigenvalues --  -38.43465 -38.43039  -2.19957  -2.19549  -2.19518
  Beta  occ. eigenvalues --   -2.19472  -2.19417  -2.19340  -2.18892  -1.13666
  Beta  occ. eigenvalues --   -1.13601  -1.13594  -1.13368  -1.13249  -1.13229
  Beta  occ. eigenvalues --   -1.13204  -1.13191  -1.13180  -1.13158  -1.13141
  Beta  occ. eigenvalues --   -1.13128  -1.13070  -1.13058  -1.13041  -1.12995
  Beta  occ. eigenvalues --   -1.12964  -1.12953  -1.12573  -1.12554  -1.12518
  Beta  occ. eigenvalues --   -0.18061  -0.12922  -0.12003
  Beta virt. eigenvalues --   -0.07314  -0.05482  -0.04946  -0.04423  -0.02667
  Beta virt. eigenvalues --   -0.02303  -0.01726  -0.01426  -0.00900  -0.00273
  Beta virt. eigenvalues --   -0.00105   0.00108   0.00382   0.00878   0.00915

 Mulliken charges and spin densities:
               1          2
     1  Na   0.018966  -0.019903
     2  Na  -0.233441   0.546228
     3  Na  -0.020531  -0.043843
     4  Na   0.161278  -0.006613
     5  Na  -0.169308   0.513014
     6  Na   0.078819   0.006313
     7  Na   0.164218   0.004803
 Sum of Mulliken charges =  -0.00000   1.00000

 Dipole moment (field-independent basis, Debye):
    X=              0.2407    Y=             -0.0453    Z=             -0.0724  Tot=              0.2555
 Quadrupole moment (field-independent basis, Debye-Ang):
   XX=            -57.4320   YY=            -64.9734   ZZ=            -72.4037
   XY=              0.4964   XZ=             -0.1348   YZ=              1.1140

 Normal termination of Gaussian 16 at Thu Dec  7 15:06:11 2023.
