 Gaussian 16, Revision B.01,
 Gaussian 16:  ES64L-G16RevB.01 20-Dec-2017

 -------------------------
 #P B3LYP/6-311+g(d) force
 -------------------------

 -----
 DPGEN
 -----
 Symbolic Z-matrix:
 Charge =  0 Multiplicity = 2

                         Standard orientation:
 ---------------------------------------------------------------------
 Center     Atomic      Atomic             Coordinates (Angstroms)
 Number     Number       Type             X           Y           Z
 ---------------------------------------------------------------------
      1         11           0       -4.032867    0.077408    0.352437
      2         11           0        1.917511   -0.015514   -1.012577
      3         11           0        2.017478   -3.075724    0.180319
      4         11           0       -1.208988    1.456301   -0.188026
      5         11           0        1.730765    3.274884   -0.247935
      6         11           0        1.061080    0.035149    1.791351
      7         11           0       -1.484979   -1.752504   -0.875569
 ---------------------------------------------------------------------

 SCF Done:  E(UB3LYP) =  -1136.12780888     A.U. after   21 cycles

 The electronic state is 2-A.
 Alpha  occ. eigenvalues --  -38.44396 -38.43962 -38.43878 -38.43812 -38.43435
 Alpha  occ. eigenvalues --  -38.43374 -38.43337  -2.20221  -2.19814  -2.19691
 Alpha  occ. eigenvalues --   -2.19635  -2.19413  -2.19325  -2.19276  -1.13904
 Alpha  occ. eigenvalues --   -1.13868  -1.13864  -1.13536  -1.13487  -1.13397
 Alpha  occ. eigenvalues --   -1.13383  -1.13345  -1.13333  -1.13316  -1.13294
 Alpha  occ. eigenvalues --   -1.13275  -1.13243  -1.13099  -1.13057  -1.13015
 Alpha  occ. eigenvalues --   -1.12973  -1.12928  -1.12901  -1.12888  -1.12827
 Alpha  occ. eigenvalues --   -0.18399  -0.13514  -0.12655  -0.09815
 Alpha virt. eigenvalues --   -0.06290  -0.05218  -0.05004  -0.03011  -0.02639
 Alpha virt. eigenvalues --   -0.01952  -0.01847  -0.01709  -0.00645  -0.00288
 Alpha virt. eigenvalues --   -0.00040   0.00259   0.00720   0.00729   0.00778

  Beta  occ. eigenvalues --  -38.44397 -38.43934 -38.43878 -38.43804 -38.43406
  Beta  occ. eigenvalues --  -38.43359 -38.43250  -2.20223  -2.19764  -2.19696
  Beta  occ. eigenvalues --   -2.19622  -2.19362  -2.19304  -2.19115  -1.13905
  Beta  occ. eigenvalues --   -1.13869  -1.13861  -1.13504  -1.13439  -1.13388
  Beta  occ. eigenvalues --   -1.13365  -1.13336  -1.13323  -1.13308  -1.13275
  Beta  occ. eigenvalues --   -1.13257  -1.13189  -1.13060  -1.13031  -1.12956
  Beta  occ. eigenvalues --   -1.12940  -1.12896  -1.12820  -1.12785  -1.12715
  Beta  occ. eigenvalues --   -0.17728  -0.13357  -0.12407
  Beta virt. eigenvalues --   -0.06137  -0.06050  -0.05058  -0.04919  -0.02528
  Beta virt. eigenvalues --   -0.02052  -0.01828  -0.01719  -0.00933  -0.00665
  Beta virt. eigenvalues --   -0.00117   0.00161   0.00385   0.00758   0.00799

 Mulliken charges and spin densities:
               1          2
     1  Na   1.001583  -0.077621
     2  Na  -0.204701   0.422312
     3  Na   0.389018  -0.054151
     4  Na  -1.523574   0.148486
     5  Na   0.951105   0.137361
     6  Na  -0.375828   0.392306
     7  Na  -0.237603   0.031308
 Sum of Mulliken charges =  -0.00000   1.00000

 Dipole moment (field-independent basis, Debye):
    X=             -0.5982    Y=             -0.1184    Z=              0.1664  Tot=              0.6321
 Quadrupole moment (field-independent basis, Debye-Ang):
   XX=            -54.4322   YY=            -57.2882   ZZ=            -77.5378
   XY=              0.3816   XZ=             -1.9922   YZ=             -0.1205

 Normal termination of Gaussian 16 at Tue Dec  5 11:42:47 2023.
