 Gaussian 16, Revision B.01,
 Gaussian 16:  ES64L-G16RevB.01 20-Dec-2017

 -------------------------
 #P B3LYP/6-311+g(d) force
 -------------------------

 -----
 DPGEN
 -----
 Symbolic Z-matrix:
 Charge =  0 Multiplicity = 2

                         Standard orientation:
 ---------------------------------------------------------------------
 Center     Atomic      Atomic             Coordinates (Angstroms)
 Number     Number       Type             X           Y           Z
 ---------------------------------------------------------------------
      1         11           0        0.842835   -1.922149   -0.316831
      2         11           0       -3.568291   -0.194056    2.179602
      3         11           0       -3.643459   -1.676132   -1.225657
      4         11           0       -1.603849    1.004396   -0.706846
      5         11           0        0.385679    3.355696   -0.848292
      6         11           0        3.012480    1.450193    0.913658
      7         11           0        4.574604   -2.017948    0.004366
 ---------------------------------------------------------------------

 SCF Done:  E(UB3LYP) =  -1136.11212826     A.U. after   22 cycles

 The electronic state is 2-A.
 Alpha  occ. eigenvalues --  -38.45347 -38.45290 -38.45064 -38.44353 -38.44179
 Alpha  occ. eigenvalues --  -38.43660 -38.42968  -2.21087  -2.21054  -2.20812
 Alpha  occ. eigenvalues --   -2.20100  -2.19990  -2.19540  -2.18790  -1.14788
 Alpha  occ. eigenvalues --   -1.14754  -1.14747  -1.14706  -1.14693  -1.14683
 Alpha  occ. eigenvalues --   -1.14511  -1.14495  -1.14389  -1.13778  -1.13765
 Alpha  occ. eigenvalues --   -1.13727  -1.13638  -1.13634  -1.13583  -1.13235
 Alpha  occ. eigenvalues --   -1.13220  -1.13183  -1.12476  -1.12440  -1.12417
 Alpha  occ. eigenvalues --   -0.16488  -0.13835  -0.11921  -0.10337
 Alpha virt. eigenvalues --   -0.06890  -0.06319  -0.04724  -0.03234  -0.02874
 Alpha virt. eigenvalues --   -0.02327  -0.02181  -0.01936  -0.01096  -0.00696
 Alpha virt. eigenvalues --   -0.00343  -0.00097  -0.00064   0.00341   0.00491

  Beta  occ. eigenvalues --  -38.45325 -38.45298 -38.45026 -38.44353 -38.44069
  Beta  occ. eigenvalues --  -38.43645 -38.42968  -2.21071  -2.21046  -2.20740
  Beta  occ. eigenvalues --   -2.20101  -2.19785  -2.19514  -2.18791  -1.14760
  Beta  occ. eigenvalues --   -1.14760  -1.14726  -1.14710  -1.14688  -1.14653
  Beta  occ. eigenvalues --   -1.14463  -1.14446  -1.14332  -1.13779  -1.13761
  Beta  occ. eigenvalues --   -1.13728  -1.13497  -1.13493  -1.13448  -1.13219
  Beta  occ. eigenvalues --   -1.13176  -1.13169  -1.12473  -1.12440  -1.12417
  Beta  occ. eigenvalues --   -0.15945  -0.13499  -0.11832
  Beta virt. eigenvalues --   -0.06880  -0.06306  -0.06110  -0.04436  -0.02957
  Beta virt. eigenvalues --   -0.02704  -0.01949  -0.01913  -0.01574  -0.00946
  Beta virt. eigenvalues --   -0.00451   0.00002   0.00015   0.00172   0.00513

 Mulliken charges and spin densities:
               1          2
     1  Na  -0.387989   0.101847
     2  Na   0.173690   0.510189
     3  Na   1.216113  -0.106240
     4  Na  -1.642297   0.240408
     5  Na   0.422246  -0.002925
     6  Na  -0.176836   0.157214
     7  Na   0.395074   0.099507
 Sum of Mulliken charges =  -0.00000   1.00000

 Dipole moment (field-independent basis, Debye):
    X=              0.4535    Y=             -1.0010    Z=             -0.4155  Tot=              1.1749
 Quadrupole moment (field-independent basis, Debye-Ang):
   XX=            -57.7528   YY=            -67.7815   ZZ=            -71.1690
   XY=              3.7392   XZ=              7.3997   YZ=              2.1787

 Normal termination of Gaussian 16 at Fri Dec  8 17:16:50 2023.
