 Gaussian 16, Revision B.01,
 Gaussian 16:  ES64L-G16RevB.01 20-Dec-2017

 -------------------------
 #P B3LYP/6-311+g(d) force
 -------------------------

 -----
 DPGEN
 -----
 Symbolic Z-matrix:
 Charge =  0 Multiplicity = 2

                         Standard orientation:
 ---------------------------------------------------------------------
 Center     Atomic      Atomic             Coordinates (Angstroms)
 Number     Number       Type             X           Y           Z
 ---------------------------------------------------------------------
      1         11           0        1.412153    2.814026   -0.359378
      2         11           0       -1.692078   -2.352832   -0.531465
      3         11           0        0.497778   -1.793439    1.708193
      4         11           0        1.026689   -1.035456   -1.670655
      5         11           0        3.864761   -0.159867    0.210823
      6         11           0       -4.041411    0.902018   -0.115849
      7         11           0       -1.067893    1.625550    0.758331
 ---------------------------------------------------------------------

 SCF Done:  E(UB3LYP) =  -1136.11441343     A.U. after   28 cycles

 The electronic state is 2-A.
 Alpha  occ. eigenvalues --  -38.45778 -38.45099 -38.44399 -38.43851 -38.43793
 Alpha  occ. eigenvalues --  -38.43200 -38.43134  -2.21529  -2.20872  -2.20210
 Alpha  occ. eigenvalues --   -2.19718  -2.19644  -2.19082  -2.19025  -1.15201
 Alpha  occ. eigenvalues --   -1.15189  -1.15162  -1.14549  -1.14528  -1.14503
 Alpha  occ. eigenvalues --   -1.13954  -1.13866  -1.13812  -1.13428  -1.13376
 Alpha  occ. eigenvalues --   -1.13373  -1.13330  -1.13286  -1.13253  -1.12737
 Alpha  occ. eigenvalues --   -1.12726  -1.12717  -1.12700  -1.12671  -1.12652
 Alpha  occ. eigenvalues --   -0.17684  -0.13241  -0.12445  -0.10068
 Alpha virt. eigenvalues --   -0.07663  -0.05391  -0.03965  -0.03488  -0.03173
 Alpha virt. eigenvalues --   -0.02511  -0.02075  -0.01399  -0.00766  -0.00371
 Alpha virt. eigenvalues --   -0.00192   0.00002   0.00264   0.00534   0.00744

  Beta  occ. eigenvalues --  -38.45773 -38.45085 -38.44396 -38.43806 -38.43785
  Beta  occ. eigenvalues --  -38.43120 -38.43114  -2.21522  -2.20847  -2.20207
  Beta  occ. eigenvalues --   -2.19637  -2.19632  -2.18992  -2.18933  -1.15189
  Beta  occ. eigenvalues --   -1.15177  -1.15160  -1.14531  -1.14510  -1.14485
  Beta  occ. eigenvalues --   -1.13948  -1.13857  -1.13812  -1.13392  -1.13326
  Beta  occ. eigenvalues --   -1.13312  -1.13292  -1.13261  -1.13236  -1.12707
  Beta  occ. eigenvalues --   -1.12644  -1.12636  -1.12620  -1.12613  -1.12592
  Beta  occ. eigenvalues --   -0.17106  -0.12984  -0.12236
  Beta virt. eigenvalues --   -0.07511  -0.06403  -0.05263  -0.03760  -0.03183
  Beta virt. eigenvalues --   -0.02615  -0.02190  -0.01343  -0.01209  -0.00722
  Beta virt. eigenvalues --   -0.00153  -0.00074   0.00043   0.00440   0.00599

 Mulliken charges and spin densities:
               1          2
     1  Na   0.692505  -0.059969
     2  Na   0.279240   0.275410
     3  Na  -0.078913   0.280247
     4  Na  -0.236521   0.291200
     5  Na   0.145088   0.037770
     6  Na   0.344704  -0.019357
     7  Na  -1.146103   0.194698
 Sum of Mulliken charges =  -0.00000   1.00000

 Dipole moment (field-independent basis, Debye):
    X=              0.6059    Y=              0.0180    Z=              0.0554  Tot=              0.6087
 Quadrupole moment (field-independent basis, Debye-Ang):
   XX=            -47.7124   YY=            -70.5247   ZZ=            -75.1216
   XY=              1.6569   XZ=              3.4134   YZ=             -1.7760

 Normal termination of Gaussian 16 at Sun Dec  3 22:27:04 2023.
