 Gaussian 16, Revision B.01,
 Gaussian 16:  ES64L-G16RevB.01 20-Dec-2017

 -------------------------
 #P B3LYP/6-311+g(d) force
 -------------------------

 -----
 DPGEN
 -----
 Symbolic Z-matrix:
 Charge =  0 Multiplicity = 2

                         Standard orientation:
 ---------------------------------------------------------------------
 Center     Atomic      Atomic             Coordinates (Angstroms)
 Number     Number       Type             X           Y           Z
 ---------------------------------------------------------------------
      1         11           0        1.373391    1.928777    0.079008
      2         11           0       -3.633842   -1.143958   -0.804798
      3         11           0        3.789525   -0.177498   -1.105925
      4         11           0       -1.361567   -0.624214    1.640315
      5         11           0        2.362431   -1.167339    1.504074
      6         11           0       -2.307288    1.900462    0.217890
      7         11           0       -0.222649   -0.716231   -1.530564
 ---------------------------------------------------------------------

 SCF Done:  E(UB3LYP) =  -1136.11789002     A.U. after   32 cycles

 The electronic state is 2-A.
 Alpha  occ. eigenvalues --  -38.45264 -38.44785 -38.44453 -38.44185 -38.43645
 Alpha  occ. eigenvalues --  -38.43570 -38.42793  -2.21101  -2.20631  -2.20323
 Alpha  occ. eigenvalues --   -2.20121  -2.19525  -2.19419  -2.18669  -1.14826
 Alpha  occ. eigenvalues --   -1.14766  -1.14701  -1.14326  -1.14282  -1.14264
 Alpha  occ. eigenvalues --   -1.13979  -1.13968  -1.13946  -1.13816  -1.13814
 Alpha  occ. eigenvalues --   -1.13708  -1.13225  -1.13182  -1.13139  -1.13086
 Alpha  occ. eigenvalues --   -1.13069  -1.13051  -1.12378  -1.12343  -1.12270
 Alpha  occ. eigenvalues --   -0.18644  -0.14831  -0.11280  -0.10474
 Alpha virt. eigenvalues --   -0.07263  -0.05338  -0.05123  -0.03139  -0.02915
 Alpha virt. eigenvalues --   -0.02198  -0.02018  -0.01345  -0.01062  -0.00204
 Alpha virt. eigenvalues --    0.00029   0.00233   0.00306   0.00486   0.00618

  Beta  occ. eigenvalues --  -38.45243 -38.44765 -38.44395 -38.44129 -38.43645
  Beta  occ. eigenvalues --  -38.43564 -38.42775  -2.21065  -2.20593  -2.20217
  Beta  occ. eigenvalues --   -2.20019  -2.19527  -2.19408  -2.18639  -1.14789
  Beta  occ. eigenvalues --   -1.14734  -1.14675  -1.14299  -1.14253  -1.14233
  Beta  occ. eigenvalues --   -1.13905  -1.13898  -1.13857  -1.13750  -1.13736
  Beta  occ. eigenvalues --   -1.13632  -1.13219  -1.13179  -1.13139  -1.13073
  Beta  occ. eigenvalues --   -1.13064  -1.13046  -1.12356  -1.12308  -1.12246
  Beta  occ. eigenvalues --   -0.17982  -0.14627  -0.10365
  Beta virt. eigenvalues --   -0.07334  -0.07044  -0.05048  -0.04613  -0.02832
  Beta virt. eigenvalues --   -0.02729  -0.01586  -0.01545  -0.01144  -0.00615
  Beta virt. eigenvalues --   -0.00096   0.00065   0.00320   0.00382   0.00640

 Mulliken charges and spin densities:
               1          2
     1  Na  -0.480503   0.205575
     2  Na   0.760220   0.032670
     3  Na   1.105121   0.198419
     4  Na  -0.120362   0.227701
     5  Na  -0.227118   0.125966
     6  Na  -0.063754  -0.007429
     7  Na  -0.973603   0.217098
 Sum of Mulliken charges =  -0.00000   1.00000

 Dipole moment (field-independent basis, Debye):
    X=              0.4888    Y=              0.1662    Z=             -0.1629  Tot=              0.5414
 Quadrupole moment (field-independent basis, Debye-Ang):
   XX=            -49.2081   YY=            -78.4244   ZZ=            -69.4207
   XY=             -1.9644   XZ=             -2.1440   YZ=             -3.2260

 Normal termination of Gaussian 16 at Tue Dec  5 14:43:40 2023.
