 Gaussian 16, Revision B.01,
 Gaussian 16:  ES64L-G16RevB.01 20-Dec-2017

 -------------------------
 #P B3LYP/6-311+g(d) force
 -------------------------

 -----
 DPGEN
 -----
 Symbolic Z-matrix:
 Charge =  0 Multiplicity = 2

                         Standard orientation:
 ---------------------------------------------------------------------
 Center     Atomic      Atomic             Coordinates (Angstroms)
 Number     Number       Type             X           Y           Z
 ---------------------------------------------------------------------
      1         11           0        2.888980    1.437831   -0.226880
      2         11           0        3.099332   -2.231974   -0.493460
      3         11           0       -0.740867   -1.650392   -0.894887
      4         11           0        0.435259   -0.386709    1.937438
      5         11           0       -3.780927   -1.133158    0.520677
      6         11           0       -2.156983    1.486935   -1.186606
      7         11           0        0.255207    2.477468    0.343718
 ---------------------------------------------------------------------

 SCF Done:  E(UB3LYP) =  -1136.11725703     A.U. after   24 cycles

 The electronic state is 2-A.
 Alpha  occ. eigenvalues --  -38.45616 -38.45036 -38.44249 -38.43909 -38.43653
 Alpha  occ. eigenvalues --  -38.43649 -38.42806  -2.21392  -2.20878  -2.20095
 Alpha  occ. eigenvalues --   -2.19789  -2.19542  -2.19427  -2.18762  -1.15067
 Alpha  occ. eigenvalues --   -1.15048  -1.15029  -1.14609  -1.14533  -1.14491
 Alpha  occ. eigenvalues --   -1.13815  -1.13787  -1.13687  -1.13492  -1.13453
 Alpha  occ. eigenvalues --   -1.13391  -1.13229  -1.13172  -1.13139  -1.13095
 Alpha  occ. eigenvalues --   -1.13086  -1.13055  -1.12463  -1.12411  -1.12385
 Alpha  occ. eigenvalues --   -0.18112  -0.13813  -0.12065  -0.10276
 Alpha virt. eigenvalues --   -0.07001  -0.05756  -0.04145  -0.03462  -0.02826
 Alpha virt. eigenvalues --   -0.02605  -0.01888  -0.01468  -0.00723  -0.00250
 Alpha virt. eigenvalues --   -0.00010   0.00121   0.00425   0.00502   0.00686

  Beta  occ. eigenvalues --  -38.45618 -38.45030 -38.44242 -38.43869 -38.43625
  Beta  occ. eigenvalues --  -38.43558 -38.42795  -2.21397  -2.20869  -2.20085
  Beta  occ. eigenvalues --   -2.19716  -2.19382  -2.19366  -2.18747  -1.15073
  Beta  occ. eigenvalues --   -1.15035  -1.15035  -1.14600  -1.14513  -1.14489
  Beta  occ. eigenvalues --   -1.13804  -1.13754  -1.13687  -1.13442  -1.13400
  Beta  occ. eigenvalues --   -1.13340  -1.13113  -1.13060  -1.13051  -1.13046
  Beta  occ. eigenvalues --   -1.13029  -1.13015  -1.12460  -1.12406  -1.12331
  Beta  occ. eigenvalues --   -0.17483  -0.13550  -0.11789
  Beta virt. eigenvalues --   -0.06897  -0.06655  -0.05516  -0.03955  -0.02995
  Beta virt. eigenvalues --   -0.02448  -0.02120  -0.01408  -0.01148  -0.00620
  Beta virt. eigenvalues --   -0.00034   0.00027   0.00200   0.00579   0.00588

 Mulliken charges and spin densities:
               1          2
     1  Na  -0.006607  -0.159697
     2  Na   0.122572   0.255189
     3  Na  -0.549046   0.248151
     4  Na  -0.293648   0.273540
     5  Na   0.350699  -0.000410
     6  Na   0.227705  -0.098846
     7  Na   0.148324   0.482072
 Sum of Mulliken charges =  -0.00000   1.00000

 Dipole moment (field-independent basis, Debye):
    X=             -1.1138    Y=             -0.5326    Z=              0.3921  Tot=              1.2954
 Quadrupole moment (field-independent basis, Debye-Ang):
   XX=            -49.6345   YY=            -71.3200   ZZ=            -73.6041
   XY=              4.3924   XZ=             -2.6647   YZ=             -0.3485

 Normal termination of Gaussian 16 at Sun Dec  3 14:15:48 2023.
