 Gaussian 16, Revision B.01,
 Gaussian 16:  ES64L-G16RevB.01 20-Dec-2017

 -------------------------
 #P B3LYP/6-311+g(d) force
 -------------------------

 -----
 DPGEN
 -----
 Symbolic Z-matrix:
 Charge =  0 Multiplicity = 2

                         Standard orientation:
 ---------------------------------------------------------------------
 Center     Atomic      Atomic             Coordinates (Angstroms)
 Number     Number       Type             X           Y           Z
 ---------------------------------------------------------------------
      1         11           0        3.507545    0.080868    0.794977
      2         11           0        1.969190   -2.414050   -0.511556
      3         11           0       -2.042033    2.143288   -0.947592
      4         11           0       -0.981580   -1.689286   -1.534820
      5         11           0       -3.471448   -1.052673    1.031484
      6         11           0       -0.448951    0.400567    1.750807
      7         11           0        1.467279    2.531286   -0.583300
 ---------------------------------------------------------------------

 SCF Done:  E(UB3LYP) =  -1136.12726337     A.U. after   21 cycles

 The electronic state is 2-A.
 Alpha  occ. eigenvalues --  -38.44637 -38.44512 -38.44233 -38.44145 -38.43640
 Alpha  occ. eigenvalues --  -38.43605 -38.43464  -2.20469  -2.20321  -2.20057
 Alpha  occ. eigenvalues --   -2.19954  -2.19444  -2.19442  -2.19299  -1.14156
 Alpha  occ. eigenvalues --   -1.14127  -1.14100  -1.13979  -1.13969  -1.13944
 Alpha  occ. eigenvalues --   -1.13727  -1.13721  -1.13693  -1.13625  -1.13610
 Alpha  occ. eigenvalues --   -1.13575  -1.13152  -1.13119  -1.13109  -1.13094
 Alpha  occ. eigenvalues --   -1.13082  -1.13072  -1.12955  -1.12950  -1.12942
 Alpha  occ. eigenvalues --   -0.17582  -0.13601  -0.12183  -0.10756
 Alpha virt. eigenvalues --   -0.06314  -0.05722  -0.04626  -0.03425  -0.02955
 Alpha virt. eigenvalues --   -0.02288  -0.02147  -0.01263  -0.00651  -0.00375
 Alpha virt. eigenvalues --   -0.00135   0.00215   0.00322   0.00477   0.00768

  Beta  occ. eigenvalues --  -38.44595 -38.44473 -38.44218 -38.44109 -38.43637
  Beta  occ. eigenvalues --  -38.43557 -38.43456  -2.20392  -2.20250  -2.20028
  Beta  occ. eigenvalues --   -2.19889  -2.19440  -2.19356  -2.19288  -1.14102
  Beta  occ. eigenvalues --   -1.14076  -1.14032  -1.13926  -1.13910  -1.13901
  Beta  occ. eigenvalues --   -1.13711  -1.13701  -1.13673  -1.13572  -1.13568
  Beta  occ. eigenvalues --   -1.13528  -1.13117  -1.13111  -1.13096  -1.13062
  Beta  occ. eigenvalues --   -1.13030  -1.13011  -1.12948  -1.12942  -1.12908
  Beta  occ. eigenvalues --   -0.17030  -0.13334  -0.11755
  Beta virt. eigenvalues --   -0.07235  -0.06053  -0.05709  -0.04076  -0.03131
  Beta virt. eigenvalues --   -0.02428  -0.01963  -0.01548  -0.01126  -0.00514
  Beta virt. eigenvalues --   -0.00157  -0.00086   0.00293   0.00477   0.00607

 Mulliken charges and spin densities:
               1          2
     1  Na   0.483913   0.116347
     2  Na  -0.181074  -0.063960
     3  Na  -0.067418   0.166353
     4  Na  -0.136008   0.355537
     5  Na   0.421521   0.066585
     6  Na  -0.363725   0.359194
     7  Na  -0.157210  -0.000055
 Sum of Mulliken charges =  -0.00000   1.00000

 Dipole moment (field-independent basis, Debye):
    X=             -0.5197    Y=              0.2918    Z=              0.2165  Tot=              0.6341
 Quadrupole moment (field-independent basis, Debye-Ang):
   XX=            -52.7171   YY=            -72.1558   ZZ=            -71.7258
   XY=              1.0790   XZ=              1.6796   YZ=             -2.1033

 Normal termination of Gaussian 16 at Mon Dec  4 01:18:51 2023.
