 Gaussian 16, Revision B.01,
 Gaussian 16:  ES64L-G16RevB.01 20-Dec-2017

 -------------------------
 #P B3LYP/6-311+g(d) force
 -------------------------

 -----
 DPGEN
 -----
 Symbolic Z-matrix:
 Charge =  0 Multiplicity = 2

                         Standard orientation:
 ---------------------------------------------------------------------
 Center     Atomic      Atomic             Coordinates (Angstroms)
 Number     Number       Type             X           Y           Z
 ---------------------------------------------------------------------
      1         11           0       -1.027565   -1.781897    1.524522
      2         11           0       -3.971552   -1.255604   -0.503245
      3         11           0        1.326987   -2.632826   -1.085057
      4         11           0        3.630682    2.302486   -0.442466
      5         11           0       -3.581259    1.774837   -0.346684
      6         11           0        3.779879   -1.289558    0.382694
      7         11           0       -0.157172    2.882562    0.470236
 ---------------------------------------------------------------------

 SCF Done:  E(UB3LYP) =  -1136.10664238     A.U. after   23 cycles

 The electronic state is 2-A.
 Alpha  occ. eigenvalues --  -38.44990 -38.44791 -38.44735 -38.44655 -38.44403
 Alpha  occ. eigenvalues --  -38.44189 -38.43586  -2.20763  -2.20607  -2.20520
 Alpha  occ. eigenvalues --   -2.20381  -2.20209  -2.20033  -2.19355  -1.14430
 Alpha  occ. eigenvalues --   -1.14420  -1.14378  -1.14308  -1.14272  -1.14241
 Alpha  occ. eigenvalues --   -1.14225  -1.14188  -1.14158  -1.14071  -1.14047
 Alpha  occ. eigenvalues --   -1.14026  -1.13879  -1.13858  -1.13823  -1.13692
 Alpha  occ. eigenvalues --   -1.13677  -1.13651  -1.13022  -1.13009  -1.12970
 Alpha  occ. eigenvalues --   -0.16119  -0.14066  -0.12333  -0.10296
 Alpha virt. eigenvalues --   -0.07466  -0.05680  -0.03886  -0.03608  -0.03363
 Alpha virt. eigenvalues --   -0.02817  -0.02082  -0.01597  -0.01177  -0.00642
 Alpha virt. eigenvalues --   -0.00348  -0.00012   0.00154   0.00397   0.00445

  Beta  occ. eigenvalues --  -38.44941 -38.44758 -38.44750 -38.44669 -38.44371
  Beta  occ. eigenvalues --  -38.44134 -38.43523  -2.20672  -2.20554  -2.20549
  Beta  occ. eigenvalues --   -2.20410  -2.20149  -2.19935  -2.19237  -1.14366
  Beta  occ. eigenvalues --   -1.14357  -1.14317  -1.14261  -1.14246  -1.14242
  Beta  occ. eigenvalues --   -1.14210  -1.14168  -1.14160  -1.14093  -1.14068
  Beta  occ. eigenvalues --   -1.14029  -1.13843  -1.13817  -1.13781  -1.13622
  Beta  occ. eigenvalues --   -1.13614  -1.13569  -1.12941  -1.12928  -1.12893
  Beta  occ. eigenvalues --   -0.15556  -0.13478  -0.11944
  Beta virt. eigenvalues --   -0.07437  -0.06974  -0.05442  -0.03440  -0.03358
  Beta virt. eigenvalues --   -0.02967  -0.02336  -0.01972  -0.01502  -0.00921
  Beta virt. eigenvalues --   -0.00532  -0.00160   0.00208   0.00285   0.00442

 Mulliken charges and spin densities:
               1          2
     1  Na  -0.219610   0.266211
     2  Na   0.202183   0.304654
     3  Na   0.135145  -0.122602
     4  Na   0.125641  -0.034133
     5  Na   0.096092   0.114280
     6  Na  -0.075972   0.234030
     7  Na  -0.263479   0.237560
 Sum of Mulliken charges =  -0.00000   1.00000

 Dipole moment (field-independent basis, Debye):
    X=             -0.0035    Y=             -1.0076    Z=             -0.1274  Tot=              1.0156
 Quadrupole moment (field-independent basis, Debye-Ang):
   XX=            -68.6072   YY=            -67.8642   ZZ=            -66.9986
   XY=              0.1616   XZ=             -0.3607   YZ=             -0.1366

 Normal termination of Gaussian 16 at Mon Dec  4 04:37:10 2023.
