 Gaussian 16, Revision B.01,
 Gaussian 16:  ES64L-G16RevB.01 20-Dec-2017

 -------------------------
 #P B3LYP/6-311+g(d) force
 -------------------------

 -----
 DPGEN
 -----
 Symbolic Z-matrix:
 Charge =  0 Multiplicity = 2

                         Standard orientation:
 ---------------------------------------------------------------------
 Center     Atomic      Atomic             Coordinates (Angstroms)
 Number     Number       Type             X           Y           Z
 ---------------------------------------------------------------------
      1         11           0        2.331970   -0.959304    1.335115
      2         11           0       -0.808171   -0.590863    1.908795
      3         11           0        3.147619    1.537675   -0.412240
      4         11           0        1.886064   -1.506934   -1.388706
      5         11           0       -0.090276    1.230937   -0.838865
      6         11           0       -2.985275    1.766474    0.335822
      7         11           0       -3.481931   -1.477985   -0.939921
 ---------------------------------------------------------------------

 SCF Done:  E(UB3LYP) =  -1136.10731665     A.U. after   28 cycles

 The electronic state is 2-A.
 Alpha  occ. eigenvalues --  -38.45257 -38.44939 -38.44482 -38.44220 -38.43791
 Alpha  occ. eigenvalues --  -38.43474 -38.43387  -2.21168  -2.20731  -2.20329
 Alpha  occ. eigenvalues --   -2.20077  -2.19777  -2.19358  -2.19326  -1.14928
 Alpha  occ. eigenvalues --   -1.14835  -1.14737  -1.14385  -1.14373  -1.14340
 Alpha  occ. eigenvalues --   -1.14019  -1.13989  -1.13955  -1.13795  -1.13747
 Alpha  occ. eigenvalues --   -1.13725  -1.13466  -1.13432  -1.13375  -1.13080
 Alpha  occ. eigenvalues --   -1.13015  -1.12999  -1.12988  -1.12964  -1.12928
 Alpha  occ. eigenvalues --   -0.18663  -0.14828  -0.11143  -0.10722
 Alpha virt. eigenvalues --   -0.07056  -0.06131  -0.04716  -0.03149  -0.02730
 Alpha virt. eigenvalues --   -0.02439  -0.02007  -0.01363  -0.00721  -0.00542
 Alpha virt. eigenvalues --    0.00081   0.00163   0.00285   0.00395   0.00504

  Beta  occ. eigenvalues --  -38.45231 -38.44852 -38.44471 -38.44259 -38.43774
  Beta  occ. eigenvalues --  -38.43419 -38.43353  -2.21118  -2.20569  -2.20313
  Beta  occ. eigenvalues --   -2.20153  -2.19746  -2.19268  -2.19260  -1.14895
  Beta  occ. eigenvalues --   -1.14798  -1.14706  -1.14272  -1.14262  -1.14234
  Beta  occ. eigenvalues --   -1.14002  -1.13968  -1.13934  -1.13847  -1.13794
  Beta  occ. eigenvalues --   -1.13763  -1.13442  -1.13386  -1.13370  -1.13019
  Beta  occ. eigenvalues --   -1.12956  -1.12936  -1.12913  -1.12910  -1.12884
  Beta  occ. eigenvalues --   -0.18146  -0.14431  -0.10671
  Beta virt. eigenvalues --   -0.07371  -0.06734  -0.05789  -0.04216  -0.02930
  Beta virt. eigenvalues --   -0.02520  -0.01842  -0.01575  -0.01163  -0.00385
  Beta virt. eigenvalues --   -0.00327   0.00132   0.00231   0.00447   0.00479

 Mulliken charges and spin densities:
               1          2
     1  Na   0.541904   0.358290
     2  Na  -0.472753  -0.042353
     3  Na   0.287947  -0.334681
     4  Na  -0.094644   0.043866
     5  Na  -1.123008   0.416984
     6  Na   0.944122   0.130692
     7  Na  -0.083570   0.427202
 Sum of Mulliken charges =  -0.00000   1.00000

 Dipole moment (field-independent basis, Debye):
    X=             -0.1253    Y=              0.0529    Z=             -0.1483  Tot=              0.2012
 Quadrupole moment (field-independent basis, Debye-Ang):
   XX=            -51.9981   YY=            -75.4090   ZZ=            -70.7670
   XY=             -2.1981   XZ=             -0.5007   YZ=              7.0068

 Normal termination of Gaussian 16 at Tue Dec  5 18:39:57 2023.
