 Gaussian 16, Revision B.01,
 Gaussian 16:  ES64L-G16RevB.01 20-Dec-2017

 -------------------------
 #P B3LYP/6-311+g(d) force
 -------------------------

 -----
 DPGEN
 -----
 Symbolic Z-matrix:
 Charge =  0 Multiplicity = 2

                         Standard orientation:
 ---------------------------------------------------------------------
 Center     Atomic      Atomic             Coordinates (Angstroms)
 Number     Number       Type             X           Y           Z
 ---------------------------------------------------------------------
      1         11           0       -0.804680   -2.537414   -1.168524
      2         11           0        2.195112   -1.081752   -1.304919
      3         11           0        2.634479   -0.075657    1.637920
      4         11           0        0.103068   -0.051924    0.217356
      5         11           0       -2.381461   -1.014052    1.830572
      6         11           0       -2.294385    1.578251   -0.918412
      7         11           0        0.547868    3.182548   -0.293992
 ---------------------------------------------------------------------

 SCF Done:  E(UB3LYP) =  -1136.11625955     A.U. after   19 cycles

 The electronic state is 2-A.
 Alpha  occ. eigenvalues --  -38.44009 -38.43975 -38.43832 -38.43764 -38.43649
 Alpha  occ. eigenvalues --  -38.43505 -38.42392  -2.19909  -2.19821  -2.19788
 Alpha  occ. eigenvalues --   -2.19619  -2.19532  -2.19322  -2.18687  -1.13691
 Alpha  occ. eigenvalues --   -1.13598  -1.13548  -1.13517  -1.13499  -1.13445
 Alpha  occ. eigenvalues --   -1.13429  -1.13392  -1.13370  -1.13335  -1.13274
 Alpha  occ. eigenvalues --   -1.13262  -1.13230  -1.13171  -1.13128  -1.12996
 Alpha  occ. eigenvalues --   -1.12986  -1.12948  -1.12412  -1.12343  -1.12270
 Alpha  occ. eigenvalues --   -0.18531  -0.13043  -0.12364  -0.11046
 Alpha virt. eigenvalues --   -0.05166  -0.04721  -0.04563  -0.03742  -0.02805
 Alpha virt. eigenvalues --   -0.02215  -0.01281  -0.01018  -0.00591   0.00274
 Alpha virt. eigenvalues --    0.00356   0.00537   0.00554   0.00794   0.00894

  Beta  occ. eigenvalues --  -38.43961 -38.43916 -38.43807 -38.43753 -38.43618
  Beta  occ. eigenvalues --  -38.43503 -38.42365  -2.19819  -2.19745  -2.19711
  Beta  occ. eigenvalues --   -2.19600  -2.19477  -2.19320  -2.18649  -1.13648
  Beta  occ. eigenvalues --   -1.13548  -1.13488  -1.13440  -1.13437  -1.13371
  Beta  occ. eigenvalues --   -1.13365  -1.13356  -1.13322  -1.13311  -1.13255
  Beta  occ. eigenvalues --   -1.13227  -1.13212  -1.13130  -1.13072  -1.12996
  Beta  occ. eigenvalues --   -1.12980  -1.12941  -1.12333  -1.12294  -1.12254
  Beta  occ. eigenvalues --   -0.17841  -0.12770  -0.12008
  Beta virt. eigenvalues --   -0.07325  -0.05165  -0.04441  -0.03904  -0.03519
  Beta virt. eigenvalues --   -0.02271  -0.01546  -0.01216  -0.00918  -0.00165
  Beta virt. eigenvalues --    0.00354   0.00423   0.00567   0.00648   0.00823

 Mulliken charges and spin densities:
               1          2
     1  Na   0.338139   0.031705
     2  Na   0.615538  -0.059079
     3  Na   0.253663   0.047666
     4  Na  -2.515950   1.129959
     5  Na   0.501240  -0.038246
     6  Na   0.704535  -0.076505
     7  Na   0.102835  -0.035501
 Sum of Mulliken charges =  -0.00000   1.00000

 Dipole moment (field-independent basis, Debye):
    X=             -0.0693    Y=             -0.0513    Z=              0.0106  Tot=              0.0869
 Quadrupole moment (field-independent basis, Debye-Ang):
   XX=            -59.2704   YY=            -65.9331   ZZ=            -65.7601
   XY=              1.9790   XZ=              0.4698   YZ=              0.6981

 Normal termination of Gaussian 16 at Thu Dec  7 19:39:36 2023.
