 Gaussian 16, Revision B.01,
 Gaussian 16:  ES64L-G16RevB.01 20-Dec-2017

 -------------------------
 #P B3LYP/6-311+g(d) force
 -------------------------

 -----
 DPGEN
 -----
 Symbolic Z-matrix:
 Charge =  0 Multiplicity = 2

                         Standard orientation:
 ---------------------------------------------------------------------
 Center     Atomic      Atomic             Coordinates (Angstroms)
 Number     Number       Type             X           Y           Z
 ---------------------------------------------------------------------
      1         11           0       -0.585631   -0.213145    1.996499
      2         11           0        2.680274    1.204276    0.157975
      3         11           0        2.624571   -2.011268    0.125057
      4         11           0        0.020394    2.815345   -0.059615
      5         11           0       -3.314856    0.726249   -0.207786
      6         11           0       -1.816921   -2.383304   -0.234987
      7         11           0        0.392170   -0.138153   -1.777142
 ---------------------------------------------------------------------

 SCF Done:  E(UB3LYP) =  -1136.13264084     A.U. after   20 cycles

 The electronic state is 2-A.
 Alpha  occ. eigenvalues --  -38.44880 -38.43872 -38.43841 -38.43779 -38.43702
 Alpha  occ. eigenvalues --  -38.43454 -38.42801  -2.20667  -2.19693  -2.19687
 Alpha  occ. eigenvalues --   -2.19677  -2.19575  -2.19382  -2.18669  -1.14341
 Alpha  occ. eigenvalues --   -1.14318  -1.14314  -1.13432  -1.13389  -1.13374
 Alpha  occ. eigenvalues --   -1.13356  -1.13353  -1.13340  -1.13326  -1.13302
 Alpha  occ. eigenvalues --   -1.13287  -1.13239  -1.13203  -1.13189  -1.13061
 Alpha  occ. eigenvalues --   -1.13017  -1.12998  -1.12354  -1.12328  -1.12305
 Alpha  occ. eigenvalues --   -0.18440  -0.13508  -0.11985  -0.10619
 Alpha virt. eigenvalues --   -0.06231  -0.05348  -0.04301  -0.03533  -0.02661
 Alpha virt. eigenvalues --   -0.02510  -0.01899  -0.01088  -0.00547  -0.00248
 Alpha virt. eigenvalues --   -0.00054   0.00338   0.00712   0.00791   0.00817

  Beta  occ. eigenvalues --  -38.44878 -38.43872 -38.43832 -38.43774 -38.43617
  Beta  occ. eigenvalues --  -38.43384 -38.42797  -2.20666  -2.19693  -2.19683
  Beta  occ. eigenvalues --   -2.19666  -2.19418  -2.19254  -2.18665  -1.14321
  Beta  occ. eigenvalues --   -1.14320  -1.14315  -1.13435  -1.13383  -1.13361
  Beta  occ. eigenvalues --   -1.13339  -1.13329  -1.13317  -1.13311  -1.13299
  Beta  occ. eigenvalues --   -1.13288  -1.13136  -1.13094  -1.13077  -1.12975
  Beta  occ. eigenvalues --   -1.12923  -1.12906  -1.12354  -1.12313  -1.12292
  Beta  occ. eigenvalues --   -0.17717  -0.13310  -0.11768
  Beta virt. eigenvalues --   -0.06762  -0.06149  -0.05299  -0.04278  -0.02744
  Beta virt. eigenvalues --   -0.01940  -0.01796  -0.01485  -0.01004  -0.00607
  Beta virt. eigenvalues --   -0.00283   0.00109   0.00367   0.00783   0.00827

 Mulliken charges and spin densities:
               1          2
     1  Na  -0.369656   0.714117
     2  Na   0.121894   0.053942
     3  Na   0.161625  -0.081637
     4  Na  -0.025623  -0.070205
     5  Na   0.107945  -0.046362
     6  Na   0.129833  -0.120659
     7  Na  -0.126017   0.550804
 Sum of Mulliken charges =  -0.00000   1.00000

 Dipole moment (field-independent basis, Debye):
    X=             -0.5831    Y=             -0.2611    Z=              0.0291  Tot=              0.6395
 Quadrupole moment (field-independent basis, Debye-Ang):
   XX=            -53.5901   YY=            -65.6237   ZZ=            -74.6270
   XY=             -1.5591   XZ=              2.0541   YZ=              0.0147

 Normal termination of Gaussian 16 at Tue Dec  5 20:10:51 2023.
