 Gaussian 16, Revision B.01,
 Gaussian 16:  ES64L-G16RevB.01 20-Dec-2017

 -------------------------
 #P B3LYP/6-311+g(d) force
 -------------------------

 -----
 DPGEN
 -----
 Symbolic Z-matrix:
 Charge =  0 Multiplicity = 2

                         Standard orientation:
 ---------------------------------------------------------------------
 Center     Atomic      Atomic             Coordinates (Angstroms)
 Number     Number       Type             X           Y           Z
 ---------------------------------------------------------------------
      1         11           0       -2.323024   -1.273239    1.514099
      2         11           0       -0.797868    1.408797   -0.415992
      3         11           0        1.978525    0.525021    1.270803
      4         11           0        0.371566   -2.214352   -0.845697
      5         11           0        3.638569   -2.090736   -0.482407
      6         11           0        1.360214    3.751923   -0.297045
      7         11           0       -4.227982   -0.107415   -0.743762
 ---------------------------------------------------------------------

 SCF Done:  E(UB3LYP) =  -1136.12251739     A.U. after   23 cycles

 The electronic state is 2-A.
 Alpha  occ. eigenvalues --  -38.44843 -38.44673 -38.44033 -38.43896 -38.43873
 Alpha  occ. eigenvalues --  -38.43450 -38.43228  -2.20668  -2.20489  -2.19887
 Alpha  occ. eigenvalues --   -2.19785  -2.19685  -2.19295  -2.19062  -1.14377
 Alpha  occ. eigenvalues --   -1.14350  -1.14264  -1.14194  -1.14147  -1.14112
 Alpha  occ. eigenvalues --   -1.13559  -1.13552  -1.13531  -1.13495  -1.13482
 Alpha  occ. eigenvalues --   -1.13440  -1.13341  -1.13334  -1.13281  -1.12949
 Alpha  occ. eigenvalues --   -1.12933  -1.12910  -1.12720  -1.12707  -1.12689
 Alpha  occ. eigenvalues --   -0.17505  -0.13698  -0.12733  -0.09705
 Alpha virt. eigenvalues --   -0.06774  -0.05756  -0.04679  -0.03380  -0.02771
 Alpha virt. eigenvalues --   -0.02514  -0.01793  -0.01409  -0.01047  -0.00536
 Alpha virt. eigenvalues --   -0.00182  -0.00041   0.00155   0.00519   0.00621

  Beta  occ. eigenvalues --  -38.44833 -38.44667 -38.44004 -38.43887 -38.43872
  Beta  occ. eigenvalues --  -38.43380 -38.43182  -2.20652  -2.20482  -2.19837
  Beta  occ. eigenvalues --   -2.19772  -2.19685  -2.19162  -2.18973  -1.14361
  Beta  occ. eigenvalues --   -1.14318  -1.14261  -1.14194  -1.14138  -1.14084
  Beta  occ. eigenvalues --   -1.13528  -1.13514  -1.13492  -1.13469  -1.13444
  Beta  occ. eigenvalues --   -1.13430  -1.13340  -1.13333  -1.13280  -1.12859
  Beta  occ. eigenvalues --   -1.12840  -1.12825  -1.12659  -1.12645  -1.12635
  Beta  occ. eigenvalues --   -0.16983  -0.13271  -0.12495
  Beta virt. eigenvalues --   -0.06663  -0.06259  -0.05476  -0.04258  -0.03105
  Beta virt. eigenvalues --   -0.02484  -0.02284  -0.01688  -0.01159  -0.00435
  Beta virt. eigenvalues --   -0.00429   0.00121   0.00162   0.00328   0.00581

 Mulliken charges and spin densities:
               1          2
     1  Na   0.413935   0.213052
     2  Na  -1.651716   0.027924
     3  Na  -0.073740   0.175035
     4  Na  -0.166181  -0.030700
     5  Na   0.267970   0.248933
     6  Na   0.806456  -0.094855
     7  Na   0.403276   0.460612
 Sum of Mulliken charges =  -0.00000   1.00000

 Dipole moment (field-independent basis, Debye):
    X=              0.6886    Y=              0.1022    Z=              0.7537  Tot=              1.0260
 Quadrupole moment (field-independent basis, Debye-Ang):
   XX=            -70.2655   YY=            -65.8981   ZZ=            -66.3160
   XY=              7.5098   XZ=              0.5573   YZ=              0.1081

 Normal termination of Gaussian 16 at Tue Nov 28 23:35:15 2023.
