 Gaussian 16, Revision B.01,
 Gaussian 16:  ES64L-G16RevB.01 20-Dec-2017

 -------------------------
 #P B3LYP/6-311+g(d) force
 -------------------------

 -----
 DPGEN
 -----
 Symbolic Z-matrix:
 Charge =  0 Multiplicity = 2

                         Standard orientation:
 ---------------------------------------------------------------------
 Center     Atomic      Atomic             Coordinates (Angstroms)
 Number     Number       Type             X           Y           Z
 ---------------------------------------------------------------------
      1         11           0        0.083643   -1.833152   -0.800417
      2         11           0       -3.491184   -1.980904    0.871984
      3         11           0        3.119076   -3.194293    0.021988
      4         11           0       -0.507475    1.611927   -0.621412
      5         11           0       -3.946117    1.208360   -0.234438
      6         11           0        1.972436    3.527576    0.387758
      7         11           0        2.769620    0.660486    0.374537
 ---------------------------------------------------------------------

 SCF Done:  E(UB3LYP) =  -1136.11841594     A.U. after   24 cycles

 The electronic state is 2-A.
 Alpha  occ. eigenvalues --  -38.45066 -38.44879 -38.44736 -38.44141 -38.43552
 Alpha  occ. eigenvalues --  -38.43459 -38.43149  -2.20844  -2.20679  -2.20504
 Alpha  occ. eigenvalues --   -2.20019  -2.19433  -2.19277  -2.19048  -1.14524
 Alpha  occ. eigenvalues --   -1.14506  -1.14487  -1.14380  -1.14369  -1.14280
 Alpha  occ. eigenvalues --   -1.14174  -1.14172  -1.14125  -1.13703  -1.13699
 Alpha  occ. eigenvalues --   -1.13677  -1.13090  -1.13072  -1.13067  -1.12925
 Alpha  occ. eigenvalues --   -1.12923  -1.12890  -1.12745  -1.12718  -1.12634
 Alpha  occ. eigenvalues --   -0.17039  -0.13868  -0.12930  -0.09880
 Alpha virt. eigenvalues --   -0.07272  -0.05489  -0.04254  -0.03723  -0.03063
 Alpha virt. eigenvalues --   -0.02242  -0.01871  -0.01520  -0.01437  -0.00720
 Alpha virt. eigenvalues --   -0.00223   0.00217   0.00234   0.00477   0.00647

  Beta  occ. eigenvalues --  -38.45063 -38.44864 -38.44743 -38.44120 -38.43529
  Beta  occ. eigenvalues --  -38.43369 -38.43098  -2.20846  -2.20654  -2.20516
  Beta  occ. eigenvalues --   -2.19982  -2.19391  -2.19108  -2.18954  -1.14531
  Beta  occ. eigenvalues --   -1.14495  -1.14462  -1.14360  -1.14340  -1.14268
  Beta  occ. eigenvalues --   -1.14182  -1.14180  -1.14131  -1.13685  -1.13678
  Beta  occ. eigenvalues --   -1.13623  -1.13053  -1.13042  -1.13038  -1.12809
  Beta  occ. eigenvalues --   -1.12805  -1.12780  -1.12678  -1.12655  -1.12569
  Beta  occ. eigenvalues --   -0.16601  -0.13232  -0.12773
  Beta virt. eigenvalues --   -0.07090  -0.06287  -0.05403  -0.04078  -0.03214
  Beta virt. eigenvalues --   -0.02745  -0.01989  -0.01724  -0.01256  -0.01148
  Beta virt. eigenvalues --   -0.00402   0.00020   0.00307   0.00464   0.00579

 Mulliken charges and spin densities:
               1          2
     1  Na  -0.836912   0.129093
     2  Na   0.196680   0.501784
     3  Na   0.735900  -0.087009
     4  Na  -0.865615   0.048796
     5  Na  -0.080636   0.004717
     6  Na   1.757322   0.180700
     7  Na  -0.906740   0.221919
 Sum of Mulliken charges =  -0.00000   1.00000

 Dipole moment (field-independent basis, Debye):
    X=              0.8960    Y=              0.1662    Z=             -0.1679  Tot=              0.9266
 Quadrupole moment (field-independent basis, Debye-Ang):
   XX=            -62.2553   YY=            -61.0444   ZZ=            -73.6826
   XY=            -13.2430   XZ=              2.6656   YZ=              0.9150

 Normal termination of Gaussian 16 at Sun Dec  3 23:44:46 2023.
