 Gaussian 16, Revision B.01,
 Gaussian 16:  ES64L-G16RevB.01 20-Dec-2017

 -------------------------
 #P B3LYP/6-311+g(d) force
 -------------------------

 -----
 DPGEN
 -----
 Symbolic Z-matrix:
 Charge =  0 Multiplicity = 2

                         Standard orientation:
 ---------------------------------------------------------------------
 Center     Atomic      Atomic             Coordinates (Angstroms)
 Number     Number       Type             X           Y           Z
 ---------------------------------------------------------------------
      1         11           0        0.572368   -1.981180   -0.786246
      2         11           0        2.460268    0.830892   -0.117656
      3         11           0       -1.489665    1.136633   -0.922427
      4         11           0       -3.133057   -1.854139   -0.752096
      5         11           0       -2.700706   -0.128170    1.971977
      6         11           0        0.624948    4.172852   -0.036701
      7         11           0        3.665845   -2.176889    0.643150
 ---------------------------------------------------------------------

 SCF Done:  E(UB3LYP) =  -1136.12627558     A.U. after   19 cycles

 The electronic state is 2-A.
 Alpha  occ. eigenvalues --  -38.44458 -38.44164 -38.44151 -38.43856 -38.43850
 Alpha  occ. eigenvalues --  -38.43826 -38.43716  -2.20304  -2.19998  -2.19986
 Alpha  occ. eigenvalues --   -2.19718  -2.19680  -2.19678  -2.19468  -1.13987
 Alpha  occ. eigenvalues --   -1.13967  -1.13946  -1.13717  -1.13706  -1.13693
 Alpha  occ. eigenvalues --   -1.13689  -1.13582  -1.13576  -1.13384  -1.13367
 Alpha  occ. eigenvalues --   -1.13359  -1.13350  -1.13345  -1.13330  -1.13328
 Alpha  occ. eigenvalues --   -1.13312  -1.13239  -1.13144  -1.13139  -1.13095
 Alpha  occ. eigenvalues --   -0.17341  -0.14053  -0.12176  -0.10183
 Alpha virt. eigenvalues --   -0.06073  -0.05564  -0.05318  -0.03552  -0.02330
 Alpha virt. eigenvalues --   -0.02195  -0.02026  -0.01573  -0.01134  -0.00606
 Alpha virt. eigenvalues --   -0.00118   0.00129   0.00331   0.00599   0.00618

  Beta  occ. eigenvalues --  -38.44447 -38.44160 -38.44136 -38.43827 -38.43788
  Beta  occ. eigenvalues --  -38.43761 -38.43723  -2.20290  -2.19981  -2.19973
  Beta  occ. eigenvalues --   -2.19634  -2.19614  -2.19540  -2.19480  -1.13982
  Beta  occ. eigenvalues --   -1.13959  -1.13893  -1.13703  -1.13693  -1.13684
  Beta  occ. eigenvalues --   -1.13645  -1.13572  -1.13566  -1.13340  -1.13323
  Beta  occ. eigenvalues --   -1.13312  -1.13299  -1.13282  -1.13236  -1.13226
  Beta  occ. eigenvalues --   -1.13215  -1.13181  -1.13151  -1.13147  -1.13102
  Beta  occ. eigenvalues --   -0.16729  -0.13670  -0.12088
  Beta virt. eigenvalues --   -0.06450  -0.05839  -0.05307  -0.05183  -0.03098
  Beta virt. eigenvalues --   -0.02069  -0.02016  -0.01654  -0.01184  -0.01059
  Beta virt. eigenvalues --   -0.00354   0.00188   0.00242   0.00583   0.00665

 Mulliken charges and spin densities:
               1          2
     1  Na  -0.712524   0.039459
     2  Na  -0.634924   0.040055
     3  Na  -0.785632   0.340943
     4  Na   1.081041   0.173705
     5  Na  -0.213658   0.356135
     6  Na   0.296328  -0.087792
     7  Na   0.969368   0.137496
 Sum of Mulliken charges =  -0.00000   1.00000

 Dipole moment (field-independent basis, Debye):
    X=              0.1219    Y=             -0.7468    Z=             -0.0799  Tot=              0.7608
 Quadrupole moment (field-independent basis, Debye-Ang):
   XX=            -61.7273   YY=            -60.7168   ZZ=            -73.0590
   XY=              1.7443   XZ=              6.1928   YZ=             -0.0752

 Normal termination of Gaussian 16 at Tue Nov 28 21:37:40 2023.
