 Gaussian 16, Revision B.01,
 Gaussian 16:  ES64L-G16RevB.01 20-Dec-2017

 -------------------------
 #P B3LYP/6-311+g(d) force
 -------------------------

 -----
 DPGEN
 -----
 Symbolic Z-matrix:
 Charge =  0 Multiplicity = 2

                         Standard orientation:
 ---------------------------------------------------------------------
 Center     Atomic      Atomic             Coordinates (Angstroms)
 Number     Number       Type             X           Y           Z
 ---------------------------------------------------------------------
      1         11           0       -2.870798    1.332207    0.140596
      2         11           0       -2.592686   -2.087941   -0.091655
      3         11           0        2.957122    0.752645    0.163215
      4         11           0        2.084082   -2.546537   -0.091577
      5         11           0       -0.080021   -0.660630   -1.515486
      6         11           0        0.469343    3.056885   -0.671541
      7         11           0        0.032959    0.153369    2.066449
 ---------------------------------------------------------------------

 SCF Done:  E(UB3LYP) =  -1136.13395257     A.U. after   20 cycles

 The electronic state is 2-A.
 Alpha  occ. eigenvalues --  -38.44310 -38.44201 -38.44058 -38.43888 -38.43692
 Alpha  occ. eigenvalues --  -38.43235 -38.43233  -2.20114  -2.20018  -2.19898
 Alpha  occ. eigenvalues --   -2.19713  -2.19550  -2.19173  -2.19037  -1.13792
 Alpha  occ. eigenvalues --   -1.13782  -1.13760  -1.13708  -1.13670  -1.13644
 Alpha  occ. eigenvalues --   -1.13578  -1.13567  -1.13541  -1.13408  -1.13363
 Alpha  occ. eigenvalues --   -1.13348  -1.13219  -1.13174  -1.13167  -1.12860
 Alpha  occ. eigenvalues --   -1.12808  -1.12804  -1.12705  -1.12691  -1.12681
 Alpha  occ. eigenvalues --   -0.18166  -0.13249  -0.12178  -0.10455
 Alpha virt. eigenvalues --   -0.05839  -0.05662  -0.04700  -0.03276  -0.02799
 Alpha virt. eigenvalues --   -0.02315  -0.01673  -0.01358  -0.00696  -0.00500
 Alpha virt. eigenvalues --   -0.00010   0.00344   0.00714   0.00765   0.00861

  Beta  occ. eigenvalues --  -38.44307 -38.44199 -38.44053 -38.43887 -38.43597
  Beta  occ. eigenvalues --  -38.43215 -38.43185  -2.20111  -2.20018  -2.19893
  Beta  occ. eigenvalues --   -2.19714  -2.19374  -2.19081  -2.19005  -1.13783
  Beta  occ. eigenvalues --   -1.13770  -1.13759  -1.13700  -1.13663  -1.13642
  Beta  occ. eigenvalues --   -1.13571  -1.13550  -1.13534  -1.13402  -1.13360
  Beta  occ. eigenvalues --   -1.13342  -1.13100  -1.13053  -1.13039  -1.12791
  Beta  occ. eigenvalues --   -1.12742  -1.12737  -1.12675  -1.12669  -1.12658
  Beta  occ. eigenvalues --   -0.17481  -0.13056  -0.11928
  Beta virt. eigenvalues --   -0.06641  -0.05839  -0.05548  -0.04591  -0.02510
  Beta virt. eigenvalues --   -0.02125  -0.01582  -0.01373  -0.01249  -0.00733
  Beta virt. eigenvalues --   -0.00497   0.00147   0.00383   0.00752   0.00812

 Mulliken charges and spin densities:
               1          2
     1  Na   0.059169   0.041149
     2  Na   0.064240  -0.072242
     3  Na   0.185994   0.086694
     4  Na   0.072560  -0.061119
     5  Na   0.065747   0.336210
     6  Na  -0.174336   0.066442
     7  Na  -0.273373   0.602867
 Sum of Mulliken charges =  -0.00000   1.00000

 Dipole moment (field-independent basis, Debye):
    X=             -0.2696    Y=             -0.3827    Z=              0.1981  Tot=              0.5083
 Quadrupole moment (field-independent basis, Debye-Ang):
   XX=            -54.9545   YY=            -62.2447   ZZ=            -76.0571
   XY=             -0.5777   XZ=             -0.0750   YZ=             -1.5590

 Normal termination of Gaussian 16 at Thu Dec  7 03:38:39 2023.
