 Gaussian 16, Revision B.01,
 Gaussian 16:  ES64L-G16RevB.01 20-Dec-2017

 -------------------------
 #P B3LYP/6-311+g(d) force
 -------------------------

 -----
 DPGEN
 -----
 Symbolic Z-matrix:
 Charge =  0 Multiplicity = 2

                         Standard orientation:
 ---------------------------------------------------------------------
 Center     Atomic      Atomic             Coordinates (Angstroms)
 Number     Number       Type             X           Y           Z
 ---------------------------------------------------------------------
      1         11           0       -2.435210    1.073720   -0.654186
      2         11           0        3.047793   -2.398793   -0.071254
      3         11           0       -3.239312   -1.774854    0.320931
      4         11           0       -0.251004   -1.253926   -1.247784
      5         11           0        2.315504    1.156268   -0.471298
      6         11           0        0.199352   -0.147018    2.010859
      7         11           0        0.362877    3.344602    0.112732
 ---------------------------------------------------------------------

 SCF Done:  E(UB3LYP) =  -1136.12788496     A.U. after   20 cycles

 The electronic state is 2-A.
 Alpha  occ. eigenvalues --  -38.44621 -38.44118 -38.44075 -38.43888 -38.43724
 Alpha  occ. eigenvalues --  -38.43542 -38.43238  -2.20454  -2.20000  -2.19846
 Alpha  occ. eigenvalues --   -2.19780  -2.19630  -2.19402  -2.19083  -1.14150
 Alpha  occ. eigenvalues --   -1.14111  -1.14090  -1.13708  -1.13657  -1.13608
 Alpha  occ. eigenvalues --   -1.13523  -1.13512  -1.13483  -1.13479  -1.13455
 Alpha  occ. eigenvalues --   -1.13420  -1.13340  -1.13308  -1.13212  -1.13078
 Alpha  occ. eigenvalues --   -1.13019  -1.13012  -1.12772  -1.12720  -1.12713
 Alpha  occ. eigenvalues --   -0.18220  -0.13554  -0.12239  -0.10187
 Alpha virt. eigenvalues --   -0.06075  -0.05814  -0.04622  -0.03342  -0.02513
 Alpha virt. eigenvalues --   -0.02240  -0.02055  -0.01574  -0.00742  -0.00225
 Alpha virt. eigenvalues --    0.00006   0.00235   0.00633   0.00733   0.00818

  Beta  occ. eigenvalues --  -38.44620 -38.44099 -38.44076 -38.43878 -38.43691
  Beta  occ. eigenvalues --  -38.43437 -38.43237  -2.20455  -2.19968  -2.19850
  Beta  occ. eigenvalues --   -2.19765  -2.19571  -2.19210  -2.19084  -1.14153
  Beta  occ. eigenvalues --   -1.14111  -1.14073  -1.13683  -1.13616  -1.13588
  Beta  occ. eigenvalues --   -1.13527  -1.13504  -1.13483  -1.13473  -1.13423
  Beta  occ. eigenvalues --   -1.13412  -1.13301  -1.13245  -1.13171  -1.12948
  Beta  occ. eigenvalues --   -1.12882  -1.12878  -1.12774  -1.12717  -1.12703
  Beta  occ. eigenvalues --   -0.17523  -0.13366  -0.12079
  Beta virt. eigenvalues --   -0.06343  -0.05937  -0.05734  -0.04580  -0.02649
  Beta virt. eigenvalues --   -0.01970  -0.01919  -0.01538  -0.01188  -0.00784
  Beta virt. eigenvalues --   -0.00114   0.00151   0.00307   0.00703   0.00740

 Mulliken charges and spin densities:
               1          2
     1  Na   0.003339   0.097822
     2  Na   0.315186  -0.011646
     3  Na   0.408238  -0.016040
     4  Na  -0.327165   0.227290
     5  Na  -0.036656   0.051207
     6  Na  -0.433978   0.675316
     7  Na   0.071037  -0.023950
 Sum of Mulliken charges =  -0.00000   1.00000

 Dipole moment (field-independent basis, Debye):
    X=             -0.5469    Y=             -0.7438    Z=              0.1834  Tot=              0.9413
 Quadrupole moment (field-independent basis, Debye-Ang):
   XX=            -54.3316   YY=            -61.3183   ZZ=            -76.8523
   XY=              0.2729   XZ=             -0.8607   YZ=             -1.1455

 Normal termination of Gaussian 16 at Thu Dec  7 16:33:34 2023.
