 Gaussian 16, Revision B.01,
 Gaussian 16:  ES64L-G16RevB.01 20-Dec-2017

 -------------------------
 #P B3LYP/6-311+g(d) force
 -------------------------

 -----
 DPGEN
 -----
 Symbolic Z-matrix:
 Charge =  0 Multiplicity = 2

                         Standard orientation:
 ---------------------------------------------------------------------
 Center     Atomic      Atomic             Coordinates (Angstroms)
 Number     Number       Type             X           Y           Z
 ---------------------------------------------------------------------
      1         11           0       -0.296347    0.693721   -0.582850
      2         11           0       -0.009166   -2.754919   -1.168663
      3         11           0        2.941166    2.479127    0.131536
      4         11           0       -2.547429   -1.396339    0.444663
      5         11           0       -3.503877    2.392306   -0.494202
      6         11           0        0.427413   -0.757230    2.404730
      7         11           0        2.988239   -0.656665   -0.735214
 ---------------------------------------------------------------------

 SCF Done:  E(UB3LYP) =  -1136.12408993     A.U. after   22 cycles

 The electronic state is 2-A.
 Alpha  occ. eigenvalues --  -38.44532 -38.44454 -38.44348 -38.44250 -38.43641
 Alpha  occ. eigenvalues --  -38.43420 -38.43245  -2.20320  -2.20307  -2.20191
 Alpha  occ. eigenvalues --   -2.20091  -2.19393  -2.19350  -2.19100  -1.14015
 Alpha  occ. eigenvalues --   -1.13996  -1.13990  -1.13980  -1.13966  -1.13907
 Alpha  occ. eigenvalues --   -1.13857  -1.13813  -1.13786  -1.13771  -1.13751
 Alpha  occ. eigenvalues --   -1.13706  -1.13083  -1.13066  -1.13062  -1.13026
 Alpha  occ. eigenvalues --   -1.13020  -1.12950  -1.12771  -1.12753  -1.12726
 Alpha  occ. eigenvalues --   -0.18016  -0.13376  -0.11652  -0.10907
 Alpha virt. eigenvalues --   -0.06428  -0.05743  -0.04523  -0.03195  -0.02609
 Alpha virt. eigenvalues --   -0.02416  -0.01989  -0.01554  -0.00949  -0.00379
 Alpha virt. eigenvalues --   -0.00222   0.00198   0.00352   0.00599   0.00726

  Beta  occ. eigenvalues --  -38.44534 -38.44449 -38.44232 -38.44231 -38.43639
  Beta  occ. eigenvalues --  -38.43406 -38.43211  -2.20323  -2.20302  -2.20060
  Beta  occ. eigenvalues --   -2.19975  -2.19389  -2.19329  -2.19038  -1.14015
  Beta  occ. eigenvalues --   -1.13998  -1.13980  -1.13966  -1.13961  -1.13905
  Beta  occ. eigenvalues --   -1.13745  -1.13730  -1.13709  -1.13679  -1.13662
  Beta  occ. eigenvalues --   -1.13638  -1.13062  -1.13059  -1.13038  -1.13023
  Beta  occ. eigenvalues --   -1.13004  -1.12941  -1.12728  -1.12705  -1.12682
  Beta  occ. eigenvalues --   -0.17329  -0.13248  -0.11411
  Beta virt. eigenvalues --   -0.07018  -0.06220  -0.05564  -0.04272  -0.02610
  Beta virt. eigenvalues --   -0.02090  -0.01908  -0.01754  -0.01309  -0.00799
  Beta virt. eigenvalues --   -0.00307   0.00003   0.00264   0.00538   0.00616

 Mulliken charges and spin densities:
               1          2
     1  Na  -1.901009   0.280386
     2  Na   0.162837   0.125453
     3  Na   0.180540  -0.010480
     4  Na   0.748169   0.129418
     5  Na   0.131752  -0.084732
     6  Na  -0.275462   0.448432
     7  Na   0.953173   0.111523
 Sum of Mulliken charges =  -0.00000   1.00000

 Dipole moment (field-independent basis, Debye):
    X=              0.7167    Y=             -0.1551    Z=              0.4755  Tot=              0.8739
 Quadrupole moment (field-independent basis, Debye-Ang):
   XX=            -57.0115   YY=            -63.1374   ZZ=            -73.4567
   XY=              4.0114   XZ=             -0.5240   YZ=              0.8990

 Normal termination of Gaussian 16 at Tue Dec  5 21:42:57 2023.
