 Gaussian 16, Revision B.01,
 Gaussian 16:  ES64L-G16RevB.01 20-Dec-2017

 -------------------------
 #P B3LYP/6-311+g(d) force
 -------------------------

 -----
 DPGEN
 -----
 Symbolic Z-matrix:
 Charge =  0 Multiplicity = 2

                         Standard orientation:
 ---------------------------------------------------------------------
 Center     Atomic      Atomic             Coordinates (Angstroms)
 Number     Number       Type             X           Y           Z
 ---------------------------------------------------------------------
      1         11           0       -0.543542    2.983426    0.314135
      2         11           0        2.376688   -1.908011   -0.444447
      3         11           0       -3.154542    0.400295   -0.284991
      4         11           0       -0.262663    0.205160   -1.662839
      5         11           0        2.980307    1.216965   -0.099425
      6         11           0        0.196239   -0.429745    2.043544
      7         11           0       -1.592488   -2.468090    0.134023
 ---------------------------------------------------------------------

 SCF Done:  E(UB3LYP) =  -1136.13626843     A.U. after   20 cycles

 The electronic state is 2-A.
 Alpha  occ. eigenvalues --  -38.44236 -38.44219 -38.43745 -38.43596 -38.43428
 Alpha  occ. eigenvalues --  -38.43298 -38.43248  -2.20072  -2.20054  -2.19592
 Alpha  occ. eigenvalues --   -2.19478  -2.19373  -2.19166  -2.19056  -1.13771
 Alpha  occ. eigenvalues --   -1.13737  -1.13727  -1.13722  -1.13701  -1.13692
 Alpha  occ. eigenvalues --   -1.13262  -1.13255  -1.13227  -1.13151  -1.13107
 Alpha  occ. eigenvalues --   -1.13097  -1.13060  -1.13010  -1.13007  -1.12839
 Alpha  occ. eigenvalues --   -1.12824  -1.12801  -1.12728  -1.12723  -1.12691
 Alpha  occ. eigenvalues --   -0.18461  -0.13351  -0.12107  -0.10728
 Alpha virt. eigenvalues --   -0.05864  -0.05214  -0.04599  -0.03335  -0.02870
 Alpha virt. eigenvalues --   -0.02498  -0.01693  -0.01084  -0.00464  -0.00382
 Alpha virt. eigenvalues --   -0.00023   0.00354   0.00750   0.00857   0.00877

  Beta  occ. eigenvalues --  -38.44233 -38.44212 -38.43734 -38.43501 -38.43372
  Beta  occ. eigenvalues --  -38.43292 -38.43243  -2.20061  -2.20052  -2.19574
  Beta  occ. eigenvalues --   -2.19304  -2.19271  -2.19158  -2.19048  -1.13756
  Beta  occ. eigenvalues --   -1.13737  -1.13711  -1.13708  -1.13694  -1.13687
  Beta  occ. eigenvalues --   -1.13249  -1.13234  -1.13207  -1.13041  -1.12989
  Beta  occ. eigenvalues --   -1.12983  -1.12974  -1.12940  -1.12929  -1.12830
  Beta  occ. eigenvalues --   -1.12805  -1.12784  -1.12720  -1.12707  -1.12684
  Beta  occ. eigenvalues --   -0.17753  -0.13098  -0.11883
  Beta virt. eigenvalues --   -0.06864  -0.05789  -0.05218  -0.04497  -0.02589
  Beta virt. eigenvalues --   -0.02119  -0.01589  -0.01491  -0.01016  -0.00482
  Beta virt. eigenvalues --   -0.00423   0.00125   0.00394   0.00831   0.00861

 Mulliken charges and spin densities:
               1          2
     1  Na  -0.129186  -0.038643
     2  Na   0.150728  -0.004790
     3  Na   0.234907  -0.013087
     4  Na  -0.080890   0.394521
     5  Na   0.004872  -0.048322
     6  Na  -0.407053   0.756278
     7  Na   0.226623  -0.045957
 Sum of Mulliken charges =  -0.00000   1.00000

 Dipole moment (field-independent basis, Debye):
    X=              0.0671    Y=              0.0268    Z=              0.0436  Tot=              0.0844
 Quadrupole moment (field-independent basis, Debye-Ang):
   XX=            -55.3191   YY=            -64.3775   ZZ=            -74.2345
   XY=              0.3890   XZ=             -0.5327   YZ=              1.5929

 Normal termination of Gaussian 16 at Thu Dec  7 03:04:09 2023.
