 Gaussian 16, Revision B.01,
 Gaussian 16:  ES64L-G16RevB.01 20-Dec-2017

 -------------------------
 #P B3LYP/6-311+g(d) force
 -------------------------

 -----
 DPGEN
 -----
 Symbolic Z-matrix:
 Charge =  0 Multiplicity = 2

                         Standard orientation:
 ---------------------------------------------------------------------
 Center     Atomic      Atomic             Coordinates (Angstroms)
 Number     Number       Type             X           Y           Z
 ---------------------------------------------------------------------
      1         11           0        3.551909   -0.727578    0.557301
      2         11           0        1.510703    2.237297    0.264454
      3         11           0        1.147428   -0.504621   -2.034266
      4         11           0       -1.856052    1.719508   -1.118363
      5         11           0       -2.205989    0.270458    2.260392
      6         11           0        0.523410   -1.386463    0.955961
      7         11           0       -2.671409   -1.608601   -0.885479
 ---------------------------------------------------------------------

 SCF Done:  E(UB3LYP) =  -1136.12679972     A.U. after   25 cycles

 The electronic state is 2-A.
 Alpha  occ. eigenvalues --  -38.44630 -38.44484 -38.44445 -38.44400 -38.43369
 Alpha  occ. eigenvalues --  -38.42971 -38.42865  -2.20500  -2.20297  -2.20265
 Alpha  occ. eigenvalues --   -2.20246  -2.19192  -2.18798  -2.18794  -1.14220
 Alpha  occ. eigenvalues --   -1.14124  -1.14106  -1.13964  -1.13960  -1.13937
 Alpha  occ. eigenvalues --   -1.13932  -1.13929  -1.13902  -1.13898  -1.13876
 Alpha  occ. eigenvalues --   -1.13873  -1.12874  -1.12846  -1.12816  -1.12512
 Alpha  occ. eigenvalues --   -1.12478  -1.12470  -1.12466  -1.12431  -1.12409
 Alpha  occ. eigenvalues --   -0.18298  -0.13805  -0.11554  -0.10848
 Alpha virt. eigenvalues --   -0.06179  -0.05387  -0.04794  -0.03231  -0.02821
 Alpha virt. eigenvalues --   -0.02569  -0.01986  -0.00928  -0.00714  -0.00092
 Alpha virt. eigenvalues --    0.00122   0.00283   0.00361   0.00480   0.00746

  Beta  occ. eigenvalues --  -38.44577 -38.44459 -38.44403 -38.44382 -38.43346
  Beta  occ. eigenvalues --  -38.42966 -38.42849  -2.20403  -2.20253  -2.20251
  Beta  occ. eigenvalues --   -2.20147  -2.19149  -2.18791  -2.18771  -1.14155
  Beta  occ. eigenvalues --   -1.14047  -1.14038  -1.13936  -1.13935  -1.13922
  Beta  occ. eigenvalues --   -1.13896  -1.13887  -1.13881  -1.13850  -1.13816
  Beta  occ. eigenvalues --   -1.13798  -1.12842  -1.12814  -1.12787  -1.12479
  Beta  occ. eigenvalues --   -1.12469  -1.12443  -1.12433  -1.12427  -1.12400
  Beta  occ. eigenvalues --   -0.17570  -0.13596  -0.10673
  Beta virt. eigenvalues --   -0.07763  -0.05910  -0.04867  -0.04542  -0.02918
  Beta virt. eigenvalues --   -0.02205  -0.02025  -0.01828  -0.00694  -0.00388
  Beta virt. eigenvalues --    0.00002   0.00309   0.00366   0.00378   0.00597

 Mulliken charges and spin densities:
               1          2
     1  Na   0.680051  -0.061242
     2  Na  -0.347529   0.144342
     3  Na  -0.016823   0.273944
     4  Na  -0.082079   0.066278
     5  Na   0.139416   0.187401
     6  Na  -0.640654   0.216343
     7  Na   0.267617   0.172934
 Sum of Mulliken charges =  -0.00000   1.00000

 Dipole moment (field-independent basis, Debye):
    X=              0.3282    Y=             -0.2081    Z=             -0.1140  Tot=              0.4050
 Quadrupole moment (field-independent basis, Debye-Ang):
   XX=            -50.9674   YY=            -76.0386   ZZ=            -67.0177
   XY=              0.7341   XZ=              0.8566   YZ=              7.5452

 Normal termination of Gaussian 16 at Fri Dec  8 18:42:42 2023.
