 Gaussian 16, Revision B.01,
 Gaussian 16:  ES64L-G16RevB.01 20-Dec-2017

 -------------------------
 #P B3LYP/6-311+g(d) force
 -------------------------

 -----
 DPGEN
 -----
 Symbolic Z-matrix:
 Charge =  0 Multiplicity = 2

                         Standard orientation:
 ---------------------------------------------------------------------
 Center     Atomic      Atomic             Coordinates (Angstroms)
 Number     Number       Type             X           Y           Z
 ---------------------------------------------------------------------
      1         11           0        2.164880    1.532727   -1.132473
      2         11           0        2.826644   -1.399903    0.218338
      3         11           0       -3.114955   -0.566180   -0.375704
      4         11           0        0.190174   -1.254632   -1.940970
      5         11           0       -1.087147   -1.435702    1.580371
      6         11           0       -1.825191    1.905195   -0.507647
      7         11           0        0.845596    1.218495    2.158084
 ---------------------------------------------------------------------

 SCF Done:  E(UB3LYP) =  -1136.12095657     A.U. after   30 cycles

 The electronic state is 2-A.
 Alpha  occ. eigenvalues --  -38.44655 -38.44507 -38.44462 -38.44389 -38.44278
 Alpha  occ. eigenvalues --  -38.43007 -38.42695  -2.20569  -2.20357  -2.20291
 Alpha  occ. eigenvalues --   -2.20282  -2.20212  -2.18853  -2.18537  -1.14310
 Alpha  occ. eigenvalues --   -1.14232  -1.14205  -1.14166  -1.14048  -1.14035
 Alpha  occ. eigenvalues --   -1.13973  -1.13957  -1.13923  -1.13921  -1.13917
 Alpha  occ. eigenvalues --   -1.13891  -1.13833  -1.13786  -1.13729  -1.12548
 Alpha  occ. eigenvalues --   -1.12534  -1.12463  -1.12236  -1.12182  -1.12170
 Alpha  occ. eigenvalues --   -0.18611  -0.13844  -0.12109  -0.11082
 Alpha virt. eigenvalues --   -0.06023  -0.05526  -0.04196  -0.03521  -0.03370
 Alpha virt. eigenvalues --   -0.02835  -0.01569  -0.00880  -0.00351  -0.00090
 Alpha virt. eigenvalues --    0.00088   0.00377   0.00503   0.00706   0.00860

  Beta  occ. eigenvalues --  -38.44577 -38.44473 -38.44457 -38.44344 -38.44272
  Beta  occ. eigenvalues --  -38.42996 -38.42674  -2.20425  -2.20292  -2.20283
  Beta  occ. eigenvalues --   -2.20227  -2.20178  -2.18834  -2.18503  -1.14220
  Beta  occ. eigenvalues --   -1.14182  -1.14118  -1.14064  -1.14018  -1.13983
  Beta  occ. eigenvalues --   -1.13945  -1.13934  -1.13915  -1.13898  -1.13861
  Beta  occ. eigenvalues --   -1.13843  -1.13791  -1.13775  -1.13697  -1.12537
  Beta  occ. eigenvalues --   -1.12499  -1.12453  -1.12203  -1.12156  -1.12141
  Beta  occ. eigenvalues --   -0.17830  -0.13660  -0.10898
  Beta virt. eigenvalues --   -0.08199  -0.05758  -0.04960  -0.03949  -0.03175
  Beta virt. eigenvalues --   -0.02719  -0.02182  -0.01514  -0.00522  -0.00195
  Beta virt. eigenvalues --    0.00056   0.00239   0.00420   0.00566   0.00759

 Mulliken charges and spin densities:
               1          2
     1  Na   0.081295   0.181871
     2  Na   0.352844  -0.026521
     3  Na   0.721525   0.095036
     4  Na  -0.460753   0.161701
     5  Na  -0.131776   0.204581
     6  Na  -0.354269   0.215510
     7  Na  -0.208865   0.167822
 Sum of Mulliken charges =  -0.00000   1.00000

 Dipole moment (field-independent basis, Debye):
    X=              0.2817    Y=             -0.0927    Z=             -0.1443  Tot=              0.3298
 Quadrupole moment (field-independent basis, Debye-Ang):
   XX=            -56.6411   YY=            -71.1523   ZZ=            -69.8878
   XY=             -0.1320   XZ=              1.2588   YZ=             -8.3404

 Normal termination of Gaussian 16 at Tue Dec  5 10:55:30 2023.
