 Gaussian 16, Revision B.01,
 Gaussian 16:  ES64L-G16RevB.01 20-Dec-2017

 -------------------------
 #P B3LYP/6-311+g(d) force
 -------------------------

 -----
 DPGEN
 -----
 Symbolic Z-matrix:
 Charge =  0 Multiplicity = 2

                         Standard orientation:
 ---------------------------------------------------------------------
 Center     Atomic      Atomic             Coordinates (Angstroms)
 Number     Number       Type             X           Y           Z
 ---------------------------------------------------------------------
      1         11           0       -2.955751   -2.530999   -0.079994
      2         11           0       -4.007313    0.160804    1.088942
      3         11           0       -1.956709    2.890079   -0.605312
      4         11           0        1.317339    2.934495   -1.051167
      5         11           0        3.265576    1.566106    1.436992
      6         11           0        3.644013   -2.264564    0.061664
      7         11           0        0.692845   -2.755921   -0.851125
 ---------------------------------------------------------------------

 SCF Done:  E(UB3LYP) =  -1136.10743613     A.U. after   21 cycles

 The electronic state is 2-A.
 Alpha  occ. eigenvalues --  -38.45002 -38.44904 -38.44626 -38.44309 -38.44215
 Alpha  occ. eigenvalues --  -38.44158 -38.43955  -2.20795  -2.20685  -2.20429
 Alpha  occ. eigenvalues --   -2.20093  -2.20012  -2.19958  -2.19756  -1.14489
 Alpha  occ. eigenvalues --   -1.14457  -1.14437  -1.14373  -1.14350  -1.14321
 Alpha  occ. eigenvalues --   -1.14087  -1.14077  -1.14068  -1.13774  -1.13773
 Alpha  occ. eigenvalues --   -1.13760  -1.13656  -1.13635  -1.13633  -1.13617
 Alpha  occ. eigenvalues --   -1.13611  -1.13596  -1.13410  -1.13400  -1.13379
 Alpha  occ. eigenvalues --   -0.15674  -0.13866  -0.13290  -0.10591
 Alpha virt. eigenvalues --   -0.07632  -0.04970  -0.04367  -0.03708  -0.03481
 Alpha virt. eigenvalues --   -0.02060  -0.01957  -0.01795  -0.01452  -0.00994
 Alpha virt. eigenvalues --   -0.00684  -0.00005   0.00172   0.00179   0.00674

  Beta  occ. eigenvalues --  -38.44988 -38.44898 -38.44606 -38.44312 -38.44128
  Beta  occ. eigenvalues --  -38.44121 -38.43893  -2.20774  -2.20677  -2.20393
  Beta  occ. eigenvalues --   -2.20105  -2.19904  -2.19837  -2.19640  -1.14465
  Beta  occ. eigenvalues --   -1.14445  -1.14412  -1.14360  -1.14348  -1.14302
  Beta  occ. eigenvalues --   -1.14063  -1.14057  -1.14033  -1.13786  -1.13784
  Beta  occ. eigenvalues --   -1.13720  -1.13582  -1.13577  -1.13553  -1.13536
  Beta  occ. eigenvalues --   -1.13525  -1.13516  -1.13331  -1.13324  -1.13301
  Beta  occ. eigenvalues --   -0.15220  -0.13166  -0.12632
  Beta virt. eigenvalues --   -0.07769  -0.07363  -0.04477  -0.03966  -0.03546
  Beta virt. eigenvalues --   -0.03156  -0.01906  -0.01710  -0.01613  -0.01010
  Beta virt. eigenvalues --   -0.00840  -0.00504   0.00143   0.00248   0.00367

 Mulliken charges and spin densities:
               1          2
     1  Na   0.252482   0.122687
     2  Na  -0.016361   0.039033
     3  Na  -0.065763   0.266796
     4  Na  -0.091985  -0.009375
     5  Na  -0.086713   0.464217
     6  Na   0.499468  -0.017387
     7  Na  -0.491127   0.134029
 Sum of Mulliken charges =  -0.00000   1.00000

 Dipole moment (field-independent basis, Debye):
    X=             -0.3081    Y=             -0.5627    Z=              0.3103  Tot=              0.7126
 Quadrupole moment (field-independent basis, Debye-Ang):
   XX=            -59.5383   YY=            -72.4841   ZZ=            -69.1894
   XY=             -3.3122   XZ=             -1.3650   YZ=              0.9737

 Normal termination of Gaussian 16 at Sun Dec  3 21:41:00 2023.
