 Gaussian 16, Revision B.01,
 Gaussian 16:  ES64L-G16RevB.01 20-Dec-2017

 -------------------------
 #P B3LYP/6-311+g(d) force
 -------------------------

 -----
 DPGEN
 -----
 Symbolic Z-matrix:
 Charge =  0 Multiplicity = 2

                         Standard orientation:
 ---------------------------------------------------------------------
 Center     Atomic      Atomic             Coordinates (Angstroms)
 Number     Number       Type             X           Y           Z
 ---------------------------------------------------------------------
      1         11           0        3.074925   -0.885336   -0.404321
      2         11           0       -2.225117    1.858727    0.349493
      3         11           0        0.264610    0.328767    1.965070
      4         11           0        1.512067    2.269129   -0.269100
      5         11           0       -2.745741   -1.500975   -0.495295
      6         11           0        0.320721   -2.294640    0.607145
      7         11           0       -0.201464    0.224328   -1.752990
 ---------------------------------------------------------------------

 SCF Done:  E(UB3LYP) =  -1136.13274496     A.U. after   19 cycles

 The electronic state is 2-A.
 Alpha  occ. eigenvalues --  -38.44106 -38.43794 -38.43732 -38.43640 -38.43532
 Alpha  occ. eigenvalues --  -38.43273 -38.42834  -2.19946  -2.19781  -2.19596
 Alpha  occ. eigenvalues --   -2.19530  -2.19495  -2.19183  -2.18785  -1.13620
 Alpha  occ. eigenvalues --   -1.13605  -1.13590  -1.13494  -1.13433  -1.13393
 Alpha  occ. eigenvalues --   -1.13291  -1.13266  -1.13252  -1.13215  -1.13211
 Alpha  occ. eigenvalues --   -1.13152  -1.13142  -1.13133  -1.13113  -1.12862
 Alpha  occ. eigenvalues --   -1.12854  -1.12773  -1.12500  -1.12431  -1.12385
 Alpha  occ. eigenvalues --   -0.19210  -0.13223  -0.12260  -0.11365
 Alpha virt. eigenvalues --   -0.05608  -0.05087  -0.03903  -0.03443  -0.03040
 Alpha virt. eigenvalues --   -0.02861  -0.01621  -0.00993  -0.00131   0.00091
 Alpha virt. eigenvalues --    0.00225   0.00354   0.00800   0.00879   0.00981

  Beta  occ. eigenvalues --  -38.44101 -38.43724 -38.43698 -38.43633 -38.43465
  Beta  occ. eigenvalues --  -38.43263 -38.42816  -2.19939  -2.19606  -2.19583
  Beta  occ. eigenvalues --   -2.19483  -2.19408  -2.19170  -2.18756  -1.13617
  Beta  occ. eigenvalues --   -1.13589  -1.13579  -1.13374  -1.13325  -1.13289
  Beta  occ. eigenvalues --   -1.13260  -1.13227  -1.13203  -1.13184  -1.13154
  Beta  occ. eigenvalues --   -1.13132  -1.13122  -1.13082  -1.13040  -1.12846
  Beta  occ. eigenvalues --   -1.12819  -1.12761  -1.12469  -1.12390  -1.12369
  Beta  occ. eigenvalues --   -0.18458  -0.12955  -0.11987
  Beta virt. eigenvalues --   -0.07392  -0.05541  -0.05058  -0.03887  -0.02691
  Beta virt. eigenvalues --   -0.02231  -0.01779  -0.01515  -0.00939  -0.00000
  Beta virt. eigenvalues --    0.00061   0.00217   0.00378   0.00857   0.00894

 Mulliken charges and spin densities:
               1          2
     1  Na  -0.090795  -0.035194
     2  Na   0.172651  -0.027609
     3  Na  -0.236115   0.480818
     4  Na   0.260733  -0.037665
     5  Na  -0.045505  -0.025906
     6  Na   0.389293   0.104886
     7  Na  -0.450262   0.540669
 Sum of Mulliken charges =  -0.00000   1.00000

 Dipole moment (field-independent basis, Debye):
    X=              0.0375    Y=              0.2046    Z=             -0.1185  Tot=              0.2394
 Quadrupole moment (field-independent basis, Debye-Ang):
   XX=            -54.8207   YY=            -67.9086   ZZ=            -71.2724
   XY=             -0.3526   XZ=             -1.1714   YZ=              0.9279

 Normal termination of Gaussian 16 at Thu Dec  7 11:37:57 2023.
