 Gaussian 16, Revision B.01,
 Gaussian 16:  ES64L-G16RevB.01 20-Dec-2017

 -------------------------
 #P B3LYP/6-311+g(d) force
 -------------------------

 -----
 DPGEN
 -----
 Symbolic Z-matrix:
 Charge =  0 Multiplicity = 2

                         Standard orientation:
 ---------------------------------------------------------------------
 Center     Atomic      Atomic             Coordinates (Angstroms)
 Number     Number       Type             X           Y           Z
 ---------------------------------------------------------------------
      1         11           0        2.524858    1.197215   -0.013726
      2         11           0        0.177055   -0.077616   -1.638387
      3         11           0       -0.504515    2.912488   -0.087793
      4         11           0       -3.207519   -0.059445   -0.530974
      5         11           0        2.501951   -1.727000   -0.086463
      6         11           0       -1.057014   -2.594185    0.291417
      7         11           0       -0.434817    0.348544    2.065927
 ---------------------------------------------------------------------

 SCF Done:  E(UB3LYP) =  -1136.13517212     A.U. after   20 cycles

 The electronic state is 2-A.
 Alpha  occ. eigenvalues --  -38.44306 -38.43673 -38.43592 -38.43556 -38.43369
 Alpha  occ. eigenvalues --  -38.43275 -38.43214  -2.20118  -2.19615  -2.19488
 Alpha  occ. eigenvalues --   -2.19454  -2.19280  -2.19229  -2.19068  -1.13792
 Alpha  occ. eigenvalues --   -1.13769  -1.13757  -1.13429  -1.13305  -1.13246
 Alpha  occ. eigenvalues --   -1.13154  -1.13126  -1.13123  -1.13108  -1.13079
 Alpha  occ. eigenvalues --   -1.13052  -1.12965  -1.12939  -1.12900  -1.12895
 Alpha  occ. eigenvalues --   -1.12874  -1.12853  -1.12737  -1.12733  -1.12700
 Alpha  occ. eigenvalues --   -0.18894  -0.13232  -0.12419  -0.10906
 Alpha virt. eigenvalues --   -0.05732  -0.04806  -0.04677  -0.03366  -0.02943
 Alpha virt. eigenvalues --   -0.02584  -0.01579  -0.00996  -0.00227  -0.00140
 Alpha virt. eigenvalues --   -0.00014   0.00359   0.00812   0.00907   0.00935

  Beta  occ. eigenvalues --  -38.44293 -38.43666 -38.43554 -38.43500 -38.43360
  Beta  occ. eigenvalues --  -38.43214 -38.43211  -2.20097  -2.19607  -2.19454
  Beta  occ. eigenvalues --   -2.19318  -2.19217  -2.19169  -2.19065  -1.13764
  Beta  occ. eigenvalues --   -1.13751  -1.13745  -1.13427  -1.13291  -1.13218
  Beta  occ. eigenvalues --   -1.13115  -1.13068  -1.13050  -1.13044  -1.13002
  Beta  occ. eigenvalues --   -1.12991  -1.12920  -1.12878  -1.12865  -1.12848
  Beta  occ. eigenvalues --   -1.12822  -1.12812  -1.12730  -1.12710  -1.12695
  Beta  occ. eigenvalues --   -0.18167  -0.12975  -0.12186
  Beta virt. eigenvalues --   -0.06990  -0.05669  -0.04807  -0.04617  -0.02583
  Beta virt. eigenvalues --   -0.02168  -0.01559  -0.01453  -0.00938  -0.00254
  Beta virt. eigenvalues --   -0.00171   0.00124   0.00389   0.00858   0.00901

 Mulliken charges and spin densities:
               1          2
     1  Na   0.364549   0.033720
     2  Na  -0.413783   0.378054
     3  Na   0.199169  -0.062798
     4  Na   0.065234  -0.032513
     5  Na   0.166280   0.018709
     6  Na   0.177853   0.044758
     7  Na  -0.559302   0.620070
 Sum of Mulliken charges =  -0.00000   1.00000

 Dipole moment (field-independent basis, Debye):
    X=             -0.4291    Y=              0.0219    Z=              0.1040  Tot=              0.4420
 Quadrupole moment (field-independent basis, Debye-Ang):
   XX=            -57.2750   YY=            -63.6131   ZZ=            -73.2895
   XY=             -0.8980   XZ=              1.4951   YZ=             -0.9903

 Normal termination of Gaussian 16 at Thu Dec  7 10:26:16 2023.
