 Gaussian 16, Revision B.01,
 Gaussian 16:  ES64L-G16RevB.01 20-Dec-2017

 -------------------------
 #P B3LYP/6-311+g(d) force
 -------------------------

 -----
 DPGEN
 -----
 Symbolic Z-matrix:
 Charge =  0 Multiplicity = 2

                         Standard orientation:
 ---------------------------------------------------------------------
 Center     Atomic      Atomic             Coordinates (Angstroms)
 Number     Number       Type             X           Y           Z
 ---------------------------------------------------------------------
      1         11           0       -1.136873    1.440231    1.170568
      2         11           0        1.877555    0.778330    1.659462
      3         11           0        0.280516   -2.021352    1.378007
      4         11           0        2.274638   -1.241390   -1.148550
      5         11           0        1.097149    1.977111   -1.372834
      6         11           0       -0.836572   -0.706047   -1.489497
      7         11           0       -3.556413   -0.226883   -0.197157
 ---------------------------------------------------------------------

 SCF Done:  E(UB3LYP) =  -1136.12804118     A.U. after   22 cycles

 The electronic state is 2-A.
 Alpha  occ. eigenvalues --  -38.44079 -38.43739 -38.43709 -38.43567 -38.43478
 Alpha  occ. eigenvalues --  -38.43311 -38.42958  -2.19931  -2.19692  -2.19619
 Alpha  occ. eigenvalues --   -2.19482  -2.19399  -2.19329  -2.18911  -1.13641
 Alpha  occ. eigenvalues --   -1.13591  -1.13557  -1.13434  -1.13348  -1.13332
 Alpha  occ. eigenvalues --   -1.13286  -1.13250  -1.13229  -1.13200  -1.13137
 Alpha  occ. eigenvalues --   -1.13106  -1.13088  -1.13038  -1.13011  -1.12993
 Alpha  occ. eigenvalues --   -1.12970  -1.12921  -1.12610  -1.12574  -1.12516
 Alpha  occ. eigenvalues --   -0.19454  -0.13303  -0.12603  -0.11500
 Alpha virt. eigenvalues --   -0.05746  -0.04402  -0.04003  -0.03542  -0.03399
 Alpha virt. eigenvalues --   -0.03012  -0.01536  -0.00670  -0.00448   0.00280
 Alpha virt. eigenvalues --    0.00404   0.00483   0.00593   0.00936   0.01008

  Beta  occ. eigenvalues --  -38.44081 -38.43693 -38.43659 -38.43517 -38.43457
  Beta  occ. eigenvalues --  -38.43269 -38.42936  -2.19935  -2.19611  -2.19528
  Beta  occ. eigenvalues --   -2.19392  -2.19365  -2.19256  -2.18873  -1.13639
  Beta  occ. eigenvalues --   -1.13593  -1.13559  -1.13362  -1.13290  -1.13270
  Beta  occ. eigenvalues --   -1.13231  -1.13179  -1.13161  -1.13131  -1.13085
  Beta  occ. eigenvalues --   -1.13059  -1.13022  -1.13011  -1.12966  -1.12952
  Beta  occ. eigenvalues --   -1.12893  -1.12877  -1.12584  -1.12523  -1.12495
  Beta  occ. eigenvalues --   -0.18568  -0.13132  -0.11371
  Beta virt. eigenvalues --   -0.08276  -0.05608  -0.04147  -0.03525  -0.03130
  Beta virt. eigenvalues --   -0.02853  -0.02134  -0.01458  -0.00472  -0.00265
  Beta virt. eigenvalues --    0.00323   0.00477   0.00538   0.00684   0.00981

 Mulliken charges and spin densities:
               1          2
     1  Na  -0.153697   0.127638
     2  Na   0.297361   0.296195
     3  Na  -0.424188   0.304898
     4  Na   0.494521  -0.133495
     5  Na  -0.326482   0.240210
     6  Na  -0.008531   0.259097
     7  Na   0.121016  -0.094543
 Sum of Mulliken charges =  -0.00000   1.00000

 Dipole moment (field-independent basis, Debye):
    X=             -0.1027    Y=             -0.0797    Z=              0.0635  Tot=              0.1447
 Quadrupole moment (field-independent basis, Debye-Ang):
   XX=            -56.5350   YY=            -74.9763   ZZ=            -63.6318
   XY=              0.6557   XZ=             -1.2553   YZ=             -3.1927

 Normal termination of Gaussian 16 at Sun Dec  3 15:57:18 2023.
