 Gaussian 16, Revision B.01,
 Gaussian 16:  ES64L-G16RevB.01 20-Dec-2017

 -------------------------
 #P B3LYP/6-311+g(d) force
 -------------------------

 -----
 DPGEN
 -----
 Symbolic Z-matrix:
 Charge =  0 Multiplicity = 2

                         Standard orientation:
 ---------------------------------------------------------------------
 Center     Atomic      Atomic             Coordinates (Angstroms)
 Number     Number       Type             X           Y           Z
 ---------------------------------------------------------------------
      1         11           0       -1.589229   -2.434363    0.002493
      2         11           0        2.901035    0.935916   -0.213394
      3         11           0       -0.222909    3.031857    0.351302
      4         11           0        2.018523   -2.101455   -0.177701
      5         11           0       -0.073990   -0.280645    2.026662
      6         11           0       -2.932570    0.565520   -0.356438
      7         11           0       -0.100860    0.283171   -1.632924
 ---------------------------------------------------------------------

 SCF Done:  E(UB3LYP) =  -1136.13907552     A.U. after   19 cycles

 The electronic state is 2-A.
 Alpha  occ. eigenvalues --  -38.43832 -38.43807 -38.43557 -38.43480 -38.43433
 Alpha  occ. eigenvalues --  -38.43334 -38.43168  -2.19709  -2.19662  -2.19464
 Alpha  occ. eigenvalues --   -2.19310  -2.19303  -2.19217  -2.19165  -1.13430
 Alpha  occ. eigenvalues --   -1.13361  -1.13360  -1.13333  -1.13328  -1.13298
 Alpha  occ. eigenvalues --   -1.13141  -1.13097  -1.13088  -1.12985  -1.12980
 Alpha  occ. eigenvalues --   -1.12970  -1.12968  -1.12945  -1.12938  -1.12890
 Alpha  occ. eigenvalues --   -1.12882  -1.12847  -1.12834  -1.12800  -1.12774
 Alpha  occ. eigenvalues --   -0.18860  -0.13138  -0.12489  -0.10857
 Alpha virt. eigenvalues --   -0.05427  -0.04993  -0.04851  -0.03191  -0.02997
 Alpha virt. eigenvalues --   -0.02566  -0.01374  -0.01116  -0.00307  -0.00217
 Alpha virt. eigenvalues --    0.00003   0.00368   0.00846   0.00897   0.00928

  Beta  occ. eigenvalues --  -38.43821 -38.43802 -38.43473 -38.43463 -38.43427
  Beta  occ. eigenvalues --  -38.43329 -38.43106  -2.19692  -2.19656  -2.19303
  Beta  occ. eigenvalues --   -2.19294  -2.19289  -2.19210  -2.19054  -1.13410
  Beta  occ. eigenvalues --   -1.13356  -1.13340  -1.13318  -1.13316  -1.13287
  Beta  occ. eigenvalues --   -1.13035  -1.12988  -1.12983  -1.12966  -1.12962
  Beta  occ. eigenvalues --   -1.12955  -1.12940  -1.12933  -1.12920  -1.12880
  Beta  occ. eigenvalues --   -1.12856  -1.12832  -1.12762  -1.12716  -1.12699
  Beta  occ. eigenvalues --   -0.18132  -0.12861  -0.12256
  Beta virt. eigenvalues --   -0.06942  -0.05392  -0.05005  -0.04773  -0.02404
  Beta virt. eigenvalues --   -0.02223  -0.01511  -0.01277  -0.01036  -0.00344
  Beta virt. eigenvalues --   -0.00270   0.00133   0.00395   0.00892   0.00897

 Mulliken charges and spin densities:
               1          2
     1  Na   0.254044  -0.034020
     2  Na   0.105720  -0.047517
     3  Na  -0.015129  -0.023548
     4  Na   0.131079  -0.050192
     5  Na  -0.515002   0.770549
     6  Na   0.291820  -0.015427
     7  Na  -0.252532   0.400155
 Sum of Mulliken charges =  -0.00000   1.00000

 Dipole moment (field-independent basis, Debye):
    X=             -0.0182    Y=              0.1149    Z=              0.1410  Tot=              0.1828
 Quadrupole moment (field-independent basis, Debye-Ang):
   XX=            -58.4422   YY=            -61.6552   ZZ=            -73.7699
   XY=              0.2538   XZ=              0.0348   YZ=              1.2681

 Normal termination of Gaussian 16 at Thu Dec  7 10:34:49 2023.
