 Gaussian 16, Revision B.01,
 Gaussian 16:  ES64L-G16RevB.01 20-Dec-2017

 -------------------------
 #P B3LYP/6-311+g(d) force
 -------------------------

 -----
 DPGEN
 -----
 Symbolic Z-matrix:
 Charge =  0 Multiplicity = 2

                         Standard orientation:
 ---------------------------------------------------------------------
 Center     Atomic      Atomic             Coordinates (Angstroms)
 Number     Number       Type             X           Y           Z
 ---------------------------------------------------------------------
      1         11           0        0.781569    2.246013   -0.720064
      2         11           0       -2.324670    1.404185   -0.576012
      3         11           0        3.229469    1.062435    0.712838
      4         11           0        0.088578   -0.268644    1.943823
      5         11           0       -4.435814   -0.940763    0.605203
      6         11           0        2.785239   -2.236451   -0.278540
      7         11           0       -0.124371   -1.266775   -1.687248
 ---------------------------------------------------------------------

 SCF Done:  E(UB3LYP) =  -1136.11731635     A.U. after   26 cycles

 The electronic state is 2-A.
 Alpha  occ. eigenvalues --  -38.46324 -38.44909 -38.44488 -38.43968 -38.43650
 Alpha  occ. eigenvalues --  -38.43296 -38.42565  -2.22099  -2.20688  -2.20345
 Alpha  occ. eigenvalues --   -2.19816  -2.19525  -2.19114  -2.18471  -1.15789
 Alpha  occ. eigenvalues --   -1.15746  -1.15718  -1.14347  -1.14336  -1.14305
 Alpha  occ. eigenvalues --   -1.14039  -1.14002  -1.13967  -1.13489  -1.13467
 Alpha  occ. eigenvalues --   -1.13429  -1.13211  -1.13198  -1.13164  -1.12788
 Alpha  occ. eigenvalues --   -1.12776  -1.12755  -1.12161  -1.12130  -1.12111
 Alpha  occ. eigenvalues --   -0.18083  -0.13849  -0.11401  -0.11132
 Alpha virt. eigenvalues --   -0.07421  -0.05262  -0.04272  -0.03220  -0.03018
 Alpha virt. eigenvalues --   -0.02661  -0.02389  -0.01503  -0.00879  -0.00321
 Alpha virt. eigenvalues --   -0.00084   0.00097   0.00271   0.00537   0.00715

  Beta  occ. eigenvalues --  -38.46292 -38.44854 -38.44476 -38.43894 -38.43635
  Beta  occ. eigenvalues --  -38.43293 -38.42558  -2.22039  -2.20583  -2.20324
  Beta  occ. eigenvalues --   -2.19681  -2.19504  -2.19110  -2.18463  -1.15741
  Beta  occ. eigenvalues --   -1.15707  -1.15672  -1.14277  -1.14262  -1.14238
  Beta  occ. eigenvalues --   -1.14031  -1.13975  -1.13958  -1.13401  -1.13372
  Beta  occ. eigenvalues --   -1.13327  -1.13196  -1.13174  -1.13124  -1.12790
  Beta  occ. eigenvalues --   -1.12761  -1.12747  -1.12158  -1.12125  -1.12078
  Beta  occ. eigenvalues --   -0.17464  -0.13381  -0.11175
  Beta virt. eigenvalues --   -0.07578  -0.07096  -0.05123  -0.03767  -0.02991
  Beta virt. eigenvalues --   -0.02706  -0.02125  -0.01794  -0.01404  -0.00641
  Beta virt. eigenvalues --   -0.00165   0.00020   0.00115   0.00439   0.00639

 Mulliken charges and spin densities:
               1          2
     1  Na  -0.380912  -0.111373
     2  Na   0.099907   0.126555
     3  Na   0.734281   0.298013
     4  Na  -0.392133   0.179891
     5  Na   0.176846   0.248624
     6  Na  -0.100079  -0.107742
     7  Na  -0.137910   0.366032
 Sum of Mulliken charges =  -0.00000   1.00000

 Dipole moment (field-independent basis, Debye):
    X=             -0.2314    Y=             -0.3152    Z=              0.6328  Tot=              0.7438
 Quadrupole moment (field-independent basis, Debye-Ang):
   XX=            -54.1859   YY=            -75.5909   ZZ=            -68.7446
   XY=              1.8993   XZ=              0.3148   YZ=             -2.2835

 Normal termination of Gaussian 16 at Thu Dec  7 06:24:14 2023.
