 Gaussian 16, Revision B.01,
 Gaussian 16:  ES64L-G16RevB.01 20-Dec-2017

 -------------------------
 #P B3LYP/6-311+g(d) force
 -------------------------

 -----
 DPGEN
 -----
 Symbolic Z-matrix:
 Charge =  0 Multiplicity = 2

                         Standard orientation:
 ---------------------------------------------------------------------
 Center     Atomic      Atomic             Coordinates (Angstroms)
 Number     Number       Type             X           Y           Z
 ---------------------------------------------------------------------
      1         11           0        3.196921    0.619464   -0.062123
      2         11           0       -2.246604   -2.144032    0.228856
      3         11           0       -3.150337    1.346000   -0.360318
      4         11           0        0.158245   -0.221520    2.221876
      5         11           0       -0.010211    0.068764   -1.560090
      6         11           0        1.537675   -2.630015   -0.536563
      7         11           0        0.514310    2.961338    0.068363
 ---------------------------------------------------------------------

 SCF Done:  E(UB3LYP) =  -1136.13632360     A.U. after   18 cycles

 The electronic state is 2-A.
 Alpha  occ. eigenvalues --  -38.44230 -38.44139 -38.43917 -38.43885 -38.43497
 Alpha  occ. eigenvalues --  -38.43463 -38.43264  -2.20037  -2.19915  -2.19725
 Alpha  occ. eigenvalues --   -2.19718  -2.19313  -2.19290  -2.19210  -1.13714
 Alpha  occ. eigenvalues --   -1.13697  -1.13677  -1.13594  -1.13567  -1.13558
 Alpha  occ. eigenvalues --   -1.13404  -1.13391  -1.13375  -1.13354  -1.13349
 Alpha  occ. eigenvalues --   -1.13335  -1.13019  -1.13003  -1.12982  -1.12945
 Alpha  occ. eigenvalues --   -1.12937  -1.12916  -1.12893  -1.12838  -1.12822
 Alpha  occ. eigenvalues --   -0.18092  -0.12838  -0.12227  -0.10716
 Alpha virt. eigenvalues --   -0.05783  -0.05418  -0.04732  -0.03128  -0.02826
 Alpha virt. eigenvalues --   -0.02652  -0.01691  -0.01252  -0.00599  -0.00530
 Alpha virt. eigenvalues --   -0.00050   0.00327   0.00733   0.00825   0.00836

  Beta  occ. eigenvalues --  -38.44228 -38.44135 -38.43912 -38.43780 -38.43494
  Beta  occ. eigenvalues --  -38.43450 -38.43212  -2.20036  -2.19909  -2.19713
  Beta  occ. eigenvalues --   -2.19530  -2.19311  -2.19269  -2.19117  -1.13702
  Beta  occ. eigenvalues --   -1.13696  -1.13672  -1.13578  -1.13564  -1.13555
  Beta  occ. eigenvalues --   -1.13387  -1.13371  -1.13350  -1.13251  -1.13221
  Beta  occ. eigenvalues --   -1.13196  -1.13009  -1.12979  -1.12966  -1.12935
  Beta  occ. eigenvalues --   -1.12923  -1.12900  -1.12830  -1.12778  -1.12752
  Beta  occ. eigenvalues --   -0.17392  -0.12644  -0.11994
  Beta virt. eigenvalues --   -0.06806  -0.05743  -0.05363  -0.04659  -0.02400
  Beta virt. eigenvalues --   -0.02122  -0.01624  -0.01569  -0.01168  -0.00622
  Beta virt. eigenvalues --   -0.00573   0.00112   0.00366   0.00817   0.00822

 Mulliken charges and spin densities:
               1          2
     1  Na   0.167745  -0.015817
     2  Na   0.102497   0.017530
     3  Na   0.025061  -0.037543
     4  Na  -0.422366   0.738272
     5  Na  -0.028930   0.316450
     6  Na   0.157871   0.013272
     7  Na  -0.001878  -0.032165
 Sum of Mulliken charges =  -0.00000   1.00000

 Dipole moment (field-independent basis, Debye):
    X=              0.0165    Y=              0.0336    Z=              0.1518  Tot=              0.1563
 Quadrupole moment (field-independent basis, Debye-Ang):
   XX=            -55.3416   YY=            -62.8195   ZZ=            -74.9533
   XY=              0.1038   XZ=             -0.1227   YZ=              0.4939

 Normal termination of Gaussian 16 at Thu Dec  7 09:33:27 2023.
