 Gaussian 16, Revision B.01,
 Gaussian 16:  ES64L-G16RevB.01 20-Dec-2017

 -------------------------
 #P B3LYP/6-311+g(d) force
 -------------------------

 -----
 DPGEN
 -----
 Symbolic Z-matrix:
 Charge =  0 Multiplicity = 2

                         Standard orientation:
 ---------------------------------------------------------------------
 Center     Atomic      Atomic             Coordinates (Angstroms)
 Number     Number       Type             X           Y           Z
 ---------------------------------------------------------------------
      1         11           0        1.554909    1.495003   -0.288454
      2         11           0       -0.949657    0.191152    1.257239
      3         11           0       -1.948490   -2.726205   -0.459621
      4         11           0        2.374301   -1.745834    0.559715
      5         11           0        4.968786   -0.001510   -0.553441
      6         11           0       -4.576606   -0.210797   -0.454850
      7         11           0       -1.423242    2.998190   -0.060588
 ---------------------------------------------------------------------

 SCF Done:  E(UB3LYP) =  -1136.12516981     A.U. after   20 cycles

 The electronic state is 2-A.
 Alpha  occ. eigenvalues --  -38.44272 -38.44223 -38.43991 -38.43985 -38.43905
 Alpha  occ. eigenvalues --  -38.43795 -38.43406  -2.20054  -2.20045  -2.19815
 Alpha  occ. eigenvalues --   -2.19785  -2.19751  -2.19717  -2.19251  -1.13736
 Alpha  occ. eigenvalues --   -1.13732  -1.13716  -1.13693  -1.13675  -1.13665
 Alpha  occ. eigenvalues --   -1.13540  -1.13481  -1.13466  -1.13461  -1.13438
 Alpha  occ. eigenvalues --   -1.13434  -1.13424  -1.13411  -1.13391  -1.13379
 Alpha  occ. eigenvalues --   -1.13363  -1.13313  -1.12922  -1.12906  -1.12874
 Alpha  occ. eigenvalues --   -0.17206  -0.14020  -0.12049  -0.10747
 Alpha virt. eigenvalues --   -0.05926  -0.05294  -0.05060  -0.03771  -0.02626
 Alpha virt. eigenvalues --   -0.02224  -0.01823  -0.01668  -0.00845  -0.00592
 Alpha virt. eigenvalues --   -0.00447   0.00069   0.00437   0.00544   0.00629

  Beta  occ. eigenvalues --  -38.44210 -38.44197 -38.43991 -38.43929 -38.43900
  Beta  occ. eigenvalues --  -38.43765 -38.43403  -2.20026  -2.19913  -2.19779
  Beta  occ. eigenvalues --   -2.19764  -2.19697  -2.19667  -2.19247  -1.13726
  Beta  occ. eigenvalues --   -1.13723  -1.13622  -1.13619  -1.13594  -1.13576
  Beta  occ. eigenvalues --   -1.13509  -1.13479  -1.13450  -1.13440  -1.13400
  Beta  occ. eigenvalues --   -1.13383  -1.13380  -1.13367  -1.13359  -1.13343
  Beta  occ. eigenvalues --   -1.13321  -1.13289  -1.12919  -1.12904  -1.12864
  Beta  occ. eigenvalues --   -0.16634  -0.13466  -0.11868
  Beta virt. eigenvalues --   -0.07316  -0.05745  -0.04938  -0.04392  -0.03637
  Beta virt. eigenvalues --   -0.02301  -0.01860  -0.01587  -0.01348  -0.00556
  Beta virt. eigenvalues --   -0.00428  -0.00237   0.00228   0.00588   0.00650

 Mulliken charges and spin densities:
               1          2
     1  Na  -1.459654  -0.167295
     2  Na  -0.040844   0.092766
     3  Na  -0.009332   0.010280
     4  Na  -0.109167   0.061572
     5  Na   1.008796   0.314644
     6  Na   0.006044   0.424991
     7  Na   0.604157   0.263042
 Sum of Mulliken charges =  -0.00000   1.00000

 Dipole moment (field-independent basis, Debye):
    X=              0.3689    Y=              0.1003    Z=             -0.2454  Tot=              0.4543
 Quadrupole moment (field-independent basis, Debye-Ang):
   XX=            -62.5425   YY=            -65.8299   ZZ=            -69.5731
   XY=             -3.5575   XZ=             -0.2049   YZ=             -1.0399

 Normal termination of Gaussian 16 at Wed Nov 29 01:38:26 2023.
