 Gaussian 16, Revision B.01,
 Gaussian 16:  ES64L-G16RevB.01 20-Dec-2017

 -------------------------
 #P B3LYP/6-311+g(d) force
 -------------------------

 -----
 DPGEN
 -----
 Symbolic Z-matrix:
 Charge =  0 Multiplicity = 2

                         Standard orientation:
 ---------------------------------------------------------------------
 Center     Atomic      Atomic             Coordinates (Angstroms)
 Number     Number       Type             X           Y           Z
 ---------------------------------------------------------------------
      1         11           0        0.338253   -0.672016    2.106769
      2         11           0       -3.156398    1.299044    0.250510
      3         11           0        0.627456    2.805800    0.242020
      4         11           0       -0.409435    0.334166   -1.854106
      5         11           0       -2.361810   -2.207582   -0.197984
      6         11           0        1.999183   -2.189956   -0.332868
      7         11           0        2.962752    0.630545   -0.214341
 ---------------------------------------------------------------------

 SCF Done:  E(UB3LYP) =  -1136.13065184     A.U. after   20 cycles

 The electronic state is 2-A.
 Alpha  occ. eigenvalues --  -38.44811 -38.44157 -38.43984 -38.43827 -38.43719
 Alpha  occ. eigenvalues --  -38.43577 -38.43041  -2.20579  -2.19939  -2.19886
 Alpha  occ. eigenvalues --   -2.19680  -2.19599  -2.19453  -2.18884  -1.14257
 Alpha  occ. eigenvalues --   -1.14232  -1.14219  -1.13624  -1.13619  -1.13600
 Alpha  occ. eigenvalues --   -1.13576  -1.13546  -1.13524  -1.13349  -1.13318
 Alpha  occ. eigenvalues --   -1.13298  -1.13282  -1.13240  -1.13220  -1.13116
 Alpha  occ. eigenvalues --   -1.13095  -1.13081  -1.12563  -1.12541  -1.12525
 Alpha  occ. eigenvalues --   -0.18215  -0.13336  -0.11969  -0.10750
 Alpha virt. eigenvalues --   -0.06110  -0.05587  -0.04237  -0.03518  -0.02983
 Alpha virt. eigenvalues --   -0.02545  -0.01740  -0.01206  -0.00527  -0.00323
 Alpha virt. eigenvalues --   -0.00066   0.00363   0.00665   0.00726   0.00792

  Beta  occ. eigenvalues --  -38.44811 -38.44155 -38.43978 -38.43741 -38.43655
  Beta  occ. eigenvalues --  -38.43568 -38.43035  -2.20580  -2.19938  -2.19877
  Beta  occ. eigenvalues --   -2.19520  -2.19483  -2.19441  -2.18875  -1.14246
  Beta  occ. eigenvalues --   -1.14234  -1.14223  -1.13620  -1.13605  -1.13596
  Beta  occ. eigenvalues --   -1.13578  -1.13540  -1.13493  -1.13248  -1.13208
  Beta  occ. eigenvalues --   -1.13203  -1.13185  -1.13155  -1.13134  -1.13109
  Beta  occ. eigenvalues --   -1.13074  -1.13052  -1.12559  -1.12523  -1.12513
  Beta  occ. eigenvalues --   -0.17481  -0.13160  -0.11769
  Beta virt. eigenvalues --   -0.06899  -0.06020  -0.05531  -0.04145  -0.02784
  Beta virt. eigenvalues --   -0.02228  -0.01637  -0.01583  -0.01128  -0.00579
  Beta virt. eigenvalues --   -0.00340   0.00105   0.00400   0.00768   0.00793

 Mulliken charges and spin densities:
               1          2
     1  Na  -0.475907   0.662405
     2  Na   0.005897  -0.063175
     3  Na  -0.031397  -0.014631
     4  Na  -0.045754   0.495632
     5  Na   0.033838  -0.137483
     6  Na   0.317405  -0.009498
     7  Na   0.195918   0.066750
 Sum of Mulliken charges =  -0.00000   1.00000

 Dipole moment (field-independent basis, Debye):
    X=             -0.7594    Y=             -0.0874    Z=              0.0694  Tot=              0.7675
 Quadrupole moment (field-independent basis, Debye-Ang):
   XX=            -55.4397   YY=            -66.0789   ZZ=            -73.3508
   XY=             -0.6045   XZ=             -1.6706   YZ=              2.2560

 Normal termination of Gaussian 16 at Tue Dec  5 12:25:45 2023.
