 Gaussian 16, Revision B.01,
 Gaussian 16:  ES64L-G16RevB.01 20-Dec-2017

 -------------------------
 #P B3LYP/6-311+g(d) force
 -------------------------

 -----
 DPGEN
 -----
 Symbolic Z-matrix:
 Charge =  0 Multiplicity = 2

                         Standard orientation:
 ---------------------------------------------------------------------
 Center     Atomic      Atomic             Coordinates (Angstroms)
 Number     Number       Type             X           Y           Z
 ---------------------------------------------------------------------
      1         11           0       -1.367165   -2.079090   -1.170621
      2         11           0        2.712061   -0.113625   -1.588463
      3         11           0        3.025082   -0.555603    1.389444
      4         11           0        0.482822   -0.161259    0.138339
      5         11           0       -2.113997   -1.210242    1.673634
      6         11           0       -2.559138    1.090142   -0.796894
      7         11           0       -0.179664    3.029677    0.354560
 ---------------------------------------------------------------------

 SCF Done:  E(UB3LYP) =  -1136.10987704     A.U. after   23 cycles

 The electronic state is 2-A.
 Alpha  occ. eigenvalues --  -38.44701 -38.44698 -38.44060 -38.43827 -38.43478
 Alpha  occ. eigenvalues --  -38.42781 -38.42607  -2.20619  -2.20597  -2.19974
 Alpha  occ. eigenvalues --   -2.19725  -2.19418  -2.19028  -2.18436  -1.14450
 Alpha  occ. eigenvalues --   -1.14326  -1.14302  -1.14219  -1.14188  -1.14131
 Alpha  occ. eigenvalues --   -1.13676  -1.13613  -1.13605  -1.13411  -1.13393
 Alpha  occ. eigenvalues --   -1.13341  -1.13176  -1.13045  -1.13018  -1.12747
 Alpha  occ. eigenvalues --   -1.12695  -1.12618  -1.12113  -1.12087  -1.12074
 Alpha  occ. eigenvalues --   -0.18760  -0.14155  -0.11500  -0.10681
 Alpha virt. eigenvalues --   -0.05909  -0.05400  -0.04258  -0.03660  -0.02335
 Alpha virt. eigenvalues --   -0.02116  -0.01784  -0.00913  -0.00580   0.00155
 Alpha virt. eigenvalues --    0.00244   0.00353   0.00389   0.00720   0.00813

  Beta  occ. eigenvalues --  -38.44672 -38.44671 -38.44017 -38.43817 -38.43450
  Beta  occ. eigenvalues --  -38.42743 -38.42608  -2.20566  -2.20547  -2.19894
  Beta  occ. eigenvalues --   -2.19707  -2.19369  -2.18974  -2.18439  -1.14421
  Beta  occ. eigenvalues --   -1.14284  -1.14255  -1.14183  -1.14151  -1.14090
  Beta  occ. eigenvalues --   -1.13627  -1.13552  -1.13549  -1.13393  -1.13366
  Beta  occ. eigenvalues --   -1.13333  -1.13142  -1.13002  -1.12970  -1.12675
  Beta  occ. eigenvalues --   -1.12601  -1.12591  -1.12115  -1.12080  -1.12077
  Beta  occ. eigenvalues --   -0.18017  -0.13994  -0.11371
  Beta virt. eigenvalues --   -0.06928  -0.05703  -0.04586  -0.04141  -0.03499
  Beta virt. eigenvalues --   -0.01870  -0.01667  -0.01486  -0.00596  -0.00310
  Beta virt. eigenvalues --    0.00187   0.00376   0.00493   0.00597   0.00784

 Mulliken charges and spin densities:
               1          2
     1  Na   0.427685   0.096003
     2  Na   1.125157  -0.007113
     3  Na   0.869146  -0.370161
     4  Na  -3.268772   1.490874
     5  Na   0.138316  -0.205856
     6  Na   0.656701   0.143527
     7  Na   0.051766  -0.147273
 Sum of Mulliken charges =  -0.00000   1.00000

 Dipole moment (field-independent basis, Debye):
    X=              0.4525    Y=             -0.3811    Z=             -0.0041  Tot=              0.5916
 Quadrupole moment (field-independent basis, Debye-Ang):
   XX=            -53.1714   YY=            -73.2346   ZZ=            -65.2403
   XY=              1.5419   XZ=              0.2358   YZ=              0.0920

 Normal termination of Gaussian 16 at Fri Dec  8 00:06:36 2023.
