 Gaussian 16, Revision B.01,
 Gaussian 16:  ES64L-G16RevB.01 20-Dec-2017

 -------------------------
 #P B3LYP/6-311+g(d) force
 -------------------------

 -----
 DPGEN
 -----
 Symbolic Z-matrix:
 Charge =  0 Multiplicity = 2

                         Standard orientation:
 ---------------------------------------------------------------------
 Center     Atomic      Atomic             Coordinates (Angstroms)
 Number     Number       Type             X           Y           Z
 ---------------------------------------------------------------------
      1         11           0       -0.750222    3.308185    0.656201
      2         11           0       -0.328358   -2.485147    0.992058
      3         11           0        2.147343   -1.336308   -1.589868
      4         11           0       -2.559649    1.702141   -1.464909
      5         11           0        4.192673    0.362936   -0.564221
      6         11           0        1.111072    0.295244    2.104443
      7         11           0       -3.812858   -1.847050   -0.133703
 ---------------------------------------------------------------------

 SCF Done:  E(UB3LYP) =  -1136.10832383     A.U. after   20 cycles

 The electronic state is 2-A.
 Alpha  occ. eigenvalues --  -38.45104 -38.44951 -38.44937 -38.44591 -38.44191
 Alpha  occ. eigenvalues --  -38.43636 -38.43302  -2.20955  -2.20775  -2.20769
 Alpha  occ. eigenvalues --   -2.20330  -2.19970  -2.19445  -2.19089  -1.14796
 Alpha  occ. eigenvalues --   -1.14600  -1.14569  -1.14439  -1.14401  -1.14400
 Alpha  occ. eigenvalues --   -1.14389  -1.14382  -1.14355  -1.14005  -1.13982
 Alpha  occ. eigenvalues --   -1.13964  -1.13645  -1.13633  -1.13599  -1.13134
 Alpha  occ. eigenvalues --   -1.13115  -1.13059  -1.12755  -1.12754  -1.12740
 Alpha  occ. eigenvalues --   -0.16717  -0.13558  -0.11793  -0.11494
 Alpha virt. eigenvalues --   -0.06890  -0.05307  -0.04458  -0.03672  -0.03379
 Alpha virt. eigenvalues --   -0.02670  -0.02249  -0.01031  -0.00690  -0.00473
 Alpha virt. eigenvalues --   -0.00345  -0.00201   0.00072   0.00230   0.00568

  Beta  occ. eigenvalues --  -38.45074 -38.44907 -38.44857 -38.44571 -38.44168
  Beta  occ. eigenvalues --  -38.43612 -38.43303  -2.20902  -2.20722  -2.20597
  Beta  occ. eigenvalues --   -2.20294  -2.19927  -2.19404  -2.19092  -1.14750
  Beta  occ. eigenvalues --   -1.14565  -1.14523  -1.14367  -1.14344  -1.14319
  Beta  occ. eigenvalues --   -1.14318  -1.14280  -1.14262  -1.13980  -1.13953
  Beta  occ. eigenvalues --   -1.13942  -1.13616  -1.13607  -1.13566  -1.13095
  Beta  occ. eigenvalues --   -1.13091  -1.13026  -1.12759  -1.12756  -1.12730
  Beta  occ. eigenvalues --   -0.16010  -0.12987  -0.11730
  Beta virt. eigenvalues --   -0.07972  -0.06661  -0.04773  -0.04103  -0.03361
  Beta virt. eigenvalues --   -0.02967  -0.02245  -0.02030  -0.00923  -0.00400
  Beta virt. eigenvalues --   -0.00384  -0.00236   0.00008   0.00222   0.00417

 Mulliken charges and spin densities:
               1          2
     1  Na   0.108558  -0.029753
     2  Na   0.108507   0.023820
     3  Na  -0.137288   0.317171
     4  Na  -0.187407   0.138286
     5  Na   0.187094  -0.054479
     6  Na  -0.008180   0.464285
     7  Na  -0.071285   0.140669
 Sum of Mulliken charges =  -0.00000   1.00000

 Dipole moment (field-independent basis, Debye):
    X=              1.1191    Y=             -0.1906    Z=             -0.1837  Tot=              1.1500
 Quadrupole moment (field-independent basis, Debye-Ang):
   XX=            -59.9338   YY=            -72.6276   ZZ=            -67.8502
   XY=              4.7586   XZ=              3.6814   YZ=              2.2721

 Normal termination of Gaussian 16 at Sun Dec  3 14:36:54 2023.
