 Gaussian 16, Revision B.01,
 Gaussian 16:  ES64L-G16RevB.01 20-Dec-2017

 -------------------------
 #P B3LYP/6-311+g(d) force
 -------------------------

 -----
 DPGEN
 -----
 Symbolic Z-matrix:
 Charge =  0 Multiplicity = 2

                         Standard orientation:
 ---------------------------------------------------------------------
 Center     Atomic      Atomic             Coordinates (Angstroms)
 Number     Number       Type             X           Y           Z
 ---------------------------------------------------------------------
      1         11           0       -0.522868    1.784366    0.717831
      2         11           0        2.681909    0.203350    0.171773
      3         11           0       -0.088956   -1.875421   -1.028652
      4         11           0       -2.947610   -0.540434    1.726449
      5         11           0       -4.123742   -0.653682   -1.206066
      6         11           0        3.522363   -2.773591    0.245905
      7         11           0        1.478904    3.855411   -0.627240
 ---------------------------------------------------------------------

 SCF Done:  E(UB3LYP) =  -1136.11445037     A.U. after   27 cycles

 The electronic state is 2-A.
 Alpha  occ. eigenvalues --  -38.45596 -38.45034 -38.44124 -38.44109 -38.43459
 Alpha  occ. eigenvalues --  -38.43151 -38.43023  -2.21385  -2.20853  -2.19954
 Alpha  occ. eigenvalues --   -2.19921  -2.19317  -2.18972  -2.18854  -1.15057
 Alpha  occ. eigenvalues --   -1.15041  -1.15017  -1.14533  -1.14503  -1.14482
 Alpha  occ. eigenvalues --   -1.13685  -1.13630  -1.13612  -1.13580  -1.13570
 Alpha  occ. eigenvalues --   -1.13500  -1.13020  -1.12996  -1.12958  -1.12647
 Alpha  occ. eigenvalues --   -1.12627  -1.12564  -1.12513  -1.12503  -1.12464
 Alpha  occ. eigenvalues --   -0.16910  -0.13936  -0.12426  -0.09367
 Alpha virt. eigenvalues --   -0.07483  -0.05216  -0.04946  -0.03498  -0.02927
 Alpha virt. eigenvalues --   -0.02304  -0.01857  -0.01508  -0.01185  -0.00732
 Alpha virt. eigenvalues --   -0.00137  -0.00009   0.00260   0.00410   0.00492

  Beta  occ. eigenvalues --  -38.45561 -38.45024 -38.44125 -38.44103 -38.43445
  Beta  occ. eigenvalues --  -38.43070 -38.42983  -2.21324  -2.20839  -2.19944
  Beta  occ. eigenvalues --   -2.19922  -2.19294  -2.18823  -2.18780  -1.15015
  Beta  occ. eigenvalues --   -1.15000  -1.14953  -1.14524  -1.14489  -1.14450
  Beta  occ. eigenvalues --   -1.13684  -1.13625  -1.13597  -1.13579  -1.13568
  Beta  occ. eigenvalues --   -1.13500  -1.13009  -1.12960  -1.12932  -1.12545
  Beta  occ. eigenvalues --   -1.12523  -1.12467  -1.12458  -1.12453  -1.12413
  Beta  occ. eigenvalues --   -0.16403  -0.13458  -0.12149
  Beta virt. eigenvalues --   -0.07317  -0.05919  -0.05002  -0.04785  -0.03330
  Beta virt. eigenvalues --   -0.02453  -0.01910  -0.01723  -0.01392  -0.00962
  Beta virt. eigenvalues --   -0.00435   0.00101   0.00182   0.00396   0.00551

 Mulliken charges and spin densities:
               1          2
     1  Na  -1.395243  -0.169775
     2  Na  -0.774568   0.229507
     3  Na  -0.495704   0.166248
     4  Na   0.725519   0.509503
     5  Na   0.255470   0.158945
     6  Na   0.627503   0.175799
     7  Na   1.057023  -0.070227
 Sum of Mulliken charges =  -0.00000   1.00000

 Dipole moment (field-independent basis, Debye):
    X=             -1.7095    Y=              0.3381    Z=             -0.6710  Tot=              1.8674
 Quadrupole moment (field-independent basis, Debye-Ang):
   XX=            -76.0590   YY=            -64.3612   ZZ=            -62.0124
   XY=              4.9865   XZ=              2.6871   YZ=             -3.1431

 Normal termination of Gaussian 16 at Tue Nov 28 20:31:34 2023.
