 Gaussian 16, Revision B.01,
 Gaussian 16:  ES64L-G16RevB.01 20-Dec-2017

 -------------------------
 #P B3LYP/6-311+g(d) force
 -------------------------

 -----
 DPGEN
 -----
 Symbolic Z-matrix:
 Charge =  0 Multiplicity = 2

                         Standard orientation:
 ---------------------------------------------------------------------
 Center     Atomic      Atomic             Coordinates (Angstroms)
 Number     Number       Type             X           Y           Z
 ---------------------------------------------------------------------
      1         11           0        0.482193   -1.063841   -1.244427
      2         11           0        3.676340   -1.833845   -0.409657
      3         11           0        1.431129    0.137582    2.132507
      4         11           0       -0.917378    2.263988    0.160885
      5         11           0        2.426019    2.080694   -0.842484
      6         11           0       -2.190579   -1.357907    0.825429
      7         11           0       -4.907724   -0.226672   -0.622252
 ---------------------------------------------------------------------

 SCF Done:  E(UB3LYP) =  -1136.11755160     A.U. after   24 cycles

 The electronic state is 2-A.
 Alpha  occ. eigenvalues --  -38.45045 -38.44961 -38.44844 -38.43804 -38.43791
 Alpha  occ. eigenvalues --  -38.43447 -38.43370  -2.20880  -2.20781  -2.20628
 Alpha  occ. eigenvalues --   -2.19633  -2.19629  -2.19241  -2.19177  -1.14581
 Alpha  occ. eigenvalues --   -1.14541  -1.14512  -1.14446  -1.14429  -1.14396
 Alpha  occ. eigenvalues --   -1.14284  -1.14274  -1.14252  -1.13336  -1.13319
 Alpha  occ. eigenvalues --   -1.13282  -1.13282  -1.13258  -1.13237  -1.12913
 Alpha  occ. eigenvalues --   -1.12894  -1.12882  -1.12875  -1.12847  -1.12789
 Alpha  occ. eigenvalues --   -0.17706  -0.13707  -0.11267  -0.10679
 Alpha virt. eigenvalues --   -0.07484  -0.05295  -0.04459  -0.03157  -0.02885
 Alpha virt. eigenvalues --   -0.02390  -0.02324  -0.01512  -0.01396  -0.00497
 Alpha virt. eigenvalues --   -0.00327   0.00122   0.00276   0.00549   0.00620

  Beta  occ. eigenvalues --  -38.45044 -38.44903 -38.44792 -38.43779 -38.43762
  Beta  occ. eigenvalues --  -38.43437 -38.43369  -2.20882  -2.20675  -2.20530
  Beta  occ. eigenvalues --   -2.19611  -2.19553  -2.19223  -2.19177  -1.14552
  Beta  occ. eigenvalues --   -1.14543  -1.14520  -1.14365  -1.14349  -1.14326
  Beta  occ. eigenvalues --   -1.14218  -1.14207  -1.14189  -1.13330  -1.13275
  Beta  occ. eigenvalues --   -1.13260  -1.13233  -1.13205  -1.13177  -1.12901
  Beta  occ. eigenvalues --   -1.12875  -1.12875  -1.12869  -1.12829  -1.12792
  Beta  occ. eigenvalues --   -0.17113  -0.13266  -0.11123
  Beta virt. eigenvalues --   -0.07251  -0.07011  -0.05131  -0.04050  -0.02964
  Beta virt. eigenvalues --   -0.02726  -0.01962  -0.01782  -0.01240  -0.00876
  Beta virt. eigenvalues --   -0.00352  -0.00220   0.00199   0.00404   0.00596

 Mulliken charges and spin densities:
               1          2
     1  Na  -0.010818   0.088566
     2  Na   0.029927   0.033202
     3  Na   0.212263   0.285508
     4  Na  -0.204920  -0.022235
     5  Na  -0.155516   0.280082
     6  Na   0.104093   0.067742
     7  Na   0.024971   0.267135
 Sum of Mulliken charges =  -0.00000   1.00000

 Dipole moment (field-independent basis, Debye):
    X=             -0.1187    Y=              0.3492    Z=              0.4901  Tot=              0.6134
 Quadrupole moment (field-independent basis, Debye-Ang):
   XX=            -54.8176   YY=            -75.9105   ZZ=            -67.2688
   XY=             -0.7277   XZ=              4.9330   YZ=             -0.8874

 Normal termination of Gaussian 16 at Thu Dec  7 11:45:34 2023.
