 Gaussian 16, Revision B.01,
 Gaussian 16:  ES64L-G16RevB.01 20-Dec-2017

 -------------------------
 #P B3LYP/6-311+g(d) force
 -------------------------

 -----
 DPGEN
 -----
 Symbolic Z-matrix:
 Charge =  0 Multiplicity = 2

                         Standard orientation:
 ---------------------------------------------------------------------
 Center     Atomic      Atomic             Coordinates (Angstroms)
 Number     Number       Type             X           Y           Z
 ---------------------------------------------------------------------
      1         11           0       -3.323328   -0.574459   -0.410265
      2         11           0       -0.439759    3.063503   -0.465989
      3         11           0        2.632141    1.344710    0.522097
      4         11           0       -0.297442    0.035785   -1.655558
      5         11           0        2.852694   -1.884363   -0.546061
      6         11           0       -0.754495    0.530490    1.953136
      7         11           0       -0.669813   -2.515667    0.602640
 ---------------------------------------------------------------------

 SCF Done:  E(UB3LYP) =  -1136.13509293     A.U. after   20 cycles

 The electronic state is 2-A.
 Alpha  occ. eigenvalues --  -38.44468 -38.44152 -38.43600 -38.43562 -38.43426
 Alpha  occ. eigenvalues --  -38.43409 -38.43401  -2.20294  -2.19960  -2.19465
 Alpha  occ. eigenvalues --   -2.19462  -2.19345  -2.19245  -2.19222  -1.13974
 Alpha  occ. eigenvalues --   -1.13944  -1.13934  -1.13643  -1.13628  -1.13587
 Alpha  occ. eigenvalues --   -1.13203  -1.13147  -1.13119  -1.13102  -1.13078
 Alpha  occ. eigenvalues --   -1.13052  -1.13034  -1.13011  -1.12967  -1.12905
 Alpha  occ. eigenvalues --   -1.12891  -1.12888  -1.12883  -1.12872  -1.12864
 Alpha  occ. eigenvalues --   -0.18341  -0.13000  -0.12261  -0.10826
 Alpha virt. eigenvalues --   -0.05949  -0.05001  -0.04728  -0.03296  -0.02898
 Alpha virt. eigenvalues --   -0.02589  -0.01764  -0.01093  -0.00465  -0.00237
 Alpha virt. eigenvalues --    0.00018   0.00352   0.00769   0.00798   0.00827

  Beta  occ. eigenvalues --  -38.44459 -38.44147 -38.43584 -38.43478 -38.43424
  Beta  occ. eigenvalues --  -38.43402 -38.43336  -2.20281  -2.19953  -2.19440
  Beta  occ. eigenvalues --   -2.19307  -2.19237  -2.19226  -2.19218  -1.13953
  Beta  occ. eigenvalues --   -1.13937  -1.13915  -1.13629  -1.13618  -1.13586
  Beta  occ. eigenvalues --   -1.13165  -1.13101  -1.13061  -1.13029  -1.13000
  Beta  occ. eigenvalues --   -1.12971  -1.12949  -1.12933  -1.12889  -1.12884
  Beta  occ. eigenvalues --   -1.12883  -1.12874  -1.12862  -1.12861  -1.12846
  Beta  occ. eigenvalues --   -0.17616  -0.12800  -0.12048
  Beta virt. eigenvalues --   -0.06920  -0.05868  -0.04918  -0.04649  -0.02574
  Beta virt. eigenvalues --   -0.02279  -0.01683  -0.01558  -0.01035  -0.00360
  Beta virt. eigenvalues --   -0.00248   0.00127   0.00389   0.00805   0.00844

 Mulliken charges and spin densities:
               1          2
     1  Na   0.152429  -0.027621
     2  Na  -0.012684  -0.052644
     3  Na  -0.195396   0.036813
     4  Na   0.015554   0.542691
     5  Na   0.092253  -0.048283
     6  Na   0.111498   0.412032
     7  Na  -0.163655   0.137013
 Sum of Mulliken charges =  -0.00000   1.00000

 Dipole moment (field-independent basis, Debye):
    X=             -0.5383    Y=              0.1561    Z=              0.0819  Tot=              0.5665
 Quadrupole moment (field-independent basis, Debye-Ang):
   XX=            -56.1113   YY=            -63.8282   ZZ=            -73.5342
   XY=              0.6923   XZ=              1.0109   YZ=             -0.1386

 Normal termination of Gaussian 16 at Tue Dec  5 12:39:56 2023.
