 Gaussian 16, Revision B.01,
 Gaussian 16:  ES64L-G16RevB.01 20-Dec-2017

 -------------------------
 #P B3LYP/6-311+g(d) force
 -------------------------

 -----
 DPGEN
 -----
 Symbolic Z-matrix:
 Charge =  0 Multiplicity = 2

                         Standard orientation:
 ---------------------------------------------------------------------
 Center     Atomic      Atomic             Coordinates (Angstroms)
 Number     Number       Type             X           Y           Z
 ---------------------------------------------------------------------
      1         11           0       -1.941708   -1.788917   -0.638194
      2         11           0        1.139231    0.254456    1.163850
      3         11           0        1.610906    3.060407   -0.596681
      4         11           0       -1.614998    1.870616    0.054419
      5         11           0       -4.595920   -0.019193    0.209644
      6         11           0        3.913982   -0.302371   -0.109319
      7         11           0        1.488508   -3.074997   -0.083719
 ---------------------------------------------------------------------

 SCF Done:  E(UB3LYP) =  -1136.12848436     A.U. after   19 cycles

 The electronic state is 2-A.
 Alpha  occ. eigenvalues --  -38.44206 -38.44159 -38.44076 -38.43798 -38.43647
 Alpha  occ. eigenvalues --  -38.43621 -38.43475  -2.20085  -2.20009  -2.19894
 Alpha  occ. eigenvalues --   -2.19653  -2.19506  -2.19423  -2.19320  -1.13823
 Alpha  occ. eigenvalues --   -1.13778  -1.13714  -1.13687  -1.13654  -1.13631
 Alpha  occ. eigenvalues --   -1.13593  -1.13571  -1.13519  -1.13364  -1.13346
 Alpha  occ. eigenvalues --   -1.13235  -1.13172  -1.13145  -1.13108  -1.13103
 Alpha  occ. eigenvalues --   -1.13079  -1.13052  -1.12972  -1.12961  -1.12931
 Alpha  occ. eigenvalues --   -0.17355  -0.14096  -0.12639  -0.10153
 Alpha virt. eigenvalues --   -0.06250  -0.05533  -0.04709  -0.03337  -0.02741
 Alpha virt. eigenvalues --   -0.02251  -0.02018  -0.01165  -0.00952  -0.00627
 Alpha virt. eigenvalues --   -0.00237  -0.00028   0.00538   0.00597   0.00721

  Beta  occ. eigenvalues --  -38.44212 -38.44146 -38.44060 -38.43782 -38.43608
  Beta  occ. eigenvalues --  -38.43568 -38.43405  -2.20067  -2.20023  -2.19870
  Beta  occ. eigenvalues --   -2.19628  -2.19402  -2.19357  -2.19189  -1.13795
  Beta  occ. eigenvalues --   -1.13744  -1.13716  -1.13699  -1.13646  -1.13631
  Beta  occ. eigenvalues --   -1.13580  -1.13558  -1.13465  -1.13345  -1.13326
  Beta  occ. eigenvalues --   -1.13202  -1.13094  -1.13077  -1.13067  -1.13044
  Beta  occ. eigenvalues --   -1.13027  -1.12994  -1.12882  -1.12870  -1.12850
  Beta  occ. eigenvalues --   -0.16852  -0.13420  -0.12253
  Beta virt. eigenvalues --   -0.06774  -0.06109  -0.05426  -0.04316  -0.02707
  Beta virt. eigenvalues --   -0.02474  -0.02170  -0.01460  -0.01045  -0.00824
  Beta virt. eigenvalues --   -0.00418   0.00046   0.00303   0.00668   0.00701

 Mulliken charges and spin densities:
               1          2
     1  Na  -0.386426   0.103916
     2  Na   0.137422   0.045263
     3  Na  -0.042706  -0.023208
     4  Na  -0.319789  -0.002167
     5  Na   0.512156   0.408485
     6  Na   0.010575   0.464605
     7  Na   0.088769   0.003106
 Sum of Mulliken charges =  -0.00000   1.00000

 Dipole moment (field-independent basis, Debye):
    X=              0.2858    Y=              0.4232    Z=             -0.4417  Tot=              0.6752
 Quadrupole moment (field-independent basis, Debye-Ang):
   XX=            -69.5895   YY=            -62.7457   ZZ=            -68.0177
   XY=              0.8634   XZ=             -2.9160   YZ=             -0.8114

 Normal termination of Gaussian 16 at Wed Nov 29 00:47:06 2023.
