 Gaussian 16, Revision B.01,
 Gaussian 16:  ES64L-G16RevB.01 20-Dec-2017

 -------------------------
 #P B3LYP/6-311+g(d) force
 -------------------------

 -----
 DPGEN
 -----
 Symbolic Z-matrix:
 Charge =  0 Multiplicity = 2

                         Standard orientation:
 ---------------------------------------------------------------------
 Center     Atomic      Atomic             Coordinates (Angstroms)
 Number     Number       Type             X           Y           Z
 ---------------------------------------------------------------------
      1         11           0       -2.975851    1.013418   -0.404644
      2         11           0       -0.465193   -0.276897   -1.597228
      3         11           0       -1.939392   -2.353255    0.273178
      4         11           0       -0.349741    0.487480    2.102086
      5         11           0        3.444322    0.473857   -0.142423
      6         11           0        0.422458    3.025668   -0.165686
      7         11           0        1.863398   -2.370271   -0.065283
 ---------------------------------------------------------------------

 SCF Done:  E(UB3LYP) =  -1136.13264970     A.U. after   19 cycles

 The electronic state is 2-A.
 Alpha  occ. eigenvalues --  -38.44382 -38.44348 -38.43699 -38.43605 -38.43604
 Alpha  occ. eigenvalues --  -38.43519 -38.43418  -2.20207  -2.20162  -2.19552
 Alpha  occ. eigenvalues --   -2.19467  -2.19399  -2.19388  -2.19345  -1.13931
 Alpha  occ. eigenvalues --   -1.13856  -1.13840  -1.13830  -1.13817  -1.13797
 Alpha  occ. eigenvalues --   -1.13274  -1.13211  -1.13181  -1.13134  -1.13104
 Alpha  occ. eigenvalues --   -1.13097  -1.13077  -1.13058  -1.13053  -1.13050
 Alpha  occ. eigenvalues --   -1.13029  -1.13011  -1.13001  -1.12995  -1.12974
 Alpha  occ. eigenvalues --   -0.18274  -0.13090  -0.12271  -0.10619
 Alpha virt. eigenvalues --   -0.06037  -0.05334  -0.04678  -0.03115  -0.02896
 Alpha virt. eigenvalues --   -0.02490  -0.01688  -0.01198  -0.00730  -0.00441
 Alpha virt. eigenvalues --   -0.00035   0.00326   0.00760   0.00806   0.00868

  Beta  occ. eigenvalues --  -38.44383 -38.44331 -38.43690 -38.43602 -38.43518
  Beta  occ. eigenvalues --  -38.43508 -38.43362  -2.20179  -2.20165  -2.19539
  Beta  occ. eigenvalues --   -2.19399  -2.19345  -2.19291  -2.19285  -1.13902
  Beta  occ. eigenvalues --   -1.13843  -1.13825  -1.13817  -1.13802  -1.13800
  Beta  occ. eigenvalues --   -1.13259  -1.13180  -1.13172  -1.13082  -1.13060
  Beta  occ. eigenvalues --   -1.13034  -1.13033  -1.13010  -1.13004  -1.12985
  Beta  occ. eigenvalues --   -1.12978  -1.12974  -1.12946  -1.12934  -1.12928
  Beta  occ. eigenvalues --   -0.17566  -0.12892  -0.12067
  Beta virt. eigenvalues --   -0.06687  -0.05972  -0.05316  -0.04599  -0.02420
  Beta virt. eigenvalues --   -0.02160  -0.01625  -0.01436  -0.01120  -0.00748
  Beta virt. eigenvalues --   -0.00485   0.00131   0.00381   0.00806   0.00831

 Mulliken charges and spin densities:
               1          2
     1  Na   0.409124  -0.017389
     2  Na  -0.003953   0.441453
     3  Na   0.144764   0.054198
     4  Na  -0.406645   0.742301
     5  Na  -0.090462  -0.059985
     6  Na  -0.058634  -0.116036
     7  Na   0.005806  -0.044543
 Sum of Mulliken charges =  -0.00000   1.00000

 Dipole moment (field-independent basis, Debye):
    X=             -0.1538    Y=              0.1573    Z=              0.1040  Tot=              0.2433
 Quadrupole moment (field-independent basis, Debye-Ang):
   XX=            -55.4832   YY=            -63.2148   ZZ=            -75.1844
   XY=              1.0819   XZ=             -0.3106   YZ=             -1.8259

 Normal termination of Gaussian 16 at Thu Dec  7 08:55:49 2023.
