 Gaussian 16, Revision B.01,
 Gaussian 16:  ES64L-G16RevB.01 20-Dec-2017

 -------------------------
 #P B3LYP/6-311+g(d) force
 -------------------------

 -----
 DPGEN
 -----
 Symbolic Z-matrix:
 Charge =  0 Multiplicity = 2

                         Standard orientation:
 ---------------------------------------------------------------------
 Center     Atomic      Atomic             Coordinates (Angstroms)
 Number     Number       Type             X           Y           Z
 ---------------------------------------------------------------------
      1         11           0       -1.067460   -1.402150    1.643381
      2         11           0        4.225891   -1.474523   -0.665907
      3         11           0        1.427823    0.701546    1.763218
      4         11           0        0.398188   -1.214347   -1.342482
      5         11           0       -1.960245    1.677153   -0.689192
      6         11           0        0.425351    3.460905   -0.312649
      7         11           0       -3.449548   -1.748583   -0.396369
 ---------------------------------------------------------------------

 SCF Done:  E(UB3LYP) =  -1136.12099090     A.U. after   21 cycles

 The electronic state is 2-A.
 Alpha  occ. eigenvalues --  -38.44899 -38.44484 -38.44367 -38.43944 -38.43908
 Alpha  occ. eigenvalues --  -38.43660 -38.43400  -2.20701  -2.20225  -2.20190
 Alpha  occ. eigenvalues --   -2.19833  -2.19788  -2.19523  -2.19234  -1.14414
 Alpha  occ. eigenvalues --   -1.14386  -1.14285  -1.13891  -1.13887  -1.13885
 Alpha  occ. eigenvalues --   -1.13844  -1.13836  -1.13823  -1.13556  -1.13486
 Alpha  occ. eigenvalues --   -1.13459  -1.13434  -1.13412  -1.13388  -1.13238
 Alpha  occ. eigenvalues --   -1.13198  -1.13171  -1.12882  -1.12877  -1.12865
 Alpha  occ. eigenvalues --   -0.17870  -0.12965  -0.12287  -0.11044
 Alpha virt. eigenvalues --   -0.06597  -0.05319  -0.04782  -0.03287  -0.02720
 Alpha virt. eigenvalues --   -0.02509  -0.02185  -0.01438  -0.00810  -0.00449
 Alpha virt. eigenvalues --    0.00044   0.00128   0.00408   0.00513   0.00659

  Beta  occ. eigenvalues --  -38.44881 -38.44444 -38.44365 -38.43883 -38.43846
  Beta  occ. eigenvalues --  -38.43642 -38.43402  -2.20668  -2.20185  -2.20150
  Beta  occ. eigenvalues --   -2.19720  -2.19680  -2.19491  -2.19238  -1.14382
  Beta  occ. eigenvalues --   -1.14363  -1.14259  -1.13878  -1.13843  -1.13839
  Beta  occ. eigenvalues --   -1.13831  -1.13815  -1.13789  -1.13468  -1.13409
  Beta  occ. eigenvalues --   -1.13385  -1.13357  -1.13321  -1.13313  -1.13221
  Beta  occ. eigenvalues --   -1.13169  -1.13149  -1.12882  -1.12873  -1.12867
  Beta  occ. eigenvalues --   -0.17262  -0.12818  -0.11871
  Beta virt. eigenvalues --   -0.07367  -0.06323  -0.05129  -0.04375  -0.02896
  Beta virt. eigenvalues --   -0.02390  -0.02180  -0.01625  -0.01359  -0.00509
  Beta virt. eigenvalues --   -0.00281   0.00097   0.00279   0.00543   0.00660

 Mulliken charges and spin densities:
               1          2
     1  Na  -0.350461   0.034848
     2  Na  -0.036588   0.162360
     3  Na   0.269634   0.255224
     4  Na  -0.481027   0.321292
     5  Na  -0.459158   0.242163
     6  Na   0.044834  -0.125881
     7  Na   1.012766   0.109995
 Sum of Mulliken charges =  -0.00000   1.00000

 Dipole moment (field-independent basis, Debye):
    X=             -0.3716    Y=             -0.4109    Z=             -0.0431  Tot=              0.5557
 Quadrupole moment (field-independent basis, Debye-Ang):
   XX=            -55.3721   YY=            -68.8234   ZZ=            -71.3758
   XY=              6.3665   XZ=              2.0554   YZ=              1.2273

 Normal termination of Gaussian 16 at Tue Dec  5 16:39:31 2023.
