 Gaussian 16, Revision B.01,
 Gaussian 16:  ES64L-G16RevB.01 20-Dec-2017

 -------------------------
 #P B3LYP/6-311+g(d) force
 -------------------------

 -----
 DPGEN
 -----
 Symbolic Z-matrix:
 Charge =  0 Multiplicity = 2

                         Standard orientation:
 ---------------------------------------------------------------------
 Center     Atomic      Atomic             Coordinates (Angstroms)
 Number     Number       Type             X           Y           Z
 ---------------------------------------------------------------------
      1         11           0       -4.810280   -0.735077   -0.512631
      2         11           0       -3.025520    2.504597   -0.083932
      3         11           0        0.538668    2.878902    0.689880
      4         11           0        3.345110    2.409162   -0.482808
      5         11           0        1.731516   -3.133190   -0.134892
      6         11           0        4.278004   -1.297002   -0.025874
      7         11           0       -2.057497   -2.627392    0.550258
 ---------------------------------------------------------------------

 SCF Done:  E(UB3LYP) =  -1136.10551657     A.U. after   24 cycles

 The electronic state is 2-A.
 Alpha  occ. eigenvalues --  -38.45469 -38.45077 -38.44770 -38.44429 -38.44227
 Alpha  occ. eigenvalues --  -38.44077 -38.43897  -2.21216  -2.20873  -2.20537
 Alpha  occ. eigenvalues --   -2.20224  -2.20016  -2.19868  -2.19724  -1.14899
 Alpha  occ. eigenvalues --   -1.14873  -1.14869  -1.14548  -1.14533  -1.14504
 Alpha  occ. eigenvalues --   -1.14204  -1.14196  -1.14150  -1.13924  -1.13894
 Alpha  occ. eigenvalues --   -1.13884  -1.13683  -1.13681  -1.13664  -1.13523
 Alpha  occ. eigenvalues --   -1.13512  -1.13483  -1.13376  -1.13363  -1.13349
 Alpha  occ. eigenvalues --   -0.15566  -0.14069  -0.13296  -0.10612
 Alpha virt. eigenvalues --   -0.08006  -0.04701  -0.04568  -0.03589  -0.03541
 Alpha virt. eigenvalues --   -0.02611  -0.02203  -0.02005  -0.01018  -0.00861
 Alpha virt. eigenvalues --   -0.00668  -0.00062   0.00091   0.00205   0.00546

  Beta  occ. eigenvalues --  -38.45475 -38.45044 -38.44720 -38.44423 -38.44218
  Beta  occ. eigenvalues --  -38.43993 -38.43846  -2.21233  -2.20816  -2.20444
  Beta  occ. eigenvalues --   -2.20221  -2.20004  -2.19712  -2.19630  -1.14914
  Beta  occ. eigenvalues --   -1.14887  -1.14852  -1.14504  -1.14497  -1.14453
  Beta  occ. eigenvalues --   -1.14141  -1.14133  -1.14089  -1.13912  -1.13898
  Beta  occ. eigenvalues --   -1.13849  -1.13677  -1.13675  -1.13634  -1.13416
  Beta  occ. eigenvalues --   -1.13407  -1.13381  -1.13313  -1.13299  -1.13285
  Beta  occ. eigenvalues --   -0.15056  -0.13403  -0.12545
  Beta virt. eigenvalues --   -0.08125  -0.07450  -0.04424  -0.04064  -0.03345
  Beta virt. eigenvalues --   -0.03219  -0.02419  -0.01905  -0.01804  -0.00831
  Beta virt. eigenvalues --   -0.00634  -0.00327  -0.00046   0.00193   0.00390

 Mulliken charges and spin densities:
               1          2
     1  Na   0.457150  -0.032862
     2  Na   0.055026   0.400180
     3  Na  -0.503612   0.012586
     4  Na   0.274308   0.200583
     5  Na  -0.071049   0.016631
     6  Na   0.055541   0.138349
     7  Na  -0.267363   0.264534
 Sum of Mulliken charges =  -0.00000   1.00000

 Dipole moment (field-independent basis, Debye):
    X=             -0.2405    Y=             -0.5357    Z=             -0.1930  Tot=              0.6181
 Quadrupole moment (field-independent basis, Debye-Ang):
   XX=            -50.6018   YY=            -76.1941   ZZ=            -72.3083
   XY=              1.6954   XZ=              1.3647   YZ=             -0.3180

 Normal termination of Gaussian 16 at Sun Dec  3 21:26:57 2023.
