 Gaussian 16, Revision B.01,
 Gaussian 16:  ES64L-G16RevB.01 20-Dec-2017

 -------------------------
 #P B3LYP/6-311+g(d) force
 -------------------------

 -----
 DPGEN
 -----
 Symbolic Z-matrix:
 Charge =  0 Multiplicity = 2

                         Standard orientation:
 ---------------------------------------------------------------------
 Center     Atomic      Atomic             Coordinates (Angstroms)
 Number     Number       Type             X           Y           Z
 ---------------------------------------------------------------------
      1         11           0       -3.252630   -0.941160   -0.252486
      2         11           0        0.079225   -3.080577    0.332030
      3         11           0       -1.528683    2.967258    0.295584
      4         11           0        2.083954    2.252803   -0.239678
      5         11           0        0.348108   -0.117346    2.035085
      6         11           0       -0.671957   -0.067832   -1.599649
      7         11           0        2.941983   -1.013146   -0.570887
 ---------------------------------------------------------------------

 SCF Done:  E(UB3LYP) =  -1136.13388412     A.U. after   19 cycles

 The electronic state is 2-A.
 Alpha  occ. eigenvalues --  -38.44208 -38.44182 -38.43874 -38.43723 -38.43700
 Alpha  occ. eigenvalues --  -38.43638 -38.43416  -2.20017  -2.19952  -2.19692
 Alpha  occ. eigenvalues --   -2.19585  -2.19518  -2.19464  -2.19333  -1.13745
 Alpha  occ. eigenvalues --   -1.13663  -1.13636  -1.13629  -1.13606  -1.13591
 Alpha  occ. eigenvalues --   -1.13382  -1.13360  -1.13319  -1.13253  -1.13226
 Alpha  occ. eigenvalues --   -1.13201  -1.13197  -1.13188  -1.13160  -1.13131
 Alpha  occ. eigenvalues --   -1.13107  -1.13093  -1.13013  -1.12975  -1.12951
 Alpha  occ. eigenvalues --   -0.18006  -0.12754  -0.12510  -0.10532
 Alpha virt. eigenvalues --   -0.05867  -0.05232  -0.05022  -0.03066  -0.03011
 Alpha virt. eigenvalues --   -0.02397  -0.01514  -0.01471  -0.00702  -0.00554
 Alpha virt. eigenvalues --   -0.00029   0.00325   0.00754   0.00798   0.00837

  Beta  occ. eigenvalues --  -38.44202 -38.44177 -38.43864 -38.43694 -38.43634
  Beta  occ. eigenvalues --  -38.43621 -38.43368  -2.20008  -2.19943  -2.19676
  Beta  occ. eigenvalues --   -2.19509  -2.19435  -2.19420  -2.19245  -1.13729
  Beta  occ. eigenvalues --   -1.13648  -1.13633  -1.13615  -1.13601  -1.13585
  Beta  occ. eigenvalues --   -1.13360  -1.13335  -1.13311  -1.13202  -1.13178
  Beta  occ. eigenvalues --   -1.13148  -1.13141  -1.13109  -1.13103  -1.13087
  Beta  occ. eigenvalues --   -1.13072  -1.13065  -1.12950  -1.12908  -1.12892
  Beta  occ. eigenvalues --   -0.17342  -0.12452  -0.12302
  Beta virt. eigenvalues --   -0.06790  -0.05771  -0.05091  -0.04977  -0.02397
  Beta virt. eigenvalues --   -0.02309  -0.01514  -0.01363  -0.01328  -0.00694
  Beta virt. eigenvalues --   -0.00591   0.00118   0.00379   0.00757   0.00847

 Mulliken charges and spin densities:
               1          2
     1  Na   0.124632  -0.102725
     2  Na   0.138902   0.028815
     3  Na  -0.056102  -0.032463
     4  Na   0.023806  -0.008644
     5  Na  -0.224027   0.641596
     6  Na  -0.025160   0.392756
     7  Na   0.017951   0.080665
 Sum of Mulliken charges =  -0.00000   1.00000

 Dipole moment (field-independent basis, Debye):
    X=             -0.3855    Y=             -0.0178    Z=              0.1649  Tot=              0.4197
 Quadrupole moment (field-independent basis, Debye-Ang):
   XX=            -59.1444   YY=            -59.3304   ZZ=            -75.0900
   XY=             -0.4973   XZ=             -2.4144   YZ=              0.3217

 Normal termination of Gaussian 16 at Thu Dec  7 03:40:58 2023.
