 Gaussian 16, Revision B.01,
 Gaussian 16:  ES64L-G16RevB.01 20-Dec-2017

 -------------------------
 #P B3LYP/6-311+g(d) force
 -------------------------

 -----
 DPGEN
 -----
 Symbolic Z-matrix:
 Charge =  0 Multiplicity = 2

                         Standard orientation:
 ---------------------------------------------------------------------
 Center     Atomic      Atomic             Coordinates (Angstroms)
 Number     Number       Type             X           Y           Z
 ---------------------------------------------------------------------
      1         11           0       -0.288769   -0.572691   -0.620950
      2         11           0        1.364075    0.116374    1.751891
      3         11           0        2.002017   -2.176548   -0.033091
      4         11           0        2.418100    0.663328   -1.070459
      5         11           0        0.307650    2.333066   -0.001554
      6         11           0       -2.683523    1.324595    0.012801
      7         11           0       -3.119549   -1.688125   -0.038638
 ---------------------------------------------------------------------

 SCF Done:  E(UB3LYP) =  -1136.10004259     A.U. after   22 cycles

 The electronic state is 2-A.
 Alpha  occ. eigenvalues --  -38.44519 -38.44422 -38.44039 -38.43783 -38.43543
 Alpha  occ. eigenvalues --  -38.43207 -38.42659  -2.20380  -2.20343  -2.20130
 Alpha  occ. eigenvalues --   -2.19785  -2.19644  -2.19474  -2.18716  -1.14158
 Alpha  occ. eigenvalues --   -1.14065  -1.14035  -1.14016  -1.13975  -1.13914
 Alpha  occ. eigenvalues --   -1.13909  -1.13815  -1.13768  -1.13609  -1.13477
 Alpha  occ. eigenvalues --   -1.13396  -1.13381  -1.13249  -1.13193  -1.13121
 Alpha  occ. eigenvalues --   -1.13098  -1.13064  -1.12410  -1.12359  -1.12329
 Alpha  occ. eigenvalues --   -0.20073  -0.14501  -0.12322  -0.10643
 Alpha virt. eigenvalues --   -0.06204  -0.05693  -0.03885  -0.03259  -0.02317
 Alpha virt. eigenvalues --   -0.02119  -0.01671  -0.01084  -0.00389  -0.00127
 Alpha virt. eigenvalues --    0.00184   0.00321   0.00777   0.00831   0.00911

  Beta  occ. eigenvalues --  -38.44523 -38.44424 -38.43983 -38.43767 -38.43455
  Beta  occ. eigenvalues --  -38.43177 -38.42643  -2.20388  -2.20348  -2.20032
  Beta  occ. eigenvalues --   -2.19762  -2.19484  -2.19425  -2.18694  -1.14164
  Beta  occ. eigenvalues --   -1.14071  -1.14040  -1.14015  -1.13966  -1.13917
  Beta  occ. eigenvalues --   -1.13859  -1.13751  -1.13666  -1.13579  -1.13428
  Beta  occ. eigenvalues --   -1.13343  -1.13307  -1.13135  -1.13090  -1.13087
  Beta  occ. eigenvalues --   -1.13037  -1.12991  -1.12400  -1.12349  -1.12259
  Beta  occ. eigenvalues --   -0.19302  -0.14332  -0.12033
  Beta virt. eigenvalues --   -0.06487  -0.06035  -0.05642  -0.03896  -0.02692
  Beta virt. eigenvalues --   -0.01892  -0.01550  -0.01111  -0.00730  -0.00376
  Beta virt. eigenvalues --    0.00116   0.00224   0.00410   0.00818   0.00859

 Mulliken charges and spin densities:
               1          2
     1  Na  -1.687569   0.665743
     2  Na  -1.067653   0.397436
     3  Na   0.189292   0.067546
     4  Na   1.129838  -0.025014
     5  Na   0.758254   0.115237
     6  Na   0.126532  -0.028165
     7  Na   0.551306  -0.192784
 Sum of Mulliken charges =  -0.00000   1.00000

 Dipole moment (field-independent basis, Debye):
    X=             -0.7533    Y=             -0.2633    Z=              0.2855  Tot=              0.8475
 Quadrupole moment (field-independent basis, Debye-Ang):
   XX=            -52.3213   YY=            -65.1113   ZZ=            -75.1688
   XY=             -0.3875   XZ=             -1.4932   YZ=             -0.3418

 Normal termination of Gaussian 16 at Fri Dec  8 06:26:32 2023.
