 Gaussian 16, Revision B.01,
 Gaussian 16:  ES64L-G16RevB.01 20-Dec-2017

 -------------------------
 #P B3LYP/6-311+g(d) force
 -------------------------

 -----
 DPGEN
 -----
 Symbolic Z-matrix:
 Charge =  0 Multiplicity = 2

                         Standard orientation:
 ---------------------------------------------------------------------
 Center     Atomic      Atomic             Coordinates (Angstroms)
 Number     Number       Type             X           Y           Z
 ---------------------------------------------------------------------
      1         11           0       -2.565191   -0.837376   -1.686307
      2         11           0        0.539979    0.696783   -1.407604
      3         11           0        3.645030   -0.069635   -0.405962
      4         11           0        0.274088   -2.751273   -0.164490
      5         11           0       -0.467665    2.935872   -0.323155
      6         11           0       -2.391767    0.050072    1.799657
      7         11           0        0.965525   -0.024443    2.187861
 ---------------------------------------------------------------------

 SCF Done:  E(UB3LYP) =  -1136.11970833     A.U. after   22 cycles

 The electronic state is 2-A.
 Alpha  occ. eigenvalues --  -38.44717 -38.44594 -38.44463 -38.44321 -38.43650
 Alpha  occ. eigenvalues --  -38.43156 -38.43144  -2.20528  -2.20447  -2.20242
 Alpha  occ. eigenvalues --   -2.20132  -2.19436  -2.19179  -2.19003  -1.14233
 Alpha  occ. eigenvalues --   -1.14160  -1.14151  -1.14117  -1.14077  -1.14059
 Alpha  occ. eigenvalues --   -1.13930  -1.13892  -1.13866  -1.13815  -1.13770
 Alpha  occ. eigenvalues --   -1.13749  -1.13203  -1.13127  -1.13112  -1.13048
 Alpha  occ. eigenvalues --   -1.12812  -1.12782  -1.12613  -1.12584  -1.12536
 Alpha  occ. eigenvalues --   -0.18132  -0.12657  -0.12186  -0.11469
 Alpha virt. eigenvalues --   -0.06073  -0.04853  -0.04243  -0.03518  -0.03220
 Alpha virt. eigenvalues --   -0.02974  -0.01839  -0.00914  -0.00659   0.00104
 Alpha virt. eigenvalues --    0.00170   0.00307   0.00336   0.00651   0.00844

  Beta  occ. eigenvalues --  -38.44664 -38.44521 -38.44460 -38.44280 -38.43643
  Beta  occ. eigenvalues --  -38.43145 -38.43120  -2.20435  -2.20314  -2.20237
  Beta  occ. eigenvalues --   -2.20057  -2.19425  -2.19119  -2.19002  -1.14146
  Beta  occ. eigenvalues --   -1.14094  -1.14089  -1.14034  -1.13988  -1.13949
  Beta  occ. eigenvalues --   -1.13920  -1.13888  -1.13864  -1.13751  -1.13726
  Beta  occ. eigenvalues --   -1.13697  -1.13176  -1.13116  -1.13093  -1.13042
  Beta  occ. eigenvalues --   -1.12772  -1.12730  -1.12602  -1.12586  -1.12516
  Beta  occ. eigenvalues --   -0.17339  -0.12469  -0.11299
  Beta virt. eigenvalues --   -0.08084  -0.06018  -0.04287  -0.04026  -0.03182
  Beta virt. eigenvalues --   -0.02554  -0.02301  -0.01703  -0.00620  -0.00496
  Beta virt. eigenvalues --    0.00208   0.00244   0.00334   0.00388   0.00747

 Mulliken charges and spin densities:
               1          2
     1  Na   0.221933   0.155525
     2  Na   0.310342  -0.024016
     3  Na   0.152157  -0.003007
     4  Na  -0.399185   0.052571
     5  Na  -0.406959   0.184847
     6  Na   0.011994   0.209889
     7  Na   0.109717   0.424190
 Sum of Mulliken charges =  -0.00000   1.00000

 Dipole moment (field-independent basis, Debye):
    X=              0.0581    Y=             -0.4238    Z=              0.4491  Tot=              0.6202
 Quadrupole moment (field-independent basis, Debye-Ang):
   XX=            -55.7389   YY=            -73.0321   ZZ=            -65.5073
   XY=             -0.6671   XZ=             -0.1718   YZ=              3.3556

 Normal termination of Gaussian 16 at Fri Dec  8 02:24:15 2023.
