 Gaussian 16, Revision B.01,
 Gaussian 16:  ES64L-G16RevB.01 20-Dec-2017

 -------------------------
 #P B3LYP/6-311+g(d) force
 -------------------------

 -----
 DPGEN
 -----
 Symbolic Z-matrix:
 Charge =  0 Multiplicity = 2

                         Standard orientation:
 ---------------------------------------------------------------------
 Center     Atomic      Atomic             Coordinates (Angstroms)
 Number     Number       Type             X           Y           Z
 ---------------------------------------------------------------------
      1         11           0       -3.244778    0.096325   -0.303893
      2         11           0       -3.346695   -3.221985    0.180333
      3         11           0        3.911038   -1.343819    0.232038
      4         11           0       -2.593717    3.731904   -0.084322
      5         11           0        5.913776    0.731211   -0.248080
      6         11           0       -0.358618   -1.834137   -0.273786
      7         11           0       -0.281007    1.840501    0.497710
 ---------------------------------------------------------------------

 SCF Done:  E(UB3LYP) =  -1136.11919683     A.U. after   18 cycles

 The electronic state is 2-A.
 Alpha  occ. eigenvalues --  -38.44613 -38.44533 -38.44301 -38.44098 -38.43780
 Alpha  occ. eigenvalues --  -38.43593 -38.43551  -2.20471  -2.20388  -2.20134
 Alpha  occ. eigenvalues --   -2.19930  -2.19637  -2.19429  -2.19357  -1.14178
 Alpha  occ. eigenvalues --   -1.14173  -1.14079  -1.14069  -1.14052  -1.14037
 Alpha  occ. eigenvalues --   -1.13784  -1.13782  -1.13745  -1.13593  -1.13584
 Alpha  occ. eigenvalues --   -1.13563  -1.13321  -1.13308  -1.13249  -1.13229
 Alpha  occ. eigenvalues --   -1.13064  -1.13060  -1.13010  -1.12993  -1.12920
 Alpha  occ. eigenvalues --   -0.16996  -0.13389  -0.13183  -0.10563
 Alpha virt. eigenvalues --   -0.06090  -0.05640  -0.04554  -0.03853  -0.02684
 Alpha virt. eigenvalues --   -0.02250  -0.02177  -0.01838  -0.01088  -0.00993
 Alpha virt. eigenvalues --   -0.00254  -0.00013   0.00318   0.00466   0.00628

  Beta  occ. eigenvalues --  -38.44586 -38.44506 -38.44289 -38.44072 -38.43727
  Beta  occ. eigenvalues --  -38.43557 -38.43546  -2.20423  -2.20340  -2.20111
  Beta  occ. eigenvalues --   -2.19881  -2.19540  -2.19380  -2.19335  -1.14144
  Beta  occ. eigenvalues --   -1.14128  -1.14045  -1.14034  -1.14009  -1.14001
  Beta  occ. eigenvalues --   -1.13766  -1.13761  -1.13727  -1.13552  -1.13551
  Beta  occ. eigenvalues --   -1.13531  -1.13257  -1.13243  -1.13213  -1.13145
  Beta  occ. eigenvalues --   -1.13045  -1.13021  -1.12986  -1.12979  -1.12883
  Beta  occ. eigenvalues --   -0.16379  -0.13106  -0.12772
  Beta virt. eigenvalues --   -0.07125  -0.05894  -0.05151  -0.04234  -0.03477
  Beta virt. eigenvalues --   -0.02362  -0.02109  -0.02064  -0.01705  -0.00884
  Beta virt. eigenvalues --   -0.00502   0.00038   0.00206   0.00409   0.00622

 Mulliken charges and spin densities:
               1          2
     1  Na  -0.458060   0.383312
     2  Na   1.472698   0.252236
     3  Na  -0.699032  -0.126434
     4  Na   1.321086   0.134700
     5  Na   0.327739   0.236272
     6  Na  -0.930132   0.093381
     7  Na  -1.034299   0.026533
 Sum of Mulliken charges =  -0.00000   1.00000

 Dipole moment (field-independent basis, Debye):
    X=             -1.8809    Y=              0.7238    Z=              0.0574  Tot=              2.0162
 Quadrupole moment (field-independent basis, Debye-Ang):
   XX=            -71.3630   YY=            -54.1418   ZZ=            -73.0213
   XY=              3.3237   XZ=             -0.3791   YZ=             -1.7178

 Normal termination of Gaussian 16 at Tue Nov 28 23:06:28 2023.
