 Gaussian 16, Revision B.01,
 Gaussian 16:  ES64L-G16RevB.01 20-Dec-2017

 -------------------------
 #P B3LYP/6-311+g(d) force
 -------------------------

 -----
 DPGEN
 -----
 Symbolic Z-matrix:
 Charge =  0 Multiplicity = 2

                         Standard orientation:
 ---------------------------------------------------------------------
 Center     Atomic      Atomic             Coordinates (Angstroms)
 Number     Number       Type             X           Y           Z
 ---------------------------------------------------------------------
      1         11           0        3.387289    1.281563   -0.335442
      2         11           0       -2.560370   -2.537914   -0.302029
      3         11           0       -4.471447   -0.305454    0.317177
      4         11           0       -2.131661    2.814994    0.323949
      5         11           0        3.762670   -1.380098    0.900460
      6         11           0        1.160844   -3.633026   -0.472135
      7         11           0        0.852675    3.759936   -0.431980
 ---------------------------------------------------------------------

 SCF Done:  E(UB3LYP) =  -1136.10782947     A.U. after   23 cycles

 The electronic state is 2-A.
 Alpha  occ. eigenvalues --  -38.45322 -38.44957 -38.44640 -38.44555 -38.44314
 Alpha  occ. eigenvalues --  -38.43980 -38.43889  -2.21094  -2.20750  -2.20478
 Alpha  occ. eigenvalues --   -2.20377  -2.20097  -2.19785  -2.19727  -1.14768
 Alpha  occ. eigenvalues --   -1.14762  -1.14723  -1.14443  -1.14422  -1.14407
 Alpha  occ. eigenvalues --   -1.14279  -1.14124  -1.14110  -1.14026  -1.14003
 Alpha  occ. eigenvalues --   -1.13971  -1.13752  -1.13739  -1.13711  -1.13449
 Alpha  occ. eigenvalues --   -1.13445  -1.13436  -1.13397  -1.13362  -1.13349
 Alpha  occ. eigenvalues --   -0.15715  -0.14173  -0.13562  -0.10936
 Alpha virt. eigenvalues --   -0.07602  -0.04598  -0.04410  -0.03653  -0.03523
 Alpha virt. eigenvalues --   -0.02453  -0.02237  -0.01834  -0.01541  -0.00775
 Alpha virt. eigenvalues --   -0.00394  -0.00100   0.00184   0.00451   0.00607

  Beta  occ. eigenvalues --  -38.45294 -38.44947 -38.44597 -38.44545 -38.44228
  Beta  occ. eigenvalues --  -38.43969 -38.43844  -2.21047  -2.20738  -2.20403
  Beta  occ. eigenvalues --   -2.20362  -2.19938  -2.19768  -2.19645  -1.14739
  Beta  occ. eigenvalues --   -1.14732  -1.14670  -1.14423  -1.14418  -1.14369
  Beta  occ. eigenvalues --   -1.14229  -1.14076  -1.14058  -1.14019  -1.13994
  Beta  occ. eigenvalues --   -1.13924  -1.13645  -1.13632  -1.13603  -1.13436
  Beta  occ. eigenvalues --   -1.13433  -1.13414  -1.13342  -1.13306  -1.13294
  Beta  occ. eigenvalues --   -0.15223  -0.13582  -0.12747
  Beta virt. eigenvalues --   -0.07792  -0.07593  -0.04171  -0.04037  -0.03423
  Beta virt. eigenvalues --   -0.03081  -0.02227  -0.02058  -0.01673  -0.01361
  Beta virt. eigenvalues --   -0.00375  -0.00197   0.00194   0.00241   0.00418

 Mulliken charges and spin densities:
               1          2
     1  Na  -0.507298   0.203038
     2  Na  -0.514705   0.093945
     3  Na   0.789354   0.222486
     4  Na  -0.489347   0.205186
     5  Na   0.103077  -0.056555
     6  Na  -0.200691   0.369863
     7  Na   0.819609  -0.037963
 Sum of Mulliken charges =  -0.00000   1.00000

 Dipole moment (field-independent basis, Debye):
    X=             -0.0374    Y=              0.4193    Z=              0.1548  Tot=              0.4485
 Quadrupole moment (field-independent basis, Debye-Ang):
   XX=            -62.5957   YY=            -67.1811   ZZ=            -71.6324
   XY=             -2.5458   XZ=             -0.7987   YZ=             -0.8131

 Normal termination of Gaussian 16 at Sun Dec  3 15:31:26 2023.
