 Gaussian 16, Revision B.01,
 Gaussian 16:  ES64L-G16RevB.01 20-Dec-2017

 -------------------------
 #P B3LYP/6-311+g(d) force
 -------------------------

 -----
 DPGEN
 -----
 Symbolic Z-matrix:
 Charge =  0 Multiplicity = 2

                         Standard orientation:
 ---------------------------------------------------------------------
 Center     Atomic      Atomic             Coordinates (Angstroms)
 Number     Number       Type             X           Y           Z
 ---------------------------------------------------------------------
      1         11           0        0.984086   -2.587216   -0.175311
      2         11           0        0.120331   -0.020192   -1.833041
      3         11           0       -2.686561   -1.626618    0.300588
      4         11           0       -2.341340    1.267567   -0.195957
      5         11           0        0.547426    2.768182   -0.144087
      6         11           0        0.240310    0.342211    1.934318
      7         11           0        3.135748   -0.143935    0.113491
 ---------------------------------------------------------------------

 SCF Done:  E(UB3LYP) =  -1136.13474553     A.U. after   19 cycles

 The electronic state is 2-A.
 Alpha  occ. eigenvalues --  -38.44169 -38.43677 -38.43621 -38.43456 -38.43443
 Alpha  occ. eigenvalues --  -38.43389 -38.43017  -2.20018  -2.19559  -2.19531
 Alpha  occ. eigenvalues --   -2.19443  -2.19406  -2.19264  -2.18927  -1.13696
 Alpha  occ. eigenvalues --   -1.13682  -1.13657  -1.13337  -1.13245  -1.13196
 Alpha  occ. eigenvalues --   -1.13187  -1.13177  -1.13165  -1.13147  -1.13131
 Alpha  occ. eigenvalues --   -1.13072  -1.13043  -1.13021  -1.12995  -1.12931
 Alpha  occ. eigenvalues --   -1.12922  -1.12881  -1.12602  -1.12589  -1.12550
 Alpha  occ. eigenvalues --   -0.19138  -0.13298  -0.12434  -0.11094
 Alpha virt. eigenvalues --   -0.05663  -0.04768  -0.04549  -0.03407  -0.02982
 Alpha virt. eigenvalues --   -0.02700  -0.01514  -0.00929  -0.00149  -0.00021
 Alpha virt. eigenvalues --    0.00037   0.00371   0.00857   0.00948   0.00956

  Beta  occ. eigenvalues --  -38.44165 -38.43674 -38.43538 -38.43434 -38.43382
  Beta  occ. eigenvalues --  -38.43373 -38.43010  -2.20014  -2.19528  -2.19407
  Beta  occ. eigenvalues --   -2.19394  -2.19291  -2.19256  -2.18917  -1.13691
  Beta  occ. eigenvalues --   -1.13662  -1.13654  -1.13336  -1.13171  -1.13155
  Beta  occ. eigenvalues --   -1.13145  -1.13100  -1.13087  -1.13069  -1.13047
  Beta  occ. eigenvalues --   -1.13014  -1.12993  -1.12979  -1.12939  -1.12906
  Beta  occ. eigenvalues --   -1.12881  -1.12878  -1.12599  -1.12555  -1.12538
  Beta  occ. eigenvalues --   -0.18376  -0.13043  -0.12174
  Beta virt. eigenvalues --   -0.07149  -0.05619  -0.04764  -0.04517  -0.02576
  Beta virt. eigenvalues --   -0.02179  -0.01647  -0.01429  -0.00867  -0.00172
  Beta virt. eigenvalues --   -0.00028   0.00113   0.00387   0.00885   0.00937

 Mulliken charges and spin densities:
               1          2
     1  Na   0.091017  -0.051710
     2  Na  -0.283611   0.521718
     3  Na  -0.117905  -0.049439
     4  Na   0.347651   0.048634
     5  Na   0.331684  -0.108536
     6  Na  -0.522784   0.744804
     7  Na   0.153948  -0.105471
 Sum of Mulliken charges =  -0.00000   1.00000

 Dipole moment (field-independent basis, Debye):
    X=              0.4691    Y=             -0.1127    Z=              0.1323  Tot=              0.5003
 Quadrupole moment (field-independent basis, Debye-Ang):
   XX=            -57.7916   YY=            -64.4858   ZZ=            -72.5172
   XY=              1.1366   XZ=             -0.2635   YZ=             -1.0315

 Normal termination of Gaussian 16 at Tue Dec  5 22:26:24 2023.
