 Gaussian 16, Revision B.01,
 Gaussian 16:  ES64L-G16RevB.01 20-Dec-2017

 -------------------------
 #P B3LYP/6-311+g(d) force
 -------------------------

 -----
 DPGEN
 -----
 Symbolic Z-matrix:
 Charge =  0 Multiplicity = 2

                         Standard orientation:
 ---------------------------------------------------------------------
 Center     Atomic      Atomic             Coordinates (Angstroms)
 Number     Number       Type             X           Y           Z
 ---------------------------------------------------------------------
      1         11           0        2.651992   -1.673650    0.268125
      2         11           0       -1.025693   -2.590921   -0.088239
      3         11           0        0.380552    0.019560   -1.490862
      4         11           0       -1.725359    2.737412   -0.025327
      5         11           0        2.837831    1.704725   -0.134596
      6         11           0       -0.030554    0.343336    1.519613
      7         11           0       -3.088769   -0.540462   -0.048715
 ---------------------------------------------------------------------

 SCF Done:  E(UB3LYP) =  -1136.12847458     A.U. after   21 cycles

 The electronic state is 2-A.
 Alpha  occ. eigenvalues --  -38.44584 -38.44407 -38.44207 -38.43648 -38.43049
 Alpha  occ. eigenvalues --  -38.42943 -38.42809  -2.20418  -2.20295  -2.20058
 Alpha  occ. eigenvalues --   -2.19465  -2.18973  -2.18965  -2.18814  -1.14096
 Alpha  occ. eigenvalues --   -1.14075  -1.14057  -1.14030  -1.13942  -1.13918
 Alpha  occ. eigenvalues --   -1.13733  -1.13718  -1.13691  -1.13143  -1.13124
 Alpha  occ. eigenvalues --   -1.13108  -1.12766  -1.12676  -1.12643  -1.12604
 Alpha  occ. eigenvalues --   -1.12568  -1.12553  -1.12492  -1.12426  -1.12410
 Alpha  occ. eigenvalues --   -0.18947  -0.13748  -0.12226  -0.09910
 Alpha virt. eigenvalues --   -0.06198  -0.05728  -0.04365  -0.03187  -0.02332
 Alpha virt. eigenvalues --   -0.02020  -0.01692  -0.01466  -0.00656  -0.00281
 Alpha virt. eigenvalues --    0.00045   0.00316   0.00697   0.00762   0.00886

  Beta  occ. eigenvalues --  -38.44575 -38.44403 -38.44195 -38.43647 -38.43041
  Beta  occ. eigenvalues --  -38.42878 -38.42741  -2.20406  -2.20291  -2.20041
  Beta  occ. eigenvalues --   -2.19466  -2.18963  -2.18846  -2.18689  -1.14083
  Beta  occ. eigenvalues --   -1.14053  -1.14046  -1.14032  -1.13921  -1.13911
  Beta  occ. eigenvalues --   -1.13721  -1.13688  -1.13676  -1.13138  -1.13118
  Beta  occ. eigenvalues --   -1.13106  -1.12696  -1.12651  -1.12622  -1.12565
  Beta  occ. eigenvalues --   -1.12487  -1.12477  -1.12401  -1.12339  -1.12315
  Beta  occ. eigenvalues --   -0.18253  -0.13490  -0.11977
  Beta virt. eigenvalues --   -0.06192  -0.06043  -0.05677  -0.04373  -0.02389
  Beta virt. eigenvalues --   -0.01925  -0.01641  -0.01431  -0.00814  -0.00622
  Beta virt. eigenvalues --   -0.00310   0.00201   0.00365   0.00734   0.00783

 Mulliken charges and spin densities:
               1          2
     1  Na   0.278581   0.101200
     2  Na   0.204263   0.052576
     3  Na  -0.513613   0.480537
     4  Na   0.196287  -0.070208
     5  Na   0.209560  -0.058543
     6  Na  -0.538854   0.478903
     7  Na   0.163776   0.015535
 Sum of Mulliken charges =  -0.00000   1.00000

 Dipole moment (field-independent basis, Debye):
    X=              0.4751    Y=              0.3381    Z=              0.0563  Tot=              0.5858
 Quadrupole moment (field-independent basis, Debye-Ang):
   XX=            -49.9648   YY=            -61.5252   ZZ=            -78.7435
   XY=             -0.1300   XZ=              0.9962   YZ=             -0.8496

 Normal termination of Gaussian 16 at Tue Nov 28 21:37:21 2023.
