 Gaussian 16, Revision B.01,
 Gaussian 16:  ES64L-G16RevB.01 20-Dec-2017

 -------------------------
 #P B3LYP/6-311+g(d) force
 -------------------------

 -----
 DPGEN
 -----
 Symbolic Z-matrix:
 Charge =  0 Multiplicity = 2

                         Standard orientation:
 ---------------------------------------------------------------------
 Center     Atomic      Atomic             Coordinates (Angstroms)
 Number     Number       Type             X           Y           Z
 ---------------------------------------------------------------------
      1         11           0        2.406612    1.662443   -0.271829
      2         11           0       -0.683986    2.635233    0.362206
      3         11           0        0.106301   -0.108943   -1.626066
      4         11           0       -1.392590   -2.551284   -0.161336
      5         11           0        2.652961   -1.526141   -0.426777
      6         11           0        0.192461   -0.591847    2.576733
      7         11           0       -3.281758    0.480537   -0.452931
 ---------------------------------------------------------------------

 SCF Done:  E(UB3LYP) =  -1136.13220345     A.U. after   19 cycles

 The electronic state is 2-A.
 Alpha  occ. eigenvalues --  -38.44643 -38.44191 -38.43891 -38.43506 -38.43499
 Alpha  occ. eigenvalues --  -38.43474 -38.42907  -2.20452  -2.19995  -2.19752
 Alpha  occ. eigenvalues --   -2.19497  -2.19402  -2.19304  -2.18761  -1.14086
 Alpha  occ. eigenvalues --   -1.14079  -1.14069  -1.13670  -1.13651  -1.13634
 Alpha  occ. eigenvalues --   -1.13478  -1.13418  -1.13378  -1.13207  -1.13187
 Alpha  occ. eigenvalues --   -1.13116  -1.13057  -1.13051  -1.13035  -1.12976
 Alpha  occ. eigenvalues --   -1.12968  -1.12924  -1.12440  -1.12421  -1.12401
 Alpha  occ. eigenvalues --   -0.18400  -0.13094  -0.12099  -0.11440
 Alpha virt. eigenvalues --   -0.05751  -0.05053  -0.04300  -0.03476  -0.03282
 Alpha virt. eigenvalues --   -0.02955  -0.01590  -0.00923  -0.00314  -0.00154
 Alpha virt. eigenvalues --   -0.00022   0.00329   0.00706   0.00864   0.00935

  Beta  occ. eigenvalues --  -38.44520 -38.44186 -38.43884 -38.43502 -38.43472
  Beta  occ. eigenvalues --  -38.43453 -38.42902  -2.20225  -2.19987  -2.19742
  Beta  occ. eigenvalues --   -2.19414  -2.19397  -2.19303  -2.18753  -1.13932
  Beta  occ. eigenvalues --   -1.13924  -1.13909  -1.13655  -1.13647  -1.13631
  Beta  occ. eigenvalues --   -1.13464  -1.13407  -1.13363  -1.13166  -1.13139
  Beta  occ. eigenvalues --   -1.13057  -1.13042  -1.13039  -1.13018  -1.12963
  Beta  occ. eigenvalues --   -1.12950  -1.12922  -1.12437  -1.12404  -1.12393
  Beta  occ. eigenvalues --   -0.17723  -0.12878  -0.11904
  Beta virt. eigenvalues --   -0.07347  -0.05724  -0.05039  -0.04151  -0.02598
  Beta virt. eigenvalues --   -0.02467  -0.02060  -0.01508  -0.00884  -0.00341
  Beta virt. eigenvalues --   -0.00074   0.00081   0.00376   0.00854   0.00863

 Mulliken charges and spin densities:
               1          2
     1  Na   0.152998   0.104950
     2  Na  -0.063659   0.143333
     3  Na   0.047911  -0.069134
     4  Na   0.035925   0.049959
     5  Na   0.294538   0.073239
     6  Na  -0.613880   0.677983
     7  Na   0.146167   0.019670
 Sum of Mulliken charges =  -0.00000   1.00000

 Dipole moment (field-independent basis, Debye):
    X=             -0.0738    Y=             -0.3122    Z=              0.2496  Tot=              0.4065
 Quadrupole moment (field-independent basis, Debye-Ang):
   XX=            -57.0317   YY=            -67.7815   ZZ=            -70.9388
   XY=             -0.4648   XZ=              0.3271   YZ=              0.3597

 Normal termination of Gaussian 16 at Thu Dec  7 06:56:04 2023.
