 Gaussian 16, Revision B.01,
 Gaussian 16:  ES64L-G16RevB.01 20-Dec-2017

 -------------------------
 #P B3LYP/6-311+g(d) force
 -------------------------

 -----
 DPGEN
 -----
 Symbolic Z-matrix:
 Charge =  0 Multiplicity = 2

                         Standard orientation:
 ---------------------------------------------------------------------
 Center     Atomic      Atomic             Coordinates (Angstroms)
 Number     Number       Type             X           Y           Z
 ---------------------------------------------------------------------
      1         11           0       -5.384721   -1.303407    0.160497
      2         11           0        1.199459   -1.352262    0.298132
      3         11           0       -3.155203    2.335510   -0.330308
      4         11           0        0.217239    2.243243   -0.301508
      5         11           0        4.933943   -1.518707   -0.753366
      6         11           0       -1.992826   -1.727881    0.101691
      7         11           0        4.182109    1.323504    0.824862
 ---------------------------------------------------------------------

 SCF Done:  E(UB3LYP) =  -1136.11245494     A.U. after   26 cycles

 The electronic state is 2-A.
 Alpha  occ. eigenvalues --  -38.45872 -38.45143 -38.45024 -38.44621 -38.43518
 Alpha  occ. eigenvalues --  -38.43489 -38.42751  -2.21647  -2.20914  -2.20794
 Alpha  occ. eigenvalues --   -2.20473  -2.19319  -2.19300  -2.18536  -1.15326
 Alpha  occ. eigenvalues --   -1.15287  -1.15274  -1.14584  -1.14582  -1.14550
 Alpha  occ. eigenvalues --   -1.14469  -1.14446  -1.14399  -1.14144  -1.14110
 Alpha  occ. eigenvalues --   -1.14094  -1.13002  -1.12999  -1.12968  -1.12959
 Alpha  occ. eigenvalues --   -1.12945  -1.12910  -1.12220  -1.12206  -1.12189
 Alpha  occ. eigenvalues --   -0.16517  -0.14243  -0.11725  -0.11180
 Alpha virt. eigenvalues --   -0.07294  -0.05078  -0.04770  -0.03558  -0.03196
 Alpha virt. eigenvalues --   -0.02595  -0.01935  -0.01806  -0.00922  -0.00817
 Alpha virt. eigenvalues --   -0.00256  -0.00117   0.00022   0.00232   0.00450

  Beta  occ. eigenvalues --  -38.45844 -38.45149 -38.44969 -38.44530 -38.43481
  Beta  occ. eigenvalues --  -38.43454 -38.42760  -2.21595  -2.20928  -2.20692
  Beta  occ. eigenvalues --   -2.20309  -2.19262  -2.19229  -2.18553  -1.15288
  Beta  occ. eigenvalues --   -1.15254  -1.15240  -1.14595  -1.14584  -1.14558
  Beta  occ. eigenvalues --   -1.14401  -1.14380  -1.14320  -1.14037  -1.14004
  Beta  occ. eigenvalues --   -1.13957  -1.12971  -1.12942  -1.12925  -1.12910
  Beta  occ. eigenvalues --   -1.12889  -1.12843  -1.12234  -1.12215  -1.12191
  Beta  occ. eigenvalues --   -0.15873  -0.13662  -0.11035
  Beta virt. eigenvalues --   -0.07888  -0.07243  -0.04586  -0.04465  -0.03330
  Beta virt. eigenvalues --   -0.02779  -0.02324  -0.01747  -0.01444  -0.00783
  Beta virt. eigenvalues --   -0.00547  -0.00138   0.00051   0.00169   0.00313

 Mulliken charges and spin densities:
               1          2
     1  Na   0.967695   0.461891
     2  Na  -0.967291  -0.405514
     3  Na   0.071656   0.183505
     4  Na  -0.334506  -0.023285
     5  Na   0.930212   0.027030
     6  Na  -1.017481   0.516243
     7  Na   0.349715   0.240130
 Sum of Mulliken charges =  -0.00000   1.00000

 Dipole moment (field-independent basis, Debye):
    X=              2.4317    Y=              0.3176    Z=              0.0274  Tot=              2.4526
 Quadrupole moment (field-independent basis, Debye-Ang):
   XX=            -52.5060   YY=            -69.6668   ZZ=            -71.3805
   XY=             -4.3408   XZ=              0.1871   YZ=              3.6850

 Normal termination of Gaussian 16 at Mon Dec  4 03:20:30 2023.
