 Gaussian 16, Revision B.01,
 Gaussian 16:  ES64L-G16RevB.01 20-Dec-2017

 -------------------------
 #P B3LYP/6-311+g(d) force
 -------------------------

 -----
 DPGEN
 -----
 Symbolic Z-matrix:
 Charge =  0 Multiplicity = 2

                         Standard orientation:
 ---------------------------------------------------------------------
 Center     Atomic      Atomic             Coordinates (Angstroms)
 Number     Number       Type             X           Y           Z
 ---------------------------------------------------------------------
      1         11           0        3.147229   -1.347243   -0.188808
      2         11           0        2.061073    1.996618   -0.074894
      3         11           0       -0.248762   -2.519727    0.307948
      4         11           0       -3.481955   -0.994778   -0.014375
      5         11           0       -1.772311    2.321912   -0.149505
      6         11           0        0.280023    0.533261    1.916195
      7         11           0        0.014703    0.009956   -1.796561
 ---------------------------------------------------------------------

 SCF Done:  E(UB3LYP) =  -1136.13289092     A.U. after   19 cycles

 The electronic state is 2-A.
 Alpha  occ. eigenvalues --  -38.44668 -38.44298 -38.43649 -38.43558 -38.43540
 Alpha  occ. eigenvalues --  -38.43435 -38.43075  -2.20431  -2.20098  -2.19545
 Alpha  occ. eigenvalues --   -2.19477  -2.19398  -2.19373  -2.18933  -1.14106
 Alpha  occ. eigenvalues --   -1.14091  -1.14069  -1.13766  -1.13760  -1.13740
 Alpha  occ. eigenvalues --   -1.13310  -1.13239  -1.13167  -1.13152  -1.13134
 Alpha  occ. eigenvalues --   -1.13091  -1.13087  -1.13047  -1.13023  -1.13013
 Alpha  occ. eigenvalues --   -1.12990  -1.12964  -1.12633  -1.12611  -1.12533
 Alpha  occ. eigenvalues --   -0.18577  -0.13097  -0.12141  -0.10692
 Alpha virt. eigenvalues --   -0.06264  -0.05450  -0.04022  -0.03177  -0.02805
 Alpha virt. eigenvalues --   -0.02490  -0.02045  -0.01365  -0.00344  -0.00122
 Alpha virt. eigenvalues --   -0.00054   0.00285   0.00705   0.00797   0.00846

  Beta  occ. eigenvalues --  -38.44673 -38.44296 -38.43639 -38.43552 -38.43466
  Beta  occ. eigenvalues --  -38.43348 -38.43063  -2.20441  -2.20097  -2.19531
  Beta  occ. eigenvalues --   -2.19390  -2.19342  -2.19213  -2.18915  -1.14105
  Beta  occ. eigenvalues --   -1.14097  -1.14077  -1.13763  -1.13746  -1.13741
  Beta  occ. eigenvalues --   -1.13282  -1.13190  -1.13145  -1.13104  -1.13063
  Beta  occ. eigenvalues --   -1.13057  -1.13014  -1.13007  -1.12971  -1.12920
  Beta  occ. eigenvalues --   -1.12884  -1.12856  -1.12622  -1.12570  -1.12525
  Beta  occ. eigenvalues --   -0.17829  -0.12911  -0.11890
  Beta virt. eigenvalues --   -0.06766  -0.06198  -0.05446  -0.03986  -0.02460
  Beta virt. eigenvalues --   -0.02021  -0.01958  -0.01434  -0.01327  -0.00404
  Beta virt. eigenvalues --   -0.00110   0.00083   0.00307   0.00762   0.00797

 Mulliken charges and spin densities:
               1          2
     1  Na   0.041728  -0.047298
     2  Na   0.475685  -0.077192
     3  Na   0.007212  -0.087770
     4  Na  -0.078487  -0.098578
     5  Na   0.161944  -0.151416
     6  Na  -0.284594   0.728725
     7  Na  -0.323487   0.733530
 Sum of Mulliken charges =  -0.00000   1.00000

 Dipole moment (field-independent basis, Debye):
    X=             -0.1391    Y=             -0.0020    Z=             -0.0468  Tot=              0.1468
 Quadrupole moment (field-independent basis, Debye-Ang):
   XX=            -50.1665   YY=            -67.4369   ZZ=            -74.6598
   XY=             -0.6360   XZ=             -0.6014   YZ=             -0.8195

 Normal termination of Gaussian 16 at Thu Dec  7 12:13:05 2023.
