 Gaussian 16, Revision B.01,
 Gaussian 16:  ES64L-G16RevB.01 20-Dec-2017

 -------------------------
 #P B3LYP/6-311+g(d) force
 -------------------------

 -----
 DPGEN
 -----
 Symbolic Z-matrix:
 Charge =  0 Multiplicity = 2

                         Standard orientation:
 ---------------------------------------------------------------------
 Center     Atomic      Atomic             Coordinates (Angstroms)
 Number     Number       Type             X           Y           Z
 ---------------------------------------------------------------------
      1         11           0       -1.491552   -3.388431   -0.412760
      2         11           0       -3.425512    1.699925   -0.339119
      3         11           0        2.433941    2.136657   -0.026284
      4         11           0       -0.484901    3.673831   -0.064921
      5         11           0       -4.068203   -1.103388    0.678502
      6         11           0        2.246248   -2.877754   -0.089286
      7         11           0        4.789978   -0.140841    0.253869
 ---------------------------------------------------------------------

 SCF Done:  E(UB3LYP) =  -1136.11127238     A.U. after   23 cycles

 The electronic state is 2-A.
 Alpha  occ. eigenvalues --  -38.45534 -38.44927 -38.44882 -38.44579 -38.44369
 Alpha  occ. eigenvalues --  -38.43983 -38.43461  -2.21267  -2.20738  -2.20682
 Alpha  occ. eigenvalues --   -2.20339  -2.20197  -2.19802  -2.19277  -1.14959
 Alpha  occ. eigenvalues --   -1.14945  -1.14877  -1.14444  -1.14400  -1.14377
 Alpha  occ. eigenvalues --   -1.14363  -1.14357  -1.14328  -1.14017  -1.14005
 Alpha  occ. eigenvalues --   -1.13962  -1.13864  -1.13845  -1.13817  -1.13460
 Alpha  occ. eigenvalues --   -1.13448  -1.13422  -1.12937  -1.12928  -1.12914
 Alpha  occ. eigenvalues --   -0.15717  -0.14275  -0.13343  -0.10998
 Alpha virt. eigenvalues --   -0.07523  -0.04784  -0.04322  -0.03594  -0.03502
 Alpha virt. eigenvalues --   -0.02595  -0.02119  -0.01959  -0.01416  -0.00693
 Alpha virt. eigenvalues --   -0.00267  -0.00121   0.00052   0.00457   0.00671

  Beta  occ. eigenvalues --  -38.45509 -38.44907 -38.44857 -38.44548 -38.44337
  Beta  occ. eigenvalues --  -38.43927 -38.43420  -2.21224  -2.20705  -2.20644
  Beta  occ. eigenvalues --   -2.20283  -2.20142  -2.19698  -2.19202  -1.14934
  Beta  occ. eigenvalues --   -1.14919  -1.14816  -1.14409  -1.14383  -1.14345
  Beta  occ. eigenvalues --   -1.14342  -1.14333  -1.14257  -1.13981  -1.13969
  Beta  occ. eigenvalues --   -1.13912  -1.13820  -1.13809  -1.13777  -1.13386
  Beta  occ. eigenvalues --   -1.13377  -1.13356  -1.12880  -1.12877  -1.12867
  Beta  occ. eigenvalues --   -0.15185  -0.13610  -0.12535
  Beta virt. eigenvalues --   -0.07764  -0.07728  -0.04271  -0.04019  -0.03333
  Beta virt. eigenvalues --   -0.03021  -0.02378  -0.01987  -0.01791  -0.01220
  Beta virt. eigenvalues --   -0.00371   0.00070   0.00178   0.00191   0.00440

 Mulliken charges and spin densities:
               1          2
     1  Na  -0.092975   0.041250
     2  Na  -0.362939   0.107133
     3  Na  -0.703219   0.297681
     4  Na   0.269960   0.065709
     5  Na  -0.088570   0.061171
     6  Na   0.020022   0.181989
     7  Na   0.957721   0.245067
 Sum of Mulliken charges =  -0.00000   1.00000

 Dipole moment (field-independent basis, Debye):
    X=              0.0382    Y=             -0.5402    Z=              0.0529  Tot=              0.5441
 Quadrupole moment (field-independent basis, Debye-Ang):
   XX=            -59.1360   YY=            -66.9012   ZZ=            -72.9226
   XY=             -1.4847   XZ=              0.2124   YZ=             -0.7485

 Normal termination of Gaussian 16 at Sun Dec  3 23:30:02 2023.
