 Gaussian 16, Revision B.01,
 Gaussian 16:  ES64L-G16RevB.01 20-Dec-2017

 -------------------------
 #P B3LYP/6-311+g(d) force
 -------------------------

 -----
 DPGEN
 -----
 Symbolic Z-matrix:
 Charge =  0 Multiplicity = 2

                         Standard orientation:
 ---------------------------------------------------------------------
 Center     Atomic      Atomic             Coordinates (Angstroms)
 Number     Number       Type             X           Y           Z
 ---------------------------------------------------------------------
      1         11           0       -0.134987   -1.430810    2.230253
      2         11           0        0.882209    1.215123   -2.171861
      3         11           0       -0.600163   -0.685771   -0.523337
      4         11           0        2.325475    0.914210    1.366055
      5         11           0        2.670396   -1.485963   -0.974272
      6         11           0       -3.621022   -1.146921   -0.685675
      7         11           0       -1.521907    2.620131    0.758835
 ---------------------------------------------------------------------

 SCF Done:  E(UB3LYP) =  -1136.11377328     A.U. after   25 cycles

 The electronic state is 2-A.
 Alpha  occ. eigenvalues --  -38.44979 -38.44852 -38.44592 -38.44507 -38.42979
 Alpha  occ. eigenvalues --  -38.42808 -38.42681  -2.20751  -2.20643  -2.20429
 Alpha  occ. eigenvalues --   -2.20360  -2.18836  -2.18790  -2.18682  -1.14406
 Alpha  occ. eigenvalues --   -1.14381  -1.14373  -1.14339  -1.14268  -1.14263
 Alpha  occ. eigenvalues --   -1.14108  -1.14097  -1.14052  -1.14046  -1.13990
 Alpha  occ. eigenvalues --   -1.13962  -1.12756  -1.12591  -1.12485  -1.12433
 Alpha  occ. eigenvalues --   -1.12410  -1.12383  -1.12319  -1.12287  -1.12271
 Alpha  occ. eigenvalues --   -0.18259  -0.12945  -0.11806  -0.11134
 Alpha virt. eigenvalues --   -0.06171  -0.05483  -0.03659  -0.03160  -0.03040
 Alpha virt. eigenvalues --   -0.02629  -0.01992  -0.01352  -0.00390  -0.00102
 Alpha virt. eigenvalues --    0.00222   0.00311   0.00420   0.00652   0.00780

  Beta  occ. eigenvalues --  -38.44902 -38.44820 -38.44560 -38.44476 -38.42977
  Beta  occ. eigenvalues --  -38.42806 -38.42658  -2.20610  -2.20585  -2.20372
  Beta  occ. eigenvalues --   -2.20303  -2.18834  -2.18755  -2.18682  -1.14303
  Beta  occ. eigenvalues --   -1.14293  -1.14284  -1.14278  -1.14231  -1.14224
  Beta  occ. eigenvalues --   -1.14064  -1.14051  -1.14013  -1.13999  -1.13955
  Beta  occ. eigenvalues --   -1.13919  -1.12749  -1.12576  -1.12467  -1.12418
  Beta  occ. eigenvalues --   -1.12373  -1.12367  -1.12312  -1.12273  -1.12263
  Beta  occ. eigenvalues --   -0.17583  -0.12600  -0.10922
  Beta virt. eigenvalues --   -0.08023  -0.05922  -0.04836  -0.03633  -0.02962
  Beta virt. eigenvalues --   -0.02335  -0.02019  -0.01825  -0.00858  -0.00355
  Beta virt. eigenvalues --    0.00099   0.00325   0.00374   0.00477   0.00678

 Mulliken charges and spin densities:
               1          2
     1  Na  -0.427356   0.161745
     2  Na  -0.141688   0.153457
     3  Na  -0.475550  -0.240560
     4  Na   0.321812   0.324071
     5  Na   0.366874   0.080589
     6  Na   0.432921   0.092048
     7  Na  -0.077013   0.428650
 Sum of Mulliken charges =  -0.00000   1.00000

 Dipole moment (field-independent basis, Debye):
    X=             -0.0091    Y=              0.2950    Z=              0.2116  Tot=              0.3632
 Quadrupole moment (field-independent basis, Debye-Ang):
   XX=            -53.1252   YY=            -66.1119   ZZ=            -71.7343
   XY=             -0.8957   XZ=             -0.3569   YZ=              7.2799

 Normal termination of Gaussian 16 at Thu Dec  7 20:11:48 2023.
