 Gaussian 16, Revision B.01,
 Gaussian 16:  ES64L-G16RevB.01 20-Dec-2017

 -------------------------
 #P B3LYP/6-311+g(d) force
 -------------------------

 -----
 DPGEN
 -----
 Symbolic Z-matrix:
 Charge =  0 Multiplicity = 2

                         Standard orientation:
 ---------------------------------------------------------------------
 Center     Atomic      Atomic             Coordinates (Angstroms)
 Number     Number       Type             X           Y           Z
 ---------------------------------------------------------------------
      1         11           0       -2.526283    1.852077    1.222480
      2         11           0        0.704059   -2.662940    0.069879
      3         11           0        0.900938    3.284933   -0.174663
      4         11           0        4.157882   -1.538339    0.330130
      5         11           0       -4.369246    0.467673   -0.862808
      6         11           0       -2.646386   -2.698241   -0.041217
      7         11           0        3.779036    1.294837   -0.543802
 ---------------------------------------------------------------------

 SCF Done:  E(UB3LYP) =  -1136.10935903     A.U. after   21 cycles

 The electronic state is 2-A.
 Alpha  occ. eigenvalues --  -38.45213 -38.44756 -38.44718 -38.44366 -38.44240
 Alpha  occ. eigenvalues --  -38.44054 -38.43677  -2.20988  -2.20576  -2.20545
 Alpha  occ. eigenvalues --   -2.20155  -2.20016  -2.19905  -2.19460  -1.14696
 Alpha  occ. eigenvalues --   -1.14653  -1.14630  -1.14295  -1.14240  -1.14222
 Alpha  occ. eigenvalues --   -1.14194  -1.14187  -1.14167  -1.13832  -1.13829
 Alpha  occ. eigenvalues --   -1.13785  -1.13698  -1.13689  -1.13632  -1.13567
 Alpha  occ. eigenvalues --   -1.13538  -1.13517  -1.13116  -1.13108  -1.13085
 Alpha  occ. eigenvalues --   -0.15906  -0.14507  -0.12801  -0.10779
 Alpha virt. eigenvalues --   -0.07321  -0.05130  -0.04168  -0.03538  -0.03498
 Alpha virt. eigenvalues --   -0.02678  -0.02252  -0.01573  -0.00954  -0.00800
 Alpha virt. eigenvalues --   -0.00478  -0.00261   0.00305   0.00444   0.00578

  Beta  occ. eigenvalues --  -38.45213 -38.44742 -38.44666 -38.44340 -38.44215
  Beta  occ. eigenvalues --  -38.44001 -38.43612  -2.20992  -2.20558  -2.20450
  Beta  occ. eigenvalues --   -2.20111  -2.19976  -2.19808  -2.19339  -1.14688
  Beta  occ. eigenvalues --   -1.14659  -1.14616  -1.14260  -1.14234  -1.14186
  Beta  occ. eigenvalues --   -1.14130  -1.14119  -1.14107  -1.13803  -1.13793
  Beta  occ. eigenvalues --   -1.13740  -1.13674  -1.13664  -1.13580  -1.13499
  Beta  occ. eigenvalues --   -1.13472  -1.13455  -1.13034  -1.13027  -1.13005
  Beta  occ. eigenvalues --   -0.15400  -0.13854  -0.11920
  Beta virt. eigenvalues --   -0.07646  -0.07491  -0.04781  -0.03752  -0.03241
  Beta virt. eigenvalues --   -0.03132  -0.02349  -0.02097  -0.01394  -0.00660
  Beta virt. eigenvalues --   -0.00627  -0.00254  -0.00008   0.00349   0.00461

 Mulliken charges and spin densities:
               1          2
     1  Na  -0.279853  -0.004551
     2  Na  -0.394792   0.131577
     3  Na  -0.110823   0.308307
     4  Na   0.511420   0.323451
     5  Na   0.230892   0.235048
     6  Na   0.032164  -0.119959
     7  Na   0.010992   0.126127
 Sum of Mulliken charges =  -0.00000   1.00000

 Dipole moment (field-independent basis, Debye):
    X=             -0.9350    Y=             -0.1525    Z=             -0.0415  Tot=              0.9482
 Quadrupole moment (field-independent basis, Debye-Ang):
   XX=            -58.5360   YY=            -73.3660   ZZ=            -68.5117
   XY=              1.1892   XZ=              1.8495   YZ=             -0.3273

 Normal termination of Gaussian 16 at Sun Dec  3 21:05:30 2023.
