 Gaussian 16, Revision B.01,
 Gaussian 16:  ES64L-G16RevB.01 20-Dec-2017

 -------------------------
 #P B3LYP/6-311+g(d) force
 -------------------------

 -----
 DPGEN
 -----
 Symbolic Z-matrix:
 Charge =  0 Multiplicity = 2

                         Standard orientation:
 ---------------------------------------------------------------------
 Center     Atomic      Atomic             Coordinates (Angstroms)
 Number     Number       Type             X           Y           Z
 ---------------------------------------------------------------------
      1         11           0       -2.663049   -1.122325   -0.011540
      2         11           0       -0.283040   -0.451281    1.847335
      3         11           0       -2.152254    2.198957   -0.025071
      4         11           0        3.145352   -0.223222    0.053124
      5         11           0        0.521744   -2.946788   -0.178949
      6         11           0        1.514333    2.546094    0.140514
      7         11           0       -0.083086   -0.001434   -1.825413
 ---------------------------------------------------------------------

 SCF Done:  E(UB3LYP) =  -1136.13885789     A.U. after   19 cycles

 The electronic state is 2-A.
 Alpha  occ. eigenvalues --  -38.43953 -38.43791 -38.43588 -38.43493 -38.43474
 Alpha  occ. eigenvalues --  -38.43401 -38.43280  -2.19777  -2.19700  -2.19428
 Alpha  occ. eigenvalues --   -2.19346  -2.19333  -2.19327  -2.19224  -1.13461
 Alpha  occ. eigenvalues --   -1.13444  -1.13432  -1.13417  -1.13374  -1.13318
 Alpha  occ. eigenvalues --   -1.13099  -1.13090  -1.13073  -1.13051  -1.13009
 Alpha  occ. eigenvalues --   -1.13006  -1.13000  -1.12993  -1.12971  -1.12967
 Alpha  occ. eigenvalues --   -1.12953  -1.12930  -1.12895  -1.12850  -1.12836
 Alpha  occ. eigenvalues --   -0.18774  -0.13079  -0.12553  -0.10703
 Alpha virt. eigenvalues --   -0.05501  -0.05203  -0.04847  -0.03167  -0.02925
 Alpha virt. eigenvalues --   -0.02480  -0.01377  -0.01177  -0.00384  -0.00331
 Alpha virt. eigenvalues --   -0.00001   0.00371   0.00834   0.00874   0.00914

  Beta  occ. eigenvalues --  -38.43952 -38.43780 -38.43585 -38.43491 -38.43467
  Beta  occ. eigenvalues --  -38.43321 -38.43198  -2.19778  -2.19686  -2.19425
  Beta  occ. eigenvalues --   -2.19331  -2.19318  -2.19200  -2.19075  -1.13464
  Beta  occ. eigenvalues --   -1.13427  -1.13420  -1.13416  -1.13330  -1.13314
  Beta  occ. eigenvalues --   -1.13093  -1.13077  -1.13067  -1.13021  -1.13003
  Beta  occ. eigenvalues --   -1.12979  -1.12971  -1.12970  -1.12953  -1.12911
  Beta  occ. eigenvalues --   -1.12864  -1.12841  -1.12798  -1.12742  -1.12729
  Beta  occ. eigenvalues --   -0.18033  -0.12846  -0.12317
  Beta virt. eigenvalues --   -0.06786  -0.05479  -0.05207  -0.04780  -0.02369
  Beta virt. eigenvalues --   -0.02149  -0.01435  -0.01295  -0.01111  -0.00437
  Beta virt. eigenvalues --   -0.00389   0.00136   0.00396   0.00867   0.00879

 Mulliken charges and spin densities:
               1          2
     1  Na   0.516255  -0.046272
     2  Na  -0.351080   0.737552
     3  Na   0.004371  -0.092123
     4  Na  -0.021189  -0.100114
     5  Na   0.167279  -0.135364
     6  Na  -0.045582  -0.092119
     7  Na  -0.270054   0.728440
 Sum of Mulliken charges =  -0.00000   1.00000

 Dipole moment (field-independent basis, Debye):
    X=              0.0371    Y=             -0.0932    Z=              0.0023  Tot=              0.1003
 Quadrupole moment (field-independent basis, Debye-Ang):
   XX=            -58.1044   YY=            -61.1369   ZZ=            -74.5701
   XY=             -1.1154   XZ=              0.4027   YZ=              1.0071

 Normal termination of Gaussian 16 at Fri Dec  8 07:26:27 2023.
