 Gaussian 16, Revision B.01,
 Gaussian 16:  ES64L-G16RevB.01 20-Dec-2017

 -------------------------
 #P B3LYP/6-311+g(d) force
 -------------------------

 -----
 DPGEN
 -----
 Symbolic Z-matrix:
 Charge =  0 Multiplicity = 2

                         Standard orientation:
 ---------------------------------------------------------------------
 Center     Atomic      Atomic             Coordinates (Angstroms)
 Number     Number       Type             X           Y           Z
 ---------------------------------------------------------------------
      1         11           0       -2.741703   -1.896059    0.230965
      2         11           0        0.260442    0.053601    2.130395
      3         11           0       -0.260259   -0.266781   -1.564904
      4         11           0        1.223293   -2.492474   -0.494460
      5         11           0        3.039744   -0.038954    0.189807
      6         11           0       -2.401119    1.888709   -0.040115
      7         11           0        0.879603    2.751958   -0.451687
 ---------------------------------------------------------------------

 SCF Done:  E(UB3LYP) =  -1136.13398176     A.U. after   20 cycles

 The electronic state is 2-A.
 Alpha  occ. eigenvalues --  -38.44016 -38.43900 -38.43886 -38.43764 -38.43592
 Alpha  occ. eigenvalues --  -38.43249 -38.43214  -2.19800  -2.19758  -2.19727
 Alpha  occ. eigenvalues --   -2.19645  -2.19509  -2.19226  -2.19101  -1.13475
 Alpha  occ. eigenvalues --   -1.13456  -1.13446  -1.13434  -1.13416  -1.13402
 Alpha  occ. eigenvalues --   -1.13384  -1.13379  -1.13366  -1.13353  -1.13321
 Alpha  occ. eigenvalues --   -1.13295  -1.13284  -1.13131  -1.13095  -1.12889
 Alpha  occ. eigenvalues --   -1.12853  -1.12830  -1.12766  -1.12753  -1.12735
 Alpha  occ. eigenvalues --   -0.18679  -0.13044  -0.12395  -0.10903
 Alpha virt. eigenvalues --   -0.05527  -0.05354  -0.04520  -0.03266  -0.02959
 Alpha virt. eigenvalues --   -0.02637  -0.01506  -0.01172  -0.00337  -0.00212
 Alpha virt. eigenvalues --   -0.00002   0.00352   0.00781   0.00854   0.00906

  Beta  occ. eigenvalues --  -38.44014 -38.43898 -38.43790 -38.43758 -38.43575
  Beta  occ. eigenvalues --  -38.43239 -38.43154  -2.19799  -2.19726  -2.19638
  Beta  occ. eigenvalues --   -2.19579  -2.19483  -2.19118  -2.19086  -1.13466
  Beta  occ. eigenvalues --   -1.13453  -1.13445  -1.13408  -1.13387  -1.13374
  Beta  occ. eigenvalues --   -1.13351  -1.13319  -1.13296  -1.13283  -1.13268
  Beta  occ. eigenvalues --   -1.13256  -1.13227  -1.13095  -1.13082  -1.12821
  Beta  occ. eigenvalues --   -1.12791  -1.12758  -1.12738  -1.12728  -1.12717
  Beta  occ. eigenvalues --   -0.17951  -0.12814  -0.12153
  Beta virt. eigenvalues --   -0.06974  -0.05492  -0.05296  -0.04478  -0.02492
  Beta virt. eigenvalues --   -0.02205  -0.01595  -0.01392  -0.01106  -0.00364
  Beta virt. eigenvalues --   -0.00242   0.00132   0.00381   0.00850   0.00855

 Mulliken charges and spin densities:
               1          2
     1  Na  -0.061356  -0.017815
     2  Na  -0.564106   0.737904
     3  Na  -0.117983   0.240173
     4  Na   0.352704  -0.012698
     5  Na   0.283594   0.099385
     6  Na   0.016762  -0.047886
     7  Na   0.090384   0.000937
 Sum of Mulliken charges =  -0.00000   1.00000

 Dipole moment (field-independent basis, Debye):
    X=             -0.2666    Y=             -0.0049    Z=              0.3203  Tot=              0.4168
 Quadrupole moment (field-independent basis, Debye-Ang):
   XX=            -56.6598   YY=            -63.3676   ZZ=            -73.7842
   XY=              0.5611   XZ=             -1.2437   YZ=             -0.7559

 Normal termination of Gaussian 16 at Thu Dec  7 11:54:23 2023.
