 Gaussian 16, Revision B.01,
 Gaussian 16:  ES64L-G16RevB.01 20-Dec-2017

 -------------------------
 #P B3LYP/6-311+g(d) force
 -------------------------

 -----
 DPGEN
 -----
 Symbolic Z-matrix:
 Charge =  0 Multiplicity = 2

                         Standard orientation:
 ---------------------------------------------------------------------
 Center     Atomic      Atomic             Coordinates (Angstroms)
 Number     Number       Type             X           Y           Z
 ---------------------------------------------------------------------
      1         11           0       -2.803619   -1.090131   -0.115335
      2         11           0        0.098730   -2.541034    0.207257
      3         11           0       -0.092947    0.061780   -1.750598
      4         11           0        2.084212    2.186787    0.056021
      5         11           0       -2.212159    2.117133   -0.081597
      6         11           0        2.952381   -0.904177   -0.254784
      7         11           0       -0.026597    0.169643    1.939036
 ---------------------------------------------------------------------

 SCF Done:  E(UB3LYP) =  -1136.13631161     A.U. after   19 cycles

 The electronic state is 2-A.
 Alpha  occ. eigenvalues --  -38.44056 -38.43949 -38.43652 -38.43641 -38.43483
 Alpha  occ. eigenvalues --  -38.43397 -38.42564  -2.19927  -2.19845  -2.19501
 Alpha  occ. eigenvalues --   -2.19487  -2.19424  -2.19375  -2.18509  -1.13599
 Alpha  occ. eigenvalues --   -1.13589  -1.13582  -1.13529  -1.13504  -1.13500
 Alpha  occ. eigenvalues --   -1.13184  -1.13171  -1.13165  -1.13156  -1.13138
 Alpha  occ. eigenvalues --   -1.13124  -1.13107  -1.13058  -1.13045  -1.13031
 Alpha  occ. eigenvalues --   -1.13002  -1.12988  -1.12201  -1.12166  -1.12141
 Alpha  occ. eigenvalues --   -0.19109  -0.13547  -0.12138  -0.10946
 Alpha virt. eigenvalues --   -0.05703  -0.05436  -0.04046  -0.03445  -0.02763
 Alpha virt. eigenvalues --   -0.02609  -0.01650  -0.01058  -0.00280  -0.00061
 Alpha virt. eigenvalues --    0.00037   0.00360   0.00760   0.00884   0.00956

  Beta  occ. eigenvalues --  -38.44051 -38.43943 -38.43648 -38.43638 -38.43390
  Beta  occ. eigenvalues --  -38.43326 -38.42554  -2.19920  -2.19838  -2.19498
  Beta  occ. eigenvalues --   -2.19485  -2.19254  -2.19244  -2.18495  -1.13596
  Beta  occ. eigenvalues --   -1.13586  -1.13557  -1.13524  -1.13504  -1.13468
  Beta  occ. eigenvalues --   -1.13176  -1.13160  -1.13150  -1.13133  -1.13130
  Beta  occ. eigenvalues --   -1.13123  -1.13002  -1.12965  -1.12925  -1.12913
  Beta  occ. eigenvalues --   -1.12911  -1.12892  -1.12194  -1.12138  -1.12114
  Beta  occ. eigenvalues --   -0.18352  -0.13296  -0.11876
  Beta virt. eigenvalues --   -0.07001  -0.05638  -0.05452  -0.04053  -0.02622
  Beta virt. eigenvalues --   -0.01962  -0.01549  -0.01542  -0.00990  -0.00342
  Beta virt. eigenvalues --   -0.00047   0.00123   0.00383   0.00830   0.00877

 Mulliken charges and spin densities:
               1          2
     1  Na   0.246325   0.001181
     2  Na   0.297796   0.027443
     3  Na  -0.397951   0.523727
     4  Na   0.110633  -0.116870
     5  Na   0.116684  -0.121637
     6  Na   0.122490   0.003406
     7  Na  -0.495978   0.682749
 Sum of Mulliken charges =  -0.00000   1.00000

 Dipole moment (field-independent basis, Debye):
    X=              0.0065    Y=              0.2501    Z=             -0.0005  Tot=              0.2502
 Quadrupole moment (field-independent basis, Debye-Ang):
   XX=            -54.4636   YY=            -66.0125   ZZ=            -73.4233
   XY=             -0.1518   XZ=             -0.2995   YZ=              0.0508

 Normal termination of Gaussian 16 at Thu Dec  7 18:15:00 2023.
