 Gaussian 16, Revision B.01,
 Gaussian 16:  ES64L-G16RevB.01 20-Dec-2017

 -------------------------
 #P B3LYP/6-311+g(d) force
 -------------------------

 -----
 DPGEN
 -----
 Symbolic Z-matrix:
 Charge =  0 Multiplicity = 2

                         Standard orientation:
 ---------------------------------------------------------------------
 Center     Atomic      Atomic             Coordinates (Angstroms)
 Number     Number       Type             X           Y           Z
 ---------------------------------------------------------------------
      1         11           0       -1.811173    2.364843    0.357510
      2         11           0        0.321344   -0.449057    1.995477
      3         11           0        0.071121   -0.102249   -1.869654
      4         11           0        2.847589   -0.392093    0.250207
      5         11           0       -2.996676   -0.924021   -0.014346
      6         11           0        0.188347   -2.911935   -0.315559
      7         11           0        1.379448    2.414512   -0.403635
 ---------------------------------------------------------------------

 SCF Done:  E(UB3LYP) =  -1136.13685165     A.U. after   18 cycles

 The electronic state is 2-A.
 Alpha  occ. eigenvalues --  -38.43893 -38.43820 -38.43587 -38.43582 -38.43571
 Alpha  occ. eigenvalues --  -38.43493 -38.43208  -2.19744  -2.19693  -2.19532
 Alpha  occ. eigenvalues --   -2.19498  -2.19447  -2.19326  -2.19116  -1.13465
 Alpha  occ. eigenvalues --   -1.13384  -1.13372  -1.13366  -1.13354  -1.13333
 Alpha  occ. eigenvalues --   -1.13241  -1.13220  -1.13168  -1.13161  -1.13134
 Alpha  occ. eigenvalues --   -1.13117  -1.13108  -1.13091  -1.13057  -1.13008
 Alpha  occ. eigenvalues --   -1.12991  -1.12971  -1.12794  -1.12757  -1.12743
 Alpha  occ. eigenvalues --   -0.18865  -0.12801  -0.12713  -0.11184
 Alpha virt. eigenvalues --   -0.05452  -0.04876  -0.04735  -0.03250  -0.03232
 Alpha virt. eigenvalues --   -0.02839  -0.01234  -0.01059  -0.00183  -0.00178
 Alpha virt. eigenvalues --    0.00016   0.00377   0.00874   0.00910   0.00951

  Beta  occ. eigenvalues --  -38.43893 -38.43736 -38.43575 -38.43571 -38.43490
  Beta  occ. eigenvalues --  -38.43489 -38.43199  -2.19697  -2.19588  -2.19483
  Beta  occ. eigenvalues --   -2.19432  -2.19383  -2.19321  -2.19103  -1.13374
  Beta  occ. eigenvalues --   -1.13366  -1.13357  -1.13336  -1.13272  -1.13256
  Beta  occ. eigenvalues --   -1.13177  -1.13162  -1.13120  -1.13106  -1.13094
  Beta  occ. eigenvalues --   -1.13080  -1.13053  -1.13032  -1.13029  -1.13004
  Beta  occ. eigenvalues --   -1.12972  -1.12968  -1.12775  -1.12740  -1.12728
  Beta  occ. eigenvalues --   -0.18111  -0.12555  -0.12460
  Beta virt. eigenvalues --   -0.07245  -0.05461  -0.04767  -0.04710  -0.02462
  Beta virt. eigenvalues --   -0.02428  -0.01798  -0.01163  -0.00989  -0.00228
  Beta virt. eigenvalues --   -0.00167   0.00115   0.00407   0.00881   0.00929

 Mulliken charges and spin densities:
               1          2
     1  Na  -0.095979  -0.030979
     2  Na  -0.418242   0.681530
     3  Na  -0.120380   0.561554
     4  Na   0.454475   0.005371
     5  Na  -0.089784  -0.096056
     6  Na   0.149636  -0.134179
     7  Na   0.120274   0.012760
 Sum of Mulliken charges =  -0.00000   1.00000

 Dipole moment (field-independent basis, Debye):
    X=             -0.1577    Y=             -0.3062    Z=              0.0983  Tot=              0.3582
 Quadrupole moment (field-independent basis, Debye-Ang):
   XX=            -60.5844   YY=            -62.6470   ZZ=            -71.9662
   XY=              0.2741   XZ=             -0.6319   YZ=              0.7476

 Normal termination of Gaussian 16 at Tue Dec  5 12:44:45 2023.
