 Gaussian 16, Revision B.01,
 Gaussian 16:  ES64L-G16RevB.01 20-Dec-2017

 -------------------------
 #P B3LYP/6-311+g(d) force
 -------------------------

 -----
 DPGEN
 -----
 Symbolic Z-matrix:
 Charge =  0 Multiplicity = 2

                         Standard orientation:
 ---------------------------------------------------------------------
 Center     Atomic      Atomic             Coordinates (Angstroms)
 Number     Number       Type             X           Y           Z
 ---------------------------------------------------------------------
      1         11           0        2.844036   -1.587089    0.654133
      2         11           0        0.094823   -1.765584   -1.413130
      3         11           0       -1.427791    1.917791   -0.022052
      4         11           0        2.106180    1.065718   -1.779580
      5         11           0        1.289926    1.890615    1.329141
      6         11           0       -1.227876   -1.167428    1.960808
      7         11           0       -3.679299   -0.354023   -0.729320
 ---------------------------------------------------------------------

 SCF Done:  E(UB3LYP) =  -1136.12873966     A.U. after   20 cycles

 The electronic state is 2-A.
 Alpha  occ. eigenvalues --  -38.44603 -38.44539 -38.44327 -38.44203 -38.43567
 Alpha  occ. eigenvalues --  -38.43010 -38.42836  -2.20412  -2.20340  -2.20119
 Alpha  occ. eigenvalues --   -2.20052  -2.19396  -2.18901  -2.18725  -1.14087
 Alpha  occ. eigenvalues --   -1.14057  -1.14030  -1.14020  -1.13994  -1.13960
 Alpha  occ. eigenvalues --   -1.13784  -1.13776  -1.13773  -1.13732  -1.13702
 Alpha  occ. eigenvalues --   -1.13656  -1.13087  -1.13070  -1.13005  -1.12667
 Alpha  occ. eigenvalues --   -1.12566  -1.12531  -1.12376  -1.12365  -1.12346
 Alpha  occ. eigenvalues --   -0.18044  -0.13424  -0.11472  -0.11288
 Alpha virt. eigenvalues --   -0.06306  -0.05150  -0.04419  -0.03307  -0.03150
 Alpha virt. eigenvalues --   -0.02812  -0.01909  -0.00853  -0.00639  -0.00104
 Alpha virt. eigenvalues --    0.00156   0.00273   0.00339   0.00611   0.00793

  Beta  occ. eigenvalues --  -38.44543 -38.44526 -38.44322 -38.44156 -38.43543
  Beta  occ. eigenvalues --  -38.43003 -38.42816  -2.20316  -2.20301  -2.20112
  Beta  occ. eigenvalues --   -2.19965  -2.19355  -2.18890  -2.18691  -1.14014
  Beta  occ. eigenvalues --   -1.14001  -1.13976  -1.13975  -1.13958  -1.13931
  Beta  occ. eigenvalues --   -1.13778  -1.13772  -1.13754  -1.13663  -1.13647
  Beta  occ. eigenvalues --   -1.13596  -1.13061  -1.13018  -1.12980  -1.12648
  Beta  occ. eigenvalues --   -1.12552  -1.12521  -1.12357  -1.12338  -1.12309
  Beta  occ. eigenvalues --   -0.17318  -0.13224  -0.11309
  Beta virt. eigenvalues --   -0.07549  -0.05995  -0.04887  -0.04023  -0.03188
  Beta virt. eigenvalues --   -0.02531  -0.01920  -0.01789  -0.00722  -0.00300
  Beta virt. eigenvalues --    0.00029   0.00181   0.00370   0.00438   0.00710

 Mulliken charges and spin densities:
               1          2
     1  Na   0.184328   0.078977
     2  Na  -0.260075   0.377077
     3  Na  -0.202598   0.129942
     4  Na   0.047523  -0.097554
     5  Na   0.141687   0.406443
     6  Na  -0.284404   0.187389
     7  Na   0.373539  -0.082274
 Sum of Mulliken charges =  -0.00000   1.00000

 Dipole moment (field-independent basis, Debye):
    X=             -0.1970    Y=             -0.5472    Z=             -0.0572  Tot=              0.5844
 Quadrupole moment (field-independent basis, Debye-Ang):
   XX=            -53.1786   YY=            -76.2333   ZZ=            -65.5246
   XY=              0.9731   XZ=              2.2625   YZ=             -3.1029

 Normal termination of Gaussian 16 at Fri Dec  8 04:56:05 2023.
