 Gaussian 16, Revision B.01,
 Gaussian 16:  ES64L-G16RevB.01 20-Dec-2017

 -------------------------
 #P B3LYP/6-311+g(d) force
 -------------------------

 -----
 DPGEN
 -----
 Symbolic Z-matrix:
 Charge =  0 Multiplicity = 2

                         Standard orientation:
 ---------------------------------------------------------------------
 Center     Atomic      Atomic             Coordinates (Angstroms)
 Number     Number       Type             X           Y           Z
 ---------------------------------------------------------------------
      1         11           0        0.129406    0.342450   -1.431002
      2         11           0       -1.580585    1.905559    1.157956
      3         11           0        2.014602    2.162099   -0.734391
      4         11           0       -1.344172   -1.443797    0.684986
      5         11           0        1.501774   -0.487697    1.885117
      6         11           0        3.009145   -1.757173   -0.629790
      7         11           0       -3.730169   -0.721442   -0.932875
 ---------------------------------------------------------------------

 SCF Done:  E(UB3LYP) =  -1136.11715119     A.U. after   23 cycles

 The electronic state is 2-A.
 Alpha  occ. eigenvalues --  -38.44603 -38.44079 -38.44001 -38.43830 -38.43658
 Alpha  occ. eigenvalues --  -38.43543 -38.43418  -2.20443  -2.19915  -2.19859
 Alpha  occ. eigenvalues --   -2.19817  -2.19577  -2.19430  -2.19397  -1.14150
 Alpha  occ. eigenvalues --   -1.14081  -1.14060  -1.13768  -1.13613  -1.13575
 Alpha  occ. eigenvalues --   -1.13542  -1.13521  -1.13512  -1.13478  -1.13455
 Alpha  occ. eigenvalues --   -1.13419  -1.13294  -1.13207  -1.13173  -1.13104
 Alpha  occ. eigenvalues --   -1.13062  -1.13056  -1.13034  -1.12999  -1.12992
 Alpha  occ. eigenvalues --   -0.18801  -0.13896  -0.11378  -0.11213
 Alpha virt. eigenvalues --   -0.06226  -0.05404  -0.04200  -0.03105  -0.02650
 Alpha virt. eigenvalues --   -0.02567  -0.02071  -0.01252  -0.00737   0.00058
 Alpha virt. eigenvalues --    0.00195   0.00408   0.00493   0.00658   0.00743

  Beta  occ. eigenvalues --  -38.44574 -38.44041 -38.43994 -38.43792 -38.43600
  Beta  occ. eigenvalues --  -38.43531 -38.43396  -2.20389  -2.19847  -2.19806
  Beta  occ. eigenvalues --   -2.19792  -2.19474  -2.19411  -2.19366  -1.14116
  Beta  occ. eigenvalues --   -1.14038  -1.14025  -1.13725  -1.13565  -1.13509
  Beta  occ. eigenvalues --   -1.13503  -1.13491  -1.13481  -1.13462  -1.13439
  Beta  occ. eigenvalues --   -1.13373  -1.13218  -1.13140  -1.13094  -1.13085
  Beta  occ. eigenvalues --   -1.13035  -1.13020  -1.12982  -1.12980  -1.12972
  Beta  occ. eigenvalues --   -0.18054  -0.13584  -0.11058
  Beta virt. eigenvalues --   -0.07491  -0.06006  -0.05157  -0.03759  -0.02945
  Beta virt. eigenvalues --   -0.02175  -0.02018  -0.01562  -0.01009  -0.00485
  Beta virt. eigenvalues --    0.00133   0.00238   0.00418   0.00646   0.00717

 Mulliken charges and spin densities:
               1          2
     1  Na  -0.486816   0.324549
     2  Na  -0.254321   0.204303
     3  Na   0.175112   0.021491
     4  Na  -0.258373   0.144311
     5  Na   0.418277   0.229946
     6  Na  -0.059473   0.016596
     7  Na   0.465594   0.058803
 Sum of Mulliken charges =  -0.00000   1.00000

 Dipole moment (field-independent basis, Debye):
    X=             -0.4747    Y=              0.3151    Z=              0.0409  Tot=              0.5712
 Quadrupole moment (field-independent basis, Debye-Ang):
   XX=            -51.2528   YY=            -73.5225   ZZ=            -68.5156
   XY=             -1.4813   XZ=              0.3826   YZ=              4.7780

 Normal termination of Gaussian 16 at Tue Dec  5 17:44:13 2023.
