 Gaussian 16, Revision B.01,
 Gaussian 16:  ES64L-G16RevB.01 20-Dec-2017

 -------------------------
 #P B3LYP/6-311+g(d) force
 -------------------------

 -----
 DPGEN
 -----
 Symbolic Z-matrix:
 Charge =  0 Multiplicity = 2

                         Standard orientation:
 ---------------------------------------------------------------------
 Center     Atomic      Atomic             Coordinates (Angstroms)
 Number     Number       Type             X           Y           Z
 ---------------------------------------------------------------------
      1         11           0       -0.840855   -2.652737    0.049923
      2         11           0       -0.755964    3.025304    0.123804
      3         11           0        2.714814    1.437239    0.095766
      4         11           0        2.348720   -1.902818   -0.180332
      5         11           0       -0.227596   -0.077884    1.690364
      6         11           0       -0.133140    0.382422   -1.629188
      7         11           0       -3.105978   -0.211526   -0.150337
 ---------------------------------------------------------------------

 SCF Done:  E(UB3LYP) =  -1136.13774731     A.U. after   19 cycles

 The electronic state is 2-A.
 Alpha  occ. eigenvalues --  -38.44000 -38.43987 -38.43855 -38.43487 -38.43318
 Alpha  occ. eigenvalues --  -38.42923 -38.42875  -2.19858  -2.19818  -2.19687
 Alpha  occ. eigenvalues --   -2.19348  -2.19241  -2.18919  -2.18869  -1.13537
 Alpha  occ. eigenvalues --   -1.13525  -1.13495  -1.13494  -1.13489  -1.13454
 Alpha  occ. eigenvalues --   -1.13378  -1.13354  -1.13310  -1.13044  -1.13007
 Alpha  occ. eigenvalues --   -1.13001  -1.12958  -1.12891  -1.12856  -1.12633
 Alpha  occ. eigenvalues --   -1.12547  -1.12529  -1.12525  -1.12496  -1.12484
 Alpha  occ. eigenvalues --   -0.18979  -0.13033  -0.12791  -0.10318
 Alpha virt. eigenvalues --   -0.05737  -0.05140  -0.04871  -0.02941  -0.02842
 Alpha virt. eigenvalues --   -0.02045  -0.01542  -0.01306  -0.00450  -0.00296
 Alpha virt. eigenvalues --    0.00044   0.00359   0.00828   0.00861   0.00925

  Beta  occ. eigenvalues --  -38.43993 -38.43984 -38.43850 -38.43483 -38.43309
  Beta  occ. eigenvalues --  -38.42844 -38.42805  -2.19849  -2.19815  -2.19682
  Beta  occ. eigenvalues --   -2.19344  -2.19229  -2.18774  -2.18742  -1.13533
  Beta  occ. eigenvalues --   -1.13493  -1.13493  -1.13487  -1.13468  -1.13454
  Beta  occ. eigenvalues --   -1.13370  -1.13331  -1.13309  -1.13043  -1.13002
  Beta  occ. eigenvalues --   -1.12979  -1.12943  -1.12854  -1.12853  -1.12539
  Beta  occ. eigenvalues --   -1.12450  -1.12428  -1.12423  -1.12403  -1.12389
  Beta  occ. eigenvalues --   -0.18261  -0.12782  -0.12534
  Beta virt. eigenvalues --   -0.06425  -0.05737  -0.05099  -0.04862  -0.02157
  Beta virt. eigenvalues --   -0.02062  -0.01463  -0.01239  -0.01036  -0.00503
  Beta virt. eigenvalues --   -0.00345   0.00176   0.00389   0.00827   0.00882

 Mulliken charges and spin densities:
               1          2
     1  Na   0.361913   0.036639
     2  Na   0.052345  -0.164551
     3  Na   0.081408  -0.075349
     4  Na   0.016549  -0.040594
     5  Na  -0.384239   0.674683
     6  Na  -0.402632   0.658762
     7  Na   0.274654  -0.089590
 Sum of Mulliken charges =  -0.00000   1.00000

 Dipole moment (field-independent basis, Debye):
    X=             -0.1002    Y=              0.3733    Z=              0.0138  Tot=              0.3868
 Quadrupole moment (field-independent basis, Debye-Ang):
   XX=            -55.7265   YY=            -59.1966   ZZ=            -76.7126
   XY=             -0.0477   XZ=              0.2477   YZ=              1.1382

 Normal termination of Gaussian 16 at Thu Dec  7 16:11:35 2023.
