 Gaussian 16, Revision B.01,
 Gaussian 16:  ES64L-G16RevB.01 20-Dec-2017

 -------------------------
 #P B3LYP/6-311+g(d) force
 -------------------------

 -----
 DPGEN
 -----
 Symbolic Z-matrix:
 Charge =  0 Multiplicity = 2

                         Standard orientation:
 ---------------------------------------------------------------------
 Center     Atomic      Atomic             Coordinates (Angstroms)
 Number     Number       Type             X           Y           Z
 ---------------------------------------------------------------------
      1         11           0        0.430604   -1.052250   -1.528333
      2         11           0       -1.675240    0.854951    1.796822
      3         11           0        3.767513   -0.153054   -0.082873
      4         11           0        1.201460    1.774965    0.047860
      5         11           0       -2.714666   -1.335527   -0.232978
      6         11           0        0.738907   -1.387686    1.322465
      7         11           0       -1.748578    1.298600   -1.322963
 ---------------------------------------------------------------------

 SCF Done:  E(UB3LYP) =  -1136.11958334     A.U. after   24 cycles

 The electronic state is 2-A.
 Alpha  occ. eigenvalues --  -38.45331 -38.43862 -38.43777 -38.43692 -38.43589
 Alpha  occ. eigenvalues --  -38.43346 -38.42330  -2.21146  -2.19792  -2.19742
 Alpha  occ. eigenvalues --   -2.19695  -2.19549  -2.19354  -2.18289  -1.14818
 Alpha  occ. eigenvalues --   -1.14815  -1.14768  -1.13570  -1.13547  -1.13494
 Alpha  occ. eigenvalues --   -1.13432  -1.13400  -1.13378  -1.13374  -1.13327
 Alpha  occ. eigenvalues --   -1.13260  -1.13213  -1.13158  -1.13112  -1.13023
 Alpha  occ. eigenvalues --   -1.12992  -1.12949  -1.12003  -1.11961  -1.11897
 Alpha  occ. eigenvalues --   -0.19707  -0.14166  -0.11974  -0.10962
 Alpha virt. eigenvalues --   -0.06862  -0.04324  -0.04255  -0.03276  -0.02643
 Alpha virt. eigenvalues --   -0.02564  -0.02303  -0.00595  -0.00563   0.00125
 Alpha virt. eigenvalues --    0.00266   0.00366   0.00471   0.00928   0.00961

  Beta  occ. eigenvalues --  -38.45334 -38.43850 -38.43710 -38.43646 -38.43550
  Beta  occ. eigenvalues --  -38.43302 -38.42317  -2.21153  -2.19774  -2.19622
  Beta  occ. eigenvalues --   -2.19612  -2.19480  -2.19278  -2.18271  -1.14825
  Beta  occ. eigenvalues --   -1.14812  -1.14774  -1.13548  -1.13502  -1.13434
  Beta  occ. eigenvalues --   -1.13398  -1.13334  -1.13309  -1.13304  -1.13242
  Beta  occ. eigenvalues --   -1.13204  -1.13158  -1.13090  -1.13062  -1.12966
  Beta  occ. eigenvalues --   -1.12943  -1.12873  -1.11995  -1.11915  -1.11889
  Beta  occ. eigenvalues --   -0.18864  -0.14003  -0.10777
  Beta virt. eigenvalues --   -0.07704  -0.06711  -0.04306  -0.03623  -0.02896
  Beta virt. eigenvalues --   -0.02382  -0.01925  -0.01628  -0.00554  -0.00183
  Beta virt. eigenvalues --    0.00127   0.00291   0.00464   0.00564   0.00946

 Mulliken charges and spin densities:
               1          2
     1  Na  -0.107113   0.248801
     2  Na   0.139397   0.374029
     3  Na   0.574680  -0.055320
     4  Na  -0.670578   0.005684
     5  Na   0.197125  -0.084881
     6  Na  -0.344683   0.257759
     7  Na   0.211173   0.253929
 Sum of Mulliken charges =  -0.00000   1.00000

 Dipole moment (field-independent basis, Debye):
    X=              0.9669    Y=             -0.2475    Z=              0.0937  Tot=              1.0025
 Quadrupole moment (field-independent basis, Debye-Ang):
   XX=            -46.0160   YY=            -79.6689   ZZ=            -66.6258
   XY=             -0.1320   XZ=             -0.4484   YZ=             -0.5532

 Normal termination of Gaussian 16 at Tue Dec  5 18:16:11 2023.
