 Gaussian 16, Revision B.01,
 Gaussian 16:  ES64L-G16RevB.01 20-Dec-2017

 -------------------------
 #P B3LYP/6-311+g(d) force
 -------------------------

 -----
 DPGEN
 -----
 Symbolic Z-matrix:
 Charge =  0 Multiplicity = 2

                         Standard orientation:
 ---------------------------------------------------------------------
 Center     Atomic      Atomic             Coordinates (Angstroms)
 Number     Number       Type             X           Y           Z
 ---------------------------------------------------------------------
      1         11           0       -2.255852   -0.186675    0.681478
      2         11           0       -3.992099   -2.556274   -0.523216
      3         11           0        3.033204   -0.122372    0.986070
      4         11           0       -3.571710    2.518058   -0.495955
      5         11           0        6.069168   -0.205596   -0.890170
      6         11           0        0.408114   -1.861658    0.142086
      7         11           0        0.309174    2.414517    0.099707
 ---------------------------------------------------------------------

 SCF Done:  E(UB3LYP) =  -1136.11379924     A.U. after   21 cycles

 The electronic state is 2-A.
 Alpha  occ. eigenvalues --  -38.45292 -38.44552 -38.44433 -38.44161 -38.44121
 Alpha  occ. eigenvalues --  -38.43960 -38.43233  -2.21084  -2.20382  -2.20192
 Alpha  occ. eigenvalues --   -2.19944  -2.19913  -2.19772  -2.19170  -1.14714
 Alpha  occ. eigenvalues --   -1.14714  -1.14691  -1.14084  -1.14050  -1.13984
 Alpha  occ. eigenvalues --   -1.13890  -1.13872  -1.13793  -1.13622  -1.13602
 Alpha  occ. eigenvalues --   -1.13598  -1.13573  -1.13568  -1.13518  -1.13463
 Alpha  occ. eigenvalues --   -1.13445  -1.13416  -1.12896  -1.12856  -1.12758
 Alpha  occ. eigenvalues --   -0.16730  -0.14101  -0.11626  -0.11532
 Alpha virt. eigenvalues --   -0.06255  -0.05660  -0.04642  -0.03540  -0.02671
 Alpha virt. eigenvalues --   -0.02465  -0.02297  -0.01265  -0.01093  -0.00713
 Alpha virt. eigenvalues --   -0.00692  -0.00111   0.00036   0.00205   0.00677

  Beta  occ. eigenvalues --  -38.45164 -38.44516 -38.44429 -38.44143 -38.44096
  Beta  occ. eigenvalues --  -38.43964 -38.43228  -2.20845  -2.20318  -2.20184
  Beta  occ. eigenvalues --   -2.19911  -2.19865  -2.19787  -2.19165  -1.14552
  Beta  occ. eigenvalues --   -1.14551  -1.14532  -1.14041  -1.14007  -1.13937
  Beta  occ. eigenvalues --   -1.13886  -1.13864  -1.13787  -1.13598  -1.13580
  Beta  occ. eigenvalues --   -1.13563  -1.13547  -1.13541  -1.13487  -1.13477
  Beta  occ. eigenvalues --   -1.13462  -1.13374  -1.12866  -1.12845  -1.12759
  Beta  occ. eigenvalues --   -0.16244  -0.13172  -0.11459
  Beta virt. eigenvalues --   -0.08074  -0.06004  -0.05039  -0.04541  -0.03352
  Beta virt. eigenvalues --   -0.02341  -0.02194  -0.01676  -0.01152  -0.00872
  Beta virt. eigenvalues --   -0.00366  -0.00259  -0.00022   0.00140   0.00364

 Mulliken charges and spin densities:
               1          2
     1  Na  -1.159055  -0.109934
     2  Na   0.504534   0.148296
     3  Na   0.097947  -0.326227
     4  Na   0.540057   0.204155
     5  Na  -0.044110   0.660520
     6  Na   0.052635   0.307146
     7  Na   0.007992   0.116045
 Sum of Mulliken charges =  -0.00000   1.00000

 Dipole moment (field-independent basis, Debye):
    X=              0.2078    Y=              0.0697    Z=             -0.8126  Tot=              0.8416
 Quadrupole moment (field-independent basis, Debye-Ang):
   XX=            -55.0502   YY=            -69.0358   ZZ=            -69.8355
   XY=              1.0870   XZ=              1.4315   YZ=              0.9740

 Normal termination of Gaussian 16 at Wed Nov 29 02:11:45 2023.
