 Gaussian 16, Revision B.01,
 Gaussian 16:  ES64L-G16RevB.01 20-Dec-2017

 -------------------------
 #P B3LYP/6-311+g(d) force
 -------------------------

 -----
 DPGEN
 -----
 Symbolic Z-matrix:
 Charge =  0 Multiplicity = 2

                         Standard orientation:
 ---------------------------------------------------------------------
 Center     Atomic      Atomic             Coordinates (Angstroms)
 Number     Number       Type             X           Y           Z
 ---------------------------------------------------------------------
      1         11           0        3.653655   -0.492546    0.782216
      2         11           0        0.349677   -0.370764    1.410706
      3         11           0       -1.873437   -1.131064   -1.433255
      4         11           0        1.299760   -1.866496   -1.481476
      5         11           0        1.452267    2.625154   -0.308100
      6         11           0       -1.940574    2.056916   -0.633535
      7         11           0       -2.941348   -0.821199    1.663444
 ---------------------------------------------------------------------

 SCF Done:  E(UB3LYP) =  -1136.12864149     A.U. after   21 cycles

 The electronic state is 2-A.
 Alpha  occ. eigenvalues --  -38.44753 -38.44368 -38.43913 -38.43724 -38.43649
 Alpha  occ. eigenvalues --  -38.43399 -38.43153  -2.20559  -2.20229  -2.19837
 Alpha  occ. eigenvalues --   -2.19581  -2.19565  -2.19241  -2.18941  -1.14242
 Alpha  occ. eigenvalues --   -1.14199  -1.14192  -1.13902  -1.13870  -1.13848
 Alpha  occ. eigenvalues --   -1.13545  -1.13477  -1.13469  -1.13312  -1.13238
 Alpha  occ. eigenvalues --   -1.13226  -1.13219  -1.13198  -1.13165  -1.12927
 Alpha  occ. eigenvalues --   -1.12895  -1.12863  -1.12623  -1.12616  -1.12569
 Alpha  occ. eigenvalues --   -0.18228  -0.13790  -0.11646  -0.11320
 Alpha virt. eigenvalues --   -0.06270  -0.05144  -0.04793  -0.03427  -0.02755
 Alpha virt. eigenvalues --   -0.02399  -0.02184  -0.00922  -0.00670  -0.00180
 Alpha virt. eigenvalues --    0.00180   0.00234   0.00311   0.00597   0.00816

  Beta  occ. eigenvalues --  -38.44744 -38.44306 -38.43875 -38.43680 -38.43608
  Beta  occ. eigenvalues --  -38.43382 -38.43161  -2.20542  -2.20114  -2.19769
  Beta  occ. eigenvalues --   -2.19502  -2.19495  -2.19210  -2.18956  -1.14223
  Beta  occ. eigenvalues --   -1.14191  -1.14182  -1.13811  -1.13796  -1.13770
  Beta  occ. eigenvalues --   -1.13486  -1.13438  -1.13410  -1.13249  -1.13188
  Beta  occ. eigenvalues --   -1.13175  -1.13165  -1.13139  -1.13095  -1.12895
  Beta  occ. eigenvalues --   -1.12873  -1.12845  -1.12631  -1.12627  -1.12575
  Beta  occ. eigenvalues --   -0.17569  -0.13584  -0.11279
  Beta virt. eigenvalues --   -0.07537  -0.06044  -0.05005  -0.04286  -0.03187
  Beta virt. eigenvalues --   -0.02146  -0.02048  -0.01630  -0.00737  -0.00409
  Beta virt. eigenvalues --   -0.00093   0.00251   0.00309   0.00477   0.00705

 Mulliken charges and spin densities:
               1          2
     1  Na   1.161507   0.019760
     2  Na  -1.741699   0.333400
     3  Na   0.280977   0.344733
     4  Na  -0.022685   0.129940
     5  Na   0.028282  -0.012017
     6  Na  -0.301135   0.092118
     7  Na   0.594752   0.092065
 Sum of Mulliken charges =  -0.00000   1.00000

 Dipole moment (field-independent basis, Debye):
    X=              0.4972    Y=             -0.4037    Z=              0.2681  Tot=              0.6943
 Quadrupole moment (field-independent basis, Debye-Ang):
   XX=            -49.0355   YY=            -76.1375   ZZ=            -69.0815
   XY=             -0.2286   XZ=             -0.0514   YZ=             -0.3616

 Normal termination of Gaussian 16 at Sun Dec  3 17:28:52 2023.
