 Gaussian 16, Revision B.01,
 Gaussian 16:  ES64L-G16RevB.01 20-Dec-2017

 -------------------------
 #P B3LYP/6-311+g(d) force
 -------------------------

 -----
 DPGEN
 -----
 Symbolic Z-matrix:
 Charge =  0 Multiplicity = 2

                         Standard orientation:
 ---------------------------------------------------------------------
 Center     Atomic      Atomic             Coordinates (Angstroms)
 Number     Number       Type             X           Y           Z
 ---------------------------------------------------------------------
      1         11           0        2.599691   -1.498438   -0.202260
      2         11           0       -0.271349   -0.619508    1.999703
      3         11           0       -0.807675   -2.784296   -0.506200
      4         11           0        2.607118    1.862945    0.452744
      5         11           0       -3.084640   -0.026192    0.124189
      6         11           0       -1.338591    2.671194   -0.253514
      7         11           0        0.295446    0.394294   -1.614663
 ---------------------------------------------------------------------

 SCF Done:  E(UB3LYP) =  -1136.13714141     A.U. after   18 cycles

 The electronic state is 2-A.
 Alpha  occ. eigenvalues --  -38.43976 -38.43970 -38.43891 -38.43595 -38.43459
 Alpha  occ. eigenvalues --  -38.43318 -38.43116  -2.19823  -2.19788  -2.19745
 Alpha  occ. eigenvalues --   -2.19481  -2.19317  -2.19173  -2.19092  -1.13509
 Alpha  occ. eigenvalues --   -1.13485  -1.13472  -1.13469  -1.13452  -1.13437
 Alpha  occ. eigenvalues --   -1.13433  -1.13402  -1.13358  -1.13151  -1.13116
 Alpha  occ. eigenvalues --   -1.13101  -1.13050  -1.12964  -1.12945  -1.12851
 Alpha  occ. eigenvalues --   -1.12834  -1.12804  -1.12764  -1.12723  -1.12705
 Alpha  occ. eigenvalues --   -0.18569  -0.13173  -0.12421  -0.10652
 Alpha virt. eigenvalues --   -0.05557  -0.05379  -0.04670  -0.03291  -0.02949
 Alpha virt. eigenvalues --   -0.02396  -0.01481  -0.01150  -0.00445  -0.00313
 Alpha virt. eigenvalues --   -0.00005   0.00369   0.00791   0.00857   0.00884

  Beta  occ. eigenvalues --  -38.43967 -38.43965 -38.43884 -38.43514 -38.43453
  Beta  occ. eigenvalues --  -38.43306 -38.43055  -2.19819  -2.19773  -2.19736
  Beta  occ. eigenvalues --   -2.19332  -2.19311  -2.19153  -2.18982  -1.13504
  Beta  occ. eigenvalues --   -1.13472  -1.13466  -1.13458  -1.13429  -1.13425
  Beta  occ. eigenvalues --   -1.13414  -1.13387  -1.13349  -1.13054  -1.13033
  Beta  occ. eigenvalues --   -1.13013  -1.12992  -1.12952  -1.12939  -1.12833
  Beta  occ. eigenvalues --   -1.12809  -1.12782  -1.12690  -1.12645  -1.12626
  Beta  occ. eigenvalues --   -0.17862  -0.12942  -0.12185
  Beta virt. eigenvalues --   -0.06808  -0.05470  -0.05358  -0.04579  -0.02543
  Beta virt. eigenvalues --   -0.02230  -0.01413  -0.01367  -0.01059  -0.00460
  Beta virt. eigenvalues --   -0.00359   0.00141   0.00404   0.00848   0.00877

 Mulliken charges and spin densities:
               1          2
     1  Na   0.197323  -0.020987
     2  Na  -0.461617   0.680816
     3  Na   0.098393  -0.024290
     4  Na  -0.103523   0.047401
     5  Na   0.179277  -0.007339
     6  Na   0.110249  -0.066498
     7  Na  -0.020102   0.390897
 Sum of Mulliken charges =  -0.00000   1.00000

 Dipole moment (field-independent basis, Debye):
    X=              0.1374    Y=             -0.0193    Z=              0.1906  Tot=              0.2357
 Quadrupole moment (field-independent basis, Debye-Ang):
   XX=            -56.8078   YY=            -62.5938   ZZ=            -74.2721
   XY=              0.5207   XZ=              1.1468   YZ=              2.3603

 Normal termination of Gaussian 16 at Tue Dec  5 13:02:11 2023.
