 Gaussian 16, Revision B.01,
 Gaussian 16:  ES64L-G16RevB.01 20-Dec-2017

 -------------------------
 #P B3LYP/6-311+g(d) force
 -------------------------

 -----
 DPGEN
 -----
 Symbolic Z-matrix:
 Charge =  0 Multiplicity = 2

                         Standard orientation:
 ---------------------------------------------------------------------
 Center     Atomic      Atomic             Coordinates (Angstroms)
 Number     Number       Type             X           Y           Z
 ---------------------------------------------------------------------
      1         11           0       -0.304351   -2.847978   -0.672487
      2         11           0       -2.456150   -0.206080    2.099456
      3         11           0       -2.441459   -0.072263   -1.404439
      4         11           0       -0.763035    2.625388   -0.725614
      5         11           0        3.074105   -1.451903    0.075563
      6         11           0        0.456630   -0.082663    0.399711
      7         11           0        2.434259    2.035499    0.227810
 ---------------------------------------------------------------------

 SCF Done:  E(UB3LYP) =  -1136.12450447     A.U. after   19 cycles

 The electronic state is 2-A.
 Alpha  occ. eigenvalues --  -38.44211 -38.44003 -38.43812 -38.43755 -38.43743
 Alpha  occ. eigenvalues --  -38.43428 -38.42652  -2.20056  -2.19848  -2.19694
 Alpha  occ. eigenvalues --   -2.19634  -2.19598  -2.19311  -2.18842  -1.13792
 Alpha  occ. eigenvalues --   -1.13714  -1.13664  -1.13508  -1.13469  -1.13465
 Alpha  occ. eigenvalues --   -1.13461  -1.13341  -1.13334  -1.13320  -1.13298
 Alpha  occ. eigenvalues --   -1.13281  -1.13267  -1.13249  -1.13196  -1.13013
 Alpha  occ. eigenvalues --   -1.12957  -1.12929  -1.12517  -1.12499  -1.12482
 Alpha  occ. eigenvalues --   -0.18467  -0.13545  -0.12499  -0.10645
 Alpha virt. eigenvalues --   -0.05818  -0.05315  -0.04703  -0.03312  -0.02457
 Alpha virt. eigenvalues --   -0.02227  -0.01501  -0.01019  -0.00531  -0.00378
 Alpha virt. eigenvalues --   -0.00290   0.00322   0.00706   0.00818   0.00847

  Beta  occ. eigenvalues --  -38.44216 -38.43896 -38.43814 -38.43737 -38.43710
  Beta  occ. eigenvalues --  -38.43408 -38.42636  -2.20066  -2.19698  -2.19649
  Beta  occ. eigenvalues --   -2.19575  -2.19566  -2.19278  -2.18817  -1.13798
  Beta  occ. eigenvalues --   -1.13718  -1.13668  -1.13468  -1.13367  -1.13339
  Beta  occ. eigenvalues --   -1.13338  -1.13327  -1.13307  -1.13302  -1.13283
  Beta  occ. eigenvalues --   -1.13238  -1.13213  -1.13208  -1.13176  -1.12994
  Beta  occ. eigenvalues --   -1.12917  -1.12908  -1.12490  -1.12475  -1.12445
  Beta  occ. eigenvalues --   -0.17929  -0.13235  -0.12326
  Beta virt. eigenvalues --   -0.06702  -0.05667  -0.05162  -0.04453  -0.02811
  Beta virt. eigenvalues --   -0.01942  -0.01704  -0.01036  -0.00936  -0.00474
  Beta virt. eigenvalues --   -0.00319   0.00071   0.00414   0.00826   0.00850

 Mulliken charges and spin densities:
               1          2
     1  Na   0.766375   0.183541
     2  Na   0.146925   0.275702
     3  Na   0.404653   0.176451
     4  Na   0.559099   0.163178
     5  Na   0.128723  -0.247550
     6  Na  -2.161502   0.749663
     7  Na   0.155728  -0.300985
 Sum of Mulliken charges =  -0.00000   1.00000

 Dipole moment (field-independent basis, Debye):
    X=              0.4445    Y=             -0.1613    Z=             -0.3673  Tot=              0.5988
 Quadrupole moment (field-independent basis, Debye-Ang):
   XX=            -55.7224   YY=            -62.8019   ZZ=            -73.5141
   XY=             -0.0706   XZ=              1.5226   YZ=              0.6638

 Normal termination of Gaussian 16 at Thu Dec  7 19:49:12 2023.
