 Gaussian 16, Revision B.01,
 Gaussian 16:  ES64L-G16RevB.01 20-Dec-2017

 -------------------------
 #P B3LYP/6-311+g(d) force
 -------------------------

 -----
 DPGEN
 -----
 Symbolic Z-matrix:
 Charge =  0 Multiplicity = 2

                         Standard orientation:
 ---------------------------------------------------------------------
 Center     Atomic      Atomic             Coordinates (Angstroms)
 Number     Number       Type             X           Y           Z
 ---------------------------------------------------------------------
      1         11           0       -0.412077   -0.005304    1.846406
      2         11           0        0.225835    0.008512   -1.774257
      3         11           0        1.768917    2.176975    0.195617
      4         11           0       -1.889346    2.336164   -0.104308
      5         11           0        2.893185   -0.835713   -0.107342
      6         11           0       -2.769827   -1.236448   -0.318066
      7         11           0        0.183313   -2.444185    0.261951
 ---------------------------------------------------------------------

 SCF Done:  E(UB3LYP) =  -1136.13547301     A.U. after   19 cycles

 The electronic state is 2-A.
 Alpha  occ. eigenvalues --  -38.43848 -38.43657 -38.43547 -38.43472 -38.43381
 Alpha  occ. eigenvalues --  -38.43302 -38.42929  -2.19717  -2.19566  -2.19385
 Alpha  occ. eigenvalues --   -2.19378  -2.19355  -2.19307  -2.18928  -1.13399
 Alpha  occ. eigenvalues --   -1.13382  -1.13356  -1.13270  -1.13244  -1.13216
 Alpha  occ. eigenvalues --   -1.13119  -1.13092  -1.13065  -1.13045  -1.13035
 Alpha  occ. eigenvalues --   -1.13016  -1.12996  -1.12982  -1.12971  -1.12964
 Alpha  occ. eigenvalues --   -1.12923  -1.12910  -1.12605  -1.12572  -1.12532
 Alpha  occ. eigenvalues --   -0.19374  -0.13249  -0.12550  -0.11005
 Alpha virt. eigenvalues --   -0.05398  -0.05226  -0.04283  -0.03303  -0.02947
 Alpha virt. eigenvalues --   -0.02548  -0.01452  -0.01025  -0.00087  -0.00035
 Alpha virt. eigenvalues --    0.00112   0.00365   0.00825   0.00926   0.00972

  Beta  occ. eigenvalues --  -38.43840 -38.43653 -38.43544 -38.43465 -38.43297
  Beta  occ. eigenvalues --  -38.43226 -38.42914  -2.19707  -2.19562  -2.19382
  Beta  occ. eigenvalues --   -2.19347  -2.19223  -2.19168  -2.18906  -1.13395
  Beta  occ. eigenvalues --   -1.13356  -1.13345  -1.13264  -1.13246  -1.13186
  Beta  occ. eigenvalues --   -1.13073  -1.13047  -1.13033  -1.13021  -1.13013
  Beta  occ. eigenvalues --   -1.12997  -1.12966  -1.12908  -1.12884  -1.12864
  Beta  occ. eigenvalues --   -1.12832  -1.12809  -1.12585  -1.12525  -1.12507
  Beta  occ. eigenvalues --   -0.18613  -0.12997  -0.12274
  Beta virt. eigenvalues --   -0.07033  -0.05366  -0.05214  -0.04284  -0.02494
  Beta virt. eigenvalues --   -0.02124  -0.01483  -0.01359  -0.00973  -0.00125
  Beta virt. eigenvalues --    0.00016   0.00140   0.00387   0.00877   0.00920

 Mulliken charges and spin densities:
               1          2
     1  Na  -0.473372   0.583616
     2  Na  -0.555862   0.643690
     3  Na   0.141439  -0.087339
     4  Na  -0.017117  -0.126567
     5  Na   0.213892  -0.017011
     6  Na   0.088438  -0.057138
     7  Na   0.602583   0.060750
 Sum of Mulliken charges =  -0.00000   1.00000

 Dipole moment (field-independent basis, Debye):
    X=             -0.2065    Y=              0.2413    Z=             -0.0697  Tot=              0.3251
 Quadrupole moment (field-independent basis, Debye-Ang):
   XX=            -55.8679   YY=            -64.8744   ZZ=            -72.9928
   XY=             -0.0288   XZ=              1.4210   YZ=              0.2911

 Normal termination of Gaussian 16 at Thu Dec  7 11:48:54 2023.
