 Gaussian 16, Revision B.01,
 Gaussian 16:  ES64L-G16RevB.01 20-Dec-2017

 -------------------------
 #P B3LYP/6-311+g(d) force
 -------------------------

 -----
 DPGEN
 -----
 Symbolic Z-matrix:
 Charge =  0 Multiplicity = 2

                         Standard orientation:
 ---------------------------------------------------------------------
 Center     Atomic      Atomic             Coordinates (Angstroms)
 Number     Number       Type             X           Y           Z
 ---------------------------------------------------------------------
      1         11           0        2.360131    0.234925    1.431616
      2         11           0       -0.053154   -2.133404   -0.398446
      3         11           0       -1.459192    0.014246    1.294297
      4         11           0        0.736388    2.498964   -0.974240
      5         11           0       -2.173023    3.153819   -0.226924
      6         11           0       -3.551957   -2.596061   -0.438953
      7         11           0        4.140806   -1.172489   -0.687351
 ---------------------------------------------------------------------

 SCF Done:  E(UB3LYP) =  -1136.11918587     A.U. after   20 cycles

 The electronic state is 2-A.
 Alpha  occ. eigenvalues --  -38.44704 -38.44635 -38.44053 -38.43960 -38.43915
 Alpha  occ. eigenvalues --  -38.43819 -38.43632  -2.20518  -2.20460  -2.19840
 Alpha  occ. eigenvalues --   -2.19780  -2.19744  -2.19687  -2.19527  -1.14203
 Alpha  occ. eigenvalues --   -1.14200  -1.14177  -1.14166  -1.14151  -1.14036
 Alpha  occ. eigenvalues --   -1.13504  -1.13503  -1.13499  -1.13450  -1.13420
 Alpha  occ. eigenvalues --   -1.13417  -1.13408  -1.13391  -1.13385  -1.13358
 Alpha  occ. eigenvalues --   -1.13332  -1.13287  -1.13248  -1.13175  -1.13113
 Alpha  occ. eigenvalues --   -0.17371  -0.13334  -0.12948  -0.09910
 Alpha virt. eigenvalues --   -0.06446  -0.06140  -0.04480  -0.03392  -0.02843
 Alpha virt. eigenvalues --   -0.02395  -0.02150  -0.01459  -0.00956  -0.00690
 Alpha virt. eigenvalues --   -0.00056   0.00094   0.00213   0.00460   0.00598

  Beta  occ. eigenvalues --  -38.44694 -38.44634 -38.44016 -38.43911 -38.43902
  Beta  occ. eigenvalues --  -38.43793 -38.43587  -2.20502  -2.20463  -2.19769
  Beta  occ. eigenvalues --   -2.19721  -2.19687  -2.19643  -2.19449  -1.14190
  Beta  occ. eigenvalues --   -1.14187  -1.14168  -1.14146  -1.14139  -1.14038
  Beta  occ. eigenvalues --   -1.13453  -1.13450  -1.13446  -1.13407  -1.13385
  Beta  occ. eigenvalues --   -1.13377  -1.13369  -1.13359  -1.13355  -1.13332
  Beta  occ. eigenvalues --   -1.13294  -1.13218  -1.13196  -1.13112  -1.13048
  Beta  occ. eigenvalues --   -0.16778  -0.13034  -0.12624
  Beta virt. eigenvalues --   -0.06486  -0.06260  -0.05884  -0.04164  -0.03086
  Beta virt. eigenvalues --   -0.02516  -0.02198  -0.01923  -0.01068  -0.00569
  Beta virt. eigenvalues --   -0.00461   0.00094   0.00247   0.00309   0.00533

 Mulliken charges and spin densities:
               1          2
     1  Na   0.356869   0.134957
     2  Na  -0.638435  -0.192916
     3  Na  -0.531821   0.438395
     4  Na  -0.250461   0.068674
     5  Na   0.376398  -0.014573
     6  Na   0.537959   0.168884
     7  Na   0.149490   0.396579
 Sum of Mulliken charges =  -0.00000   1.00000

 Dipole moment (field-independent basis, Debye):
    X=             -0.5184    Y=              0.1292    Z=              0.1829  Tot=              0.5647
 Quadrupole moment (field-independent basis, Debye-Ang):
   XX=            -60.0006   YY=            -69.9121   ZZ=            -70.5356
   XY=             -0.5467   XZ=             -1.6644   YZ=              2.8266

 Normal termination of Gaussian 16 at Tue Nov 28 21:48:28 2023.
