 Gaussian 16, Revision B.01,
 Gaussian 16:  ES64L-G16RevB.01 20-Dec-2017

 -------------------------
 #P B3LYP/6-311+g(d) force
 -------------------------

 -----
 DPGEN
 -----
 Symbolic Z-matrix:
 Charge =  0 Multiplicity = 2

                         Standard orientation:
 ---------------------------------------------------------------------
 Center     Atomic      Atomic             Coordinates (Angstroms)
 Number     Number       Type             X           Y           Z
 ---------------------------------------------------------------------
      1         11           0        0.870085    2.662710    0.386644
      2         11           0        1.055452    0.365349   -2.333797
      3         11           0       -4.699166   -0.008999    0.065438
      4         11           0       -1.976174    0.193259   -0.313252
      5         11           0        0.851585   -2.500921   -0.768942
      6         11           0        0.557236   -0.770095    2.669886
      7         11           0        3.340983    0.058697    0.294023
 ---------------------------------------------------------------------

 SCF Done:  E(UB3LYP) =  -1136.11047634     A.U. after   35 cycles

 The electronic state is 2-A.
 Alpha  occ. eigenvalues --  -38.45828 -38.45758 -38.44999 -38.44675 -38.43315
 Alpha  occ. eigenvalues --  -38.42549 -38.42345  -2.21623  -2.21558  -2.20819
 Alpha  occ. eigenvalues --   -2.20566  -2.19212  -2.18364  -2.18184  -1.15271
 Alpha  occ. eigenvalues --   -1.15261  -1.15243  -1.15229  -1.15215  -1.15171
 Alpha  occ. eigenvalues --   -1.14601  -1.14441  -1.14437  -1.14241  -1.14210
 Alpha  occ. eigenvalues --   -1.14158  -1.12914  -1.12869  -1.12816  -1.12046
 Alpha  occ. eigenvalues --   -1.12025  -1.12006  -1.11869  -1.11844  -1.11830
 Alpha  occ. eigenvalues --   -0.18024  -0.13106  -0.12299  -0.10986
 Alpha virt. eigenvalues --   -0.07477  -0.04658  -0.03772  -0.03513  -0.03023
 Alpha virt. eigenvalues --   -0.02964  -0.02791  -0.00828  -0.00577  -0.00499
 Alpha virt. eigenvalues --   -0.00285  -0.00175   0.00229   0.00665   0.00897

  Beta  occ. eigenvalues --  -38.45754 -38.45712 -38.45007 -38.44599 -38.43308
  Beta  occ. eigenvalues --  -38.42546 -38.42343  -2.21554  -2.21408  -2.20833
  Beta  occ. eigenvalues --   -2.20425  -2.19201  -2.18362  -2.18184  -1.15224
  Beta  occ. eigenvalues --   -1.15218  -1.15176  -1.15121  -1.15098  -1.15078
  Beta  occ. eigenvalues --   -1.14612  -1.14450  -1.14447  -1.14143  -1.14120
  Beta  occ. eigenvalues --   -1.14051  -1.12908  -1.12845  -1.12810  -1.12044
  Beta  occ. eigenvalues --   -1.12009  -1.12005  -1.11868  -1.11835  -1.11819
  Beta  occ. eigenvalues --   -0.17170  -0.13083  -0.10808
  Beta virt. eigenvalues --   -0.08187  -0.07251  -0.03670  -0.03530  -0.03078
  Beta virt. eigenvalues --   -0.03017  -0.02650  -0.02174  -0.00613  -0.00498
  Beta virt. eigenvalues --   -0.00214  -0.00177  -0.00089   0.00252   0.00773

 Mulliken charges and spin densities:
               1          2
     1  Na   0.299709  -0.090330
     2  Na   1.545737   0.342105
     3  Na  -1.219528   0.196082
     4  Na  -0.973432  -0.031783
     5  Na   0.219350  -0.056404
     6  Na   0.245217   0.539975
     7  Na  -0.117053   0.100354
 Sum of Mulliken charges =  -0.00000   1.00000

 Dipole moment (field-independent basis, Debye):
    X=              0.3764    Y=             -0.2721    Z=              0.6364  Tot=              0.7879
 Quadrupole moment (field-independent basis, Debye-Ang):
   XX=            -50.8480   YY=            -78.4763   ZZ=            -64.8636
   XY=             -0.2053   XZ=             -1.1328   YZ=             -5.1062

 Normal termination of Gaussian 16 at Thu Dec  7 12:14:59 2023.
