 Gaussian 16, Revision B.01,
 Gaussian 16:  ES64L-G16RevB.01 20-Dec-2017

 -------------------------
 #P B3LYP/6-311+g(d) force
 -------------------------

 -----
 DPGEN
 -----
 Symbolic Z-matrix:
 Charge =  0 Multiplicity = 2

                         Standard orientation:
 ---------------------------------------------------------------------
 Center     Atomic      Atomic             Coordinates (Angstroms)
 Number     Number       Type             X           Y           Z
 ---------------------------------------------------------------------
      1         11           0        0.117858   -2.609343   -0.562366
      2         11           0        1.775362    1.128540   -1.200956
      3         11           0       -3.169353   -2.059904    0.225424
      4         11           0        0.219614   -0.050901    1.981079
      5         11           0        4.072223   -0.534623    0.296304
      6         11           0       -1.590154    0.936580   -1.318300
      7         11           0       -1.425550    3.189652    0.578814
 ---------------------------------------------------------------------

 SCF Done:  E(UB3LYP) =  -1136.12461410     A.U. after   21 cycles

 The electronic state is 2-A.
 Alpha  occ. eigenvalues --  -38.44548 -38.44439 -38.44395 -38.43949 -38.43765
 Alpha  occ. eigenvalues --  -38.43617 -38.43192  -2.20324  -2.20214  -2.20188
 Alpha  occ. eigenvalues --   -2.19779  -2.19596  -2.19481  -2.19114  -1.14012
 Alpha  occ. eigenvalues --   -1.13984  -1.13957  -1.13887  -1.13883  -1.13879
 Alpha  occ. eigenvalues --   -1.13867  -1.13856  -1.13777  -1.13455  -1.13410
 Alpha  occ. eigenvalues --   -1.13390  -1.13345  -1.13233  -1.13228  -1.13177
 Alpha  occ. eigenvalues --   -1.13145  -1.13091  -1.12797  -1.12764  -1.12712
 Alpha  occ. eigenvalues --   -0.17744  -0.12880  -0.12382  -0.10418
 Alpha virt. eigenvalues --   -0.06550  -0.05288  -0.04578  -0.03200  -0.02897
 Alpha virt. eigenvalues --   -0.02382  -0.02218  -0.01475  -0.00807  -0.00177
 Alpha virt. eigenvalues --    0.00028   0.00182   0.00587   0.00680   0.00717

  Beta  occ. eigenvalues --  -38.44553 -38.44441 -38.44387 -38.43855 -38.43761
  Beta  occ. eigenvalues --  -38.43582 -38.43159  -2.20334  -2.20219  -2.20176
  Beta  occ. eigenvalues --   -2.19606  -2.19589  -2.19418  -2.19055  -1.14016
  Beta  occ. eigenvalues --   -1.13985  -1.13962  -1.13890  -1.13880  -1.13872
  Beta  occ. eigenvalues --   -1.13856  -1.13840  -1.13773  -1.13342  -1.13335
  Beta  occ. eigenvalues --   -1.13287  -1.13266  -1.13228  -1.13208  -1.13133
  Beta  occ. eigenvalues --   -1.13085  -1.13049  -1.12752  -1.12712  -1.12673
  Beta  occ. eigenvalues --   -0.17023  -0.12782  -0.12218
  Beta virt. eigenvalues --   -0.06545  -0.06420  -0.05189  -0.04426  -0.02674
  Beta virt. eigenvalues --   -0.02313  -0.02117  -0.01446  -0.01340  -0.00672
  Beta virt. eigenvalues --   -0.00041   0.00080   0.00234   0.00635   0.00739

 Mulliken charges and spin densities:
               1          2
     1  Na  -0.118655   0.036116
     2  Na  -0.334681   0.096521
     3  Na   0.188444  -0.080105
     4  Na  -0.338443   0.748225
     5  Na   0.360551  -0.034833
     6  Na   0.325765   0.321622
     7  Na  -0.082981  -0.087546
 Sum of Mulliken charges =  -0.00000   1.00000

 Dipole moment (field-independent basis, Debye):
    X=              0.0738    Y=             -0.5456    Z=              0.3798  Tot=              0.6689
 Quadrupole moment (field-independent basis, Debye-Ang):
   XX=            -52.9579   YY=            -64.5880   ZZ=            -74.9680
   XY=             -1.8008   XZ=             -0.3935   YZ=              1.4648

 Normal termination of Gaussian 16 at Thu Dec  7 09:39:32 2023.
