 Gaussian 16, Revision B.01,
 Gaussian 16:  ES64L-G16RevB.01 20-Dec-2017

 -------------------------
 #P B3LYP/6-311+g(d) force
 -------------------------

 -----
 DPGEN
 -----
 Symbolic Z-matrix:
 Charge =  0 Multiplicity = 2

                         Standard orientation:
 ---------------------------------------------------------------------
 Center     Atomic      Atomic             Coordinates (Angstroms)
 Number     Number       Type             X           Y           Z
 ---------------------------------------------------------------------
      1         11           0       -0.122956   -0.036652    2.172188
      2         11           0       -2.201678    2.062394   -0.007859
      3         11           0        0.682528   -2.911298    0.050642
      4         11           0       -0.505908   -0.023857   -1.609576
      5         11           0       -2.694502   -1.182398   -0.195765
      6         11           0        1.881187    2.656430   -0.080067
      7         11           0        2.961329   -0.564619   -0.329564
 ---------------------------------------------------------------------

 SCF Done:  E(UB3LYP) =  -1136.13287263     A.U. after   19 cycles

 The electronic state is 2-A.
 Alpha  occ. eigenvalues --  -38.43998 -38.43921 -38.43835 -38.43804 -38.43650
 Alpha  occ. eigenvalues --  -38.43524 -38.43239  -2.19920  -2.19789  -2.19699
 Alpha  occ. eigenvalues --   -2.19642  -2.19532  -2.19436  -2.19086  -1.13759
 Alpha  occ. eigenvalues --   -1.13573  -1.13537  -1.13493  -1.13443  -1.13399
 Alpha  occ. eigenvalues --   -1.13356  -1.13325  -1.13317  -1.13316  -1.13304
 Alpha  occ. eigenvalues --   -1.13296  -1.13184  -1.13143  -1.13132  -1.13107
 Alpha  occ. eigenvalues --   -1.13092  -1.13078  -1.12756  -1.12748  -1.12728
 Alpha  occ. eigenvalues --   -0.18649  -0.13252  -0.12256  -0.10894
 Alpha virt. eigenvalues --   -0.05542  -0.05306  -0.04730  -0.03339  -0.02839
 Alpha virt. eigenvalues --   -0.02706  -0.01370  -0.01147  -0.00462  -0.00333
 Alpha virt. eigenvalues --   -0.00026   0.00351   0.00821   0.00851   0.00897

  Beta  occ. eigenvalues --  -38.43987 -38.43915 -38.43799 -38.43729 -38.43652
  Beta  occ. eigenvalues --  -38.43465 -38.43236  -2.19904  -2.19782  -2.19635
  Beta  occ. eigenvalues --   -2.19505  -2.19441  -2.19425  -2.19084  -1.13733
  Beta  occ. eigenvalues --   -1.13553  -1.13510  -1.13481  -1.13416  -1.13395
  Beta  occ. eigenvalues --   -1.13311  -1.13296  -1.13291  -1.13228  -1.13185
  Beta  occ. eigenvalues --   -1.13177  -1.13117  -1.13101  -1.13097  -1.13084
  Beta  occ. eigenvalues --   -1.13063  -1.13055  -1.12757  -1.12731  -1.12723
  Beta  occ. eigenvalues --   -0.17912  -0.13018  -0.12057
  Beta virt. eigenvalues --   -0.06921  -0.05536  -0.05233  -0.04698  -0.02524
  Beta virt. eigenvalues --   -0.02074  -0.01660  -0.01287  -0.01081  -0.00505
  Beta virt. eigenvalues --   -0.00380   0.00128   0.00389   0.00846   0.00891

 Mulliken charges and spin densities:
               1          2
     1  Na  -0.540435   0.771713
     2  Na   0.116589  -0.038151
     3  Na   0.142492  -0.015981
     4  Na  -0.231541   0.331832
     5  Na   0.605541   0.065103
     6  Na  -0.069463  -0.077378
     7  Na  -0.023182  -0.037137
 Sum of Mulliken charges =  -0.00000   1.00000

 Dipole moment (field-independent basis, Debye):
    X=             -0.2404    Y=              0.1122    Z=              0.2028  Tot=              0.3339
 Quadrupole moment (field-independent basis, Debye-Ang):
   XX=            -58.9740   YY=            -61.9113   ZZ=            -73.9232
   XY=             -0.5109   XZ=             -0.7568   YZ=              0.1197

 Normal termination of Gaussian 16 at Thu Dec  7 03:16:59 2023.
