 Gaussian 16, Revision B.01,
 Gaussian 16:  ES64L-G16RevB.01 20-Dec-2017

 -------------------------
 #P B3LYP/6-311+g(d) force
 -------------------------

 -----
 DPGEN
 -----
 Symbolic Z-matrix:
 Charge =  0 Multiplicity = 2

                         Standard orientation:
 ---------------------------------------------------------------------
 Center     Atomic      Atomic             Coordinates (Angstroms)
 Number     Number       Type             X           Y           Z
 ---------------------------------------------------------------------
      1         11           0        1.102668    2.853511   -0.289197
      2         11           0       -2.207768    2.091696    0.402671
      3         11           0       -2.650257   -1.608739   -0.703612
      4         11           0       -0.256433   -0.108858    1.755511
      5         11           0        0.536854   -2.806233    0.348790
      6         11           0        0.260626   -0.013878   -1.514397
      7         11           0        3.214311   -0.407499    0.000234
 ---------------------------------------------------------------------

 SCF Done:  E(UB3LYP) =  -1136.13733865     A.U. after   19 cycles

 The electronic state is 2-A.
 Alpha  occ. eigenvalues --  -38.43869 -38.43751 -38.43667 -38.43624 -38.43569
 Alpha  occ. eigenvalues --  -38.43211 -38.42951  -2.19684  -2.19590  -2.19514
 Alpha  occ. eigenvalues --   -2.19461  -2.19457  -2.19183  -2.18963  -1.13370
 Alpha  occ. eigenvalues --   -1.13344  -1.13322  -1.13295  -1.13252  -1.13225
 Alpha  occ. eigenvalues --   -1.13214  -1.13191  -1.13163  -1.13141  -1.13135
 Alpha  occ. eigenvalues --   -1.13127  -1.13105  -1.13095  -1.13053  -1.12877
 Alpha  occ. eigenvalues --   -1.12805  -1.12783  -1.12654  -1.12597  -1.12574
 Alpha  occ. eigenvalues --   -0.18754  -0.12916  -0.12670  -0.10520
 Alpha virt. eigenvalues --   -0.05425  -0.05109  -0.05018  -0.02995  -0.02917
 Alpha virt. eigenvalues --   -0.02148  -0.01506  -0.01326  -0.00430  -0.00312
 Alpha virt. eigenvalues --    0.00051   0.00339   0.00850   0.00860   0.00879

  Beta  occ. eigenvalues --  -38.43869 -38.43745 -38.43656 -38.43600 -38.43556
  Beta  occ. eigenvalues --  -38.43132 -38.42892  -2.19687  -2.19583  -2.19497
  Beta  occ. eigenvalues --   -2.19441  -2.19415  -2.19040  -2.18857  -1.13367
  Beta  occ. eigenvalues --   -1.13345  -1.13316  -1.13285  -1.13237  -1.13217
  Beta  occ. eigenvalues --   -1.13190  -1.13171  -1.13139  -1.13127  -1.13100
  Beta  occ. eigenvalues --   -1.13093  -1.13082  -1.13062  -1.13035  -1.12782
  Beta  occ. eigenvalues --   -1.12700  -1.12686  -1.12575  -1.12524  -1.12491
  Beta  occ. eigenvalues --   -0.18078  -0.12639  -0.12385
  Beta virt. eigenvalues --   -0.06688  -0.05401  -0.05020  -0.04960  -0.02252
  Beta virt. eigenvalues --   -0.02224  -0.01425  -0.01253  -0.01122  -0.00436
  Beta virt. eigenvalues --   -0.00324   0.00159   0.00381   0.00848   0.00886

 Mulliken charges and spin densities:
               1          2
     1  Na  -0.060904  -0.084000
     2  Na   0.103088   0.004383
     3  Na  -0.062524   0.085782
     4  Na  -0.037595   0.545248
     5  Na   0.290389   0.041020
     6  Na  -0.121877   0.500536
     7  Na  -0.110577  -0.092969
 Sum of Mulliken charges =  -0.00000   1.00000

 Dipole moment (field-independent basis, Debye):
    X=              0.1303    Y=              0.0828    Z=              0.0679  Tot=              0.1687
 Quadrupole moment (field-independent basis, Debye-Ang):
   XX=            -56.8995   YY=            -59.2727   ZZ=            -75.6023
   XY=             -0.0995   XZ=              1.2462   YZ=              0.1111

 Normal termination of Gaussian 16 at Wed Nov 29 03:56:32 2023.
