 Gaussian 16, Revision B.01,
 Gaussian 16:  ES64L-G16RevB.01 20-Dec-2017

 -------------------------
 #P B3LYP/6-311+g(d) force
 -------------------------

 -----
 DPGEN
 -----
 Symbolic Z-matrix:
 Charge =  0 Multiplicity = 2

                         Standard orientation:
 ---------------------------------------------------------------------
 Center     Atomic      Atomic             Coordinates (Angstroms)
 Number     Number       Type             X           Y           Z
 ---------------------------------------------------------------------
      1         11           0       -3.545209   -1.156467    1.756584
      2         11           0        2.983183    2.728861    0.408979
      3         11           0        4.058109   -0.817909    0.819681
      4         11           0        1.606942   -3.054023   -0.551723
      5         11           0       -0.376711    3.176393   -1.014872
      6         11           0       -3.430964    1.851016   -0.162796
      7         11           0       -1.295350   -2.727871   -1.255853
 ---------------------------------------------------------------------

 SCF Done:  E(UB3LYP) =  -1136.10633709     A.U. after   20 cycles

 The electronic state is 2-A.
 Alpha  occ. eigenvalues --  -38.45092 -38.44959 -38.44739 -38.44707 -38.44642
 Alpha  occ. eigenvalues --  -38.43984 -38.43919  -2.20818  -2.20720  -2.20550
 Alpha  occ. eigenvalues --   -2.20488  -2.20412  -2.19805  -2.19706  -1.14510
 Alpha  occ. eigenvalues --   -1.14494  -1.14459  -1.14406  -1.14396  -1.14363
 Alpha  occ. eigenvalues --   -1.14258  -1.14200  -1.14170  -1.14139  -1.14122
 Alpha  occ. eigenvalues --   -1.14107  -1.14077  -1.14062  -1.14037  -1.13482
 Alpha  occ. eigenvalues --   -1.13459  -1.13440  -1.13367  -1.13360  -1.13331
 Alpha  occ. eigenvalues --   -0.15571  -0.13674  -0.13255  -0.10854
 Alpha virt. eigenvalues --   -0.07614  -0.05275  -0.04297  -0.03533  -0.03436
 Alpha virt. eigenvalues --   -0.02340  -0.01982  -0.01719  -0.01297  -0.01094
 Alpha virt. eigenvalues --   -0.00782  -0.00202  -0.00073   0.00339   0.00589

  Beta  occ. eigenvalues --  -38.45110 -38.44957 -38.44698 -38.44627 -38.44593
  Beta  occ. eigenvalues --  -38.43968 -38.43866  -2.20853  -2.20724  -2.20480
  Beta  occ. eigenvalues --   -2.20340  -2.20321  -2.19781  -2.19608  -1.14537
  Beta  occ. eigenvalues --   -1.14520  -1.14462  -1.14414  -1.14401  -1.14327
  Beta  occ. eigenvalues --   -1.14200  -1.14155  -1.14113  -1.14039  -1.14019
  Beta  occ. eigenvalues --   -1.14015  -1.14009  -1.14003  -1.13975  -1.13456
  Beta  occ. eigenvalues --   -1.13447  -1.13408  -1.13299  -1.13294  -1.13270
  Beta  occ. eigenvalues --   -0.15035  -0.12967  -0.12665
  Beta virt. eigenvalues --   -0.07783  -0.07599  -0.04774  -0.03890  -0.03267
  Beta virt. eigenvalues --   -0.03191  -0.02022  -0.01793  -0.01562  -0.01039
  Beta virt. eigenvalues --   -0.00967  -0.00591   0.00106   0.00184   0.00331

 Mulliken charges and spin densities:
               1          2
     1  Na   0.083385   0.386826
     2  Na   0.131070  -0.063015
     3  Na   0.044009   0.271239
     4  Na   0.079500   0.013236
     5  Na  -0.234810   0.234019
     6  Na   0.038353   0.021587
     7  Na  -0.141508   0.136109
 Sum of Mulliken charges =  -0.00000   1.00000

 Dipole moment (field-independent basis, Debye):
    X=             -0.1907    Y=             -0.1026    Z=              0.2887  Tot=              0.3609
 Quadrupole moment (field-independent basis, Debye-Ang):
   XX=            -62.9525   YY=            -67.9812   ZZ=            -70.1181
   XY=              0.5983   XZ=              2.6945   YZ=             -1.5947

 Normal termination of Gaussian 16 at Mon Dec  4 00:11:45 2023.
