 Gaussian 16, Revision B.01,
 Gaussian 16:  ES64L-G16RevB.01 20-Dec-2017

 -------------------------
 #P B3LYP/6-311+g(d) force
 -------------------------

 -----
 DPGEN
 -----
 Symbolic Z-matrix:
 Charge =  0 Multiplicity = 2

                         Standard orientation:
 ---------------------------------------------------------------------
 Center     Atomic      Atomic             Coordinates (Angstroms)
 Number     Number       Type             X           Y           Z
 ---------------------------------------------------------------------
      1         11           0        2.472364    1.674573   -1.245341
      2         11           0       -1.488694   -2.298156   -0.221085
      3         11           0       -0.406891   -0.113333   -1.468320
      4         11           0        2.935564   -1.660225    0.183664
      5         11           0       -3.452149    0.305136   -0.327231
      6         11           0       -0.606164    2.449908    1.039039
      7         11           0        0.545969   -0.357902    2.039274
 ---------------------------------------------------------------------

 SCF Done:  E(UB3LYP) =  -1136.12285882     A.U. after   21 cycles

 The electronic state is 2-A.
 Alpha  occ. eigenvalues --  -38.44729 -38.44179 -38.44097 -38.43827 -38.43815
 Alpha  occ. eigenvalues --  -38.43590 -38.42752  -2.20563  -2.19976  -2.19915
 Alpha  occ. eigenvalues --   -2.19854  -2.19735  -2.19511  -2.18604  -1.14248
 Alpha  occ. eigenvalues --   -1.14227  -1.14190  -1.13774  -1.13676  -1.13629
 Alpha  occ. eigenvalues --   -1.13618  -1.13600  -1.13544  -1.13534  -1.13494
 Alpha  occ. eigenvalues --   -1.13443  -1.13402  -1.13364  -1.13352  -1.13146
 Alpha  occ. eigenvalues --   -1.13134  -1.13075  -1.12310  -1.12247  -1.12223
 Alpha  occ. eigenvalues --   -0.18541  -0.13478  -0.11655  -0.11399
 Alpha virt. eigenvalues --   -0.06241  -0.05017  -0.03797  -0.03601  -0.03029
 Alpha virt. eigenvalues --   -0.02772  -0.02062  -0.01018  -0.00305  -0.00045
 Alpha virt. eigenvalues --    0.00156   0.00271   0.00619   0.00744   0.00816

  Beta  occ. eigenvalues --  -38.44729 -38.44177 -38.44047 -38.43785 -38.43725
  Beta  occ. eigenvalues --  -38.43587 -38.42728  -2.20563  -2.19975  -2.19823
  Beta  occ. eigenvalues --   -2.19780  -2.19570  -2.19508  -2.18563  -1.14242
  Beta  occ. eigenvalues --   -1.14230  -1.14186  -1.13727  -1.13664  -1.13620
  Beta  occ. eigenvalues --   -1.13613  -1.13529  -1.13486  -1.13472  -1.13439
  Beta  occ. eigenvalues --   -1.13391  -1.13292  -1.13256  -1.13226  -1.13133
  Beta  occ. eigenvalues --   -1.13119  -1.13064  -1.12271  -1.12214  -1.12194
  Beta  occ. eigenvalues --   -0.17871  -0.13148  -0.11389
  Beta virt. eigenvalues --   -0.07513  -0.06168  -0.04810  -0.03716  -0.02996
  Beta virt. eigenvalues --   -0.02348  -0.01990  -0.01818  -0.00865  -0.00107
  Beta virt. eigenvalues --   -0.00054   0.00176   0.00315   0.00766   0.00829

 Mulliken charges and spin densities:
               1          2
     1  Na  -0.008567   0.228867
     2  Na   0.279990   0.065684
     3  Na  -0.300212   0.083645
     4  Na  -0.006625   0.062161
     5  Na   0.127157   0.005329
     6  Na  -0.009809   0.210358
     7  Na  -0.081935   0.343956
 Sum of Mulliken charges =  -0.00000   1.00000

 Dipole moment (field-independent basis, Debye):
    X=             -0.2362    Y=             -0.1001    Z=             -0.0241  Tot=              0.2577
 Quadrupole moment (field-independent basis, Debye-Ang):
   XX=            -51.8255   YY=            -70.0707   ZZ=            -71.6262
   XY=             -1.2303   XZ=             -1.6321   YZ=             -1.3660

 Normal termination of Gaussian 16 at Tue Dec  5 18:03:23 2023.
