 Gaussian 16, Revision B.01,
 Gaussian 16:  ES64L-G16RevB.01 20-Dec-2017

 -------------------------
 #P B3LYP/6-311+g(d) force
 -------------------------

 -----
 DPGEN
 -----
 Symbolic Z-matrix:
 Charge =  0 Multiplicity = 2

                         Standard orientation:
 ---------------------------------------------------------------------
 Center     Atomic      Atomic             Coordinates (Angstroms)
 Number     Number       Type             X           Y           Z
 ---------------------------------------------------------------------
      1         11           0       -1.598266    1.382191   -1.728884
      2         11           0        2.748656   -1.008537   -1.792865
      3         11           0       -3.689308   -1.349031   -0.110624
      4         11           0       -0.379564   -1.082344   -0.238333
      5         11           0        1.852239    2.393825    0.122782
      6         11           0        2.131611   -1.626094    1.698997
      7         11           0       -1.065368    1.289990    2.048926
 ---------------------------------------------------------------------

 SCF Done:  E(UB3LYP) =  -1136.12289566     A.U. after   22 cycles

 The electronic state is 2-A.
 Alpha  occ. eigenvalues --  -38.44664 -38.44227 -38.44224 -38.44067 -38.44021
 Alpha  occ. eigenvalues --  -38.43410 -38.42741  -2.20493  -2.20042  -2.20026
 Alpha  occ. eigenvalues --   -2.19852  -2.19844  -2.19182  -2.18739  -1.14221
 Alpha  occ. eigenvalues --   -1.14131  -1.14072  -1.13740  -1.13701  -1.13685
 Alpha  occ. eigenvalues --   -1.13672  -1.13667  -1.13626  -1.13538  -1.13529
 Alpha  occ. eigenvalues --   -1.13516  -1.13485  -1.13479  -1.13453  -1.12858
 Alpha  occ. eigenvalues --   -1.12842  -1.12821  -1.12486  -1.12410  -1.12338
 Alpha  occ. eigenvalues --   -0.17880  -0.13161  -0.11333  -0.11037
 Alpha virt. eigenvalues --   -0.06035  -0.05358  -0.04778  -0.03044  -0.02746
 Alpha virt. eigenvalues --   -0.02707  -0.01969  -0.01022  -0.00949  -0.00167
 Alpha virt. eigenvalues --    0.00231   0.00266   0.00340   0.00418   0.00731

  Beta  occ. eigenvalues --  -38.44620 -38.44195 -38.44188 -38.44073 -38.43970
  Beta  occ. eigenvalues --  -38.43407 -38.42719  -2.20412  -2.19976  -2.19966
  Beta  occ. eigenvalues --   -2.19864  -2.19752  -2.19179  -2.18707  -1.14165
  Beta  occ. eigenvalues --   -1.14072  -1.14015  -1.13692  -1.13656  -1.13644
  Beta  occ. eigenvalues --   -1.13628  -1.13618  -1.13581  -1.13537  -1.13518
  Beta  occ. eigenvalues --   -1.13492  -1.13471  -1.13409  -1.13390  -1.12844
  Beta  occ. eigenvalues --   -1.12838  -1.12820  -1.12409  -1.12384  -1.12326
  Beta  occ. eigenvalues --   -0.17102  -0.12981  -0.10907
  Beta virt. eigenvalues --   -0.07602  -0.05790  -0.04685  -0.04617  -0.02825
  Beta virt. eigenvalues --   -0.02227  -0.02039  -0.01877  -0.00941  -0.00445
  Beta virt. eigenvalues --   -0.00060   0.00292   0.00351   0.00407   0.00591

 Mulliken charges and spin densities:
               1          2
     1  Na  -0.080801   0.171773
     2  Na   0.078200   0.047311
     3  Na   0.336537  -0.084065
     4  Na  -0.380583   0.592286
     5  Na  -0.018547   0.050338
     6  Na   0.184539  -0.025916
     7  Na  -0.119345   0.248273
 Sum of Mulliken charges =  -0.00000   1.00000

 Dipole moment (field-independent basis, Debye):
    X=             -0.1941    Y=              0.2189    Z=             -0.0134  Tot=              0.2929
 Quadrupole moment (field-independent basis, Debye-Ang):
   XX=            -54.2579   YY=            -75.4638   ZZ=            -62.7013
   XY=             -0.0038   XZ=             -1.3581   YZ=             -3.2311

 Normal termination of Gaussian 16 at Tue Dec  5 13:40:57 2023.
