 Gaussian 16, Revision B.01,
 Gaussian 16:  ES64L-G16RevB.01 20-Dec-2017

 -------------------------
 #P B3LYP/6-311+g(d) force
 -------------------------

 -----
 DPGEN
 -----
 Symbolic Z-matrix:
 Charge =  0 Multiplicity = 2

                         Standard orientation:
 ---------------------------------------------------------------------
 Center     Atomic      Atomic             Coordinates (Angstroms)
 Number     Number       Type             X           Y           Z
 ---------------------------------------------------------------------
      1         11           0        3.513820   -0.871148   -0.172042
      2         11           0        1.646553    2.628858    0.306162
      3         11           0       -2.782781   -1.104205    0.007781
      4         11           0        0.141313   -0.196790   -1.615795
      5         11           0       -0.360342    0.281656    1.748590
      6         11           0       -0.119179   -2.977171    0.218871
      7         11           0       -2.039384    2.238800   -0.493567
 ---------------------------------------------------------------------

 SCF Done:  E(UB3LYP) =  -1136.13479630     A.U. after   20 cycles

 The electronic state is 2-A.
 Alpha  occ. eigenvalues --  -38.44545 -38.43987 -38.43681 -38.43592 -38.43503
 Alpha  occ. eigenvalues --  -38.43160 -38.43143  -2.20287  -2.19791  -2.19585
 Alpha  occ. eigenvalues --   -2.19444  -2.19364  -2.19108  -2.19098  -1.13968
 Alpha  occ. eigenvalues --   -1.13938  -1.13927  -1.13479  -1.13455  -1.13413
 Alpha  occ. eigenvalues --   -1.13285  -1.13255  -1.13239  -1.13124  -1.13108
 Alpha  occ. eigenvalues --   -1.13062  -1.13039  -1.13031  -1.12994  -1.12831
 Alpha  occ. eigenvalues --   -1.12760  -1.12742  -1.12730  -1.12713  -1.12703
 Alpha  occ. eigenvalues --   -0.18577  -0.12866  -0.12516  -0.10349
 Alpha virt. eigenvalues --   -0.06006  -0.05252  -0.04829  -0.02953  -0.02795
 Alpha virt. eigenvalues --   -0.02126  -0.01728  -0.01333  -0.00611  -0.00481
 Alpha virt. eigenvalues --    0.00004   0.00319   0.00749   0.00808   0.00867

  Beta  occ. eigenvalues --  -38.44546 -38.43978 -38.43672 -38.43586 -38.43487
  Beta  occ. eigenvalues --  -38.43096 -38.43066  -2.20291  -2.19776  -2.19573
  Beta  occ. eigenvalues --   -2.19436  -2.19337  -2.18993  -2.18957  -1.13962
  Beta  occ. eigenvalues --   -1.13942  -1.13931  -1.13458  -1.13436  -1.13407
  Beta  occ. eigenvalues --   -1.13278  -1.13248  -1.13197  -1.13117  -1.13086
  Beta  occ. eigenvalues --   -1.13052  -1.13022  -1.12997  -1.12966  -1.12748
  Beta  occ. eigenvalues --   -1.12670  -1.12662  -1.12634  -1.12621  -1.12598
  Beta  occ. eigenvalues --   -0.17864  -0.12617  -0.12271
  Beta virt. eigenvalues --   -0.06521  -0.05928  -0.05191  -0.04796  -0.02225
  Beta virt. eigenvalues --   -0.02107  -0.01683  -0.01238  -0.01096  -0.00613
  Beta virt. eigenvalues --   -0.00540   0.00146   0.00362   0.00768   0.00843

 Mulliken charges and spin densities:
               1          2
     1  Na  -0.133831  -0.116296
     2  Na  -0.069241  -0.075087
     3  Na   0.421855   0.079124
     4  Na  -0.186249   0.595800
     5  Na  -0.065333   0.560488
     6  Na  -0.097755  -0.108681
     7  Na   0.130555   0.064652
 Sum of Mulliken charges =  -0.00000   1.00000

 Dipole moment (field-independent basis, Debye):
    X=              0.3396    Y=              0.0154    Z=              0.0506  Tot=              0.3437
 Quadrupole moment (field-independent basis, Debye-Ang):
   XX=            -55.1539   YY=            -60.0957   ZZ=            -76.4158
   XY=             -0.1811   XZ=              1.0638   YZ=             -1.1625

 Normal termination of Gaussian 16 at Tue Dec  5 10:20:49 2023.
