 Gaussian 16, Revision B.01,
 Gaussian 16:  ES64L-G16RevB.01 20-Dec-2017

 -------------------------
 #P B3LYP/6-311+g(d) force
 -------------------------

 -----
 DPGEN
 -----
 Symbolic Z-matrix:
 Charge =  0 Multiplicity = 2

                         Standard orientation:
 ---------------------------------------------------------------------
 Center     Atomic      Atomic             Coordinates (Angstroms)
 Number     Number       Type             X           Y           Z
 ---------------------------------------------------------------------
      1         11           0       -0.853876    2.021751   -0.933660
      2         11           0        1.604033   -2.596844    0.461038
      3         11           0        2.363522   -0.155484   -1.005949
      4         11           0       -3.797645   -0.154153    0.274642
      5         11           0        1.890458    2.376659    0.707893
      6         11           0       -0.870703   -1.270993   -1.331332
      7         11           0       -0.335788   -0.220936    1.827368
 ---------------------------------------------------------------------

 SCF Done:  E(UB3LYP) =  -1136.13150583     A.U. after   20 cycles

 The electronic state is 2-A.
 Alpha  occ. eigenvalues --  -38.44630 -38.43781 -38.43619 -38.43588 -38.43310
 Alpha  occ. eigenvalues --  -38.43205 -38.43128  -2.20407  -2.19742  -2.19541
 Alpha  occ. eigenvalues --   -2.19475  -2.19261  -2.19119  -2.19016  -1.14081
 Alpha  occ. eigenvalues --   -1.14071  -1.14034  -1.13453  -1.13413  -1.13399
 Alpha  occ. eigenvalues --   -1.13243  -1.13194  -1.13179  -1.13151  -1.13146
 Alpha  occ. eigenvalues --   -1.13079  -1.12963  -1.12927  -1.12858  -1.12784
 Alpha  occ. eigenvalues --   -1.12759  -1.12734  -1.12689  -1.12660  -1.12648
 Alpha  occ. eigenvalues --   -0.18921  -0.13198  -0.12356  -0.10972
 Alpha virt. eigenvalues --   -0.06181  -0.04655  -0.04255  -0.03411  -0.02987
 Alpha virt. eigenvalues --   -0.02546  -0.01988  -0.00911  -0.00388   0.00041
 Alpha virt. eigenvalues --    0.00267   0.00321   0.00714   0.00829   0.00845

  Beta  occ. eigenvalues --  -38.44631 -38.43758 -38.43565 -38.43536 -38.43267
  Beta  occ. eigenvalues --  -38.43198 -38.43119  -2.20411  -2.19702  -2.19436
  Beta  occ. eigenvalues --   -2.19389  -2.19185  -2.19109  -2.19003  -1.14083
  Beta  occ. eigenvalues --   -1.14066  -1.14039  -1.13432  -1.13377  -1.13355
  Beta  occ. eigenvalues --   -1.13174  -1.13129  -1.13107  -1.13066  -1.13054
  Beta  occ. eigenvalues --   -1.13038  -1.12916  -1.12854  -1.12806  -1.12779
  Beta  occ. eigenvalues --   -1.12738  -1.12709  -1.12682  -1.12651  -1.12621
  Beta  occ. eigenvalues --   -0.18137  -0.13027  -0.12153
  Beta virt. eigenvalues --   -0.06983  -0.06081  -0.04609  -0.04155  -0.02786
  Beta virt. eigenvalues --   -0.02291  -0.01941  -0.01465  -0.00867  -0.00152
  Beta virt. eigenvalues --    0.00044   0.00297   0.00366   0.00827   0.00857

 Mulliken charges and spin densities:
               1          2
     1  Na  -0.329950   0.042885
     2  Na   0.313292  -0.136878
     3  Na   0.023982   0.269224
     4  Na   0.245999  -0.095208
     5  Na   0.454454  -0.112203
     6  Na  -0.174310   0.309578
     7  Na  -0.533466   0.722603
 Sum of Mulliken charges =  -0.00000   1.00000

 Dipole moment (field-independent basis, Debye):
    X=             -0.8342    Y=             -0.0200    Z=              0.1383  Tot=              0.8459
 Quadrupole moment (field-independent basis, Debye-Ang):
   XX=            -53.8232   YY=            -67.6854   ZZ=            -71.4541
   XY=             -0.4054   XZ=             -0.2673   YZ=             -0.3833

 Normal termination of Gaussian 16 at Tue Dec  5 10:57:53 2023.
