 Gaussian 16, Revision B.01,
 Gaussian 16:  ES64L-G16RevB.01 20-Dec-2017

 -------------------------
 #P B3LYP/6-311+g(d) force
 -------------------------

 -----
 DPGEN
 -----
 Symbolic Z-matrix:
 Charge =  0 Multiplicity = 2

                         Standard orientation:
 ---------------------------------------------------------------------
 Center     Atomic      Atomic             Coordinates (Angstroms)
 Number     Number       Type             X           Y           Z
 ---------------------------------------------------------------------
      1         11           0        3.180881    0.632078   -0.856893
      2         11           0        0.043212    0.284282   -1.308633
      3         11           0        1.840128   -2.439809    0.153717
      4         11           0       -3.065279    1.254256   -0.628658
      5         11           0       -2.374094   -1.944990   -0.160954
      6         11           0       -0.212732   -0.489730    1.819450
      7         11           0        0.587884    2.703912    0.981971
 ---------------------------------------------------------------------

 SCF Done:  E(UB3LYP) =  -1136.13223047     A.U. after   19 cycles

 The electronic state is 2-A.
 Alpha  occ. eigenvalues --  -38.44165 -38.44102 -38.43855 -38.43441 -38.43315
 Alpha  occ. eigenvalues --  -38.43232 -38.43167  -2.19997  -2.19945  -2.19715
 Alpha  occ. eigenvalues --   -2.19284  -2.19278  -2.19249  -2.19010  -1.13680
 Alpha  occ. eigenvalues --   -1.13655  -1.13643  -1.13627  -1.13584  -1.13564
 Alpha  occ. eigenvalues --   -1.13408  -1.13389  -1.13329  -1.13050  -1.12990
 Alpha  occ. eigenvalues --   -1.12948  -1.12916  -1.12908  -1.12907  -1.12881
 Alpha  occ. eigenvalues --   -1.12871  -1.12863  -1.12684  -1.12653  -1.12634
 Alpha  occ. eigenvalues --   -0.18604  -0.13473  -0.11963  -0.10855
 Alpha virt. eigenvalues --   -0.05675  -0.05411  -0.04276  -0.03253  -0.02892
 Alpha virt. eigenvalues --   -0.02255  -0.01869  -0.01196  -0.00429  -0.00168
 Alpha virt. eigenvalues --    0.00091   0.00300   0.00726   0.00779   0.00885

  Beta  occ. eigenvalues --  -38.44146 -38.44072 -38.43850 -38.43439 -38.43230
  Beta  occ. eigenvalues --  -38.43201 -38.43135  -2.19965  -2.19890  -2.19710
  Beta  occ. eigenvalues --   -2.19278  -2.19195  -2.19129  -2.18953  -1.13651
  Beta  occ. eigenvalues --   -1.13637  -1.13598  -1.13597  -1.13549  -1.13524
  Beta  occ. eigenvalues --   -1.13400  -1.13381  -1.13314  -1.12995  -1.12955
  Beta  occ. eigenvalues --   -1.12938  -1.12898  -1.12852  -1.12833  -1.12824
  Beta  occ. eigenvalues --   -1.12805  -1.12759  -1.12635  -1.12608  -1.12594
  Beta  occ. eigenvalues --   -0.17961  -0.13067  -0.11708
  Beta virt. eigenvalues --   -0.07113  -0.05459  -0.05375  -0.04121  -0.02679
  Beta virt. eigenvalues --   -0.02238  -0.01682  -0.01371  -0.01139  -0.00298
  Beta virt. eigenvalues --   -0.00110   0.00149   0.00370   0.00793   0.00816

 Mulliken charges and spin densities:
               1          2
     1  Na   0.291990   0.103529
     2  Na  -0.401874   0.124051
     3  Na  -0.237166   0.069094
     4  Na   0.229037   0.080573
     5  Na  -0.064433   0.041909
     6  Na   0.365462   0.372501
     7  Na  -0.183017   0.208342
 Sum of Mulliken charges =  -0.00000   1.00000

 Dipole moment (field-independent basis, Debye):
    X=             -0.2043    Y=             -0.0278    Z=              0.0167  Tot=              0.2068
 Quadrupole moment (field-independent basis, Debye-Ang):
   XX=            -54.5736   YY=            -64.6370   ZZ=            -73.1833
   XY=             -0.0888   XZ=              0.0251   YZ=              1.0683

 Normal termination of Gaussian 16 at Mon Dec  4 04:17:17 2023.
