 Gaussian 16, Revision B.01,
 Gaussian 16:  ES64L-G16RevB.01 20-Dec-2017

 -------------------------
 #P B3LYP/6-311+g(d) force
 -------------------------

 -----
 DPGEN
 -----
 Symbolic Z-matrix:
 Charge =  0 Multiplicity = 2

                         Standard orientation:
 ---------------------------------------------------------------------
 Center     Atomic      Atomic             Coordinates (Angstroms)
 Number     Number       Type             X           Y           Z
 ---------------------------------------------------------------------
      1         11           0        0.124938   -2.773505    0.476575
      2         11           0        3.097096   -1.027569   -0.658794
      3         11           0       -1.535344    2.416382   -0.192725
      4         11           0        0.012709   -0.171666   -1.592505
      5         11           0       -3.213562   -0.903137   -0.484259
      6         11           0       -0.142050   -0.147599    2.175211
      7         11           0        1.656213    2.607094    0.276496
 ---------------------------------------------------------------------

 SCF Done:  E(UB3LYP) =  -1136.13577031     A.U. after   19 cycles

 The electronic state is 2-A.
 Alpha  occ. eigenvalues --  -38.44071 -38.43841 -38.43822 -38.43594 -38.43555
 Alpha  occ. eigenvalues --  -38.43462 -38.43330  -2.19953  -2.19637  -2.19631
 Alpha  occ. eigenvalues --   -2.19468  -2.19381  -2.19328  -2.19296  -1.13639
 Alpha  occ. eigenvalues --   -1.13580  -1.13565  -1.13320  -1.13315  -1.13288
 Alpha  occ. eigenvalues --   -1.13278  -1.13276  -1.13268  -1.13167  -1.13145
 Alpha  occ. eigenvalues --   -1.13098  -1.13064  -1.13049  -1.13035  -1.13021
 Alpha  occ. eigenvalues --   -1.12991  -1.12970  -1.12925  -1.12923  -1.12901
 Alpha  occ. eigenvalues --   -0.18406  -0.12750  -0.12454  -0.11108
 Alpha virt. eigenvalues --   -0.05435  -0.05028  -0.04828  -0.03252  -0.03011
 Alpha virt. eigenvalues --   -0.02768  -0.01584  -0.01132  -0.00404  -0.00170
 Alpha virt. eigenvalues --   -0.00025   0.00322   0.00786   0.00864   0.00884

  Beta  occ. eigenvalues --  -38.43968 -38.43833 -38.43806 -38.43578 -38.43553
  Beta  occ. eigenvalues --  -38.43458 -38.43277  -2.19765  -2.19624  -2.19603
  Beta  occ. eigenvalues --   -2.19444  -2.19378  -2.19324  -2.19200  -1.13513
  Beta  occ. eigenvalues --   -1.13446  -1.13434  -1.13298  -1.13288  -1.13280
  Beta  occ. eigenvalues --   -1.13267  -1.13257  -1.13252  -1.13147  -1.13099
  Beta  occ. eigenvalues --   -1.13094  -1.13052  -1.13037  -1.13019  -1.13012
  Beta  occ. eigenvalues --   -1.12978  -1.12919  -1.12909  -1.12866  -1.12828
  Beta  occ. eigenvalues --   -0.17700  -0.12486  -0.12186
  Beta virt. eigenvalues --   -0.07215  -0.05339  -0.05002  -0.04734  -0.02453
  Beta virt. eigenvalues --   -0.02370  -0.01766  -0.01450  -0.01066  -0.00373
  Beta virt. eigenvalues --   -0.00198   0.00094   0.00362   0.00857   0.00874

 Mulliken charges and spin densities:
               1          2
     1  Na   0.261796   0.076649
     2  Na   0.044000   0.019893
     3  Na   0.064169  -0.023306
     4  Na  -0.165713   0.406657
     5  Na   0.059120  -0.036975
     6  Na  -0.262385   0.531415
     7  Na  -0.000986   0.025668
 Sum of Mulliken charges =  -0.00000   1.00000

 Dipole moment (field-independent basis, Debye):
    X=             -0.0038    Y=             -0.0750    Z=              0.1779  Tot=              0.1931
 Quadrupole moment (field-independent basis, Debye-Ang):
   XX=            -57.8665   YY=            -63.4358   ZZ=            -72.7835
   XY=              0.7474   XZ=              0.2228   YZ=              0.3631

 Normal termination of Gaussian 16 at Thu Dec  7 20:22:43 2023.
