 Gaussian 16, Revision B.01,
 Gaussian 16:  ES64L-G16RevB.01 20-Dec-2017

 -------------------------
 #P B3LYP/6-311+g(d) force
 -------------------------

 -----
 DPGEN
 -----
 Symbolic Z-matrix:
 Charge =  0 Multiplicity = 2

                         Standard orientation:
 ---------------------------------------------------------------------
 Center     Atomic      Atomic             Coordinates (Angstroms)
 Number     Number       Type             X           Y           Z
 ---------------------------------------------------------------------
      1         11           0        4.061896   -0.893352   -0.102540
      2         11           0       -1.879313   -2.982142    0.861091
      3         11           0        2.891453    1.825834    0.401252
      4         11           0        1.611473   -3.805827   -0.565838
      5         11           0       -2.857783    2.347059    0.024676
      6         11           0       -4.502686   -0.621390   -0.439287
      7         11           0        0.674960    4.129817   -0.179354
 ---------------------------------------------------------------------

 SCF Done:  E(UB3LYP) =  -1136.10530342     A.U. after   24 cycles

 The electronic state is 2-A.
 Alpha  occ. eigenvalues --  -38.45757 -38.45523 -38.45026 -38.44385 -38.44232
 Alpha  occ. eigenvalues --  -38.44052 -38.43632  -2.21495  -2.21256  -2.20758
 Alpha  occ. eigenvalues --   -2.20226  -2.20022  -2.19888  -2.19441  -1.15186
 Alpha  occ. eigenvalues --   -1.15170  -1.15114  -1.14941  -1.14926  -1.14865
 Alpha  occ. eigenvalues --   -1.14442  -1.14420  -1.14389  -1.13971  -1.13889
 Alpha  occ. eigenvalues --   -1.13876  -1.13684  -1.13670  -1.13662  -1.13540
 Alpha  occ. eigenvalues --   -1.13526  -1.13492  -1.13096  -1.13089  -1.13069
 Alpha  occ. eigenvalues --   -0.15456  -0.14043  -0.13308  -0.10864
 Alpha virt. eigenvalues --   -0.07727  -0.05155  -0.04193  -0.03552  -0.03327
 Alpha virt. eigenvalues --   -0.02591  -0.02324  -0.01966  -0.01689  -0.00698
 Alpha virt. eigenvalues --   -0.00359  -0.00088   0.00111   0.00351   0.00418

  Beta  occ. eigenvalues --  -38.45738 -38.45493 -38.45012 -38.44365 -38.44198
  Beta  occ. eigenvalues --  -38.43993 -38.43579  -2.21465  -2.21202  -2.20736
  Beta  occ. eigenvalues --   -2.20199  -2.19960  -2.19782  -2.19342  -1.15170
  Beta  occ. eigenvalues --   -1.15155  -1.15060  -1.14907  -1.14892  -1.14813
  Beta  occ. eigenvalues --   -1.14428  -1.14408  -1.14359  -1.13907  -1.13877
  Beta  occ. eigenvalues --   -1.13850  -1.13643  -1.13626  -1.13618  -1.13465
  Beta  occ. eigenvalues --   -1.13455  -1.13421  -1.13034  -1.13021  -1.13001
  Beta  occ. eigenvalues --   -0.14893  -0.13345  -0.12566
  Beta virt. eigenvalues --   -0.07914  -0.07714  -0.04740  -0.03709  -0.03363
  Beta virt. eigenvalues --   -0.02929  -0.02400  -0.02051  -0.01817  -0.01517
  Beta virt. eigenvalues --   -0.00323  -0.00150   0.00035   0.00254   0.00358

 Mulliken charges and spin densities:
               1          2
     1  Na   0.202182   0.090888
     2  Na  -0.223114   0.130277
     3  Na  -0.436004   0.134102
     4  Na   0.062104   0.088405
     5  Na  -0.114803   0.154958
     6  Na   0.115150   0.111688
     7  Na   0.394485   0.289683
 Sum of Mulliken charges =  -0.00000   1.00000

 Dipole moment (field-independent basis, Debye):
    X=             -0.9232    Y=             -0.6508    Z=             -0.0511  Tot=              1.1307
 Quadrupole moment (field-independent basis, Debye-Ang):
   XX=            -63.1504   YY=            -64.5650   ZZ=            -72.1491
   XY=             -2.2265   XZ=             -0.9802   YZ=              0.7861

 Normal termination of Gaussian 16 at Sun Dec  3 16:00:05 2023.
