 Gaussian 16, Revision B.01,
 Gaussian 16:  ES64L-G16RevB.01 20-Dec-2017

 -------------------------
 #P B3LYP/6-311+g(d) force
 -------------------------

 -----
 DPGEN
 -----
 Symbolic Z-matrix:
 Charge =  0 Multiplicity = 2

                         Standard orientation:
 ---------------------------------------------------------------------
 Center     Atomic      Atomic             Coordinates (Angstroms)
 Number     Number       Type             X           Y           Z
 ---------------------------------------------------------------------
      1         11           0        2.128372    1.398141   -0.384545
      2         11           0        5.524423    0.279694    0.482803
      3         11           0        3.552279   -1.879276   -0.152053
      4         11           0        0.249453   -1.032975   -0.362015
      5         11           0       -1.258778    2.164074   -0.054523
      6         11           0       -3.432208   -0.345571    0.568591
      7         11           0       -6.763542   -0.584087   -0.098258
 ---------------------------------------------------------------------

 SCF Done:  E(UB3LYP) =  -1136.11706948     A.U. after   21 cycles

 The electronic state is 2-A.
 Alpha  occ. eigenvalues --  -38.44784 -38.44449 -38.44259 -38.44233 -38.44145
 Alpha  occ. eigenvalues --  -38.44003 -38.43700  -2.20666  -2.20290  -2.20133
 Alpha  occ. eigenvalues --   -2.20107  -2.19919  -2.19886  -2.19514  -1.14406
 Alpha  occ. eigenvalues --   -1.14354  -1.14247  -1.13958  -1.13951  -1.13926
 Alpha  occ. eigenvalues --   -1.13909  -1.13793  -1.13790  -1.13742  -1.13735
 Alpha  occ. eigenvalues --   -1.13657  -1.13613  -1.13579  -1.13559  -1.13558
 Alpha  occ. eigenvalues --   -1.13532  -1.13494  -1.13210  -1.13192  -1.13112
 Alpha  occ. eigenvalues --   -0.17631  -0.14514  -0.11740  -0.11131
 Alpha virt. eigenvalues --   -0.07139  -0.05543  -0.04395  -0.03734  -0.02899
 Alpha virt. eigenvalues --   -0.02561  -0.02343  -0.01451  -0.00897  -0.00706
 Alpha virt. eigenvalues --   -0.00385  -0.00056   0.00060   0.00315   0.00668

  Beta  occ. eigenvalues --  -38.44753 -38.44419 -38.44218 -38.44199 -38.44165
  Beta  occ. eigenvalues --  -38.43935 -38.43692  -2.20612  -2.20234  -2.20074
  Beta  occ. eigenvalues --   -2.20032  -2.19924  -2.19798  -2.19499  -1.14345
  Beta  occ. eigenvalues --   -1.14321  -1.14203  -1.13920  -1.13906  -1.13872
  Beta  occ. eigenvalues --   -1.13868  -1.13759  -1.13744  -1.13691  -1.13675
  Beta  occ. eigenvalues --   -1.13597  -1.13585  -1.13584  -1.13556  -1.13532
  Beta  occ. eigenvalues --   -1.13502  -1.13383  -1.13193  -1.13181  -1.13114
  Beta  occ. eigenvalues --   -0.16886  -0.14290  -0.11706
  Beta virt. eigenvalues --   -0.07213  -0.07005  -0.04884  -0.04179  -0.03564
  Beta virt. eigenvalues --   -0.02491  -0.02264  -0.01818  -0.01393  -0.00795
  Beta virt. eigenvalues --   -0.00441  -0.00037   0.00111   0.00227   0.00477

 Mulliken charges and spin densities:
               1          2
     1  Na  -0.037694   0.122661
     2  Na   0.160203   0.177244
     3  Na   1.128139  -0.024707
     4  Na  -1.203145   0.589954
     5  Na   0.229114   0.289100
     6  Na  -0.752245  -0.037580
     7  Na   0.475629  -0.116671
 Sum of Mulliken charges =  -0.00000   1.00000

 Dipole moment (field-independent basis, Debye):
    X=              1.1605    Y=              0.4749    Z=             -0.1031  Tot=              1.2581
 Quadrupole moment (field-independent basis, Debye-Ang):
   XX=            -58.1735   YY=            -67.5585   ZZ=            -72.4045
   XY=             -2.4978   XZ=              3.0509   YZ=             -0.1943

 Normal termination of Gaussian 16 at Tue Nov 28 20:26:30 2023.
