 Gaussian 16, Revision B.01,
 Gaussian 16:  ES64L-G16RevB.01 20-Dec-2017

 -------------------------
 #P B3LYP/6-311+g(d) force
 -------------------------

 -----
 DPGEN
 -----
 Symbolic Z-matrix:
 Charge =  0 Multiplicity = 2

                         Standard orientation:
 ---------------------------------------------------------------------
 Center     Atomic      Atomic             Coordinates (Angstroms)
 Number     Number       Type             X           Y           Z
 ---------------------------------------------------------------------
      1         11           0        0.351149    0.841780   -1.664547
      2         11           0       -3.175417   -0.744084    0.380563
      3         11           0        2.322332    1.484213    1.045213
      4         11           0       -1.397382    2.784276   -0.339699
      5         11           0       -0.291392   -0.593377    1.567055
      6         11           0        2.711248   -1.346407   -0.361113
      7         11           0       -0.520537   -2.426401   -0.627472
 ---------------------------------------------------------------------

 SCF Done:  E(UB3LYP) =  -1136.12875846     A.U. after   19 cycles

 The electronic state is 2-A.
 Alpha  occ. eigenvalues --  -38.44207 -38.43880 -38.43676 -38.43509 -38.43458
 Alpha  occ. eigenvalues --  -38.43307 -38.43175  -2.20057  -2.19767  -2.19566
 Alpha  occ. eigenvalues --   -2.19533  -2.19298  -2.19260  -2.19157  -1.13767
 Alpha  occ. eigenvalues --   -1.13720  -1.13672  -1.13462  -1.13438  -1.13388
 Alpha  occ. eigenvalues --   -1.13358  -1.13232  -1.13218  -1.13207  -1.13166
 Alpha  occ. eigenvalues --   -1.13130  -1.13116  -1.12934  -1.12920  -1.12913
 Alpha  occ. eigenvalues --   -1.12898  -1.12846  -1.12809  -1.12776  -1.12736
 Alpha  occ. eigenvalues --   -0.19026  -0.13356  -0.12417  -0.10974
 Alpha virt. eigenvalues --   -0.05692  -0.05045  -0.04387  -0.03409  -0.02956
 Alpha virt. eigenvalues --   -0.02366  -0.01675  -0.01030  -0.00289   0.00041
 Alpha virt. eigenvalues --    0.00085   0.00321   0.00799   0.00869   0.00935

  Beta  occ. eigenvalues --  -38.44199 -38.43840 -38.43667 -38.43456 -38.43451
  Beta  occ. eigenvalues --  -38.43288 -38.43113  -2.20044  -2.19695  -2.19555
  Beta  occ. eigenvalues --   -2.19437  -2.19289  -2.19228  -2.19046  -1.13749
  Beta  occ. eigenvalues --   -1.13708  -1.13664  -1.13421  -1.13377  -1.13333
  Beta  occ. eigenvalues --   -1.13299  -1.13214  -1.13212  -1.13170  -1.13106
  Beta  occ. eigenvalues --   -1.13084  -1.13059  -1.12918  -1.12913  -1.12885
  Beta  occ. eigenvalues --   -1.12866  -1.12804  -1.12739  -1.12699  -1.12662
  Beta  occ. eigenvalues --   -0.18328  -0.13083  -0.12142
  Beta virt. eigenvalues --   -0.07083  -0.05586  -0.04988  -0.04246  -0.02764
  Beta virt. eigenvalues --   -0.02272  -0.01600  -0.01387  -0.00921  -0.00153
  Beta virt. eigenvalues --    0.00057   0.00154   0.00376   0.00860   0.00883

 Mulliken charges and spin densities:
               1          2
     1  Na  -0.252369   0.340910
     2  Na   0.163543  -0.014057
     3  Na   0.190373   0.216938
     4  Na  -0.067730  -0.041028
     5  Na  -0.294862   0.272652
     6  Na   0.244003   0.003104
     7  Na   0.017042   0.221482
 Sum of Mulliken charges =  -0.00000   1.00000

 Dipole moment (field-independent basis, Debye):
    X=             -0.1720    Y=             -0.0205    Z=              0.0726  Tot=              0.1878
 Quadrupole moment (field-independent basis, Debye-Ang):
   XX=            -54.7823   YY=            -66.2838   ZZ=            -72.7793
   XY=             -0.6093   XZ=              0.0552   YZ=              3.4294

 Normal termination of Gaussian 16 at Thu Dec  7 17:42:36 2023.
