 Gaussian 16, Revision B.01,
 Gaussian 16:  ES64L-G16RevB.01 20-Dec-2017

 -------------------------
 #P B3LYP/6-311+g(d) force
 -------------------------

 -----
 DPGEN
 -----
 Symbolic Z-matrix:
 Charge =  0 Multiplicity = 2

                         Standard orientation:
 ---------------------------------------------------------------------
 Center     Atomic      Atomic             Coordinates (Angstroms)
 Number     Number       Type             X           Y           Z
 ---------------------------------------------------------------------
      1         11           0        0.065797    0.305508    1.960099
      2         11           0       -1.459373    1.378339   -0.838189
      3         11           0       -4.123417   -0.020238    0.460824
      4         11           0       -1.088845   -2.065700   -0.690506
      5         11           0        1.334413    0.008150   -1.551238
      6         11           0        2.332674    2.491164    0.116416
      7         11           0        2.938752   -2.097222    0.542594
 ---------------------------------------------------------------------

 SCF Done:  E(UB3LYP) =  -1136.12351235     A.U. after   22 cycles

 The electronic state is 2-A.
 Alpha  occ. eigenvalues --  -38.45121 -38.44511 -38.44029 -38.43763 -38.43511
 Alpha  occ. eigenvalues --  -38.43469 -38.42921  -2.20904  -2.20358  -2.19804
 Alpha  occ. eigenvalues --   -2.19607  -2.19401  -2.19330  -2.18923  -1.14585
 Alpha  occ. eigenvalues --   -1.14558  -1.14530  -1.14056  -1.13984  -1.13967
 Alpha  occ. eigenvalues --   -1.13490  -1.13458  -1.13431  -1.13335  -1.13285
 Alpha  occ. eigenvalues --   -1.13192  -1.13130  -1.13081  -1.13041  -1.12985
 Alpha  occ. eigenvalues --   -1.12981  -1.12956  -1.12632  -1.12560  -1.12510
 Alpha  occ. eigenvalues --   -0.18450  -0.13463  -0.11368  -0.10874
 Alpha virt. eigenvalues --   -0.06939  -0.05283  -0.03953  -0.03153  -0.02727
 Alpha virt. eigenvalues --   -0.02460  -0.02304  -0.01427  -0.00773  -0.00056
 Alpha virt. eigenvalues --    0.00104   0.00133   0.00492   0.00638   0.00681

  Beta  occ. eigenvalues --  -38.45116 -38.44440 -38.44020 -38.43740 -38.43512
  Beta  occ. eigenvalues --  -38.43440 -38.42864  -2.20894  -2.20226  -2.19789
  Beta  occ. eigenvalues --   -2.19570  -2.19354  -2.19334  -2.18824  -1.14579
  Beta  occ. eigenvalues --   -1.14547  -1.14525  -1.13965  -1.13889  -1.13871
  Beta  occ. eigenvalues --   -1.13480  -1.13439  -1.13422  -1.13304  -1.13235
  Beta  occ. eigenvalues --   -1.13172  -1.13098  -1.13041  -1.13008  -1.12972
  Beta  occ. eigenvalues --   -1.12966  -1.12952  -1.12558  -1.12480  -1.12441
  Beta  occ. eigenvalues --   -0.17662  -0.13319  -0.11165
  Beta virt. eigenvalues --   -0.07017  -0.06649  -0.05238  -0.03680  -0.02832
  Beta virt. eigenvalues --   -0.02329  -0.01896  -0.01568  -0.01300  -0.00443
  Beta virt. eigenvalues --   -0.00009   0.00114   0.00150   0.00620   0.00697

 Mulliken charges and spin densities:
               1          2
     1  Na  -0.450607   0.757091
     2  Na   0.047534   0.120763
     3  Na   0.309418   0.050200
     4  Na  -0.108402   0.022626
     5  Na   0.251630   0.059318
     6  Na   0.051372  -0.034972
     7  Na  -0.100945   0.024974
 Sum of Mulliken charges =  -0.00000   1.00000

 Dipole moment (field-independent basis, Debye):
    X=             -0.8675    Y=             -0.1060    Z=              0.5162  Tot=              1.0150
 Quadrupole moment (field-independent basis, Debye-Ang):
   XX=            -47.3832   YY=            -71.5988   ZZ=            -72.3144
   XY=              1.8288   XZ=             -0.4807   YZ=             -0.7319

 Normal termination of Gaussian 16 at Thu Dec  7 23:55:57 2023.
