 Gaussian 16, Revision B.01,
 Gaussian 16:  ES64L-G16RevB.01 20-Dec-2017

 -------------------------
 #P B3LYP/6-311+g(d) force
 -------------------------

 -----
 DPGEN
 -----
 Symbolic Z-matrix:
 Charge =  0 Multiplicity = 2

                         Standard orientation:
 ---------------------------------------------------------------------
 Center     Atomic      Atomic             Coordinates (Angstroms)
 Number     Number       Type             X           Y           Z
 ---------------------------------------------------------------------
      1         11           0        2.878005   -1.842507   -0.427146
      2         11           0       -0.040751    2.372919   -0.041198
      3         11           0       -0.217642   -0.810406    1.889506
      4         11           0       -3.131340    1.351633   -0.452702
      5         11           0        3.357759    1.299303    0.513871
      6         11           0       -3.211357   -1.666042    0.269132
      7         11           0        0.365325   -0.704900   -1.751464
 ---------------------------------------------------------------------

 SCF Done:  E(UB3LYP) =  -1136.11734803     A.U. after   25 cycles

 The electronic state is 2-A.
 Alpha  occ. eigenvalues --  -38.45200 -38.44638 -38.44599 -38.44401 -38.44262
 Alpha  occ. eigenvalues --  -38.44073 -38.42423  -2.20998  -2.20485  -2.20422
 Alpha  occ. eigenvalues --   -2.20219  -2.20145  -2.19931  -2.18273  -1.14661
 Alpha  occ. eigenvalues --   -1.14655  -1.14629  -1.14186  -1.14143  -1.14131
 Alpha  occ. eigenvalues --   -1.14105  -1.14065  -1.14032  -1.13882  -1.13872
 Alpha  occ. eigenvalues --   -1.13857  -1.13855  -1.13801  -1.13769  -1.13583
 Alpha  occ. eigenvalues --   -1.13575  -1.13560  -1.11970  -1.11950  -1.11910
 Alpha  occ. eigenvalues --   -0.18149  -0.14207  -0.11425  -0.10704
 Alpha virt. eigenvalues --   -0.07372  -0.05858  -0.03998  -0.03254  -0.02884
 Alpha virt. eigenvalues --   -0.02576  -0.02433  -0.01671  -0.00671  -0.00314
 Alpha virt. eigenvalues --    0.00057   0.00111   0.00428   0.00527   0.00638

  Beta  occ. eigenvalues --  -38.45174 -38.44628 -38.44523 -38.44410 -38.44186
  Beta  occ. eigenvalues --  -38.44063 -38.42430  -2.20949  -2.20465  -2.20281
  Beta  occ. eigenvalues --   -2.20237  -2.20006  -2.19916  -2.18290  -1.14628
  Beta  occ. eigenvalues --   -1.14616  -1.14597  -1.14185  -1.14128  -1.14109
  Beta  occ. eigenvalues --   -1.14009  -1.13969  -1.13933  -1.13895  -1.13873
  Beta  occ. eigenvalues --   -1.13854  -1.13772  -1.13701  -1.13675  -1.13572
  Beta  occ. eigenvalues --   -1.13546  -1.13526  -1.11985  -1.11955  -1.11902
  Beta  occ. eigenvalues --   -0.17513  -0.14039  -0.11082
  Beta virt. eigenvalues --   -0.07231  -0.06987  -0.05708  -0.03498  -0.03062
  Beta virt. eigenvalues --   -0.02686  -0.01906  -0.01836  -0.01240  -0.00657
  Beta virt. eigenvalues --   -0.00142   0.00047   0.00171   0.00595   0.00634

 Mulliken charges and spin densities:
               1          2
     1  Na   0.591651   0.072294
     2  Na  -0.087431   0.003687
     3  Na  -0.465813   0.432056
     4  Na  -0.040356   0.013579
     5  Na  -0.038739   0.136232
     6  Na   0.464911  -0.000220
     7  Na  -0.424224   0.342372
 Sum of Mulliken charges =  -0.00000   1.00000

 Dipole moment (field-independent basis, Debye):
    X=              0.2069    Y=             -0.2809    Z=              0.1184  Tot=              0.3684
 Quadrupole moment (field-independent basis, Debye-Ang):
   XX=            -46.3913   YY=            -74.6589   ZZ=            -74.4265
   XY=              0.5260   XZ=              2.8718   YZ=              0.2010

 Normal termination of Gaussian 16 at Thu Dec  7 07:00:31 2023.
