 Gaussian 16, Revision B.01,
 Gaussian 16:  ES64L-G16RevB.01 20-Dec-2017

 -------------------------
 #P B3LYP/6-311+g(d) force
 -------------------------

 -----
 DPGEN
 -----
 Symbolic Z-matrix:
 Charge =  0 Multiplicity = 2

                         Standard orientation:
 ---------------------------------------------------------------------
 Center     Atomic      Atomic             Coordinates (Angstroms)
 Number     Number       Type             X           Y           Z
 ---------------------------------------------------------------------
      1         11           0        3.329797   -1.150732   -0.116889
      2         11           0       -0.092660    0.167333   -1.628629
      3         11           0       -1.414327    2.573341    0.165852
      4         11           0        0.293091   -0.279664    2.175322
      5         11           0        1.798164    2.099388   -0.250619
      6         11           0       -3.432283   -0.729015   -0.040580
      7         11           0       -0.481782   -2.680650   -0.304457
 ---------------------------------------------------------------------

 SCF Done:  E(UB3LYP) =  -1136.13214737     A.U. after   20 cycles

 The electronic state is 2-A.
 Alpha  occ. eigenvalues --  -38.44597 -38.44419 -38.43810 -38.43477 -38.43382
 Alpha  occ. eigenvalues --  -38.43363 -38.43227  -2.20367  -2.20188  -2.19662
 Alpha  occ. eigenvalues --   -2.19370  -2.19327  -2.19269  -2.19084  -1.14042
 Alpha  occ. eigenvalues --   -1.14023  -1.14010  -1.13860  -1.13853  -1.13824
 Alpha  occ. eigenvalues --   -1.13326  -1.13297  -1.13272  -1.13161  -1.13107
 Alpha  occ. eigenvalues --   -1.13007  -1.12992  -1.12968  -1.12925  -1.12923
 Alpha  occ. eigenvalues --   -1.12893  -1.12883  -1.12753  -1.12740  -1.12709
 Alpha  occ. eigenvalues --   -0.18401  -0.12863  -0.12306  -0.10736
 Alpha virt. eigenvalues --   -0.06244  -0.05022  -0.04442  -0.03079  -0.02964
 Alpha virt. eigenvalues --   -0.02613  -0.02022  -0.01155  -0.00335  -0.00244
 Alpha virt. eigenvalues --   -0.00075   0.00289   0.00740   0.00825   0.00843

  Beta  occ. eigenvalues --  -38.44599 -38.44421 -38.43709 -38.43466 -38.43353
  Beta  occ. eigenvalues --  -38.43320 -38.43223  -2.20374  -2.20193  -2.19475
  Beta  occ. eigenvalues --   -2.19312  -2.19264  -2.19249  -2.19079  -1.14035
  Beta  occ. eigenvalues --   -1.14027  -1.14015  -1.13860  -1.13846  -1.13829
  Beta  occ. eigenvalues --   -1.13202  -1.13166  -1.13139  -1.13108  -1.13066
  Beta  occ. eigenvalues --   -1.12963  -1.12938  -1.12919  -1.12913  -1.12895
  Beta  occ. eigenvalues --   -1.12871  -1.12840  -1.12745  -1.12717  -1.12707
  Beta  occ. eigenvalues --   -0.17665  -0.12683  -0.12083
  Beta virt. eigenvalues --   -0.06779  -0.06194  -0.05028  -0.04388  -0.02382
  Beta virt. eigenvalues --   -0.02135  -0.01937  -0.01555  -0.01100  -0.00360
  Beta virt. eigenvalues --   -0.00284   0.00083   0.00312   0.00795   0.00843

 Mulliken charges and spin densities:
               1          2
     1  Na   0.122264  -0.078927
     2  Na  -0.124328   0.402318
     3  Na   0.053132   0.000115
     4  Na  -0.610025   0.789418
     5  Na   0.362488   0.040780
     6  Na   0.048834  -0.050781
     7  Na   0.147635  -0.102923
 Sum of Mulliken charges =  -0.00000   1.00000

 Dipole moment (field-independent basis, Debye):
    X=             -0.1392    Y=             -0.2686    Z=              0.1892  Tot=              0.3568
 Quadrupole moment (field-independent basis, Debye-Ang):
   XX=            -52.0337   YY=            -66.0204   ZZ=            -74.6338
   XY=             -1.1955   XZ=             -1.0329   YZ=              0.9291

 Normal termination of Gaussian 16 at Thu Dec  7 08:54:08 2023.
