 Gaussian 16, Revision B.01,
 Gaussian 16:  ES64L-G16RevB.01 20-Dec-2017

 -------------------------
 #P B3LYP/6-311+g(d) force
 -------------------------

 -----
 DPGEN
 -----
 Symbolic Z-matrix:
 Charge =  0 Multiplicity = 2

                         Standard orientation:
 ---------------------------------------------------------------------
 Center     Atomic      Atomic             Coordinates (Angstroms)
 Number     Number       Type             X           Y           Z
 ---------------------------------------------------------------------
      1         11           0        1.317039    2.505751   -0.139562
      2         11           0       -2.551227   -1.880977    0.203840
      3         11           0        3.379013   -0.141098   -0.036218
      4         11           0       -2.904559    1.686849    0.100406
      5         11           0        0.295873   -0.164124    2.188182
      6         11           0       -0.657673    0.238218   -1.724726
      7         11           0        1.121535   -2.244618   -0.591923
 ---------------------------------------------------------------------

 SCF Done:  E(UB3LYP) =  -1136.13106743     A.U. after   20 cycles

 The electronic state is 2-A.
 Alpha  occ. eigenvalues --  -38.44601 -38.44409 -38.44110 -38.44040 -38.43471
 Alpha  occ. eigenvalues --  -38.43278 -38.42894  -2.20442  -2.20211  -2.19956
 Alpha  occ. eigenvalues --   -2.19856  -2.19422  -2.19108  -2.18790  -1.14128
 Alpha  occ. eigenvalues --   -1.14096  -1.14086  -1.13902  -1.13866  -1.13845
 Alpha  occ. eigenvalues --   -1.13619  -1.13587  -1.13572  -1.13532  -1.13517
 Alpha  occ. eigenvalues --   -1.13492  -1.13105  -1.13068  -1.13048  -1.12791
 Alpha  occ. eigenvalues --   -1.12775  -1.12737  -1.12481  -1.12445  -1.12420
 Alpha  occ. eigenvalues --   -0.18441  -0.13500  -0.11737  -0.10943
 Alpha virt. eigenvalues --   -0.06283  -0.05529  -0.03907  -0.03505  -0.02835
 Alpha virt. eigenvalues --   -0.02686  -0.01932  -0.01228  -0.00444  -0.00115
 Alpha virt. eigenvalues --   -0.00030   0.00317   0.00653   0.00736   0.00823

  Beta  occ. eigenvalues --  -38.44601 -38.44409 -38.44037 -38.44013 -38.43410
  Beta  occ. eigenvalues --  -38.43273 -38.42876  -2.20445  -2.20212  -2.19852
  Beta  occ. eigenvalues --   -2.19777  -2.19309  -2.19103  -2.18762  -1.14131
  Beta  occ. eigenvalues --   -1.14093  -1.14077  -1.13896  -1.13860  -1.13849
  Beta  occ. eigenvalues --   -1.13524  -1.13506  -1.13497  -1.13493  -1.13462
  Beta  occ. eigenvalues --   -1.13439  -1.13031  -1.12980  -1.12970  -1.12784
  Beta  occ. eigenvalues --   -1.12752  -1.12736  -1.12460  -1.12415  -1.12389
  Beta  occ. eigenvalues --   -0.17704  -0.13335  -0.11507
  Beta virt. eigenvalues --   -0.07015  -0.06155  -0.05523  -0.03807  -0.02833
  Beta virt. eigenvalues --   -0.02010  -0.01830  -0.01700  -0.01153  -0.00486
  Beta virt. eigenvalues --   -0.00075   0.00080   0.00351   0.00759   0.00811

 Mulliken charges and spin densities:
               1          2
     1  Na   0.032269  -0.081108
     2  Na   0.044816   0.018954
     3  Na   0.136996  -0.002423
     4  Na   0.051942  -0.088744
     5  Na  -0.554764   0.737197
     6  Na   0.111079   0.353111
     7  Na   0.177663   0.063014
 Sum of Mulliken charges =  -0.00000   1.00000

 Dipole moment (field-independent basis, Debye):
    X=             -0.2776    Y=              0.1004    Z=              0.3471  Tot=              0.4557
 Quadrupole moment (field-independent basis, Debye-Ang):
   XX=            -51.3931   YY=            -69.4335   ZZ=            -73.0828
   XY=              0.0088   XZ=             -1.6129   YZ=              0.5736

 Normal termination of Gaussian 16 at Thu Dec  7 20:41:48 2023.
