 Gaussian 16, Revision B.01,
 Gaussian 16:  ES64L-G16RevB.01 20-Dec-2017

 -------------------------
 #P B3LYP/6-311+g(d) force
 -------------------------

 -----
 DPGEN
 -----
 Symbolic Z-matrix:
 Charge =  0 Multiplicity = 2

                         Standard orientation:
 ---------------------------------------------------------------------
 Center     Atomic      Atomic             Coordinates (Angstroms)
 Number     Number       Type             X           Y           Z
 ---------------------------------------------------------------------
      1         11           0       -2.776304   -1.550029   -0.372915
      2         11           0        1.556680    1.855707    0.859868
      3         11           0       -0.386982   -0.215002    1.925503
      4         11           0       -1.879968    2.550463   -0.310338
      5         11           0        0.487102   -2.360141    0.454563
      6         11           0        3.081524   -0.427975   -0.835560
      7         11           0       -0.082053    0.146977   -1.721122
 ---------------------------------------------------------------------

 SCF Done:  E(UB3LYP) =  -1136.12880565     A.U. after   19 cycles

 The electronic state is 2-A.
 Alpha  occ. eigenvalues --  -38.44047 -38.44004 -38.43645 -38.43484 -38.43458
 Alpha  occ. eigenvalues --  -38.43418 -38.43312  -2.20072  -2.19830  -2.19517
 Alpha  occ. eigenvalues --   -2.19444  -2.19407  -2.19279  -2.19229  -1.13891
 Alpha  occ. eigenvalues --   -1.13738  -1.13646  -1.13515  -1.13482  -1.13461
 Alpha  occ. eigenvalues --   -1.13222  -1.13195  -1.13158  -1.13131  -1.13112
 Alpha  occ. eigenvalues --   -1.13094  -1.13060  -1.13033  -1.12990  -1.12978
 Alpha  occ. eigenvalues --   -1.12916  -1.12905  -1.12876  -1.12863  -1.12830
 Alpha  occ. eigenvalues --   -0.19152  -0.12973  -0.12265  -0.11580
 Alpha virt. eigenvalues --   -0.05446  -0.04989  -0.03948  -0.03467  -0.03108
 Alpha virt. eigenvalues --   -0.02987  -0.01537  -0.00997  -0.00263   0.00256
 Alpha virt. eigenvalues --    0.00280   0.00356   0.00830   0.00868   0.00922

  Beta  occ. eigenvalues --  -38.43999 -38.43953 -38.43626 -38.43458 -38.43419
  Beta  occ. eigenvalues --  -38.43393 -38.43296  -2.19903  -2.19822  -2.19486
  Beta  occ. eigenvalues --   -2.19363  -2.19325  -2.19254  -2.19232  -1.13781
  Beta  occ. eigenvalues --   -1.13617  -1.13531  -1.13498  -1.13472  -1.13452
  Beta  occ. eigenvalues --   -1.13195  -1.13159  -1.13132  -1.13075  -1.13052
  Beta  occ. eigenvalues --   -1.13023  -1.12991  -1.12971  -1.12966  -1.12939
  Beta  occ. eigenvalues --   -1.12895  -1.12877  -1.12866  -1.12861  -1.12821
  Beta  occ. eigenvalues --   -0.18388  -0.12711  -0.12010
  Beta virt. eigenvalues --   -0.07570  -0.05385  -0.04901  -0.03886  -0.02807
  Beta virt. eigenvalues --   -0.02356  -0.01908  -0.01405  -0.00946  -0.00095
  Beta virt. eigenvalues --    0.00233   0.00298   0.00380   0.00879   0.00914

 Mulliken charges and spin densities:
               1          2
     1  Na  -0.180395  -0.085301
     2  Na   0.053915   0.100559
     3  Na   0.288017   0.264323
     4  Na  -0.233823  -0.088158
     5  Na   0.168114   0.126240
     6  Na   0.142556   0.039651
     7  Na  -0.238384   0.642686
 Sum of Mulliken charges =  -0.00000   1.00000

 Dipole moment (field-independent basis, Debye):
    X=             -0.3508    Y=             -0.0314    Z=             -0.2297  Tot=              0.4205
 Quadrupole moment (field-independent basis, Debye-Ang):
   XX=            -56.5373   YY=            -66.9640   ZZ=            -70.4204
   XY=              0.2369   XZ=              0.0943   YZ=              1.3567

 Normal termination of Gaussian 16 at Thu Dec  7 07:06:47 2023.
