 Gaussian 16, Revision B.01,
 Gaussian 16:  ES64L-G16RevB.01 20-Dec-2017

 -------------------------
 #P B3LYP/6-311+g(d) force
 -------------------------

 -----
 DPGEN
 -----
 Symbolic Z-matrix:
 Charge =  0 Multiplicity = 2

                         Standard orientation:
 ---------------------------------------------------------------------
 Center     Atomic      Atomic             Coordinates (Angstroms)
 Number     Number       Type             X           Y           Z
 ---------------------------------------------------------------------
      1         11           0       -0.672193   -0.306038    1.587310
      2         11           0        4.196305   -1.123386   -0.632033
      3         11           0       -0.317330    2.721122   -0.327815
      4         11           0        0.395079   -0.797886   -1.750475
      5         11           0       -3.239850    0.777421   -0.823460
      6         11           0        2.448414    0.881013    1.351870
      7         11           0       -2.810423   -2.152246    0.594604
 ---------------------------------------------------------------------

 SCF Done:  E(UB3LYP) =  -1136.11964156     A.U. after   25 cycles

 The electronic state is 2-A.
 Alpha  occ. eigenvalues --  -38.45607 -38.45108 -38.44443 -38.43996 -38.43805
 Alpha  occ. eigenvalues --  -38.43255 -38.42430  -2.21387  -2.20945  -2.20214
 Alpha  occ. eigenvalues --   -2.19853  -2.19772  -2.19137  -2.18259  -1.15089
 Alpha  occ. eigenvalues --   -1.15038  -1.14980  -1.14623  -1.14594  -1.14569
 Alpha  occ. eigenvalues --   -1.13896  -1.13880  -1.13850  -1.13570  -1.13502
 Alpha  occ. eigenvalues --   -1.13469  -1.13457  -1.13430  -1.13386  -1.12817
 Alpha  occ. eigenvalues --   -1.12783  -1.12758  -1.11938  -1.11928  -1.11904
 Alpha  occ. eigenvalues --   -0.18160  -0.13879  -0.11387  -0.11130
 Alpha virt. eigenvalues --   -0.07248  -0.04974  -0.04592  -0.03194  -0.03079
 Alpha virt. eigenvalues --   -0.02575  -0.02315  -0.01287  -0.00829  -0.00267
 Alpha virt. eigenvalues --    0.00036   0.00119   0.00250   0.00529   0.00705

  Beta  occ. eigenvalues --  -38.45548 -38.45081 -38.44447 -38.43965 -38.43734
  Beta  occ. eigenvalues --  -38.43244 -38.42433  -2.21279  -2.20895  -2.20221
  Beta  occ. eigenvalues --   -2.19796  -2.19644  -2.19119  -2.18268  -1.15009
  Beta  occ. eigenvalues --   -1.14965  -1.14898  -1.14582  -1.14562  -1.14535
  Beta  occ. eigenvalues --   -1.13903  -1.13884  -1.13850  -1.13513  -1.13465
  Beta  occ. eigenvalues --   -1.13426  -1.13370  -1.13340  -1.13296  -1.12790
  Beta  occ. eigenvalues --   -1.12773  -1.12742  -1.11945  -1.11937  -1.11887
  Beta  occ. eigenvalues --   -0.17465  -0.13753  -0.11064
  Beta virt. eigenvalues --   -0.07437  -0.06986  -0.04662  -0.04236  -0.02939
  Beta virt. eigenvalues --   -0.02684  -0.02075  -0.01678  -0.01049  -0.00587
  Beta virt. eigenvalues --   -0.00304   0.00063   0.00206   0.00402   0.00681

 Mulliken charges and spin densities:
               1          2
     1  Na  -0.865682   0.412990
     2  Na  -0.052743  -0.041887
     3  Na  -0.289643  -0.025296
     4  Na  -0.391739   0.471536
     5  Na   0.172608   0.192664
     6  Na   0.497535   0.022326
     7  Na   0.929663  -0.032334
 Sum of Mulliken charges =  -0.00000   1.00000

 Dipole moment (field-independent basis, Debye):
    X=             -0.1494    Y=              0.0033    Z=             -0.5912  Tot=              0.6098
 Quadrupole moment (field-independent basis, Debye-Ang):
   XX=            -52.4644   YY=            -72.5042   ZZ=            -71.2756
   XY=             -0.6184   XZ=              2.8924   YZ=              1.3679

 Normal termination of Gaussian 16 at Tue Dec  5 13:09:19 2023.
