 Gaussian 16, Revision B.01,
 Gaussian 16:  ES64L-G16RevB.01 20-Dec-2017

 -------------------------
 #P B3LYP/6-311+g(d) force
 -------------------------

 -----
 DPGEN
 -----
 Symbolic Z-matrix:
 Charge =  0 Multiplicity = 2

                         Standard orientation:
 ---------------------------------------------------------------------
 Center     Atomic      Atomic             Coordinates (Angstroms)
 Number     Number       Type             X           Y           Z
 ---------------------------------------------------------------------
      1         11           0        1.918525    1.508879   -0.997663
      2         11           0       -1.294413    2.747556    0.325694
      3         11           0       -3.967693    0.652098    0.169116
      4         11           0        4.615724   -0.604098   -1.285585
      5         11           0       -4.126413   -2.487058   -1.022239
      6         11           0       -0.053194   -0.357575    1.165145
      7         11           0        2.907464   -1.459802    1.645532
 ---------------------------------------------------------------------

 SCF Done:  E(UB3LYP) =  -1136.11733379     A.U. after   23 cycles

 The electronic state is 2-A.
 Alpha  occ. eigenvalues --  -38.44809 -38.44567 -38.44412 -38.44395 -38.43976
 Alpha  occ. eigenvalues --  -38.43698 -38.43551  -2.20633  -2.20445  -2.20259
 Alpha  occ. eigenvalues --   -2.20213  -2.19783  -2.19456  -2.19382  -1.14336
 Alpha  occ. eigenvalues --   -1.14312  -1.14232  -1.14133  -1.14115  -1.14071
 Alpha  occ. eigenvalues --   -1.13916  -1.13910  -1.13884  -1.13866  -1.13862
 Alpha  occ. eigenvalues --   -1.13817  -1.13465  -1.13445  -1.13423  -1.13125
 Alpha  occ. eigenvalues --   -1.13122  -1.13091  -1.13051  -1.13044  -1.13019
 Alpha  occ. eigenvalues --   -0.17183  -0.14233  -0.11650  -0.11310
 Alpha virt. eigenvalues --   -0.07109  -0.05115  -0.04210  -0.04010  -0.03170
 Alpha virt. eigenvalues --   -0.02536  -0.01975  -0.01685  -0.01073  -0.00569
 Alpha virt. eigenvalues --   -0.00187   0.00040   0.00228   0.00277   0.00485

  Beta  occ. eigenvalues --  -38.44773 -38.44500 -38.44357 -38.44343 -38.43969
  Beta  occ. eigenvalues --  -38.43704 -38.43547  -2.20567  -2.20327  -2.20161
  Beta  occ. eigenvalues --   -2.20115  -2.19770  -2.19466  -2.19375  -1.14294
  Beta  occ. eigenvalues --   -1.14263  -1.14170  -1.14059  -1.14022  -1.13971
  Beta  occ. eigenvalues --   -1.13854  -1.13831  -1.13809  -1.13799  -1.13782
  Beta  occ. eigenvalues --   -1.13750  -1.13455  -1.13437  -1.13416  -1.13132
  Beta  occ. eigenvalues --   -1.13129  -1.13097  -1.13044  -1.13039  -1.13014
  Beta  occ. eigenvalues --   -0.16485  -0.13927  -0.11298
  Beta virt. eigenvalues --   -0.07496  -0.07001  -0.04758  -0.03985  -0.03718
  Beta virt. eigenvalues --   -0.02479  -0.02354  -0.01609  -0.01494  -0.00763
  Beta virt. eigenvalues --   -0.00470  -0.00045   0.00211   0.00280   0.00480

 Mulliken charges and spin densities:
               1          2
     1  Na  -0.221114   0.320112
     2  Na   0.773667   0.025466
     3  Na   0.284541   0.113089
     4  Na   0.180883   0.154782
     5  Na   0.137422  -0.072708
     6  Na  -1.357214   0.588493
     7  Na   0.201814  -0.129233
 Sum of Mulliken charges =  -0.00000   1.00000

 Dipole moment (field-independent basis, Debye):
    X=              1.4019    Y=              0.2760    Z=              0.0139  Tot=              1.4289
 Quadrupole moment (field-independent basis, Debye-Ang):
   XX=            -66.9458   YY=            -64.3018   ZZ=            -69.8277
   XY=             -7.1822   XZ=             -1.0181   YZ=              1.6756

 Normal termination of Gaussian 16 at Wed Nov 29 01:14:07 2023.
