 Gaussian 16, Revision B.01,
 Gaussian 16:  ES64L-G16RevB.01 20-Dec-2017

 -------------------------
 #P B3LYP/6-311+g(d) force
 -------------------------

 -----
 DPGEN
 -----
 Symbolic Z-matrix:
 Charge =  0 Multiplicity = 2

                         Standard orientation:
 ---------------------------------------------------------------------
 Center     Atomic      Atomic             Coordinates (Angstroms)
 Number     Number       Type             X           Y           Z
 ---------------------------------------------------------------------
      1         11           0       -3.145095    2.077625    0.220721
      2         11           0        1.087934   -1.585533   -1.433893
      3         11           0       -2.375233   -1.526918   -1.423357
      4         11           0        0.198669    1.903103    0.052050
      5         11           0        3.390400    1.351724   -0.883102
      6         11           0        2.192541   -0.938443    1.845301
      7         11           0       -1.349216   -1.281558    1.622280
 ---------------------------------------------------------------------

 SCF Done:  E(UB3LYP) =  -1136.12961551     A.U. after   22 cycles

 The electronic state is 2-A.
 Alpha  occ. eigenvalues --  -38.44431 -38.44325 -38.44099 -38.44082 -38.43868
 Alpha  occ. eigenvalues --  -38.43484 -38.43209  -2.20269  -2.20136  -2.19948
 Alpha  occ. eigenvalues --   -2.19917  -2.19709  -2.19269  -2.19048  -1.13939
 Alpha  occ. eigenvalues --   -1.13924  -1.13879  -1.13805  -1.13795  -1.13760
 Alpha  occ. eigenvalues --   -1.13672  -1.13634  -1.13587  -1.13562  -1.13535
 Alpha  occ. eigenvalues --   -1.13525  -1.13403  -1.13372  -1.13310  -1.12944
 Alpha  occ. eigenvalues --   -1.12939  -1.12908  -1.12748  -1.12736  -1.12655
 Alpha  occ. eigenvalues --   -0.17929  -0.13526  -0.11580  -0.11339
 Alpha virt. eigenvalues --   -0.05919  -0.05661  -0.04818  -0.03436  -0.02694
 Alpha virt. eigenvalues --   -0.02512  -0.01923  -0.01301  -0.00748  -0.00116
 Alpha virt. eigenvalues --    0.00121   0.00211   0.00256   0.00477   0.00623

  Beta  occ. eigenvalues --  -38.44367 -38.44305 -38.44065 -38.44049 -38.43831
  Beta  occ. eigenvalues --  -38.43488 -38.43205  -2.20152  -2.20100  -2.19887
  Beta  occ. eigenvalues --   -2.19855  -2.19643  -2.19276  -2.19043  -1.13853
  Beta  occ. eigenvalues --   -1.13849  -1.13791  -1.13777  -1.13763  -1.13737
  Beta  occ. eigenvalues --   -1.13626  -1.13588  -1.13536  -1.13520  -1.13491
  Beta  occ. eigenvalues --   -1.13475  -1.13357  -1.13315  -1.13261  -1.12950
  Beta  occ. eigenvalues --   -1.12939  -1.12913  -1.12738  -1.12723  -1.12653
  Beta  occ. eigenvalues --   -0.17263  -0.13353  -0.11294
  Beta virt. eigenvalues --   -0.07483  -0.05785  -0.05551  -0.04161  -0.03193
  Beta virt. eigenvalues --   -0.02139  -0.01887  -0.01776  -0.01114  -0.00337
  Beta virt. eigenvalues --   -0.00060   0.00224   0.00269   0.00306   0.00565

 Mulliken charges and spin densities:
               1          2
     1  Na   0.296661  -0.117097
     2  Na  -0.383497   0.282741
     3  Na   0.328935   0.175068
     4  Na  -1.347791   0.112809
     5  Na   1.013466   0.073792
     6  Na   0.263049   0.224552
     7  Na  -0.170824   0.248135
 Sum of Mulliken charges =  -0.00000   1.00000

 Dipole moment (field-independent basis, Debye):
    X=              0.5672    Y=             -0.4225    Z=             -0.0622  Tot=              0.7100
 Quadrupole moment (field-independent basis, Debye-Ang):
   XX=            -51.0159   YY=            -75.8093   ZZ=            -67.9142
   XY=              1.6821   XZ=              0.3165   YZ=             -1.0886

 Normal termination of Gaussian 16 at Sun Dec  3 16:47:09 2023.
