 Gaussian 16, Revision B.01,
 Gaussian 16:  ES64L-G16RevB.01 20-Dec-2017

 -------------------------
 #P B3LYP/6-311+g(d) force
 -------------------------

 -----
 DPGEN
 -----
 Symbolic Z-matrix:
 Charge =  0 Multiplicity = 2

                         Standard orientation:
 ---------------------------------------------------------------------
 Center     Atomic      Atomic             Coordinates (Angstroms)
 Number     Number       Type             X           Y           Z
 ---------------------------------------------------------------------
      1         11           0        2.794964   -0.007441    0.419747
      2         11           0       -2.569196   -1.677844   -0.077571
      3         11           0       -2.270130    1.808308    0.003790
      4         11           0        0.048083   -0.124657   -1.811116
      5         11           0        1.115945    2.683034   -0.266032
      6         11           0       -0.365297   -0.103724    1.946904
      7         11           0        1.245631   -2.577676   -0.215722
 ---------------------------------------------------------------------

 SCF Done:  E(UB3LYP) =  -1136.13863153     A.U. after   19 cycles

 The electronic state is 2-A.
 Alpha  occ. eigenvalues --  -38.43778 -38.43671 -38.43585 -38.43500 -38.43396
 Alpha  occ. eigenvalues --  -38.43346 -38.43170  -2.19621  -2.19538  -2.19518
 Alpha  occ. eigenvalues --   -2.19420  -2.19327  -2.19294  -2.19040  -1.13314
 Alpha  occ. eigenvalues --   -1.13299  -1.13261  -1.13245  -1.13211  -1.13193
 Alpha  occ. eigenvalues --   -1.13160  -1.13156  -1.13137  -1.13129  -1.13092
 Alpha  occ. eigenvalues --   -1.13067  -1.13046  -1.12986  -1.12943  -1.12927
 Alpha  occ. eigenvalues --   -1.12903  -1.12895  -1.12710  -1.12695  -1.12677
 Alpha  occ. eigenvalues --   -0.19075  -0.13154  -0.12523  -0.11071
 Alpha virt. eigenvalues --   -0.05343  -0.05094  -0.04539  -0.03396  -0.02976
 Alpha virt. eigenvalues --   -0.02724  -0.01277  -0.01071  -0.00134  -0.00093
 Alpha virt. eigenvalues --    0.00035   0.00382   0.00879   0.00900   0.00958

  Beta  occ. eigenvalues --  -38.43775 -38.43666 -38.43501 -38.43490 -38.43389
  Beta  occ. eigenvalues --  -38.43267 -38.43165  -2.19618  -2.19533  -2.19405
  Beta  occ. eigenvalues --   -2.19363  -2.19286  -2.19181  -2.19035  -1.13305
  Beta  occ. eigenvalues --   -1.13277  -1.13255  -1.13227  -1.13186  -1.13165
  Beta  occ. eigenvalues --   -1.13155  -1.13100  -1.13069  -1.13042  -1.13031
  Beta  occ. eigenvalues --   -1.13007  -1.12998  -1.12909  -1.12897  -1.12891
  Beta  occ. eigenvalues --   -1.12841  -1.12826  -1.12702  -1.12679  -1.12668
  Beta  occ. eigenvalues --   -0.18318  -0.12902  -0.12263
  Beta virt. eigenvalues --   -0.07130  -0.05356  -0.05026  -0.04525  -0.02551
  Beta virt. eigenvalues --   -0.02192  -0.01659  -0.01200  -0.01003  -0.00153
  Beta virt. eigenvalues --   -0.00125   0.00122   0.00394   0.00885   0.00937

 Mulliken charges and spin densities:
               1          2
     1  Na   0.142617   0.078573
     2  Na   0.118304  -0.137030
     3  Na   0.127606  -0.082669
     4  Na  -0.324445   0.627877
     5  Na   0.072669  -0.042342
     6  Na  -0.369879   0.631238
     7  Na   0.233128  -0.075646
 Sum of Mulliken charges =  -0.00000   1.00000

 Dipole moment (field-independent basis, Debye):
    X=             -0.3787    Y=             -0.1047    Z=              0.0821  Tot=              0.4014
 Quadrupole moment (field-independent basis, Debye-Ang):
   XX=            -59.4594   YY=            -62.5231   ZZ=            -72.5814
   XY=              0.3784   XZ=              0.9961   YZ=              0.0107

 Normal termination of Gaussian 16 at Thu Dec  7 17:21:29 2023.
