 Gaussian 16, Revision B.01,
 Gaussian 16:  ES64L-G16RevB.01 20-Dec-2017

 -------------------------
 #P B3LYP/6-311+g(d) force
 -------------------------

 -----
 DPGEN
 -----
 Symbolic Z-matrix:
 Charge =  0 Multiplicity = 2

                         Standard orientation:
 ---------------------------------------------------------------------
 Center     Atomic      Atomic             Coordinates (Angstroms)
 Number     Number       Type             X           Y           Z
 ---------------------------------------------------------------------
      1         11           0       -2.668190   -1.545928   -0.072677
      2         11           0       -2.679486    1.702363   -0.071674
      3         11           0        0.234897    0.013683   -1.333603
      4         11           0        3.173730   -0.248962    0.104868
      5         11           0        0.707625   -2.830730   -0.364000
      6         11           0        0.116339    0.017796    2.087567
      7         11           0        1.115085    2.891779   -0.350482
 ---------------------------------------------------------------------

 SCF Done:  E(UB3LYP) =  -1136.13553141     A.U. after   19 cycles

 The electronic state is 2-A.
 Alpha  occ. eigenvalues --  -38.44355 -38.43988 -38.43753 -38.43610 -38.43479
 Alpha  occ. eigenvalues --  -38.43313 -38.42787  -2.20188  -2.19806  -2.19598
 Alpha  occ. eigenvalues --   -2.19435  -2.19359  -2.19186  -2.18847  -1.13872
 Alpha  occ. eigenvalues --   -1.13852  -1.13816  -1.13497  -1.13472  -1.13447
 Alpha  occ. eigenvalues --   -1.13268  -1.13255  -1.13235  -1.13147  -1.13088
 Alpha  occ. eigenvalues --   -1.13057  -1.13037  -1.12977  -1.12970  -1.12936
 Alpha  occ. eigenvalues --   -1.12830  -1.12801  -1.12532  -1.12480  -1.12462
 Alpha  occ. eigenvalues --   -0.18629  -0.13132  -0.12402  -0.10453
 Alpha virt. eigenvalues --   -0.05857  -0.05217  -0.04749  -0.03065  -0.02638
 Alpha virt. eigenvalues --   -0.02343  -0.01689  -0.01215  -0.00563  -0.00441
 Alpha virt. eigenvalues --    0.00006   0.00336   0.00800   0.00831   0.00873

  Beta  occ. eigenvalues --  -38.44350 -38.43987 -38.43751 -38.43601 -38.43376
  Beta  occ. eigenvalues --  -38.43302 -38.42738  -2.20182  -2.19807  -2.19596
  Beta  occ. eigenvalues --   -2.19422  -2.19173  -2.19166  -2.18759  -1.13865
  Beta  occ. eigenvalues --   -1.13826  -1.13817  -1.13500  -1.13455  -1.13450
  Beta  occ. eigenvalues --   -1.13262  -1.13244  -1.13232  -1.13131  -1.13066
  Beta  occ. eigenvalues --   -1.13051  -1.12925  -1.12904  -1.12845  -1.12832
  Beta  occ. eigenvalues --   -1.12802  -1.12791  -1.12459  -1.12415  -1.12401
  Beta  occ. eigenvalues --   -0.17926  -0.12932  -0.12140
  Beta virt. eigenvalues --   -0.06527  -0.05811  -0.05217  -0.04703  -0.02305
  Beta virt. eigenvalues --   -0.01924  -0.01602  -0.01252  -0.01133  -0.00609
  Beta virt. eigenvalues --   -0.00483   0.00163   0.00378   0.00829   0.00849

 Mulliken charges and spin densities:
               1          2
     1  Na   0.181134   0.013433
     2  Na   0.114842  -0.022490
     3  Na  -0.700621   0.154461
     4  Na   0.338909   0.050353
     5  Na   0.388034   0.051050
     6  Na  -0.480256   0.770007
     7  Na   0.157958  -0.016814
 Sum of Mulliken charges =  -0.00000   1.00000

 Dipole moment (field-independent basis, Debye):
    X=              0.1699    Y=              0.1183    Z=              0.2414  Tot=              0.3180
 Quadrupole moment (field-independent basis, Debye-Ang):
   XX=            -54.3090   YY=            -61.1480   ZZ=            -76.4341
   XY=             -0.2798   XZ=              0.2997   YZ=             -0.0102

 Normal termination of Gaussian 16 at Thu Dec  7 06:37:04 2023.
