 Gaussian 16, Revision B.01,
 Gaussian 16:  ES64L-G16RevB.01 20-Dec-2017

 -------------------------
 #P B3LYP/6-311+g(d) force
 -------------------------

 -----
 DPGEN
 -----
 Symbolic Z-matrix:
 Charge =  0 Multiplicity = 2

                         Standard orientation:
 ---------------------------------------------------------------------
 Center     Atomic      Atomic             Coordinates (Angstroms)
 Number     Number       Type             X           Y           Z
 ---------------------------------------------------------------------
      1         11           0       -2.830749    2.072020   -0.912808
      2         11           0        5.519220    1.139355    1.429961
      3         11           0        0.720045   -2.081308   -1.158378
      4         11           0        3.709309   -1.171126   -0.555767
      5         11           0       -2.343477   -1.496192    0.953535
      6         11           0       -5.307052   -0.187428    0.937661
      7         11           0        0.532704    1.724679   -0.694203
 ---------------------------------------------------------------------

 SCF Done:  E(UB3LYP) =  -1136.10958401     A.U. after   26 cycles

 The electronic state is 2-A.
 Alpha  occ. eigenvalues --  -38.45346 -38.45267 -38.44834 -38.44357 -38.43890
 Alpha  occ. eigenvalues --  -38.43719 -38.43685  -2.21145  -2.21073  -2.20620
 Alpha  occ. eigenvalues --   -2.20193  -2.19690  -2.19517  -2.19446  -1.14823
 Alpha  occ. eigenvalues --   -1.14800  -1.14759  -1.14746  -1.14719  -1.14692
 Alpha  occ. eigenvalues --   -1.14303  -1.14266  -1.14243  -1.13879  -1.13844
 Alpha  occ. eigenvalues --   -1.13801  -1.13375  -1.13358  -1.13333  -1.13191
 Alpha  occ. eigenvalues --   -1.13182  -1.13160  -1.13107  -1.13106  -1.13065
 Alpha  occ. eigenvalues --   -0.16653  -0.14029  -0.12188  -0.11216
 Alpha virt. eigenvalues --   -0.07025  -0.05718  -0.04299  -0.03561  -0.03504
 Alpha virt. eigenvalues --   -0.02626  -0.02043  -0.01629  -0.01364  -0.00685
 Alpha virt. eigenvalues --   -0.00284  -0.00176  -0.00109   0.00206   0.00532

  Beta  occ. eigenvalues --  -38.45283 -38.45224 -38.44798 -38.44304 -38.43899
  Beta  occ. eigenvalues --  -38.43726 -38.43651  -2.21030  -2.20993  -2.20558
  Beta  occ. eigenvalues --   -2.20093  -2.19710  -2.19532  -2.19383  -1.14744
  Beta  occ. eigenvalues --   -1.14727  -1.14703  -1.14668  -1.14653  -1.14631
  Beta  occ. eigenvalues --   -1.14264  -1.14228  -1.14178  -1.13815  -1.13771
  Beta  occ. eigenvalues --   -1.13741  -1.13390  -1.13375  -1.13323  -1.13193
  Beta  occ. eigenvalues --   -1.13192  -1.13173  -1.13065  -1.13063  -1.13025
  Beta  occ. eigenvalues --   -0.16020  -0.13824  -0.10775
  Beta virt. eigenvalues --   -0.08564  -0.06584  -0.05224  -0.04143  -0.03292
  Beta virt. eigenvalues --   -0.02979  -0.02435  -0.01801  -0.01350  -0.01077
  Beta virt. eigenvalues --   -0.00494  -0.00135  -0.00062   0.00124   0.00265

 Mulliken charges and spin densities:
               1          2
     1  Na   0.016313   0.206953
     2  Na   0.218329   0.171381
     3  Na  -0.177420   0.263977
     4  Na   0.057573  -0.107844
     5  Na  -0.633186   0.305396
     6  Na   0.640919  -0.117115
     7  Na  -0.122529   0.277252
 Sum of Mulliken charges =  -0.00000   1.00000

 Dipole moment (field-independent basis, Debye):
    X=             -1.9832    Y=              0.3537    Z=             -0.3663  Tot=              2.0475
 Quadrupole moment (field-independent basis, Debye-Ang):
   XX=            -72.6159   YY=            -64.6602   ZZ=            -70.1787
   XY=             -1.8278   XZ=              1.1718   YZ=              1.5985

 Normal termination of Gaussian 16 at Mon Dec  4 00:20:33 2023.
