 Gaussian 16, Revision B.01,
 Gaussian 16:  ES64L-G16RevB.01 20-Dec-2017

 -------------------------
 #P B3LYP/6-311+g(d) force
 -------------------------

 -----
 DPGEN
 -----
 Symbolic Z-matrix:
 Charge =  0 Multiplicity = 2

                         Standard orientation:
 ---------------------------------------------------------------------
 Center     Atomic      Atomic             Coordinates (Angstroms)
 Number     Number       Type             X           Y           Z
 ---------------------------------------------------------------------
      1         11           0        0.978458    1.105582   -1.458801
      2         11           0       -3.312841   -2.088153    0.316068
      3         11           0       -0.412860    3.469749    0.377952
      4         11           0        0.470701   -0.033070    2.024181
      5         11           0       -2.441827    0.662881   -0.750278
      6         11           0        1.043767   -2.478655   -0.652449
      7         11           0        3.674601   -0.638334    0.143327
 ---------------------------------------------------------------------

 SCF Done:  E(UB3LYP) =  -1136.12776302     A.U. after   19 cycles

 The electronic state is 2-A.
 Alpha  occ. eigenvalues --  -38.44879 -38.44694 -38.43816 -38.43659 -38.43608
 Alpha  occ. eigenvalues --  -38.43559 -38.43397  -2.20690  -2.20502  -2.19655
 Alpha  occ. eigenvalues --   -2.19469  -2.19421  -2.19400  -2.19295  -1.14364
 Alpha  occ. eigenvalues --   -1.14348  -1.14337  -1.14184  -1.14175  -1.14107
 Alpha  occ. eigenvalues --   -1.13323  -1.13285  -1.13267  -1.13189  -1.13152
 Alpha  occ. eigenvalues --   -1.13125  -1.13120  -1.13115  -1.13082  -1.13050
 Alpha  occ. eigenvalues --   -1.13033  -1.12991  -1.12966  -1.12958  -1.12881
 Alpha  occ. eigenvalues --   -0.17848  -0.13335  -0.12082  -0.10398
 Alpha virt. eigenvalues --   -0.06294  -0.05420  -0.04848  -0.03326  -0.02673
 Alpha virt. eigenvalues --   -0.02444  -0.02054  -0.01432  -0.00696  -0.00365
 Alpha virt. eigenvalues --   -0.00053   0.00243   0.00568   0.00691   0.00734

  Beta  occ. eigenvalues --  -38.44878 -38.44680 -38.43716 -38.43660 -38.43613
  Beta  occ. eigenvalues --  -38.43548 -38.43352  -2.20689  -2.20479  -2.19473
  Beta  occ. eigenvalues --   -2.19468  -2.19413  -2.19399  -2.19213  -1.14367
  Beta  occ. eigenvalues --   -1.14342  -1.14319  -1.14170  -1.14137  -1.14094
  Beta  occ. eigenvalues --   -1.13197  -1.13188  -1.13156  -1.13151  -1.13138
  Beta  occ. eigenvalues --   -1.13123  -1.13105  -1.13098  -1.13069  -1.13049
  Beta  occ. eigenvalues --   -1.13036  -1.12966  -1.12933  -1.12892  -1.12822
  Beta  occ. eigenvalues --   -0.17138  -0.13161  -0.11988
  Beta virt. eigenvalues --   -0.06495  -0.06187  -0.05291  -0.04779  -0.02635
  Beta virt. eigenvalues --   -0.02170  -0.01994  -0.01440  -0.01320  -0.00634
  Beta virt. eigenvalues --   -0.00314   0.00109   0.00304   0.00640   0.00772

 Mulliken charges and spin densities:
               1          2
     1  Na   0.082972   0.291137
     2  Na   0.186441  -0.068426
     3  Na   0.241036  -0.079761
     4  Na  -0.382185   0.752846
     5  Na  -0.409525   0.010403
     6  Na  -0.133020   0.047692
     7  Na   0.414281   0.046110
 Sum of Mulliken charges =  -0.00000   1.00000

 Dipole moment (field-independent basis, Debye):
    X=              1.2561    Y=             -0.1577    Z=              0.1448  Tot=              1.2742
 Quadrupole moment (field-independent basis, Debye-Ang):
   XX=            -57.0967   YY=            -60.7880   ZZ=            -75.8625
   XY=             -1.0584   XZ=             -0.4887   YZ=              1.3359

 Normal termination of Gaussian 16 at Fri Dec  8 04:55:23 2023.
