 Gaussian 16, Revision B.01,
 Gaussian 16:  ES64L-G16RevB.01 20-Dec-2017

 -------------------------
 #P B3LYP/6-311+g(d) force
 -------------------------

 -----
 DPGEN
 -----
 Symbolic Z-matrix:
 Charge =  0 Multiplicity = 2

                         Standard orientation:
 ---------------------------------------------------------------------
 Center     Atomic      Atomic             Coordinates (Angstroms)
 Number     Number       Type             X           Y           Z
 ---------------------------------------------------------------------
      1         11           0        0.005119    0.028514   -1.567926
      2         11           0       -0.262921    2.876741   -0.130379
      3         11           0       -1.648542   -2.185784    0.090850
      4         11           0        2.890283    0.790410   -0.208058
      5         11           0        1.586429   -2.222270   -0.227616
      6         11           0        0.401051    0.151411    2.122169
      7         11           0       -2.971419    0.560979   -0.079040
 ---------------------------------------------------------------------

 SCF Done:  E(UB3LYP) =  -1136.13562975     A.U. after   19 cycles

 The electronic state is 2-A.
 Alpha  occ. eigenvalues --  -38.43899 -38.43836 -38.43705 -38.43346 -38.43227
 Alpha  occ. eigenvalues --  -38.43164 -38.43057  -2.19778  -2.19711  -2.19606
 Alpha  occ. eigenvalues --   -2.19202  -2.19170  -2.19132  -2.19098  -1.13472
 Alpha  occ. eigenvalues --   -1.13446  -1.13425  -1.13409  -1.13371  -1.13344
 Alpha  occ. eigenvalues --   -1.13267  -1.13228  -1.13225  -1.12980  -1.12924
 Alpha  occ. eigenvalues --   -1.12865  -1.12848  -1.12822  -1.12811  -1.12806
 Alpha  occ. eigenvalues --   -1.12764  -1.12740  -1.12717  -1.12709  -1.12703
 Alpha  occ. eigenvalues --   -0.19271  -0.13228  -0.12584  -0.11044
 Alpha virt. eigenvalues --   -0.05573  -0.04780  -0.04598  -0.03262  -0.02953
 Alpha virt. eigenvalues --   -0.02710  -0.01405  -0.00948  -0.00159  -0.00030
 Alpha virt. eigenvalues --    0.00033   0.00367   0.00872   0.00938   0.00971

  Beta  occ. eigenvalues --  -38.43892 -38.43834 -38.43605 -38.43341 -38.43217
  Beta  occ. eigenvalues --  -38.43159 -38.42992  -2.19768  -2.19710  -2.19421
  Beta  occ. eigenvalues --   -2.19197  -2.19155  -2.19092  -2.19017  -1.13465
  Beta  occ. eigenvalues --   -1.13428  -1.13414  -1.13402  -1.13356  -1.13340
  Beta  occ. eigenvalues --   -1.13147  -1.13099  -1.13094  -1.12947  -1.12907
  Beta  occ. eigenvalues --   -1.12842  -1.12828  -1.12821  -1.12791  -1.12775
  Beta  occ. eigenvalues --   -1.12717  -1.12703  -1.12699  -1.12644  -1.12640
  Beta  occ. eigenvalues --   -0.18521  -0.12978  -0.12327
  Beta virt. eigenvalues --   -0.07047  -0.05553  -0.04778  -0.04581  -0.02443
  Beta virt. eigenvalues --   -0.02125  -0.01602  -0.01329  -0.00888  -0.00213
  Beta virt. eigenvalues --   -0.00030   0.00133   0.00389   0.00902   0.00937

 Mulliken charges and spin densities:
               1          2
     1  Na  -0.626167   0.242506
     2  Na   0.187988  -0.066949
     3  Na   0.248281   0.061973
     4  Na   0.380584  -0.029884
     5  Na   0.462453   0.085197
     6  Na  -0.780714   0.727470
     7  Na   0.127575  -0.020313
 Sum of Mulliken charges =  -0.00000   1.00000

 Dipole moment (field-independent basis, Debye):
    X=              0.1416    Y=              0.3024    Z=              0.2802  Tot=              0.4359
 Quadrupole moment (field-independent basis, Debye-Ang):
   XX=            -57.5434   YY=            -63.7351   ZZ=            -72.9679
   XY=             -0.0139   XZ=             -0.7936   YZ=             -0.2617

 Normal termination of Gaussian 16 at Wed Dec  6 01:13:46 2023.
