 Gaussian 16, Revision B.01,
 Gaussian 16:  ES64L-G16RevB.01 20-Dec-2017

 -------------------------
 #P B3LYP/6-311+g(d) force
 -------------------------

 -----
 DPGEN
 -----
 Symbolic Z-matrix:
 Charge =  0 Multiplicity = 2

                         Standard orientation:
 ---------------------------------------------------------------------
 Center     Atomic      Atomic             Coordinates (Angstroms)
 Number     Number       Type             X           Y           Z
 ---------------------------------------------------------------------
      1         11           0        0.981548    1.822327   -0.729837
      2         11           0       -2.198738    1.975557    0.280105
      3         11           0       -1.137644   -0.387916   -1.699241
      4         11           0        1.808212   -1.486384   -1.300242
      5         11           0        3.754735    0.056296    0.908926
      6         11           0       -3.225990   -1.425901    0.526520
      7         11           0        0.017877   -0.553979    2.013769
 ---------------------------------------------------------------------

 SCF Done:  E(UB3LYP) =  -1136.12400329     A.U. after   28 cycles

 The electronic state is 2-A.
 Alpha  occ. eigenvalues --  -38.44767 -38.44434 -38.44408 -38.43946 -38.43583
 Alpha  occ. eigenvalues --  -38.43340 -38.42429  -2.20572  -2.20334  -2.20207
 Alpha  occ. eigenvalues --   -2.19833  -2.19420  -2.19345  -2.18356  -1.14250
 Alpha  occ. eigenvalues --   -1.14227  -1.14204  -1.14038  -1.13960  -1.13943
 Alpha  occ. eigenvalues --   -1.13904  -1.13896  -1.13799  -1.13513  -1.13506
 Alpha  occ. eigenvalues --   -1.13436  -1.13140  -1.13072  -1.13053  -1.13044
 Alpha  occ. eigenvalues --   -1.12979  -1.12933  -1.12062  -1.12028  -1.11962
 Alpha  occ. eigenvalues --   -0.18767  -0.14029  -0.11792  -0.10874
 Alpha virt. eigenvalues --   -0.06771  -0.05165  -0.04420  -0.03304  -0.02687
 Alpha virt. eigenvalues --   -0.02451  -0.02280  -0.01029  -0.00784  -0.00085
 Alpha virt. eigenvalues --    0.00170   0.00203   0.00366   0.00688   0.00756

  Beta  occ. eigenvalues --  -38.44754 -38.44386 -38.44372 -38.43912 -38.43578
  Beta  occ. eigenvalues --  -38.43283 -38.42415  -2.20548  -2.20224  -2.20167
  Beta  occ. eigenvalues --   -2.19772  -2.19412  -2.19244  -2.18334  -1.14229
  Beta  occ. eigenvalues --   -1.14212  -1.14185  -1.13954  -1.13890  -1.13882
  Beta  occ. eigenvalues --   -1.13854  -1.13848  -1.13772  -1.13472  -1.13458
  Beta  occ. eigenvalues --   -1.13394  -1.13121  -1.13063  -1.13043  -1.12979
  Beta  occ. eigenvalues --   -1.12890  -1.12869  -1.12052  -1.11980  -1.11950
  Beta  occ. eigenvalues --   -0.18007  -0.13861  -0.10682
  Beta virt. eigenvalues --   -0.07768  -0.06542  -0.04697  -0.04187  -0.02892
  Beta virt. eigenvalues --   -0.02362  -0.01962  -0.01791  -0.00700  -0.00556
  Beta virt. eigenvalues --    0.00046   0.00197   0.00369   0.00396   0.00736

 Mulliken charges and spin densities:
               1          2
     1  Na  -0.492203   0.321047
     2  Na   0.224359   0.127840
     3  Na   0.169251   0.341539
     4  Na   0.000095  -0.011235
     5  Na   0.503626   0.064643
     6  Na   0.187548  -0.089168
     7  Na  -0.592677   0.245335
 Sum of Mulliken charges =  -0.00000   1.00000

 Dipole moment (field-independent basis, Debye):
    X=              0.6308    Y=              0.2024    Z=              0.2709  Tot=              0.7157
 Quadrupole moment (field-independent basis, Debye-Ang):
   XX=            -50.6894   YY=            -72.0356   ZZ=            -72.5626
   XY=             -0.8245   XZ=              0.8154   YZ=              6.7596

 Normal termination of Gaussian 16 at Thu Dec  7 11:21:41 2023.
