 Gaussian 16, Revision B.01,
 Gaussian 16:  ES64L-G16RevB.01 20-Dec-2017

 -------------------------
 #P B3LYP/6-311+g(d) force
 -------------------------

 -----
 DPGEN
 -----
 Symbolic Z-matrix:
 Charge =  0 Multiplicity = 2

                         Standard orientation:
 ---------------------------------------------------------------------
 Center     Atomic      Atomic             Coordinates (Angstroms)
 Number     Number       Type             X           Y           Z
 ---------------------------------------------------------------------
      1         11           0        2.817123   -1.430080   -0.639377
      2         11           0       -0.179815    0.036129   -1.742021
      3         11           0        0.724116    0.432031    1.914463
      4         11           0       -0.341062   -2.453203    0.511997
      5         11           0        2.135196    2.023917    0.071217
      6         11           0       -3.201085   -1.029423    0.082655
      7         11           0       -1.954474    2.420629   -0.198935
 ---------------------------------------------------------------------

 SCF Done:  E(UB3LYP) =  -1136.13132274     A.U. after   20 cycles

 The electronic state is 2-A.
 Alpha  occ. eigenvalues --  -38.44262 -38.43990 -38.43936 -38.43778 -38.43766
 Alpha  occ. eigenvalues --  -38.43497 -38.42852  -2.20077  -2.19837  -2.19828
 Alpha  occ. eigenvalues --   -2.19715  -2.19580  -2.19440  -2.18757  -1.13755
 Alpha  occ. eigenvalues --   -1.13754  -1.13745  -1.13713  -1.13503  -1.13487
 Alpha  occ. eigenvalues --   -1.13479  -1.13465  -1.13419  -1.13349  -1.13291
 Alpha  occ. eigenvalues --   -1.13278  -1.13277  -1.13245  -1.13205  -1.13128
 Alpha  occ. eigenvalues --   -1.13077  -1.13049  -1.12448  -1.12420  -1.12382
 Alpha  occ. eigenvalues --   -0.18686  -0.13271  -0.12214  -0.10921
 Alpha virt. eigenvalues --   -0.05808  -0.05523  -0.04101  -0.03392  -0.02927
 Alpha virt. eigenvalues --   -0.02548  -0.01706  -0.01219  -0.00351  -0.00136
 Alpha virt. eigenvalues --    0.00027   0.00323   0.00749   0.00801   0.00920

  Beta  occ. eigenvalues --  -38.44263 -38.43970 -38.43926 -38.43776 -38.43682
  Beta  occ. eigenvalues --  -38.43431 -38.42837  -2.20082  -2.19819  -2.19794
  Beta  occ. eigenvalues --   -2.19578  -2.19562  -2.19320  -2.18733  -1.13759
  Beta  occ. eigenvalues --   -1.13738  -1.13714  -1.13703  -1.13470  -1.13462
  Beta  occ. eigenvalues --   -1.13443  -1.13441  -1.13409  -1.13264  -1.13246
  Beta  occ. eigenvalues --   -1.13238  -1.13205  -1.13194  -1.13185  -1.13047
  Beta  occ. eigenvalues --   -1.12997  -1.12956  -1.12434  -1.12385  -1.12359
  Beta  occ. eigenvalues --   -0.17978  -0.13037  -0.11939
  Beta virt. eigenvalues --   -0.07043  -0.05707  -0.05458  -0.04076  -0.02671
  Beta virt. eigenvalues --   -0.02183  -0.01620  -0.01507  -0.01149  -0.00385
  Beta virt. eigenvalues --   -0.00072   0.00111   0.00365   0.00797   0.00852

 Mulliken charges and spin densities:
               1          2
     1  Na   0.086612   0.105229
     2  Na  -0.207553   0.576909
     3  Na  -0.171074   0.541835
     4  Na   0.107739   0.062939
     5  Na   0.281345  -0.075140
     6  Na  -0.088180  -0.079562
     7  Na  -0.008888  -0.132210
 Sum of Mulliken charges =  -0.00000   1.00000

 Dipole moment (field-independent basis, Debye):
    X=             -0.1097    Y=              0.1554    Z=             -0.1156  Tot=              0.2226
 Quadrupole moment (field-independent basis, Debye-Ang):
   XX=            -53.9286   YY=            -66.5974   ZZ=            -73.3609
   XY=             -0.7459   XZ=             -2.1613   YZ=             -0.3153

 Normal termination of Gaussian 16 at Thu Dec  7 09:21:42 2023.
