 Gaussian 16, Revision B.01,
 Gaussian 16:  ES64L-G16RevB.01 20-Dec-2017

 -------------------------
 #P B3LYP/6-311+g(d) force
 -------------------------

 -----
 DPGEN
 -----
 Symbolic Z-matrix:
 Charge =  0 Multiplicity = 2

                         Standard orientation:
 ---------------------------------------------------------------------
 Center     Atomic      Atomic             Coordinates (Angstroms)
 Number     Number       Type             X           Y           Z
 ---------------------------------------------------------------------
      1         11           0        0.184438   -2.128092   -0.437550
      2         11           0       -0.303818   -0.158276    1.954878
      3         11           0       -2.241450   -0.948501   -0.057067
      4         11           0        2.361988   -0.699189    0.275719
      5         11           0        0.211139    0.405103   -1.889189
      6         11           0       -1.546325    1.709299   -0.031235
      7         11           0        1.334027    1.819656    0.184443
 ---------------------------------------------------------------------

 SCF Done:  E(UB3LYP) =  -1136.07996004     A.U. after   20 cycles

 The electronic state is 2-A.
 Alpha  occ. eigenvalues --  -38.44529 -38.44396 -38.43910 -38.43844 -38.43584
 Alpha  occ. eigenvalues --  -38.43575 -38.43483  -2.20730  -2.20551  -2.20026
 Alpha  occ. eigenvalues --   -2.19979  -2.19746  -2.19728  -2.19631  -1.14541
 Alpha  occ. eigenvalues --   -1.14417  -1.14359  -1.14316  -1.14220  -1.14177
 Alpha  occ. eigenvalues --   -1.13988  -1.13885  -1.13813  -1.13774  -1.13605
 Alpha  occ. eigenvalues --   -1.13562  -1.13502  -1.13352  -1.13335  -1.13277
 Alpha  occ. eigenvalues --   -1.13270  -1.13252  -1.13211  -1.13206  -1.13096
 Alpha  occ. eigenvalues --   -0.21762  -0.13668  -0.13011  -0.12769
 Alpha virt. eigenvalues --   -0.04976  -0.04178  -0.04044  -0.03872  -0.03483
 Alpha virt. eigenvalues --   -0.03332  -0.00753  -0.00428  -0.00219   0.00348
 Alpha virt. eigenvalues --    0.00937   0.00945   0.01104   0.01192   0.01262

  Beta  occ. eigenvalues --  -38.44435 -38.44300 -38.43898 -38.43832 -38.43568
  Beta  occ. eigenvalues --  -38.43555 -38.43469  -2.20560  -2.20377  -2.20010
  Beta  occ. eigenvalues --   -2.19964  -2.19725  -2.19699  -2.19612  -1.14442
  Beta  occ. eigenvalues --   -1.14294  -1.14242  -1.14211  -1.14096  -1.14055
  Beta  occ. eigenvalues --   -1.13980  -1.13874  -1.13801  -1.13757  -1.13546
  Beta  occ. eigenvalues --   -1.13500  -1.13490  -1.13289  -1.13288  -1.13255
  Beta  occ. eigenvalues --   -1.13232  -1.13207  -1.13199  -1.13171  -1.13090
  Beta  occ. eigenvalues --   -0.20867  -0.13295  -0.12635
  Beta virt. eigenvalues --   -0.08549  -0.04978  -0.04170  -0.03991  -0.02925
  Beta virt. eigenvalues --   -0.02583  -0.02212  -0.00684  -0.00390  -0.00036
  Beta virt. eigenvalues --    0.00370   0.00922   0.00927   0.01161   0.01202

 Mulliken charges and spin densities:
               1          2
     1  Na   0.093370   0.078728
     2  Na  -0.229946   0.440501
     3  Na   0.168399   0.037398
     4  Na   0.000788   0.007696
     5  Na  -0.082903   0.411661
     6  Na   0.021394  -0.007426
     7  Na   0.028897   0.031442
 Sum of Mulliken charges =  -0.00000   1.00000

 Dipole moment (field-independent basis, Debye):
    X=              0.0120    Y=             -0.0181    Z=              0.1544  Tot=              0.1559
 Quadrupole moment (field-independent basis, Debye-Ang):
   XX=            -64.3088   YY=            -70.0577   ZZ=            -65.2735
   XY=             -0.0938   XZ=              0.8880   YZ=              0.7177

 Normal termination of Gaussian 16 at Sat Dec  9 05:54:55 2023.
