 Gaussian 16, Revision B.01,
 Gaussian 16:  ES64L-G16RevB.01 20-Dec-2017

 -------------------------
 #P B3LYP/6-311+g(d) force
 -------------------------

 -----
 DPGEN
 -----
 Symbolic Z-matrix:
 Charge =  0 Multiplicity = 2

                         Standard orientation:
 ---------------------------------------------------------------------
 Center     Atomic      Atomic             Coordinates (Angstroms)
 Number     Number       Type             X           Y           Z
 ---------------------------------------------------------------------
      1         11           0       -1.183170   -1.556804    0.218536
      2         11           0       -4.924417   -0.629174   -0.075095
      3         11           0        1.768359   -1.225689   -1.560730
      4         11           0        3.063384   -1.294969    1.377680
      5         11           0       -1.693766    1.770654   -0.417422
      6         11           0        2.513210    1.387227   -1.209287
      7         11           0        0.456399    1.548755    1.666319
 ---------------------------------------------------------------------

 SCF Done:  E(UB3LYP) =  -1136.10781503     A.U. after   26 cycles

 The electronic state is 2-A.
 Alpha  occ. eigenvalues --  -38.45508 -38.44892 -38.44665 -38.44523 -38.43848
 Alpha  occ. eigenvalues --  -38.43688 -38.42691  -2.21235  -2.20685  -2.20586
 Alpha  occ. eigenvalues --   -2.20359  -2.19805  -2.19547  -2.18589  -1.14912
 Alpha  occ. eigenvalues --   -1.14905  -1.14850  -1.14436  -1.14409  -1.14363
 Alpha  occ. eigenvalues --   -1.14279  -1.14205  -1.14157  -1.14011  -1.14006
 Alpha  occ. eigenvalues --   -1.13997  -1.13464  -1.13435  -1.13399  -1.13280
 Alpha  occ. eigenvalues --   -1.13228  -1.13138  -1.12271  -1.12228  -1.12218
 Alpha  occ. eigenvalues --   -0.18236  -0.13838  -0.11192  -0.11117
 Alpha virt. eigenvalues --   -0.07724  -0.05170  -0.03739  -0.03580  -0.03078
 Alpha virt. eigenvalues --   -0.02499  -0.02487  -0.01546  -0.00775  -0.00407
 Alpha virt. eigenvalues --   -0.00166   0.00129   0.00194   0.00610   0.00728

  Beta  occ. eigenvalues --  -38.45504 -38.44889 -38.44599 -38.44467 -38.43810
  Beta  occ. eigenvalues --  -38.43688 -38.42661  -2.21225  -2.20681  -2.20467
  Beta  occ. eigenvalues --   -2.20255  -2.19741  -2.19547  -2.18535  -1.14905
  Beta  occ. eigenvalues --   -1.14899  -1.14844  -1.14403  -1.14356  -1.14345
  Beta  occ. eigenvalues --   -1.14274  -1.14112  -1.14073  -1.13946  -1.13936
  Beta  occ. eigenvalues --   -1.13912  -1.13412  -1.13396  -1.13324  -1.13275
  Beta  occ. eigenvalues --   -1.13224  -1.13139  -1.12235  -1.12196  -1.12164
  Beta  occ. eigenvalues --   -0.17579  -0.13568  -0.11127
  Beta virt. eigenvalues --   -0.07587  -0.07038  -0.05010  -0.03487  -0.03207
  Beta virt. eigenvalues --   -0.02978  -0.02052  -0.01497  -0.01312  -0.00543
  Beta virt. eigenvalues --   -0.00305  -0.00111   0.00185   0.00346   0.00717

 Mulliken charges and spin densities:
               1          2
     1  Na  -0.569900  -0.005270
     2  Na   0.283696   0.014242
     3  Na   0.668100   0.364651
     4  Na  -0.206273   0.247912
     5  Na  -0.113956  -0.043541
     6  Na  -0.106358   0.106845
     7  Na   0.044692   0.315161
 Sum of Mulliken charges =  -0.00000   1.00000

 Dipole moment (field-independent basis, Debye):
    X=             -0.8760    Y=              0.1636    Z=              0.3184  Tot=              0.9463
 Quadrupole moment (field-independent basis, Debye-Ang):
   XX=            -48.2897   YY=            -74.7792   ZZ=            -71.5600
   XY=              0.4477   XZ=              3.3764   YZ=             -2.8548

 Normal termination of Gaussian 16 at Tue Dec  5 23:07:43 2023.
