 Gaussian 16, Revision B.01,
 Gaussian 16:  ES64L-G16RevB.01 20-Dec-2017

 -------------------------
 #P B3LYP/6-311+g(d) force
 -------------------------

 -----
 DPGEN
 -----
 Symbolic Z-matrix:
 Charge =  0 Multiplicity = 2

                         Standard orientation:
 ---------------------------------------------------------------------
 Center     Atomic      Atomic             Coordinates (Angstroms)
 Number     Number       Type             X           Y           Z
 ---------------------------------------------------------------------
      1         11           0       -0.362633    3.254791   -0.364353
      2         11           0       -1.799117   -3.023590   -0.752212
      3         11           0       -3.863890    1.578175    0.253108
      4         11           0        2.569879    1.675274   -0.784707
      5         11           0       -2.053572   -0.958397    1.191357
      6         11           0        1.270554   -2.113464   -0.680330
      7         11           0        4.238779   -0.412789    1.137137
 ---------------------------------------------------------------------

 SCF Done:  E(UB3LYP) =  -1136.11734614     A.U. after   20 cycles

 The electronic state is 2-A.
 Alpha  occ. eigenvalues --  -38.44742 -38.44642 -38.44220 -38.43967 -38.43925
 Alpha  occ. eigenvalues --  -38.43809 -38.43759  -2.20546  -2.20527  -2.20112
 Alpha  occ. eigenvalues --   -2.19789  -2.19756  -2.19600  -2.19560  -1.14330
 Alpha  occ. eigenvalues --   -1.14244  -1.14233  -1.14175  -1.14167  -1.14156
 Alpha  occ. eigenvalues --   -1.13753  -1.13736  -1.13719  -1.13483  -1.13444
 Alpha  occ. eigenvalues --   -1.13431  -1.13429  -1.13417  -1.13353  -1.13268
 Alpha  occ. eigenvalues --   -1.13257  -1.13225  -1.13218  -1.13210  -1.13180
 Alpha  occ. eigenvalues --   -0.16658  -0.14113  -0.12953  -0.10515
 Alpha virt. eigenvalues --   -0.06249  -0.05279  -0.05023  -0.03447  -0.02774
 Alpha virt. eigenvalues --   -0.02246  -0.01890  -0.01687  -0.01067  -0.00731
 Alpha virt. eigenvalues --   -0.00219   0.00070   0.00280   0.00447   0.00648

  Beta  occ. eigenvalues --  -38.44730 -38.44629 -38.44210 -38.43901 -38.43897
  Beta  occ. eigenvalues --  -38.43755 -38.43724  -2.20527  -2.20505  -2.20097
  Beta  occ. eigenvalues --   -2.19720  -2.19657  -2.19505  -2.19496  -1.14320
  Beta  occ. eigenvalues --   -1.14229  -1.14223  -1.14163  -1.14138  -1.14121
  Beta  occ. eigenvalues --   -1.13741  -1.13725  -1.13700  -1.13433  -1.13414
  Beta  occ. eigenvalues --   -1.13382  -1.13342  -1.13328  -1.13277  -1.13207
  Beta  occ. eigenvalues --   -1.13193  -1.13176  -1.13173  -1.13147  -1.13123
  Beta  occ. eigenvalues --   -0.16304  -0.13443  -0.12308
  Beta virt. eigenvalues --   -0.07143  -0.06218  -0.05107  -0.04614  -0.03180
  Beta virt. eigenvalues --   -0.02354  -0.02000  -0.01730  -0.01286  -0.00818
  Beta virt. eigenvalues --   -0.00561   0.00029   0.00296   0.00426   0.00578

 Mulliken charges and spin densities:
               1          2
     1  Na  -0.155996   0.200500
     2  Na   0.325932  -0.000853
     3  Na   0.008063   0.187244
     4  Na   0.042159   0.045414
     5  Na  -0.014461   0.094932
     6  Na  -0.499649   0.103291
     7  Na   0.293952   0.369473
 Sum of Mulliken charges =  -0.00000   1.00000

 Dipole moment (field-independent basis, Debye):
    X=             -0.2747    Y=             -1.0537    Z=             -0.1612  Tot=              1.1008
 Quadrupole moment (field-independent basis, Debye-Ang):
   XX=            -64.6254   YY=            -67.6339   ZZ=            -68.3205
   XY=              1.1878   XZ=              3.2661   YZ=              0.9018

 Normal termination of Gaussian 16 at Sun Dec  3 12:37:25 2023.
