 Gaussian 16, Revision B.01,
 Gaussian 16:  ES64L-G16RevB.01 20-Dec-2017

 -------------------------
 #P B3LYP/6-311+g(d) force
 -------------------------

 -----
 DPGEN
 -----
 Symbolic Z-matrix:
 Charge =  0 Multiplicity = 2

                         Standard orientation:
 ---------------------------------------------------------------------
 Center     Atomic      Atomic             Coordinates (Angstroms)
 Number     Number       Type             X           Y           Z
 ---------------------------------------------------------------------
      1         11           0        0.349797   -0.159435   -1.628864
      2         11           0       -0.039060    0.328423    1.664433
      3         11           0       -0.310220   -2.717818    0.417579
      4         11           0        1.943294    2.309619   -0.232783
      5         11           0        3.062547   -1.113502    0.063432
      6         11           0       -2.963553   -0.989077   -0.480786
      7         11           0       -2.042805    2.341790    0.196988
 ---------------------------------------------------------------------

 SCF Done:  E(UB3LYP) =  -1136.13664593     A.U. after   20 cycles

 The electronic state is 2-A.
 Alpha  occ. eigenvalues --  -38.44284 -38.43869 -38.43821 -38.43700 -38.43117
 Alpha  occ. eigenvalues --  -38.43089 -38.42914  -2.20108  -2.19716  -2.19673
 Alpha  occ. eigenvalues --   -2.19532  -2.19103  -2.18982  -2.18906  -1.13791
 Alpha  occ. eigenvalues --   -1.13764  -1.13746  -1.13382  -1.13381  -1.13371
 Alpha  occ. eigenvalues --   -1.13362  -1.13347  -1.13284  -1.13233  -1.13183
 Alpha  occ. eigenvalues --   -1.13160  -1.12820  -1.12751  -1.12714  -1.12685
 Alpha  occ. eigenvalues --   -1.12633  -1.12604  -1.12582  -1.12519  -1.12517
 Alpha  occ. eigenvalues --   -0.18832  -0.13234  -0.12429  -0.10392
 Alpha virt. eigenvalues --   -0.05772  -0.05436  -0.04479  -0.03136  -0.02741
 Alpha virt. eigenvalues --   -0.02082  -0.01742  -0.01252  -0.00457  -0.00242
 Alpha virt. eigenvalues --    0.00037   0.00339   0.00781   0.00829   0.00897

  Beta  occ. eigenvalues --  -38.44281 -38.43857 -38.43812 -38.43695 -38.43076
  Beta  occ. eigenvalues --  -38.43052 -38.42837  -2.20106  -2.19695  -2.19661
  Beta  occ. eigenvalues --   -2.19526  -2.18985  -2.18963  -2.18766  -1.13782
  Beta  occ. eigenvalues --   -1.13761  -1.13735  -1.13371  -1.13360  -1.13359
  Beta  occ. eigenvalues --   -1.13341  -1.13320  -1.13276  -1.13219  -1.13168
  Beta  occ. eigenvalues --   -1.13159  -1.12744  -1.12685  -1.12645  -1.12625
  Beta  occ. eigenvalues --   -1.12596  -1.12584  -1.12488  -1.12426  -1.12414
  Beta  occ. eigenvalues --   -0.18134  -0.12971  -0.12162
  Beta virt. eigenvalues --   -0.06547  -0.05745  -0.05380  -0.04449  -0.02384
  Beta virt. eigenvalues --   -0.01992  -0.01650  -0.01195  -0.01083  -0.00481
  Beta virt. eigenvalues --   -0.00261   0.00157   0.00372   0.00824   0.00840

 Mulliken charges and spin densities:
               1          2
     1  Na  -0.209688   0.578434
     2  Na  -0.144292   0.589552
     3  Na   0.111119   0.037261
     4  Na   0.021114  -0.126529
     5  Na   0.124454  -0.072129
     6  Na   0.021650   0.068119
     7  Na   0.075642  -0.074709
 Sum of Mulliken charges =  -0.00000   1.00000

 Dipole moment (field-independent basis, Debye):
    X=              0.3200    Y=              0.1319    Z=             -0.0447  Tot=              0.3490
 Quadrupole moment (field-independent basis, Debye-Ang):
   XX=            -53.1758   YY=            -62.2269   ZZ=            -76.0967
   XY=             -0.5970   XZ=              1.2560   YZ=             -1.0202

 Normal termination of Gaussian 16 at Thu Dec  7 12:30:19 2023.
