 Gaussian 16, Revision B.01,
 Gaussian 16:  ES64L-G16RevB.01 20-Dec-2017

 -------------------------
 #P B3LYP/6-311+g(d) force
 -------------------------

 -----
 DPGEN
 -----
 Symbolic Z-matrix:
 Charge =  0 Multiplicity = 2

                         Standard orientation:
 ---------------------------------------------------------------------
 Center     Atomic      Atomic             Coordinates (Angstroms)
 Number     Number       Type             X           Y           Z
 ---------------------------------------------------------------------
      1         11           0       -0.706591   -2.240841    1.890809
      2         11           0       -3.080209   -0.451436    0.330603
      3         11           0        0.556903    1.215408    0.352322
      4         11           0       -0.612814   -1.634476   -1.723784
      5         11           0        2.737191   -1.429562   -0.992148
      6         11           0       -2.627419    2.781339   -0.516743
      7         11           0        3.732938    1.759568    0.658941
 ---------------------------------------------------------------------

 SCF Done:  E(UB3LYP) =  -1136.12617192     A.U. after   21 cycles

 The electronic state is 2-A.
 Alpha  occ. eigenvalues --  -38.44524 -38.44227 -38.44127 -38.43863 -38.43823
 Alpha  occ. eigenvalues --  -38.43794 -38.43402  -2.20331  -2.20091  -2.19934
 Alpha  occ. eigenvalues --   -2.19698  -2.19683  -2.19648  -2.19198  -1.14014
 Alpha  occ. eigenvalues --   -1.13996  -1.13946  -1.13791  -1.13766  -1.13711
 Alpha  occ. eigenvalues --   -1.13615  -1.13586  -1.13559  -1.13374  -1.13363
 Alpha  occ. eigenvalues --   -1.13353  -1.13340  -1.13329  -1.13325  -1.13319
 Alpha  occ. eigenvalues --   -1.13287  -1.13247  -1.12864  -1.12856  -1.12839
 Alpha  occ. eigenvalues --   -0.17642  -0.13642  -0.12031  -0.10743
 Alpha virt. eigenvalues --   -0.06261  -0.05913  -0.04321  -0.03323  -0.02810
 Alpha virt. eigenvalues --   -0.02200  -0.02102  -0.01541  -0.00886  -0.00377
 Alpha virt. eigenvalues --   -0.00234   0.00120   0.00307   0.00602   0.00728

  Beta  occ. eigenvalues --  -38.44492 -38.44216 -38.44102 -38.43791 -38.43786
  Beta  occ. eigenvalues --  -38.43780 -38.43398  -2.20276  -2.20074  -2.19888
  Beta  occ. eigenvalues --   -2.19636  -2.19605  -2.19565  -2.19190  -1.13968
  Beta  occ. eigenvalues --   -1.13964  -1.13893  -1.13776  -1.13753  -1.13681
  Beta  occ. eigenvalues --   -1.13581  -1.13553  -1.13532  -1.13337  -1.13332
  Beta  occ. eigenvalues --   -1.13300  -1.13267  -1.13264  -1.13254  -1.13242
  Beta  occ. eigenvalues --   -1.13239  -1.13211  -1.12859  -1.12850  -1.12833
  Beta  occ. eigenvalues --   -0.17104  -0.13319  -0.11641
  Beta virt. eigenvalues --   -0.07139  -0.06094  -0.05635  -0.04096  -0.02813
  Beta virt. eigenvalues --   -0.02346  -0.02113  -0.01533  -0.01306  -0.00710
  Beta virt. eigenvalues --   -0.00257   0.00007   0.00238   0.00430   0.00622

 Mulliken charges and spin densities:
               1          2
     1  Na  -0.245081   0.251171
     2  Na   0.945644   0.279888
     3  Na  -1.917401   0.159813
     4  Na   0.285603   0.296710
     5  Na   0.011894   0.049867
     6  Na   0.504083  -0.029725
     7  Na   0.415258  -0.007724
 Sum of Mulliken charges =  -0.00000   1.00000

 Dipole moment (field-independent basis, Debye):
    X=              0.6736    Y=             -0.4556    Z=             -0.0791  Tot=              0.8170
 Quadrupole moment (field-independent basis, Debye-Ang):
   XX=            -54.3749   YY=            -68.7302   ZZ=            -71.6584
   XY=             -0.3148   XZ=              1.9732   YZ=             -0.3529

 Normal termination of Gaussian 16 at Tue Dec  5 11:38:25 2023.
