 Gaussian 16, Revision B.01,
 Gaussian 16:  ES64L-G16RevB.01 20-Dec-2017

 -------------------------
 #P B3LYP/6-311+g(d) force
 -------------------------

 -----
 DPGEN
 -----
 Symbolic Z-matrix:
 Charge =  0 Multiplicity = 2

                         Standard orientation:
 ---------------------------------------------------------------------
 Center     Atomic      Atomic             Coordinates (Angstroms)
 Number     Number       Type             X           Y           Z
 ---------------------------------------------------------------------
      1         11           0        2.647951   -1.639295    1.204428
      2         11           0        0.492597   -2.010298   -1.776418
      3         11           0        2.097814    1.065529   -1.599548
      4         11           0       -1.190206    2.292212   -0.979128
      5         11           0        0.548874    2.319912    1.698616
      6         11           0       -1.255138   -1.067177    1.819216
      7         11           0       -3.341893   -0.960883   -0.367165
 ---------------------------------------------------------------------

 SCF Done:  E(UB3LYP) =  -1136.12643857     A.U. after   19 cycles

 The electronic state is 2-A.
 Alpha  occ. eigenvalues --  -38.44353 -38.44325 -38.44118 -38.43994 -38.43950
 Alpha  occ. eigenvalues --  -38.43723 -38.43528  -2.20143  -2.20093  -2.19932
 Alpha  occ. eigenvalues --   -2.19817  -2.19791  -2.19548  -2.19348  -1.13830
 Alpha  occ. eigenvalues --   -1.13795  -1.13766  -1.13756  -1.13754  -1.13717
 Alpha  occ. eigenvalues --   -1.13627  -1.13587  -1.13539  -1.13503  -1.13501
 Alpha  occ. eigenvalues --   -1.13467  -1.13450  -1.13442  -1.13426  -1.13220
 Alpha  occ. eigenvalues --   -1.13210  -1.13164  -1.13018  -1.12988  -1.12982
 Alpha  occ. eigenvalues --   -0.17497  -0.12498  -0.12094  -0.11683
 Alpha virt. eigenvalues --   -0.05540  -0.05231  -0.04694  -0.03644  -0.03565
 Alpha virt. eigenvalues --   -0.03167  -0.01217  -0.00814  -0.00634  -0.00225
 Alpha virt. eigenvalues --    0.00157   0.00334   0.00482   0.00496   0.00752

  Beta  occ. eigenvalues --  -38.44319 -38.44299 -38.44087 -38.43958 -38.43918
  Beta  occ. eigenvalues --  -38.43712 -38.43524  -2.20080  -2.20045  -2.19878
  Beta  occ. eigenvalues --   -2.19750  -2.19732  -2.19528  -2.19340  -1.13781
  Beta  occ. eigenvalues --   -1.13749  -1.13726  -1.13721  -1.13712  -1.13683
  Beta  occ. eigenvalues --   -1.13578  -1.13548  -1.13505  -1.13462  -1.13452
  Beta  occ. eigenvalues --   -1.13415  -1.13407  -1.13397  -1.13385  -1.13200
  Beta  occ. eigenvalues --   -1.13189  -1.13152  -1.13009  -1.12980  -1.12976
  Beta  occ. eigenvalues --   -0.16745  -0.12351  -0.11957
  Beta virt. eigenvalues --   -0.07936  -0.05177  -0.04995  -0.04117  -0.03367
  Beta virt. eigenvalues --   -0.03266  -0.02321  -0.01099  -0.00762  -0.00303
  Beta virt. eigenvalues --   -0.00060   0.00244   0.00394   0.00529   0.00628

 Mulliken charges and spin densities:
               1          2
     1  Na   0.116322   0.099936
     2  Na  -0.181516   0.338923
     3  Na   0.101796   0.032962
     4  Na  -0.078074   0.147595
     5  Na   0.057143   0.313862
     6  Na  -0.308338   0.028211
     7  Na   0.292667   0.038512
 Sum of Mulliken charges =  -0.00000   1.00000

 Dipole moment (field-independent basis, Debye):
    X=              0.4358    Y=             -0.0136    Z=             -0.1617  Tot=              0.4650
 Quadrupole moment (field-independent basis, Debye-Ang):
   XX=            -63.5679   YY=            -70.9565   ZZ=            -63.4561
   XY=             -0.2310   XZ=              4.5930   YZ=              0.3782

 Normal termination of Gaussian 16 at Sun Dec  3 17:16:53 2023.
