 Gaussian 16, Revision B.01,
 Gaussian 16:  ES64L-G16RevB.01 20-Dec-2017

 -------------------------
 #P B3LYP/6-311+g(d) force
 -------------------------

 -----
 DPGEN
 -----
 Symbolic Z-matrix:
 Charge =  0 Multiplicity = 2

                         Standard orientation:
 ---------------------------------------------------------------------
 Center     Atomic      Atomic             Coordinates (Angstroms)
 Number     Number       Type             X           Y           Z
 ---------------------------------------------------------------------
      1         11           0       -0.079096   -0.094334   -1.742159
      2         11           0       -2.706093    1.974706   -0.030086
      3         11           0        1.076219    2.882777   -0.214067
      4         11           0        3.475375   -0.185145    0.177724
      5         11           0        0.089547    0.232410    1.769258
      6         11           0        0.672794   -2.907320   -0.207856
      7         11           0       -2.528747   -1.903094    0.247187
 ---------------------------------------------------------------------

 SCF Done:  E(UB3LYP) =  -1136.13624340     A.U. after   19 cycles

 The electronic state is 2-A.
 Alpha  occ. eigenvalues --  -38.44341 -38.44142 -38.44011 -38.43866 -38.43535
 Alpha  occ. eigenvalues --  -38.43291 -38.43136  -2.20104  -2.19919  -2.19819
 Alpha  occ. eigenvalues --   -2.19686  -2.19381  -2.19188  -2.19058  -1.13780
 Alpha  occ. eigenvalues --   -1.13757  -1.13747  -1.13597  -1.13575  -1.13563
 Alpha  occ. eigenvalues --   -1.13502  -1.13498  -1.13435  -1.13359  -1.13353
 Alpha  occ. eigenvalues --   -1.13329  -1.13081  -1.13043  -1.13004  -1.12886
 Alpha  occ. eigenvalues --   -1.12823  -1.12796  -1.12742  -1.12682  -1.12675
 Alpha  occ. eigenvalues --   -0.18175  -0.12727  -0.12476  -0.10203
 Alpha virt. eigenvalues --   -0.05906  -0.05404  -0.05024  -0.02948  -0.02778
 Alpha virt. eigenvalues --   -0.02175  -0.01784  -0.01402  -0.00729  -0.00615
 Alpha virt. eigenvalues --   -0.00007   0.00330   0.00753   0.00774   0.00831

  Beta  occ. eigenvalues --  -38.44340 -38.44141 -38.44004 -38.43860 -38.43528
  Beta  occ. eigenvalues --  -38.43218 -38.43059  -2.20103  -2.19920  -2.19809
  Beta  occ. eigenvalues --   -2.19679  -2.19371  -2.19055  -2.18917  -1.13766
  Beta  occ. eigenvalues --   -1.13757  -1.13748  -1.13585  -1.13575  -1.13562
  Beta  occ. eigenvalues --   -1.13494  -1.13471  -1.13431  -1.13352  -1.13336
  Beta  occ. eigenvalues --   -1.13320  -1.13066  -1.13017  -1.13001  -1.12794
  Beta  occ. eigenvalues --   -1.12729  -1.12697  -1.12644  -1.12578  -1.12576
  Beta  occ. eigenvalues --   -0.17467  -0.12495  -0.12264
  Beta virt. eigenvalues --   -0.06386  -0.05889  -0.05366  -0.04963  -0.02192
  Beta virt. eigenvalues --   -0.02081  -0.01690  -0.01320  -0.01171  -0.00778
  Beta virt. eigenvalues --   -0.00653   0.00131   0.00358   0.00767   0.00803

 Mulliken charges and spin densities:
               1          2
     1  Na  -0.021837   0.672747
     2  Na   0.003071  -0.119194
     3  Na   0.022930  -0.142687
     4  Na  -0.002022  -0.095440
     5  Na  -0.188943   0.799311
     6  Na   0.143342  -0.062304
     7  Na   0.043459  -0.052434
 Sum of Mulliken charges =  -0.00000   1.00000

 Dipole moment (field-independent basis, Debye):
    X=              0.0540    Y=              0.2106    Z=              0.0216  Tot=              0.2185
 Quadrupole moment (field-independent basis, Debye-Ang):
   XX=            -54.3012   YY=            -59.6215   ZZ=            -77.3401
   XY=             -0.2907   XZ=             -0.3925   YZ=             -0.8075

 Normal termination of Gaussian 16 at Tue Dec  5 22:50:11 2023.
