 Gaussian 16, Revision B.01,
 Gaussian 16:  ES64L-G16RevB.01 20-Dec-2017

 -------------------------
 #P B3LYP/6-311+g(d) force
 -------------------------

 -----
 DPGEN
 -----
 Symbolic Z-matrix:
 Charge =  0 Multiplicity = 2

                         Standard orientation:
 ---------------------------------------------------------------------
 Center     Atomic      Atomic             Coordinates (Angstroms)
 Number     Number       Type             X           Y           Z
 ---------------------------------------------------------------------
      1         11           0       -0.864982   -1.532579   -1.448904
      2         11           0        4.425399    0.162880   -0.932689
      3         11           0       -1.654756   -0.630546    2.089531
      4         11           0       -4.108650   -0.285654   -0.671940
      5         11           0        2.233645   -1.797643    0.740243
      6         11           0       -1.620395    2.099596   -0.486580
      7         11           0        1.589739    1.983946    0.710338
 ---------------------------------------------------------------------

 SCF Done:  E(UB3LYP) =  -1136.11670163     A.U. after   32 cycles

 The electronic state is 2-A.
 Alpha  occ. eigenvalues --  -38.45267 -38.44946 -38.44867 -38.44759 -38.43819
 Alpha  occ. eigenvalues --  -38.42998 -38.42966  -2.21068  -2.20728  -2.20659
 Alpha  occ. eigenvalues --   -2.20590  -2.19615  -2.18835  -2.18761  -1.14726
 Alpha  occ. eigenvalues --   -1.14709  -1.14693  -1.14419  -1.14392  -1.14353
 Alpha  occ. eigenvalues --   -1.14317  -1.14301  -1.14283  -1.14255  -1.14234
 Alpha  occ. eigenvalues --   -1.14207  -1.13297  -1.13292  -1.13250  -1.12542
 Alpha  occ. eigenvalues --   -1.12505  -1.12477  -1.12445  -1.12441  -1.12371
 Alpha  occ. eigenvalues --   -0.17484  -0.14219  -0.10950  -0.10757
 Alpha virt. eigenvalues --   -0.07385  -0.05351  -0.04943  -0.03078  -0.02968
 Alpha virt. eigenvalues --   -0.02412  -0.02281  -0.01586  -0.01276  -0.00356
 Alpha virt. eigenvalues --   -0.00182   0.00099   0.00210   0.00532   0.00654

  Beta  occ. eigenvalues --  -38.45199 -38.44934 -38.44817 -38.44713 -38.43815
  Beta  occ. eigenvalues --  -38.42995 -38.42969  -2.20943  -2.20708  -2.20564
  Beta  occ. eigenvalues --   -2.20505  -2.19611  -2.18832  -2.18768  -1.14635
  Beta  occ. eigenvalues --   -1.14622  -1.14602  -1.14410  -1.14370  -1.14326
  Beta  occ. eigenvalues --   -1.14252  -1.14237  -1.14222  -1.14189  -1.14173
  Beta  occ. eigenvalues --   -1.14154  -1.13299  -1.13286  -1.13222  -1.12543
  Beta  occ. eigenvalues --   -1.12496  -1.12478  -1.12441  -1.12438  -1.12368
  Beta  occ. eigenvalues --   -0.16881  -0.13736  -0.10678
  Beta virt. eigenvalues --   -0.07419  -0.07042  -0.05123  -0.04434  -0.02995
  Beta virt. eigenvalues --   -0.02682  -0.01855  -0.01789  -0.01101  -0.01032
  Beta virt. eigenvalues --   -0.00267  -0.00081   0.00133   0.00310   0.00657

 Mulliken charges and spin densities:
               1          2
     1  Na  -0.225672   0.019878
     2  Na   0.200639   0.243716
     3  Na  -0.148180   0.373321
     4  Na   0.696552   0.220279
     5  Na   0.084667   0.104461
     6  Na  -0.257092   0.043692
     7  Na  -0.350914  -0.005347
 Sum of Mulliken charges =  -0.00000   1.00000

 Dipole moment (field-independent basis, Debye):
    X=             -0.5722    Y=             -0.6867    Z=              0.0473  Tot=              0.8951
 Quadrupole moment (field-independent basis, Debye-Ang):
   XX=            -50.1289   YY=            -81.6343   ZZ=            -64.8618
   XY=              1.2004   XZ=             -4.9640   YZ=             -2.6168

 Normal termination of Gaussian 16 at Thu Dec  7 08:23:42 2023.
