 Gaussian 16, Revision B.01,
 Gaussian 16:  ES64L-G16RevB.01 20-Dec-2017

 -------------------------
 #P B3LYP/6-311+g(d) force
 -------------------------

 -----
 DPGEN
 -----
 Symbolic Z-matrix:
 Charge =  0 Multiplicity = 2

                         Standard orientation:
 ---------------------------------------------------------------------
 Center     Atomic      Atomic             Coordinates (Angstroms)
 Number     Number       Type             X           Y           Z
 ---------------------------------------------------------------------
      1         11           0        0.313758    0.172797    2.045234
      2         11           0        3.757637   -0.573222    0.400865
      3         11           0        1.106176    2.881549   -0.878263
      4         11           0       -2.751832   -1.191993    0.004379
      5         11           0        0.054475   -0.207536   -1.669914
      6         11           0       -0.108468   -3.058344   -0.371921
      7         11           0       -2.371745    1.976750    0.469621
 ---------------------------------------------------------------------

 SCF Done:  E(UB3LYP) =  -1136.12802363     A.U. after   21 cycles

 The electronic state is 2-A.
 Alpha  occ. eigenvalues --  -38.44794 -38.44331 -38.44011 -38.43618 -38.43536
 Alpha  occ. eigenvalues --  -38.43516 -38.43473  -2.20519  -2.20156  -2.19809
 Alpha  occ. eigenvalues --   -2.19505  -2.19452  -2.19390  -2.19311  -1.14192
 Alpha  occ. eigenvalues --   -1.14179  -1.14150  -1.13833  -1.13803  -1.13761
 Alpha  occ. eigenvalues --   -1.13499  -1.13450  -1.13431  -1.13226  -1.13202
 Alpha  occ. eigenvalues --   -1.13167  -1.13157  -1.13118  -1.13069  -1.13037
 Alpha  occ. eigenvalues --   -1.13007  -1.13002  -1.12977  -1.12968  -1.12939
 Alpha  occ. eigenvalues --   -0.18077  -0.12666  -0.12325  -0.10931
 Alpha virt. eigenvalues --   -0.06246  -0.05084  -0.04621  -0.03213  -0.02943
 Alpha virt. eigenvalues --   -0.02646  -0.01921  -0.01292  -0.00503  -0.00403
 Alpha virt. eigenvalues --   -0.00081   0.00280   0.00638   0.00709   0.00818

  Beta  occ. eigenvalues --  -38.44784 -38.44257 -38.43974 -38.43615 -38.43530
  Beta  occ. eigenvalues --  -38.43467 -38.43454  -2.20502  -2.20019  -2.19743
  Beta  occ. eigenvalues --   -2.19502  -2.19383  -2.19340  -2.19302  -1.14173
  Beta  occ. eigenvalues --   -1.14167  -1.14140  -1.13741  -1.13712  -1.13655
  Beta  occ. eigenvalues --   -1.13441  -1.13404  -1.13389  -1.13212  -1.13200
  Beta  occ. eigenvalues --   -1.13143  -1.13120  -1.13048  -1.13026  -1.13004
  Beta  occ. eigenvalues --   -1.12992  -1.12969  -1.12960  -1.12948  -1.12922
  Beta  occ. eigenvalues --   -0.17419  -0.12328  -0.12056
  Beta virt. eigenvalues --   -0.07233  -0.06031  -0.04928  -0.04606  -0.02581
  Beta virt. eigenvalues --   -0.02348  -0.01861  -0.01595  -0.01137  -0.00479
  Beta virt. eigenvalues --   -0.00433   0.00047   0.00330   0.00733   0.00758

 Mulliken charges and spin densities:
               1          2
     1  Na  -0.372409   0.580557
     2  Na  -0.096272   0.014484
     3  Na   0.085285   0.084002
     4  Na   0.007249   0.036535
     5  Na  -0.070530   0.193528
     6  Na   0.294555  -0.005959
     7  Na   0.152122   0.096853
 Sum of Mulliken charges =  -0.00000   1.00000

 Dipole moment (field-independent basis, Debye):
    X=              0.4541    Y=             -0.0220    Z=              0.2003  Tot=              0.4968
 Quadrupole moment (field-independent basis, Debye-Ang):
   XX=            -57.9494   YY=            -62.6776   ZZ=            -73.6001
   XY=             -0.2593   XZ=             -0.8517   YZ=             -0.9164

 Normal termination of Gaussian 16 at Thu Dec  7 17:53:43 2023.
