 Gaussian 16, Revision B.01,
 Gaussian 16:  ES64L-G16RevB.01 20-Dec-2017

 -------------------------
 #P B3LYP/6-311+g(d) force
 -------------------------

 -----
 DPGEN
 -----
 Symbolic Z-matrix:
 Charge =  0 Multiplicity = 2

                         Standard orientation:
 ---------------------------------------------------------------------
 Center     Atomic      Atomic             Coordinates (Angstroms)
 Number     Number       Type             X           Y           Z
 ---------------------------------------------------------------------
      1         11           0        0.167971    0.285679   -1.741931
      2         11           0       -3.235352   -0.584124   -0.080857
      3         11           0       -0.464568   -2.650068   -0.223553
      4         11           0        2.923178   -1.600917   -0.018784
      5         11           0        2.470817    2.143412    0.246635
      6         11           0       -0.397125   -0.244013    1.907294
      7         11           0       -1.464921    2.650032   -0.088805
 ---------------------------------------------------------------------

 SCF Done:  E(UB3LYP) =  -1136.13638792     A.U. after   19 cycles

 The electronic state is 2-A.
 Alpha  occ. eigenvalues --  -38.44266 -38.44176 -38.44152 -38.43657 -38.43452
 Alpha  occ. eigenvalues --  -38.43202 -38.43093  -2.20089  -2.19952  -2.19939
 Alpha  occ. eigenvalues --   -2.19479  -2.19357  -2.19131  -2.18990  -1.13760
 Alpha  occ. eigenvalues --   -1.13749  -1.13734  -1.13631  -1.13615  -1.13613
 Alpha  occ. eigenvalues --   -1.13595  -1.13592  -1.13576  -1.13176  -1.13148
 Alpha  occ. eigenvalues --   -1.13102  -1.13051  -1.12993  -1.12966  -1.12822
 Alpha  occ. eigenvalues --   -1.12775  -1.12745  -1.12672  -1.12653  -1.12600
 Alpha  occ. eigenvalues --   -0.18385  -0.12926  -0.12362  -0.10440
 Alpha virt. eigenvalues --   -0.05847  -0.05635  -0.04528  -0.03087  -0.02834
 Alpha virt. eigenvalues --   -0.02340  -0.01761  -0.01312  -0.00615  -0.00360
 Alpha virt. eigenvalues --   -0.00021   0.00337   0.00722   0.00806   0.00876

  Beta  occ. eigenvalues --  -38.44263 -38.44173 -38.44153 -38.43651 -38.43369
  Beta  occ. eigenvalues --  -38.43130 -38.43082  -2.20087  -2.19948  -2.19942
  Beta  occ. eigenvalues --   -2.19472  -2.19206  -2.19000  -2.18973  -1.13750
  Beta  occ. eigenvalues --   -1.13742  -1.13726  -1.13619  -1.13610  -1.13600
  Beta  occ. eigenvalues --   -1.13597  -1.13595  -1.13578  -1.13165  -1.13124
  Beta  occ. eigenvalues --   -1.13101  -1.12952  -1.12887  -1.12857  -1.12740
  Beta  occ. eigenvalues --   -1.12689  -1.12650  -1.12646  -1.12604  -1.12591
  Beta  occ. eigenvalues --   -0.17653  -0.12735  -0.12123
  Beta virt. eigenvalues --   -0.06572  -0.05781  -0.05634  -0.04482  -0.02365
  Beta virt. eigenvalues --   -0.02065  -0.01667  -0.01313  -0.01255  -0.00668
  Beta virt. eigenvalues --   -0.00392   0.00125   0.00362   0.00774   0.00803

 Mulliken charges and spin densities:
               1          2
     1  Na  -0.080493   0.636565
     2  Na   0.297788  -0.039901
     3  Na   0.186119  -0.071172
     4  Na  -0.008056  -0.096782
     5  Na  -0.068086  -0.099402
     6  Na  -0.368683   0.816632
     7  Na   0.041409  -0.145939
 Sum of Mulliken charges =  -0.00000   1.00000

 Dipole moment (field-independent basis, Debye):
    X=              0.0485    Y=              0.1636    Z=              0.0708  Tot=              0.1847
 Quadrupole moment (field-independent basis, Debye-Ang):
   XX=            -52.9597   YY=            -63.3862   ZZ=            -75.8111
   XY=             -0.0912   XZ=              1.3070   YZ=              1.2468

 Normal termination of Gaussian 16 at Thu Dec  7 16:33:14 2023.
