 Gaussian 16, Revision B.01,
 Gaussian 16:  ES64L-G16RevB.01 20-Dec-2017

 -------------------------
 #P B3LYP/6-311+g(d) force
 -------------------------

 -----
 DPGEN
 -----
 Symbolic Z-matrix:
 Charge =  0 Multiplicity = 2

                         Standard orientation:
 ---------------------------------------------------------------------
 Center     Atomic      Atomic             Coordinates (Angstroms)
 Number     Number       Type             X           Y           Z
 ---------------------------------------------------------------------
      1         11           0        2.160279   -2.264749    0.890925
      2         11           0       -3.844491   -0.932643   -1.032841
      3         11           0       -0.423857   -0.967750   -1.210091
      4         11           0        4.478709    0.841770   -0.810870
      5         11           0        1.196755    1.645158    0.131692
      6         11           0       -1.098255   -0.509441    1.518017
      7         11           0       -2.469140    2.187655    0.513169
 ---------------------------------------------------------------------

 SCF Done:  E(UB3LYP) =  -1136.11540890     A.U. after   25 cycles

 The electronic state is 2-A.
 Alpha  occ. eigenvalues --  -38.44694 -38.44310 -38.44267 -38.44211 -38.44169
 Alpha  occ. eigenvalues --  -38.43734 -38.43188  -2.20627  -2.20301  -2.20057
 Alpha  occ. eigenvalues --   -2.20002  -2.19990  -2.19574  -2.19040  -1.14488
 Alpha  occ. eigenvalues --   -1.14276  -1.14207  -1.13981  -1.13920  -1.13894
 Alpha  occ. eigenvalues --   -1.13706  -1.13697  -1.13679  -1.13672  -1.13662
 Alpha  occ. eigenvalues --   -1.13635  -1.13632  -1.13627  -1.13617  -1.13268
 Alpha  occ. eigenvalues --   -1.13221  -1.13196  -1.12781  -1.12728  -1.12634
 Alpha  occ. eigenvalues --   -0.18327  -0.13965  -0.11346  -0.11019
 Alpha virt. eigenvalues --   -0.06928  -0.05474  -0.04538  -0.03058  -0.02884
 Alpha virt. eigenvalues --   -0.02333  -0.01821  -0.01629  -0.01247  -0.00333
 Alpha virt. eigenvalues --   -0.00225   0.00139   0.00358   0.00520   0.00613

  Beta  occ. eigenvalues --  -38.44685 -38.44271 -38.44207 -38.44184 -38.44096
  Beta  occ. eigenvalues --  -38.43721 -38.43196  -2.20614  -2.20235  -2.19985
  Beta  occ. eigenvalues --   -2.19902  -2.19865  -2.19554  -2.19060  -1.14465
  Beta  occ. eigenvalues --   -1.14276  -1.14184  -1.13941  -1.13862  -1.13839
  Beta  occ. eigenvalues --   -1.13674  -1.13633  -1.13612  -1.13600  -1.13592
  Beta  occ. eigenvalues --   -1.13570  -1.13565  -1.13542  -1.13530  -1.13252
  Beta  occ. eigenvalues --   -1.13211  -1.13168  -1.12800  -1.12727  -1.12625
  Beta  occ. eigenvalues --   -0.17846  -0.13279  -0.10946
  Beta virt. eigenvalues --   -0.07580  -0.06736  -0.05334  -0.03901  -0.02917
  Beta virt. eigenvalues --   -0.02639  -0.01839  -0.01544  -0.01297  -0.00838
  Beta virt. eigenvalues --   -0.00177  -0.00068   0.00240   0.00465   0.00594

 Mulliken charges and spin densities:
               1          2
     1  Na   0.145709   0.018859
     2  Na   0.254852   0.345111
     3  Na  -0.237955   0.036053
     4  Na   0.444420   0.464021
     5  Na  -0.996775  -0.145218
     6  Na   0.225924   0.297008
     7  Na   0.163825  -0.015835
 Sum of Mulliken charges =  -0.00000   1.00000

 Dipole moment (field-independent basis, Debye):
    X=             -0.4967    Y=             -0.6859    Z=              0.4773  Tot=              0.9721
 Quadrupole moment (field-independent basis, Debye-Ang):
   XX=            -56.7776   YY=            -75.0224   ZZ=            -66.6416
   XY=             -7.0035   XZ=             -0.4297   YZ=             -2.5238

 Normal termination of Gaussian 16 at Tue Dec  5 16:04:51 2023.
