 Gaussian 16, Revision B.01,
 Gaussian 16:  ES64L-G16RevB.01 20-Dec-2017

 -------------------------
 #P B3LYP/6-311+g(d) force
 -------------------------

 -----
 DPGEN
 -----
 Symbolic Z-matrix:
 Charge =  0 Multiplicity = 2

                         Standard orientation:
 ---------------------------------------------------------------------
 Center     Atomic      Atomic             Coordinates (Angstroms)
 Number     Number       Type             X           Y           Z
 ---------------------------------------------------------------------
      1         11           0       -0.406858   -0.012419    1.880003
      2         11           0        1.324331    2.474405    0.022116
      3         11           0       -2.490175   -1.337001   -0.349169
      4         11           0       -2.203858    1.893934    0.002038
      5         11           0        0.126326   -0.100012   -1.805375
      6         11           0        3.105508   -0.325975   -0.014731
      7         11           0        0.544727   -2.592931    0.265119
 ---------------------------------------------------------------------

 SCF Done:  E(UB3LYP) =  -1136.13861323     A.U. after   18 cycles

 The electronic state is 2-A.
 Alpha  occ. eigenvalues --  -38.43916 -38.43528 -38.43428 -38.43421 -38.43348
 Alpha  occ. eigenvalues --  -38.43268 -38.42980  -2.19765  -2.19460  -2.19406
 Alpha  occ. eigenvalues --   -2.19343  -2.19322  -2.19139  -2.18909  -1.13436
 Alpha  occ. eigenvalues --   -1.13428  -1.13416  -1.13199  -1.13145  -1.13119
 Alpha  occ. eigenvalues --   -1.13086  -1.13072  -1.13021  -1.13008  -1.12995
 Alpha  occ. eigenvalues --   -1.12968  -1.12958  -1.12949  -1.12942  -1.12810
 Alpha  occ. eigenvalues --   -1.12807  -1.12764  -1.12593  -1.12569  -1.12524
 Alpha  occ. eigenvalues --   -0.19332  -0.13248  -0.12549  -0.11081
 Alpha virt. eigenvalues --   -0.05464  -0.04989  -0.04417  -0.03311  -0.02968
 Alpha virt. eigenvalues --   -0.02655  -0.01398  -0.00923  -0.00084  -0.00054
 Alpha virt. eigenvalues --    0.00058   0.00372   0.00858   0.00955   0.00964

  Beta  occ. eigenvalues --  -38.43916 -38.43515 -38.43422 -38.43336 -38.43269
  Beta  occ. eigenvalues --  -38.43264 -38.42969  -2.19767  -2.19442  -2.19316
  Beta  occ. eigenvalues --   -2.19249  -2.19199  -2.19136  -2.18893  -1.13435
  Beta  occ. eigenvalues --   -1.13426  -1.13408  -1.13175  -1.13111  -1.13083
  Beta  occ. eigenvalues --   -1.13030  -1.12979  -1.12958  -1.12945  -1.12924
  Beta  occ. eigenvalues --   -1.12906  -1.12890  -1.12885  -1.12850  -1.12799
  Beta  occ. eigenvalues --   -1.12780  -1.12761  -1.12582  -1.12522  -1.12519
  Beta  occ. eigenvalues --   -0.18569  -0.13000  -0.12271
  Beta virt. eigenvalues --   -0.07100  -0.05427  -0.04996  -0.04409  -0.02499
  Beta virt. eigenvalues --   -0.02138  -0.01575  -0.01315  -0.00862  -0.00124
  Beta virt. eigenvalues --   -0.00049   0.00123   0.00390   0.00913   0.00943

 Mulliken charges and spin densities:
               1          2
     1  Na  -0.479617   0.692989
     2  Na   0.060295  -0.120967
     3  Na   0.401979   0.018034
     4  Na   0.182802  -0.079532
     5  Na  -0.445153   0.622735
     6  Na   0.004009  -0.092029
     7  Na   0.275685  -0.041230
 Sum of Mulliken charges =  -0.00000   1.00000

 Dipole moment (field-independent basis, Debye):
    X=              0.1238    Y=              0.0737    Z=              0.0044  Tot=              0.1442
 Quadrupole moment (field-independent basis, Debye-Ang):
   XX=            -56.9497   YY=            -64.6887   ZZ=            -72.6136
   XY=             -0.3373   XZ=              1.0978   YZ=             -0.0708

 Normal termination of Gaussian 16 at Thu Dec  7 11:16:17 2023.
