 Gaussian 16, Revision B.01,
 Gaussian 16:  ES64L-G16RevB.01 20-Dec-2017

 -------------------------
 #P B3LYP/6-311+g(d) force
 -------------------------

 -----
 DPGEN
 -----
 Symbolic Z-matrix:
 Charge =  0 Multiplicity = 2

                         Standard orientation:
 ---------------------------------------------------------------------
 Center     Atomic      Atomic             Coordinates (Angstroms)
 Number     Number       Type             X           Y           Z
 ---------------------------------------------------------------------
      1         11           0        1.741589    2.754240   -0.283627
      2         11           0        0.032870    0.374585    2.155068
      3         11           0        0.117232    0.113908   -1.626562
      4         11           0       -2.149130    1.944653    0.088554
      5         11           0        3.067427   -1.482872   -0.215489
      6         11           0       -0.167238   -2.377129    0.465932
      7         11           0       -2.642750   -1.327385   -0.583877
 ---------------------------------------------------------------------

 SCF Done:  E(UB3LYP) =  -1136.12966627     A.U. after   20 cycles

 The electronic state is 2-A.
 Alpha  occ. eigenvalues --  -38.44146 -38.44074 -38.43932 -38.43875 -38.43511
 Alpha  occ. eigenvalues --  -38.43279 -38.43108  -2.19927  -2.19858  -2.19827
 Alpha  occ. eigenvalues --   -2.19731  -2.19438  -2.19266  -2.19084  -1.13601
 Alpha  occ. eigenvalues --   -1.13586  -1.13569  -1.13547  -1.13518  -1.13508
 Alpha  occ. eigenvalues --   -1.13489  -1.13474  -1.13434  -1.13415  -1.13390
 Alpha  occ. eigenvalues --   -1.13350  -1.13236  -1.13101  -1.13050  -1.12962
 Alpha  occ. eigenvalues --   -1.12902  -1.12879  -1.12753  -1.12723  -1.12677
 Alpha  occ. eigenvalues --   -0.18821  -0.12681  -0.12516  -0.11161
 Alpha virt. eigenvalues --   -0.05881  -0.05166  -0.04114  -0.03222  -0.03074
 Alpha virt. eigenvalues --   -0.02802  -0.01553  -0.01321  -0.00229  -0.00105
 Alpha virt. eigenvalues --    0.00093   0.00348   0.00776   0.00837   0.00876

  Beta  occ. eigenvalues --  -38.44149 -38.44071 -38.43867 -38.43829 -38.43499
  Beta  occ. eigenvalues --  -38.43220 -38.43091  -2.19933  -2.19854  -2.19720
  Beta  occ. eigenvalues --   -2.19638  -2.19419  -2.19158  -2.19060  -1.13598
  Beta  occ. eigenvalues --   -1.13587  -1.13575  -1.13532  -1.13513  -1.13486
  Beta  occ. eigenvalues --   -1.13427  -1.13382  -1.13371  -1.13351  -1.13301
  Beta  occ. eigenvalues --   -1.13299  -1.13225  -1.13069  -1.13029  -1.12895
  Beta  occ. eigenvalues --   -1.12829  -1.12798  -1.12730  -1.12673  -1.12662
  Beta  occ. eigenvalues --   -0.18051  -0.12448  -0.12294
  Beta virt. eigenvalues --   -0.07160  -0.05873  -0.05088  -0.04078  -0.02443
  Beta virt. eigenvalues --   -0.02327  -0.01770  -0.01458  -0.01248  -0.00241
  Beta virt. eigenvalues --   -0.00026   0.00131   0.00372   0.00788   0.00918

 Mulliken charges and spin densities:
               1          2
     1  Na  -0.095459  -0.091868
     2  Na  -0.291927   0.475451
     3  Na  -0.310513   0.356930
     4  Na   0.164419   0.046942
     5  Na  -0.030661  -0.077501
     6  Na   0.376059   0.257524
     7  Na   0.188081   0.032523
 Sum of Mulliken charges =  -0.00000   1.00000

 Dipole moment (field-independent basis, Debye):
    X=              0.3961    Y=              0.5372    Z=              0.0887  Tot=              0.6733
 Quadrupole moment (field-independent basis, Debye-Ang):
   XX=            -57.1223   YY=            -64.0235   ZZ=            -72.4687
   XY=              0.0265   XZ=              0.3468   YZ=              0.1112

 Normal termination of Gaussian 16 at Thu Dec  7 08:25:12 2023.
