 Gaussian 16, Revision B.01,
 Gaussian 16:  ES64L-G16RevB.01 20-Dec-2017

 -------------------------
 #P B3LYP/6-311+g(d) force
 -------------------------

 -----
 DPGEN
 -----
 Symbolic Z-matrix:
 Charge =  0 Multiplicity = 2

                         Standard orientation:
 ---------------------------------------------------------------------
 Center     Atomic      Atomic             Coordinates (Angstroms)
 Number     Number       Type             X           Y           Z
 ---------------------------------------------------------------------
      1         11           0        0.498124   -0.465704    2.299011
      2         11           0        1.187297    2.701194   -0.391505
      3         11           0        0.764934   -2.785007   -0.337045
      4         11           0       -1.931290    2.005988    0.189234
      5         11           0       -3.170309   -0.893273    0.134580
      6         11           0       -0.525699   -0.536550   -1.725143
      7         11           0        3.176942   -0.026649   -0.169132
 ---------------------------------------------------------------------

 SCF Done:  E(UB3LYP) =  -1136.13061742     A.U. after   19 cycles

 The electronic state is 2-A.
 Alpha  occ. eigenvalues --  -38.44459 -38.44374 -38.44201 -38.43615 -38.43547
 Alpha  occ. eigenvalues --  -38.43434 -38.43103  -2.20266  -2.20213  -2.20035
 Alpha  occ. eigenvalues --   -2.19572  -2.19419  -2.19317  -2.18940  -1.13941
 Alpha  occ. eigenvalues --   -1.13933  -1.13904  -1.13903  -1.13879  -1.13846
 Alpha  occ. eigenvalues --   -1.13681  -1.13666  -1.13654  -1.13376  -1.13224
 Alpha  occ. eigenvalues --   -1.13184  -1.13063  -1.13048  -1.13020  -1.12996
 Alpha  occ. eigenvalues --   -1.12976  -1.12967  -1.12604  -1.12601  -1.12587
 Alpha  occ. eigenvalues --   -0.18370  -0.13205  -0.12331  -0.11030
 Alpha virt. eigenvalues --   -0.06103  -0.04921  -0.04546  -0.03547  -0.03002
 Alpha virt. eigenvalues --   -0.02847  -0.01711  -0.00862  -0.00444  -0.00167
 Alpha virt. eigenvalues --   -0.00083   0.00355   0.00734   0.00806   0.00864

  Beta  occ. eigenvalues --  -38.44458 -38.44373 -38.44099 -38.43555 -38.43536
  Beta  occ. eigenvalues --  -38.43430 -38.43098  -2.20265  -2.20213  -2.19845
  Beta  occ. eigenvalues --   -2.19464  -2.19402  -2.19311  -2.18932  -1.13935
  Beta  occ. eigenvalues --   -1.13919  -1.13906  -1.13905  -1.13864  -1.13845
  Beta  occ. eigenvalues --   -1.13556  -1.13534  -1.13520  -1.13318  -1.13147
  Beta  occ. eigenvalues --   -1.13107  -1.13036  -1.13019  -1.13002  -1.12987
  Beta  occ. eigenvalues --   -1.12971  -1.12947  -1.12601  -1.12590  -1.12576
  Beta  occ. eigenvalues --   -0.17671  -0.13017  -0.12102
  Beta virt. eigenvalues --   -0.07113  -0.06032  -0.04870  -0.04444  -0.02773
  Beta virt. eigenvalues --   -0.02239  -0.01841  -0.01616  -0.00808  -0.00499
  Beta virt. eigenvalues --   -0.00175   0.00107   0.00403   0.00818   0.00898

 Mulliken charges and spin densities:
               1          2
     1  Na  -0.469683   0.650838
     2  Na  -0.118953  -0.011092
     3  Na   0.205536  -0.079236
     4  Na  -0.120716   0.098942
     5  Na   0.324839  -0.026178
     6  Na   0.107854   0.346289
     7  Na   0.071123   0.020437
 Sum of Mulliken charges =  -0.00000   1.00000

 Dipole moment (field-independent basis, Debye):
    X=             -0.0257    Y=             -0.4414    Z=              0.2383  Tot=              0.5023
 Quadrupole moment (field-independent basis, Debye-Ang):
   XX=            -56.3314   YY=            -67.0723   ZZ=            -72.5409
   XY=              0.4940   XZ=             -1.8367   YZ=             -0.3788

 Normal termination of Gaussian 16 at Thu Dec  7 23:54:53 2023.
