 Gaussian 16, Revision B.01,
 Gaussian 16:  ES64L-G16RevB.01 20-Dec-2017

 -------------------------
 #P B3LYP/6-311+g(d) force
 -------------------------

 -----
 DPGEN
 -----
 Symbolic Z-matrix:
 Charge =  0 Multiplicity = 2

                         Standard orientation:
 ---------------------------------------------------------------------
 Center     Atomic      Atomic             Coordinates (Angstroms)
 Number     Number       Type             X           Y           Z
 ---------------------------------------------------------------------
      1         11           0        0.155105   -0.589925    2.051503
      2         11           0       -2.834003    0.322418    0.037631
      3         11           0       -0.811957    2.720273    0.214714
      4         11           0        2.392591    1.646135   -0.054813
      5         11           0        2.212985   -1.793910   -0.082138
      6         11           0        0.128841    0.276123   -1.762579
      7         11           0       -1.243562   -2.581113   -0.404317
 ---------------------------------------------------------------------

 SCF Done:  E(UB3LYP) =  -1136.13925569     A.U. after   19 cycles

 The electronic state is 2-A.
 Alpha  occ. eigenvalues --  -38.43710 -38.43505 -38.43479 -38.43458 -38.43376
 Alpha  occ. eigenvalues --  -38.43355 -38.43295  -2.19623  -2.19399  -2.19364
 Alpha  occ. eigenvalues --   -2.19335  -2.19299  -2.19268  -2.19249  -1.13312
 Alpha  occ. eigenvalues --   -1.13263  -1.13245  -1.13126  -1.13083  -1.13066
 Alpha  occ. eigenvalues --   -1.13047  -1.13037  -1.13033  -1.13024  -1.13001
 Alpha  occ. eigenvalues --   -1.12984  -1.12965  -1.12955  -1.12936  -1.12922
 Alpha  occ. eigenvalues --   -1.12906  -1.12890  -1.12887  -1.12870  -1.12836
 Alpha  occ. eigenvalues --   -0.19144  -0.12940  -0.12833  -0.11115
 Alpha virt. eigenvalues --   -0.05181  -0.04902  -0.04803  -0.03289  -0.03179
 Alpha virt. eigenvalues --   -0.02733  -0.01102  -0.01046  -0.00096  -0.00034
 Alpha virt. eigenvalues --   -0.00025   0.00383   0.00913   0.00934   0.00965

  Beta  occ. eigenvalues --  -38.43621 -38.43497 -38.43474 -38.43448 -38.43372
  Beta  occ. eigenvalues --  -38.43350 -38.43223  -2.19460  -2.19390  -2.19358
  Beta  occ. eigenvalues --   -2.19319  -2.19264  -2.19243  -2.19169  -1.13218
  Beta  occ. eigenvalues --   -1.13151  -1.13133  -1.13100  -1.13063  -1.13040
  Beta  occ. eigenvalues --   -1.13033  -1.13021  -1.13018  -1.13000  -1.12980
  Beta  occ. eigenvalues --   -1.12966  -1.12954  -1.12919  -1.12900  -1.12897
  Beta  occ. eigenvalues --   -1.12871  -1.12865  -1.12835  -1.12810  -1.12803
  Beta  occ. eigenvalues --   -0.18388  -0.12684  -0.12592
  Beta virt. eigenvalues --   -0.07163  -0.05178  -0.04898  -0.04717  -0.02473
  Beta virt. eigenvalues --   -0.02366  -0.01666  -0.01030  -0.00975  -0.00137
  Beta virt. eigenvalues --   -0.00082   0.00112   0.00405   0.00928   0.00947

 Mulliken charges and spin densities:
               1          2
     1  Na  -0.690977   0.681963
     2  Na   0.091581  -0.027204
     3  Na   0.089779   0.000019
     4  Na   0.268465  -0.040180
     5  Na   0.400489  -0.055054
     6  Na  -0.406479   0.474530
     7  Na   0.247141  -0.034073
 Sum of Mulliken charges =  -0.00000   1.00000

 Dipole moment (field-independent basis, Debye):
    X=              0.1233    Y=             -0.1243    Z=              0.1530  Tot=              0.2325
 Quadrupole moment (field-independent basis, Debye-Ang):
   XX=            -61.3295   YY=            -61.8232   ZZ=            -71.9118
   XY=              0.3443   XZ=             -0.0559   YZ=              1.8024

 Normal termination of Gaussian 16 at Tue Dec  5 23:43:42 2023.
