 Gaussian 16, Revision B.01,
 Gaussian 16:  ES64L-G16RevB.01 20-Dec-2017

 -------------------------
 #P B3LYP/6-311+g(d) force
 -------------------------

 -----
 DPGEN
 -----
 Symbolic Z-matrix:
 Charge =  0 Multiplicity = 2

                         Standard orientation:
 ---------------------------------------------------------------------
 Center     Atomic      Atomic             Coordinates (Angstroms)
 Number     Number       Type             X           Y           Z
 ---------------------------------------------------------------------
      1         11           0       -0.897009   -0.093888   -1.474014
      2         11           0       -3.349751   -1.734835    0.175482
      3         11           0       -2.167175    2.433009   -0.147813
      4         11           0       -0.592591   -0.098972    2.191576
      5         11           0        4.093666   -0.199255    0.484133
      6         11           0        1.303349   -2.047651   -0.786461
      7         11           0        1.609511    1.741593   -0.442903
 ---------------------------------------------------------------------

 SCF Done:  E(UB3LYP) =  -1136.11892183     A.U. after   23 cycles

 The electronic state is 2-A.
 Alpha  occ. eigenvalues --  -38.45036 -38.44846 -38.44617 -38.43907 -38.43483
 Alpha  occ. eigenvalues --  -38.43418 -38.42937  -2.20829  -2.20659  -2.20380
 Alpha  occ. eigenvalues --   -2.19762  -2.19313  -2.19285  -2.18974  -1.14506
 Alpha  occ. eigenvalues --   -1.14484  -1.14458  -1.14330  -1.14288  -1.14271
 Alpha  occ. eigenvalues --   -1.14067  -1.14037  -1.14022  -1.13518  -1.13416
 Alpha  occ. eigenvalues --   -1.13344  -1.13035  -1.13011  -1.12969  -1.12961
 Alpha  occ. eigenvalues --   -1.12935  -1.12879  -1.12682  -1.12601  -1.12553
 Alpha  occ. eigenvalues --   -0.18276  -0.13646  -0.11301  -0.10890
 Alpha virt. eigenvalues --   -0.07161  -0.05441  -0.03844  -0.03224  -0.02924
 Alpha virt. eigenvalues --   -0.02464  -0.02311  -0.01532  -0.00709  -0.00246
 Alpha virt. eigenvalues --    0.00035   0.00103   0.00379   0.00615   0.00680

  Beta  occ. eigenvalues --  -38.45025 -38.44763 -38.44630 -38.43870 -38.43480
  Beta  occ. eigenvalues --  -38.43407 -38.42871  -2.20809  -2.20504  -2.20407
  Beta  occ. eigenvalues --   -2.19699  -2.19308  -2.19269  -2.18855  -1.14491
  Beta  occ. eigenvalues --   -1.14464  -1.14447  -1.14223  -1.14181  -1.14161
  Beta  occ. eigenvalues --   -1.14083  -1.14049  -1.14037  -1.13459  -1.13359
  Beta  occ. eigenvalues --   -1.13304  -1.13024  -1.12991  -1.12950  -1.12936
  Beta  occ. eigenvalues --   -1.12933  -1.12873  -1.12600  -1.12509  -1.12469
  Beta  occ. eigenvalues --   -0.17542  -0.13485  -0.11053
  Beta virt. eigenvalues --   -0.07153  -0.06741  -0.05432  -0.03595  -0.02897
  Beta virt. eigenvalues --   -0.02418  -0.01802  -0.01668  -0.01411  -0.00485
  Beta virt. eigenvalues --   -0.00152   0.00066   0.00115   0.00569   0.00679

 Mulliken charges and spin densities:
               1          2
     1  Na  -0.070738  -0.078776
     2  Na   0.109928  -0.004493
     3  Na   0.262240   0.046380
     4  Na  -0.459358   0.732595
     5  Na   0.179111   0.103807
     6  Na   0.073407   0.116605
     7  Na  -0.094591   0.083881
 Sum of Mulliken charges =  -0.00000   1.00000

 Dipole moment (field-independent basis, Debye):
    X=              0.3251    Y=             -0.1543    Z=              0.6177  Tot=              0.7149
 Quadrupole moment (field-independent basis, Debye-Ang):
   XX=            -46.8975   YY=            -72.5387   ZZ=            -73.0020
   XY=             -1.2873   XZ=              1.8052   YZ=             -0.0194

 Normal termination of Gaussian 16 at Fri Dec  8 05:48:32 2023.
