 Gaussian 16, Revision B.01,
 Gaussian 16:  ES64L-G16RevB.01 20-Dec-2017

 -------------------------
 #P B3LYP/6-311+g(d) force
 -------------------------

 -----
 DPGEN
 -----
 Symbolic Z-matrix:
 Charge =  0 Multiplicity = 2

                         Standard orientation:
 ---------------------------------------------------------------------
 Center     Atomic      Atomic             Coordinates (Angstroms)
 Number     Number       Type             X           Y           Z
 ---------------------------------------------------------------------
      1         11           0        2.149883    2.295720    0.083379
      2         11           0       -1.723146    2.286081   -0.171679
      3         11           0       -3.239507   -0.699766   -0.173461
      4         11           0        3.067543   -1.095600    0.003220
      5         11           0        0.189846   -0.197418   -1.732163
      6         11           0       -0.060534   -2.655833    0.143893
      7         11           0       -0.384086    0.066817    1.846810
 ---------------------------------------------------------------------

 SCF Done:  E(UB3LYP) =  -1136.13636183     A.U. after   20 cycles

 The electronic state is 2-A.
 Alpha  occ. eigenvalues --  -38.44456 -38.44312 -38.43624 -38.43455 -38.43291
 Alpha  occ. eigenvalues --  -38.43267 -38.42942  -2.20280  -2.20133  -2.19429
 Alpha  occ. eigenvalues --   -2.19322  -2.19250  -2.19212  -2.18851  -1.13947
 Alpha  occ. eigenvalues --   -1.13944  -1.13921  -1.13808  -1.13790  -1.13777
 Alpha  occ. eigenvalues --   -1.13103  -1.13094  -1.13071  -1.13032  -1.12999
 Alpha  occ. eigenvalues --   -1.12970  -1.12943  -1.12896  -1.12886  -1.12853
 Alpha  occ. eigenvalues --   -1.12844  -1.12814  -1.12539  -1.12516  -1.12450
 Alpha  occ. eigenvalues --   -0.18740  -0.13312  -0.12196  -0.10542
 Alpha virt. eigenvalues --   -0.06057  -0.05352  -0.04291  -0.03240  -0.02684
 Alpha virt. eigenvalues --   -0.02339  -0.01919  -0.01147  -0.00368  -0.00272
 Alpha virt. eigenvalues --   -0.00019   0.00333   0.00738   0.00861   0.00888

  Beta  occ. eigenvalues --  -38.44451 -38.44311 -38.43624 -38.43447 -38.43219
  Beta  occ. eigenvalues --  -38.43182 -38.42931  -2.20275  -2.20134  -2.19430
  Beta  occ. eigenvalues --   -2.19311  -2.19120  -2.19055  -2.18835  -1.13944
  Beta  occ. eigenvalues --   -1.13921  -1.13918  -1.13797  -1.13784  -1.13782
  Beta  occ. eigenvalues --   -1.13096  -1.13087  -1.13073  -1.13017  -1.12961
  Beta  occ. eigenvalues --   -1.12938  -1.12886  -1.12804  -1.12787  -1.12757
  Beta  occ. eigenvalues --   -1.12736  -1.12703  -1.12526  -1.12464  -1.12445
  Beta  occ. eigenvalues --   -0.18005  -0.13099  -0.11940
  Beta virt. eigenvalues --   -0.06637  -0.05991  -0.05368  -0.04276  -0.02472
  Beta virt. eigenvalues --   -0.01909  -0.01819  -0.01298  -0.01092  -0.00422
  Beta virt. eigenvalues --   -0.00308   0.00127   0.00360   0.00797   0.00856

 Mulliken charges and spin densities:
               1          2
     1  Na  -0.038121  -0.130542
     2  Na   0.052127  -0.093991
     3  Na   0.240261  -0.035782
     4  Na   0.120089  -0.082195
     5  Na  -0.284367   0.696215
     6  Na   0.226565  -0.127561
     7  Na  -0.316554   0.773857
 Sum of Mulliken charges =  -0.00000   1.00000

 Dipole moment (field-independent basis, Debye):
    X=             -0.0429    Y=             -0.0559    Z=             -0.0027  Tot=              0.0705
 Quadrupole moment (field-independent basis, Debye-Ang):
   XX=            -51.4519   YY=            -65.3457   ZZ=            -75.3974
   XY=              0.2749   XZ=              1.2644   YZ=             -0.4379

 Normal termination of Gaussian 16 at Tue Dec  5 11:00:47 2023.
