 Gaussian 16, Revision B.01,
 Gaussian 16:  ES64L-G16RevB.01 20-Dec-2017

 -------------------------
 #P B3LYP/6-311+g(d) force
 -------------------------

 -----
 DPGEN
 -----
 Symbolic Z-matrix:
 Charge =  0 Multiplicity = 2

                         Standard orientation:
 ---------------------------------------------------------------------
 Center     Atomic      Atomic             Coordinates (Angstroms)
 Number     Number       Type             X           Y           Z
 ---------------------------------------------------------------------
      1         11           0        2.270124    0.140631    1.397801
      2         11           0       -0.125352   -2.305092   -0.441614
      3         11           0       -1.403568    0.065285    1.300437
      4         11           0        0.887902    2.507670   -0.986004
      5         11           0       -1.989499    3.199986   -0.203158
      6         11           0       -3.742315   -2.348977   -0.439450
      7         11           0        4.102709   -1.259503   -0.628012
 ---------------------------------------------------------------------

 SCF Done:  E(UB3LYP) =  -1136.11904730     A.U. after   20 cycles

 The electronic state is 2-A.
 Alpha  occ. eigenvalues --  -38.44849 -38.44666 -38.44117 -38.44024 -38.44007
 Alpha  occ. eigenvalues --  -38.43719 -38.43459  -2.20645  -2.20484  -2.19897
 Alpha  occ. eigenvalues --   -2.19845  -2.19837  -2.19601  -2.19351  -1.14364
 Alpha  occ. eigenvalues --   -1.14339  -1.14227  -1.14163  -1.14146  -1.14132
 Alpha  occ. eigenvalues --   -1.13561  -1.13556  -1.13555  -1.13506  -1.13500
 Alpha  occ. eigenvalues --   -1.13484  -1.13481  -1.13478  -1.13476  -1.13271
 Alpha  occ. eigenvalues --   -1.13248  -1.13226  -1.13062  -1.13005  -1.12946
 Alpha  occ. eigenvalues --   -0.17338  -0.13280  -0.12970  -0.09938
 Alpha virt. eigenvalues --   -0.06435  -0.06236  -0.04432  -0.03386  -0.02871
 Alpha virt. eigenvalues --   -0.02423  -0.02115  -0.01460  -0.00970  -0.00714
 Alpha virt. eigenvalues --   -0.00073   0.00144   0.00229   0.00471   0.00619

  Beta  occ. eigenvalues --  -38.44852 -38.44653 -38.44077 -38.43997 -38.43980
  Beta  occ. eigenvalues --  -38.43689 -38.43409  -2.20653  -2.20461  -2.19821
  Beta  occ. eigenvalues --   -2.19819  -2.19761  -2.19553  -2.19264  -1.14363
  Beta  occ. eigenvalues --   -1.14331  -1.14233  -1.14148  -1.14132  -1.14103
  Beta  occ. eigenvalues --   -1.13507  -1.13504  -1.13502  -1.13480  -1.13473
  Beta  occ. eigenvalues --   -1.13463  -1.13459  -1.13422  -1.13421  -1.13247
  Beta  occ. eigenvalues --   -1.13217  -1.13147  -1.13004  -1.12935  -1.12875
  Beta  occ. eigenvalues --   -0.16739  -0.12991  -0.12645
  Beta virt. eigenvalues --   -0.06493  -0.06253  -0.05980  -0.04140  -0.03067
  Beta virt. eigenvalues --   -0.02527  -0.02212  -0.01899  -0.01057  -0.00590
  Beta virt. eigenvalues --   -0.00515   0.00077   0.00274   0.00326   0.00548

 Mulliken charges and spin densities:
               1          2
     1  Na   0.288666   0.147231
     2  Na  -0.378167  -0.173220
     3  Na  -0.555823   0.402884
     4  Na  -0.220579   0.080765
     5  Na   0.371602  -0.019546
     6  Na   0.416992   0.217106
     7  Na   0.077309   0.344780
 Sum of Mulliken charges =  -0.00000   1.00000

 Dipole moment (field-independent basis, Debye):
    X=             -0.4443    Y=              0.0587    Z=              0.0334  Tot=              0.4495
 Quadrupole moment (field-independent basis, Debye-Ang):
   XX=            -59.8228   YY=            -69.2511   ZZ=            -71.1561
   XY=             -2.1419   XZ=             -1.8315   YZ=              2.8966

 Normal termination of Gaussian 16 at Tue Nov 28 22:19:34 2023.
