 Gaussian 16, Revision B.01,
 Gaussian 16:  ES64L-G16RevB.01 20-Dec-2017

 -------------------------
 #P B3LYP/6-311+g(d) force
 -------------------------

 -----
 DPGEN
 -----
 Symbolic Z-matrix:
 Charge =  0 Multiplicity = 2

                         Standard orientation:
 ---------------------------------------------------------------------
 Center     Atomic      Atomic             Coordinates (Angstroms)
 Number     Number       Type             X           Y           Z
 ---------------------------------------------------------------------
      1         11           0        0.851964    0.214348    1.530575
      2         11           0        3.838232   -1.048915    0.219407
      3         11           0       -3.060925   -2.420653    0.124185
      4         11           0       -1.387481    3.314056    0.507876
      5         11           0        1.668900    1.659460   -1.340292
      6         11           0        0.463258   -2.050080   -0.457348
      7         11           0       -2.373947    0.331784   -0.584404
 ---------------------------------------------------------------------

 SCF Done:  E(UB3LYP) =  -1136.12321202     A.U. after   23 cycles

 The electronic state is 2-A.
 Alpha  occ. eigenvalues --  -38.45119 -38.44352 -38.43996 -38.43728 -38.43613
 Alpha  occ. eigenvalues --  -38.43592 -38.43507  -2.20910  -2.20223  -2.19842
 Alpha  occ. eigenvalues --   -2.19634  -2.19441  -2.19434  -2.19410  -1.14593
 Alpha  occ. eigenvalues --   -1.14565  -1.14540  -1.13996  -1.13903  -1.13793
 Alpha  occ. eigenvalues --   -1.13639  -1.13479  -1.13463  -1.13310  -1.13296
 Alpha  occ. eigenvalues --   -1.13230  -1.13171  -1.13143  -1.13104  -1.13085
 Alpha  occ. eigenvalues --   -1.13066  -1.13057  -1.13038  -1.13014  -1.13001
 Alpha  occ. eigenvalues --   -0.18067  -0.13703  -0.12472  -0.09611
 Alpha virt. eigenvalues --   -0.06569  -0.05748  -0.04820  -0.03077  -0.02581
 Alpha virt. eigenvalues --   -0.02488  -0.01778  -0.01526  -0.00762  -0.00523
 Alpha virt. eigenvalues --   -0.00023   0.00195   0.00591   0.00613   0.00675

  Beta  occ. eigenvalues --  -38.45117 -38.44341 -38.43996 -38.43721 -38.43609
  Beta  occ. eigenvalues --  -38.43519 -38.43442  -2.20911  -2.20207  -2.19842
  Beta  occ. eigenvalues --   -2.19624  -2.19403  -2.19324  -2.19299  -1.14597
  Beta  occ. eigenvalues --   -1.14544  -1.14536  -1.13979  -1.13862  -1.13789
  Beta  occ. eigenvalues --   -1.13638  -1.13472  -1.13463  -1.13304  -1.13274
  Beta  occ. eigenvalues --   -1.13225  -1.13089  -1.13081  -1.13055  -1.13049
  Beta  occ. eigenvalues --   -1.13030  -1.13009  -1.12963  -1.12923  -1.12911
  Beta  occ. eigenvalues --   -0.17475  -0.13453  -0.12270
  Beta virt. eigenvalues --   -0.06453  -0.05903  -0.05556  -0.04776  -0.02528
  Beta virt. eigenvalues --   -0.02399  -0.02023  -0.01525  -0.01003  -0.00723
  Beta virt. eigenvalues --   -0.00281   0.00192   0.00320   0.00654   0.00663

 Mulliken charges and spin densities:
               1          2
     1  Na  -0.212585   0.251235
     2  Na   0.690670   0.122888
     3  Na   0.443956  -0.023205
     4  Na   0.294742  -0.027460
     5  Na  -0.495975   0.488996
     6  Na  -0.252045   0.100368
     7  Na  -0.468762   0.087178
 Sum of Mulliken charges =  -0.00000   1.00000

 Dipole moment (field-independent basis, Debye):
    X=              0.6407    Y=             -0.7133    Z=              0.4890  Tot=              1.0763
 Quadrupole moment (field-independent basis, Debye-Ang):
   XX=            -51.9138   YY=            -62.1710   ZZ=            -77.5669
   XY=             -3.3020   XZ=              0.4676   YZ=              1.4346

 Normal termination of Gaussian 16 at Wed Nov 29 16:30:32 2023.
