 Gaussian 16, Revision B.01,
 Gaussian 16:  ES64L-G16RevB.01 20-Dec-2017

 -------------------------
 #P B3LYP/6-311+g(d) force
 -------------------------

 -----
 DPGEN
 -----
 Symbolic Z-matrix:
 Charge =  0 Multiplicity = 2

                         Standard orientation:
 ---------------------------------------------------------------------
 Center     Atomic      Atomic             Coordinates (Angstroms)
 Number     Number       Type             X           Y           Z
 ---------------------------------------------------------------------
      1         11           0       -4.583203   -0.780399   -0.255108
      2         11           0        0.205496    2.555303    0.585102
      3         11           0        3.793504    1.832245   -0.686313
      4         11           0        4.097438   -1.060534   -0.171617
      5         11           0       -2.842012    2.676578    0.251968
      6         11           0        1.115544   -2.905529    1.111688
      7         11           0       -1.786766   -2.317664   -0.835719
 ---------------------------------------------------------------------

 SCF Done:  E(UB3LYP) =  -1136.10913317     A.U. after   20 cycles

 The electronic state is 2-A.
 Alpha  occ. eigenvalues --  -38.45019 -38.44493 -38.44485 -38.44444 -38.44360
 Alpha  occ. eigenvalues --  -38.44198 -38.44039  -2.20835  -2.20321  -2.20269
 Alpha  occ. eigenvalues --   -2.20257  -2.20160  -2.19999  -2.19830  -1.14575
 Alpha  occ. eigenvalues --   -1.14494  -1.14467  -1.13987  -1.13974  -1.13958
 Alpha  occ. eigenvalues --   -1.13948  -1.13944  -1.13940  -1.13899  -1.13898
 Alpha  occ. eigenvalues --   -1.13877  -1.13852  -1.13822  -1.13790  -1.13658
 Alpha  occ. eigenvalues --   -1.13651  -1.13603  -1.13482  -1.13470  -1.13458
 Alpha  occ. eigenvalues --   -0.15882  -0.14262  -0.12962  -0.11046
 Alpha virt. eigenvalues --   -0.07180  -0.04899  -0.04288  -0.03630  -0.03562
 Alpha virt. eigenvalues --   -0.02681  -0.02161  -0.01481  -0.00974  -0.00780
 Alpha virt. eigenvalues --   -0.00629  -0.00166  -0.00024   0.00578   0.00642

  Beta  occ. eigenvalues --  -38.45005 -38.44496 -38.44442 -38.44370 -38.44347
  Beta  occ. eigenvalues --  -38.44167 -38.43971  -2.20815  -2.20283  -2.20243
  Beta  occ. eigenvalues --   -2.20142  -2.20120  -2.19946  -2.19705  -1.14541
  Beta  occ. eigenvalues --   -1.14486  -1.14437  -1.13974  -1.13961  -1.13919
  Beta  occ. eigenvalues --   -1.13916  -1.13906  -1.13885  -1.13864  -1.13813
  Beta  occ. eigenvalues --   -1.13806  -1.13791  -1.13780  -1.13767  -1.13624
  Beta  occ. eigenvalues --   -1.13617  -1.13557  -1.13397  -1.13386  -1.13377
  Beta  occ. eigenvalues --   -0.15353  -0.13501  -0.12232
  Beta virt. eigenvalues --   -0.07916  -0.07305  -0.04444  -0.03838  -0.03340
  Beta virt. eigenvalues --   -0.03213  -0.02423  -0.02054  -0.01273  -0.00649
  Beta virt. eigenvalues --   -0.00578  -0.00322  -0.00003   0.00168   0.00592

 Mulliken charges and spin densities:
               1          2
     1  Na   0.119201   0.308278
     2  Na  -0.621369   0.115655
     3  Na   0.663149   0.214951
     4  Na  -0.251344   0.079356
     5  Na   0.271389  -0.047519
     6  Na   0.189992   0.299472
     7  Na  -0.371017   0.029807
 Sum of Mulliken charges =  -0.00000   1.00000

 Dipole moment (field-independent basis, Debye):
    X=              0.1338    Y=              0.1547    Z=             -0.0762  Tot=              0.2183
 Quadrupole moment (field-independent basis, Debye-Ang):
   XX=            -57.2836   YY=            -71.0273   ZZ=            -71.4422
   XY=             -3.9961   XZ=             -0.5349   YZ=             -1.1644

 Normal termination of Gaussian 16 at Mon Dec  4 04:41:58 2023.
