 Gaussian 16, Revision B.01,
 Gaussian 16:  ES64L-G16RevB.01 20-Dec-2017

 -------------------------
 #P B3LYP/6-311+g(d) force
 -------------------------

 -----
 DPGEN
 -----
 Symbolic Z-matrix:
 Charge =  0 Multiplicity = 2

                         Standard orientation:
 ---------------------------------------------------------------------
 Center     Atomic      Atomic             Coordinates (Angstroms)
 Number     Number       Type             X           Y           Z
 ---------------------------------------------------------------------
      1         11           0        2.161284    0.099318    1.373645
      2         11           0       -0.161705   -2.449969   -0.473835
      3         11           0       -1.371222    0.081681    1.289255
      4         11           0        1.010601    2.510922   -0.991806
      5         11           0       -1.894190    3.214776   -0.187257
      6         11           0       -3.828688   -2.169959   -0.441672
      7         11           0        4.083919   -1.286770   -0.568329
 ---------------------------------------------------------------------

 SCF Done:  E(UB3LYP) =  -1136.11894200     A.U. after   20 cycles

 The electronic state is 2-A.
 Alpha  occ. eigenvalues --  -38.45035 -38.44646 -38.44173 -38.44076 -38.44073
 Alpha  occ. eigenvalues --  -38.43592 -38.43327  -2.20810  -2.20462  -2.19950
 Alpha  occ. eigenvalues --   -2.19897  -2.19894  -2.19489  -2.19223  -1.14519
 Alpha  occ. eigenvalues --   -1.14505  -1.14398  -1.14140  -1.14119  -1.14114
 Alpha  occ. eigenvalues --   -1.13614  -1.13609  -1.13595  -1.13560  -1.13559
 Alpha  occ. eigenvalues --   -1.13547  -1.13536  -1.13529  -1.13526  -1.13161
 Alpha  occ. eigenvalues --   -1.13139  -1.13127  -1.12926  -1.12880  -1.12823
 Alpha  occ. eigenvalues --   -0.17324  -0.13226  -0.12969  -0.09956
 Alpha virt. eigenvalues --   -0.06468  -0.06291  -0.04381  -0.03389  -0.02894
 Alpha virt. eigenvalues --   -0.02406  -0.02095  -0.01454  -0.00997  -0.00730
 Alpha virt. eigenvalues --   -0.00093   0.00189   0.00242   0.00482   0.00625

  Beta  occ. eigenvalues --  -38.45040 -38.44631 -38.44132 -38.44065 -38.44035
  Beta  occ. eigenvalues --  -38.43560 -38.43274  -2.20823  -2.20435  -2.19883
  Beta  occ. eigenvalues --   -2.19873  -2.19815  -2.19435  -2.19131  -1.14528
  Beta  occ. eigenvalues --   -1.14495  -1.14407  -1.14122  -1.14100  -1.14084
  Beta  occ. eigenvalues --   -1.13559  -1.13555  -1.13545  -1.13541  -1.13538
  Beta  occ. eigenvalues --   -1.13527  -1.13511  -1.13474  -1.13472  -1.13132
  Beta  occ. eigenvalues --   -1.13105  -1.13041  -1.12864  -1.12805  -1.12749
  Beta  occ. eigenvalues --   -0.16717  -0.12942  -0.12654
  Beta virt. eigenvalues --   -0.06489  -0.06274  -0.06051  -0.04108  -0.03056
  Beta virt. eigenvalues --   -0.02530  -0.02199  -0.01878  -0.01045  -0.00608
  Beta virt. eigenvalues --   -0.00579   0.00066   0.00296   0.00344   0.00567

 Mulliken charges and spin densities:
               1          2
     1  Na   0.226856   0.164638
     2  Na  -0.254484  -0.153215
     3  Na  -0.533252   0.358142
     4  Na  -0.181504   0.090664
     5  Na   0.333954  -0.016799
     6  Na   0.351982   0.244421
     7  Na   0.056449   0.312149
 Sum of Mulliken charges =  -0.00000   1.00000

 Dipole moment (field-independent basis, Debye):
    X=             -0.4129    Y=             -0.0351    Z=             -0.1006  Tot=              0.4265
 Quadrupole moment (field-independent basis, Debye-Ang):
   XX=            -59.7391   YY=            -68.3145   ZZ=            -71.7183
   XY=             -3.0493   XZ=             -1.8561   YZ=              2.8348

 Normal termination of Gaussian 16 at Tue Nov 28 21:48:49 2023.
