 Gaussian 16, Revision B.01,
 Gaussian 16:  ES64L-G16RevB.01 20-Dec-2017

 -------------------------
 #P B3LYP/6-311+g(d) force
 -------------------------

 -----
 DPGEN
 -----
 Symbolic Z-matrix:
 Charge =  0 Multiplicity = 2

                         Standard orientation:
 ---------------------------------------------------------------------
 Center     Atomic      Atomic             Coordinates (Angstroms)
 Number     Number       Type             X           Y           Z
 ---------------------------------------------------------------------
      1         11           0       -0.034745    0.022079    1.905195
      2         11           0       -0.069676   -0.279629   -1.803018
      3         11           0       -2.993588   -1.030060   -0.442143
      4         11           0        0.197661   -2.876393    0.262558
      5         11           0        1.454819    2.763528   -0.459928
      6         11           0       -1.872461    2.157988    0.491034
      7         11           0        3.317990   -0.757514    0.046302
 ---------------------------------------------------------------------

 SCF Done:  E(UB3LYP) =  -1136.13661039     A.U. after   19 cycles

 The electronic state is 2-A.
 Alpha  occ. eigenvalues --  -38.44359 -38.43779 -38.43664 -38.43579 -38.43575
 Alpha  occ. eigenvalues --  -38.43509 -38.43372  -2.20120  -2.19616  -2.19501
 Alpha  occ. eigenvalues --   -2.19463  -2.19431  -2.19427  -2.19245  -1.13803
 Alpha  occ. eigenvalues --   -1.13770  -1.13764  -1.13312  -1.13267  -1.13259
 Alpha  occ. eigenvalues --   -1.13198  -1.13193  -1.13147  -1.13141  -1.13125
 Alpha  occ. eigenvalues --   -1.13110  -1.13103  -1.13091  -1.13083  -1.13046
 Alpha  occ. eigenvalues --   -1.13040  -1.13028  -1.12924  -1.12892  -1.12863
 Alpha  occ. eigenvalues --   -0.18422  -0.12682  -0.12499  -0.10845
 Alpha virt. eigenvalues --   -0.05787  -0.05041  -0.04743  -0.03136  -0.03049
 Alpha virt. eigenvalues --   -0.02590  -0.01636  -0.01155  -0.00415  -0.00349
 Alpha virt. eigenvalues --   -0.00004   0.00347   0.00774   0.00859   0.00883

  Beta  occ. eigenvalues --  -38.44361 -38.43768 -38.43657 -38.43566 -38.43493
  Beta  occ. eigenvalues --  -38.43439 -38.43358  -2.20127  -2.19600  -2.19451
  Beta  occ. eigenvalues --   -2.19414  -2.19345  -2.19302  -2.19225  -1.13799
  Beta  occ. eigenvalues --   -1.13775  -1.13766  -1.13289  -1.13251  -1.13242
  Beta  occ. eigenvalues --   -1.13142  -1.13129  -1.13113  -1.13098  -1.13093
  Beta  occ. eigenvalues --   -1.13088  -1.13031  -1.13019  -1.13010  -1.13000
  Beta  occ. eigenvalues --   -1.12966  -1.12943  -1.12888  -1.12859  -1.12854
  Beta  occ. eigenvalues --   -0.17691  -0.12453  -0.12237
  Beta virt. eigenvalues --   -0.06969  -0.05780  -0.04950  -0.04687  -0.02384
  Beta virt. eigenvalues --   -0.02319  -0.01620  -0.01508  -0.01067  -0.00433
  Beta virt. eigenvalues --   -0.00366   0.00111   0.00374   0.00800   0.00887

 Mulliken charges and spin densities:
               1          2
     1  Na   0.000036   0.572150
     2  Na  -0.154215   0.674637
     3  Na   0.163892  -0.012028
     4  Na   0.085671  -0.095400
     5  Na  -0.135204  -0.050613
     6  Na   0.166509   0.032624
     7  Na  -0.126689  -0.121370
 Sum of Mulliken charges =  -0.00000   1.00000

 Dipole moment (field-independent basis, Debye):
    X=              0.2605    Y=             -0.1992    Z=             -0.0293  Tot=              0.3292
 Quadrupole moment (field-independent basis, Debye-Ang):
   XX=            -56.4353   YY=            -62.8049   ZZ=            -74.0085
   XY=              0.3480   XZ=              0.0300   YZ=             -0.7488

 Normal termination of Gaussian 16 at Thu Dec  7 03:04:28 2023.
