 Gaussian 16, Revision B.01,
 Gaussian 16:  ES64L-G16RevB.01 20-Dec-2017

 -------------------------
 #P B3LYP/6-311+g(d) force
 -------------------------

 -----
 DPGEN
 -----
 Symbolic Z-matrix:
 Charge =  0 Multiplicity = 2

                         Standard orientation:
 ---------------------------------------------------------------------
 Center     Atomic      Atomic             Coordinates (Angstroms)
 Number     Number       Type             X           Y           Z
 ---------------------------------------------------------------------
      1         11           0        0.314541   -0.298648    1.991204
      2         11           0        2.754276    1.379011    0.103633
      3         11           0       -0.181235    0.186363   -1.619275
      4         11           0       -0.587622    2.801046   -0.102454
      5         11           0       -3.045651    0.330468    0.115142
      6         11           0       -1.415091   -2.373020   -0.039225
      7         11           0        2.160783   -2.025219   -0.449026
 ---------------------------------------------------------------------

 SCF Done:  E(UB3LYP) =  -1136.13855358     A.U. after   19 cycles

 The electronic state is 2-A.
 Alpha  occ. eigenvalues --  -38.43919 -38.43869 -38.43582 -38.43482 -38.43263
 Alpha  occ. eigenvalues --  -38.43221 -38.43063  -2.19755  -2.19744  -2.19439
 Alpha  occ. eigenvalues --   -2.19396  -2.19137  -2.19135  -2.19089  -1.13439
 Alpha  occ. eigenvalues --   -1.13431  -1.13422  -1.13399  -1.13393  -1.13392
 Alpha  occ. eigenvalues --   -1.13123  -1.13110  -1.13074  -1.13065  -1.13026
 Alpha  occ. eigenvalues --   -1.13008  -1.12931  -1.12853  -1.12793  -1.12790
 Alpha  occ. eigenvalues --   -1.12761  -1.12752  -1.12735  -1.12692  -1.12675
 Alpha  occ. eigenvalues --   -0.19013  -0.13186  -0.12522  -0.10798
 Alpha virt. eigenvalues --   -0.05550  -0.05158  -0.04537  -0.03257  -0.02882
 Alpha virt. eigenvalues --   -0.02487  -0.01477  -0.01064  -0.00248  -0.00166
 Alpha virt. eigenvalues --    0.00003   0.00366   0.00826   0.00907   0.00929

  Beta  occ. eigenvalues --  -38.43915 -38.43866 -38.43570 -38.43392 -38.43259
  Beta  occ. eigenvalues --  -38.43213 -38.42996  -2.19750  -2.19742  -2.19421
  Beta  occ. eigenvalues --   -2.19232  -2.19132  -2.19125  -2.18970  -1.13439
  Beta  occ. eigenvalues --   -1.13423  -1.13401  -1.13395  -1.13394  -1.13373
  Beta  occ. eigenvalues --   -1.13105  -1.13072  -1.13062  -1.12964  -1.12913
  Beta  occ. eigenvalues --   -1.12898  -1.12894  -1.12831  -1.12770  -1.12759
  Beta  occ. eigenvalues --   -1.12751  -1.12749  -1.12667  -1.12611  -1.12601
  Beta  occ. eigenvalues --   -0.18277  -0.12949  -0.12261
  Beta virt. eigenvalues --   -0.06865  -0.05514  -0.05147  -0.04512  -0.02454
  Beta virt. eigenvalues --   -0.02100  -0.01427  -0.01389  -0.00987  -0.00290
  Beta virt. eigenvalues --   -0.00221   0.00140   0.00390   0.00878   0.00914

 Mulliken charges and spin densities:
               1          2
     1  Na  -0.552305   0.716059
     2  Na   0.115145  -0.050964
     3  Na  -0.376860   0.460216
     4  Na   0.192330  -0.075396
     5  Na   0.115393  -0.023698
     6  Na   0.327542   0.000224
     7  Na   0.178755  -0.026441
 Sum of Mulliken charges =  -0.00000   1.00000

 Dipole moment (field-independent basis, Debye):
    X=              0.1686    Y=              0.0600    Z=              0.1866  Tot=              0.2586
 Quadrupole moment (field-independent basis, Debye-Ang):
   XX=            -56.0606   YY=            -63.3281   ZZ=            -74.0200
   XY=             -0.0885   XZ=             -1.1035   YZ=              1.2422

 Normal termination of Gaussian 16 at Thu Dec  7 05:09:37 2023.
