 Gaussian 16, Revision B.01,
 Gaussian 16:  ES64L-G16RevB.01 20-Dec-2017

 -------------------------
 #P B3LYP/6-311+g(d) force
 -------------------------

 -----
 DPGEN
 -----
 Symbolic Z-matrix:
 Charge =  0 Multiplicity = 2

                         Standard orientation:
 ---------------------------------------------------------------------
 Center     Atomic      Atomic             Coordinates (Angstroms)
 Number     Number       Type             X           Y           Z
 ---------------------------------------------------------------------
      1         11           0       -2.663156    1.489383   -0.512846
      2         11           0        3.104444   -0.410172    0.261070
      3         11           0        0.740891    0.326685   -1.545991
      4         11           0        0.764237   -2.898205   -0.430881
      5         11           0       -0.152050    0.185964    2.084657
      6         11           0        0.843576    3.069647   -0.001364
      7         11           0       -2.637942   -1.763302    0.145355
 ---------------------------------------------------------------------

 SCF Done:  E(UB3LYP) =  -1136.13484246     A.U. after   19 cycles

 The electronic state is 2-A.
 Alpha  occ. eigenvalues --  -38.44258 -38.44021 -38.43837 -38.43649 -38.43624
 Alpha  occ. eigenvalues --  -38.43597 -38.43213  -2.20107  -2.19833  -2.19663
 Alpha  occ. eigenvalues --   -2.19475  -2.19460  -2.19439  -2.19189  -1.13825
 Alpha  occ. eigenvalues --   -1.13763  -1.13725  -1.13514  -1.13498  -1.13468
 Alpha  occ. eigenvalues --   -1.13372  -1.13320  -1.13289  -1.13167  -1.13139
 Alpha  occ. eigenvalues --   -1.13124  -1.13116  -1.13109  -1.13100  -1.13086
 Alpha  occ. eigenvalues --   -1.13076  -1.13069  -1.12864  -1.12833  -1.12806
 Alpha  occ. eigenvalues --   -0.18313  -0.12965  -0.12514  -0.10579
 Alpha virt. eigenvalues --   -0.05796  -0.05185  -0.04959  -0.03209  -0.02899
 Alpha virt. eigenvalues --   -0.02481  -0.01446  -0.01301  -0.00560  -0.00475
 Alpha virt. eigenvalues --   -0.00008   0.00355   0.00801   0.00835   0.00870

  Beta  occ. eigenvalues --  -38.44253 -38.44011 -38.43833 -38.43641 -38.43624
  Beta  occ. eigenvalues --  -38.43499 -38.43163  -2.20100  -2.19817  -2.19660
  Beta  occ. eigenvalues --   -2.19464  -2.19440  -2.19278  -2.19098  -1.13817
  Beta  occ. eigenvalues --   -1.13745  -1.13716  -1.13501  -1.13475  -1.13459
  Beta  occ. eigenvalues --   -1.13365  -1.13304  -1.13284  -1.13154  -1.13118
  Beta  occ. eigenvalues --   -1.13114  -1.13101  -1.13091  -1.13076  -1.13002
  Beta  occ. eigenvalues --   -1.12960  -1.12943  -1.12797  -1.12770  -1.12737
  Beta  occ. eigenvalues --   -0.17612  -0.12763  -0.12295
  Beta virt. eigenvalues --   -0.06696  -0.05775  -0.05140  -0.04855  -0.02461
  Beta virt. eigenvalues --   -0.02183  -0.01445  -0.01362  -0.01238  -0.00574
  Beta virt. eigenvalues --   -0.00506   0.00146   0.00403   0.00802   0.00864

 Mulliken charges and spin densities:
               1          2
     1  Na  -0.047177  -0.015696
     2  Na   0.269949   0.028345
     3  Na   0.031006   0.298148
     4  Na  -0.055706  -0.021964
     5  Na  -0.377327   0.750628
     6  Na   0.169633  -0.025272
     7  Na   0.009622  -0.014189
 Sum of Mulliken charges =  -0.00000   1.00000

 Dipole moment (field-independent basis, Debye):
    X=              0.2473    Y=              0.1752    Z=              0.1345  Tot=              0.3316
 Quadrupole moment (field-independent basis, Debye-Ang):
   XX=            -58.3663   YY=            -60.2535   ZZ=            -75.1289
   XY=              0.0294   XZ=              1.8965   YZ=              0.2238

 Normal termination of Gaussian 16 at Thu Dec  7 06:29:07 2023.
