 Gaussian 16, Revision B.01,
 Gaussian 16:  ES64L-G16RevB.01 20-Dec-2017

 -------------------------
 #P B3LYP/6-311+g(d) force
 -------------------------

 -----
 DPGEN
 -----
 Symbolic Z-matrix:
 Charge =  0 Multiplicity = 2

                         Standard orientation:
 ---------------------------------------------------------------------
 Center     Atomic      Atomic             Coordinates (Angstroms)
 Number     Number       Type             X           Y           Z
 ---------------------------------------------------------------------
      1         11           0        0.216920   -0.290221   -1.772582
      2         11           0        1.133357   -2.348559   -0.001290
      3         11           0       -2.530774    0.966353   -0.511151
      4         11           0       -1.903922   -1.864479    0.321186
      5         11           0        3.092648    0.318840    0.069620
      6         11           0        0.251577    2.875577   -0.037748
      7         11           0       -0.259806    0.342489    1.931966
 ---------------------------------------------------------------------

 SCF Done:  E(UB3LYP) =  -1136.13179589     A.U. after   19 cycles

 The electronic state is 2-A.
 Alpha  occ. eigenvalues --  -38.43899 -38.43551 -38.43538 -38.43495 -38.43369
 Alpha  occ. eigenvalues --  -38.43283 -38.43167  -2.19732  -2.19534  -2.19524
 Alpha  occ. eigenvalues --   -2.19484  -2.19260  -2.19229  -2.19157  -1.13417
 Alpha  occ. eigenvalues --   -1.13406  -1.13368  -1.13347  -1.13271  -1.13205
 Alpha  occ. eigenvalues --   -1.13188  -1.13183  -1.13145  -1.13133  -1.13103
 Alpha  occ. eigenvalues --   -1.13094  -1.12955  -1.12904  -1.12894  -1.12886
 Alpha  occ. eigenvalues --   -1.12877  -1.12852  -1.12804  -1.12785  -1.12747
 Alpha  occ. eigenvalues --   -0.19564  -0.13112  -0.12732  -0.11297
 Alpha virt. eigenvalues --   -0.05416  -0.04700  -0.04504  -0.03341  -0.03147
 Alpha virt. eigenvalues --   -0.02742  -0.01282  -0.00889  -0.00069   0.00037
 Alpha virt. eigenvalues --    0.00225   0.00371   0.00922   0.00964   0.01019

  Beta  occ. eigenvalues --  -38.43898 -38.43521 -38.43465 -38.43419 -38.43366
  Beta  occ. eigenvalues --  -38.43275 -38.43153  -2.19734  -2.19458  -2.19395
  Beta  occ. eigenvalues --   -2.19368  -2.19248  -2.19226  -2.19138  -1.13414
  Beta  occ. eigenvalues --   -1.13393  -1.13368  -1.13277  -1.13230  -1.13145
  Beta  occ. eigenvalues --   -1.13118  -1.13087  -1.13066  -1.13050  -1.13023
  Beta  occ. eigenvalues --   -1.13016  -1.12939  -1.12890  -1.12870  -1.12865
  Beta  occ. eigenvalues --   -1.12852  -1.12834  -1.12792  -1.12742  -1.12726
  Beta  occ. eigenvalues --   -0.18780  -0.12857  -0.12458
  Beta virt. eigenvalues --   -0.07277  -0.05403  -0.04666  -0.04501  -0.02526
  Beta virt. eigenvalues --   -0.02319  -0.01661  -0.01202  -0.00821  -0.00015
  Beta virt. eigenvalues --    0.00070   0.00193   0.00388   0.00927   0.00972

 Mulliken charges and spin densities:
               1          2
     1  Na  -0.468865   0.459595
     2  Na   0.392108   0.022918
     3  Na   0.255455   0.041058
     4  Na   0.447291   0.108431
     5  Na  -0.049753  -0.121090
     6  Na   0.020389  -0.112731
     7  Na  -0.596624   0.601819
 Sum of Mulliken charges =  -0.00000   1.00000

 Dipole moment (field-independent basis, Debye):
    X=              0.3241    Y=              0.3394    Z=              0.1055  Tot=              0.4810
 Quadrupole moment (field-independent basis, Debye-Ang):
   XX=            -59.3226   YY=            -64.1786   ZZ=            -71.4776
   XY=              0.6674   XZ=              1.0959   YZ=             -1.3588

 Normal termination of Gaussian 16 at Tue Dec  5 19:20:16 2023.
