 Gaussian 16, Revision B.01,
 Gaussian 16:  ES64L-G16RevB.01 20-Dec-2017

 -------------------------
 #P B3LYP/6-311+g(d) force
 -------------------------

 -----
 DPGEN
 -----
 Symbolic Z-matrix:
 Charge =  0 Multiplicity = 2

                         Standard orientation:
 ---------------------------------------------------------------------
 Center     Atomic      Atomic             Coordinates (Angstroms)
 Number     Number       Type             X           Y           Z
 ---------------------------------------------------------------------
      1         11           0       -1.455401   -2.488763    0.043457
      2         11           0       -3.110314    0.714566   -0.030395
      3         11           0       -0.298532    0.386685   -1.780165
      4         11           0        2.716676    0.910155   -0.222372
      5         11           0        0.123189    3.082920    0.396891
      6         11           0        0.206855   -0.371970    1.801779
      7         11           0        1.817527   -2.233594   -0.209193
 ---------------------------------------------------------------------

 SCF Done:  E(UB3LYP) =  -1136.13882543     A.U. after   19 cycles

 The electronic state is 2-A.
 Alpha  occ. eigenvalues --  -38.43919 -38.43850 -38.43568 -38.43444 -38.43348
 Alpha  occ. eigenvalues --  -38.43274 -38.43180  -2.19730  -2.19672  -2.19453
 Alpha  occ. eigenvalues --   -2.19334  -2.19262  -2.19240  -2.19125  -1.13416
 Alpha  occ. eigenvalues --   -1.13387  -1.13368  -1.13343  -1.13338  -1.13310
 Alpha  occ. eigenvalues --   -1.13175  -1.13127  -1.13080  -1.13056  -1.13004
 Alpha  occ. eigenvalues --   -1.12984  -1.12970  -1.12911  -1.12892  -1.12877
 Alpha  occ. eigenvalues --   -1.12854  -1.12829  -1.12800  -1.12750  -1.12748
 Alpha  occ. eigenvalues --   -0.18895  -0.12898  -0.12786  -0.10667
 Alpha virt. eigenvalues --   -0.05552  -0.05033  -0.04866  -0.03122  -0.03027
 Alpha virt. eigenvalues --   -0.02357  -0.01306  -0.01246  -0.00371  -0.00213
 Alpha virt. eigenvalues --    0.00009   0.00370   0.00852   0.00882   0.00920

  Beta  occ. eigenvalues --  -38.43918 -38.43842 -38.43562 -38.43435 -38.43340
  Beta  occ. eigenvalues --  -38.43197 -38.43108  -2.19730  -2.19658  -2.19445
  Beta  occ. eigenvalues --   -2.19322  -2.19251  -2.19100  -2.18993  -1.13407
  Beta  occ. eigenvalues --   -1.13379  -1.13371  -1.13333  -1.13312  -1.13304
  Beta  occ. eigenvalues --   -1.13163  -1.13102  -1.13070  -1.13045  -1.12982
  Beta  occ. eigenvalues --   -1.12957  -1.12945  -1.12887  -1.12862  -1.12809
  Beta  occ. eigenvalues --   -1.12758  -1.12740  -1.12712  -1.12656  -1.12650
  Beta  occ. eigenvalues --   -0.18160  -0.12641  -0.12553
  Beta virt. eigenvalues --   -0.06777  -0.05540  -0.04929  -0.04875  -0.02341
  Beta virt. eigenvalues --   -0.02254  -0.01368  -0.01201  -0.01155  -0.00408
  Beta virt. eigenvalues --   -0.00267   0.00142   0.00395   0.00855   0.00901

 Mulliken charges and spin densities:
               1          2
     1  Na   0.225824  -0.080842
     2  Na   0.026540  -0.136756
     3  Na  -0.315014   0.597881
     4  Na   0.231148   0.004666
     5  Na  -0.025686  -0.055244
     6  Na  -0.369184   0.660696
     7  Na   0.226373   0.009600
 Sum of Mulliken charges =  -0.00000   1.00000

 Dipole moment (field-independent basis, Debye):
    X=             -0.2739    Y=              0.2235    Z=              0.0323  Tot=              0.3550
 Quadrupole moment (field-independent basis, Debye-Ang):
   XX=            -59.2896   YY=            -59.6365   ZZ=            -74.4163
   XY=             -0.4013   XZ=             -1.2327   YZ=              1.7545

 Normal termination of Gaussian 16 at Fri Dec  8 07:10:38 2023.
