 Gaussian 16, Revision B.01,
 Gaussian 16:  ES64L-G16RevB.01 20-Dec-2017

 -------------------------
 #P B3LYP/6-311+g(d) force
 -------------------------

 -----
 DPGEN
 -----
 Symbolic Z-matrix:
 Charge =  0 Multiplicity = 2

                         Standard orientation:
 ---------------------------------------------------------------------
 Center     Atomic      Atomic             Coordinates (Angstroms)
 Number     Number       Type             X           Y           Z
 ---------------------------------------------------------------------
      1         11           0        0.723128   -1.775048    1.301964
      2         11           0        0.374741   -1.548183   -2.071018
      3         11           0       -2.225385   -0.111512    2.444085
      4         11           0       -1.013084    1.434839   -0.260081
      5         11           0       -3.304599   -0.119788   -1.424910
      6         11           0        3.715649   -0.499853    0.143081
      7         11           0        1.729551    2.619546   -0.133121
 ---------------------------------------------------------------------

 SCF Done:  E(UB3LYP) =  -1136.11520677     A.U. after   24 cycles

 The electronic state is 2-A.
 Alpha  occ. eigenvalues --  -38.45323 -38.45159 -38.45052 -38.44959 -38.43375
 Alpha  occ. eigenvalues --  -38.42697 -38.42265  -2.21141  -2.20923  -2.20879
 Alpha  occ. eigenvalues --   -2.20759  -2.19215  -2.18669  -2.18094  -1.14851
 Alpha  occ. eigenvalues --   -1.14768  -1.14762  -1.14617  -1.14566  -1.14551
 Alpha  occ. eigenvalues --   -1.14543  -1.14507  -1.14486  -1.14434  -1.14414
 Alpha  occ. eigenvalues --   -1.14357  -1.12901  -1.12883  -1.12841  -1.12398
 Alpha  occ. eigenvalues --   -1.12343  -1.12309  -1.11783  -1.11745  -1.11713
 Alpha  occ. eigenvalues --   -0.17884  -0.13351  -0.12158  -0.11024
 Alpha virt. eigenvalues --   -0.06796  -0.05122  -0.04426  -0.03398  -0.03096
 Alpha virt. eigenvalues --   -0.02618  -0.02270  -0.01138  -0.00556  -0.00217
 Alpha virt. eigenvalues --    0.00138   0.00166   0.00239   0.00627   0.00755

  Beta  occ. eigenvalues --  -38.45291 -38.45161 -38.44962 -38.44897 -38.43356
  Beta  occ. eigenvalues --  -38.42687 -38.42274  -2.21084  -2.20927  -2.20713
  Beta  occ. eigenvalues --   -2.20644  -2.19182  -2.18654  -2.18111  -1.14812
  Beta  occ. eigenvalues --   -1.14727  -1.14712  -1.14618  -1.14569  -1.14558
  Beta  occ. eigenvalues --   -1.14426  -1.14391  -1.14375  -1.14359  -1.14337
  Beta  occ. eigenvalues --   -1.14268  -1.12883  -1.12856  -1.12801  -1.12392
  Beta  occ. eigenvalues --   -1.12307  -1.12296  -1.11795  -1.11754  -1.11725
  Beta  occ. eigenvalues --   -0.17130  -0.13199  -0.10894
  Beta virt. eigenvalues --   -0.08129  -0.06628  -0.04471  -0.04088  -0.03254
  Beta virt. eigenvalues --   -0.02401  -0.02165  -0.02060  -0.00635  -0.00546
  Beta virt. eigenvalues --   -0.00061   0.00196   0.00250   0.00284   0.00781

 Mulliken charges and spin densities:
               1          2
     1  Na  -0.185565   0.239071
     2  Na  -0.196665   0.290962
     3  Na  -0.032157   0.136629
     4  Na   0.127776   0.557639
     5  Na   0.435828   0.099393
     6  Na   0.291338   0.001253
     7  Na  -0.440555  -0.324948
 Sum of Mulliken charges =  -0.00000   1.00000

 Dipole moment (field-independent basis, Debye):
    X=             -0.5592    Y=             -1.2516    Z=             -0.1739  Tot=              1.3818
 Quadrupole moment (field-independent basis, Debye-Ang):
   XX=            -48.6964   YY=            -81.7238   ZZ=            -63.2727
   XY=             -1.1717   XZ=              0.1900   YZ=              2.5241

 Normal termination of Gaussian 16 at Sun Dec  3 17:08:05 2023.
