 Gaussian 16, Revision B.01,
 Gaussian 16:  ES64L-G16RevB.01 20-Dec-2017

 -------------------------
 #P B3LYP/6-311+g(d) force
 -------------------------

 -----
 DPGEN
 -----
 Symbolic Z-matrix:
 Charge =  0 Multiplicity = 2

                         Standard orientation:
 ---------------------------------------------------------------------
 Center     Atomic      Atomic             Coordinates (Angstroms)
 Number     Number       Type             X           Y           Z
 ---------------------------------------------------------------------
      1         11           0       -0.164171   -0.793318   -1.731243
      2         11           0       -0.704347    2.266061   -0.050672
      3         11           0       -3.324878    0.581630   -0.341988
      4         11           0        0.115419   -0.371332    1.822364
      5         11           0       -1.541224   -1.971163    0.564330
      6         11           0        2.934609   -1.475600   -0.368252
      7         11           0        2.684592    1.763721    0.105461
 ---------------------------------------------------------------------

 SCF Done:  E(UB3LYP) =  -1136.11767789     A.U. after   20 cycles

 The electronic state is 2-A.
 Alpha  occ. eigenvalues --  -38.44787 -38.44463 -38.43995 -38.43948 -38.43900
 Alpha  occ. eigenvalues --  -38.43733 -38.42692  -2.20653  -2.20289  -2.20025
 Alpha  occ. eigenvalues --   -2.19856  -2.19778  -2.19754  -2.18599  -1.14331
 Alpha  occ. eigenvalues --   -1.14308  -1.14295  -1.14085  -1.13962  -1.13954
 Alpha  occ. eigenvalues --   -1.13923  -1.13691  -1.13618  -1.13576  -1.13508
 Alpha  occ. eigenvalues --   -1.13445  -1.13442  -1.13432  -1.13430  -1.13310
 Alpha  occ. eigenvalues --   -1.13296  -1.13259  -1.12289  -1.12265  -1.12235
 Alpha  occ. eigenvalues --   -0.19214  -0.13895  -0.11876  -0.11089
 Alpha virt. eigenvalues --   -0.06507  -0.05362  -0.03786  -0.03521  -0.02618
 Alpha virt. eigenvalues --   -0.02555  -0.02271  -0.01108  -0.00251  -0.00037
 Alpha virt. eigenvalues --    0.00150   0.00266   0.00718   0.00780   0.00842

  Beta  occ. eigenvalues --  -38.44778 -38.44453 -38.43949 -38.43898 -38.43840
  Beta  occ. eigenvalues --  -38.43705 -38.42684  -2.20639  -2.20271  -2.19858
  Beta  occ. eigenvalues --   -2.19781  -2.19747  -2.19702  -2.18589  -1.14323
  Beta  occ. eigenvalues --   -1.14299  -1.14269  -1.13983  -1.13947  -1.13931
  Beta  occ. eigenvalues --   -1.13913  -1.13612  -1.13505  -1.13463  -1.13446
  Beta  occ. eigenvalues --   -1.13434  -1.13429  -1.13423  -1.13357  -1.13272
  Beta  occ. eigenvalues --   -1.13255  -1.13170  -1.12286  -1.12246  -1.12214
  Beta  occ. eigenvalues --   -0.18501  -0.13649  -0.11592
  Beta virt. eigenvalues --   -0.07156  -0.06390  -0.05337  -0.03585  -0.02925
  Beta virt. eigenvalues --   -0.02151  -0.01867  -0.01489  -0.01082  -0.00237
  Beta virt. eigenvalues --    0.00097   0.00151   0.00309   0.00793   0.00841

 Mulliken charges and spin densities:
               1          2
     1  Na  -0.182457   0.495520
     2  Na  -0.295104   0.042965
     3  Na   0.159975   0.012191
     4  Na   0.061729   0.333421
     5  Na   0.334826   0.113170
     6  Na   0.086868   0.052432
     7  Na  -0.165837  -0.049699
 Sum of Mulliken charges =  -0.00000   1.00000

 Dipole moment (field-independent basis, Debye):
    X=              0.1679    Y=             -0.1603    Z=             -0.2696  Tot=              0.3558
 Quadrupole moment (field-independent basis, Debye-Ang):
   XX=            -48.9303   YY=            -72.2725   ZZ=            -73.1296
   XY=             -0.3602   XZ=              0.4265   YZ=             -0.0237

 Normal termination of Gaussian 16 at Thu Dec  7 03:45:43 2023.
