 Gaussian 16, Revision B.01,
 Gaussian 16:  ES64L-G16RevB.01 20-Dec-2017

 -------------------------
 #P B3LYP/6-311+g(d) force
 -------------------------

 -----
 DPGEN
 -----
 Symbolic Z-matrix:
 Charge =  0 Multiplicity = 2

                         Standard orientation:
 ---------------------------------------------------------------------
 Center     Atomic      Atomic             Coordinates (Angstroms)
 Number     Number       Type             X           Y           Z
 ---------------------------------------------------------------------
      1         11           0        1.791220   -2.754675    0.314321
      2         11           0       -2.905013   -1.698819   -0.518074
      3         11           0       -0.329917   -0.309404    2.185105
      4         11           0       -2.611871    1.625781   -0.072271
      5         11           0        3.071481    0.567028   -0.441120
      6         11           0        0.816943    3.035106    0.099086
      7         11           0        0.167158   -0.465017   -1.567049
 ---------------------------------------------------------------------

 SCF Done:  E(UB3LYP) =  -1136.13422257     A.U. after   19 cycles

 The electronic state is 2-A.
 Alpha  occ. eigenvalues --  -38.44139 -38.44076 -38.44025 -38.43960 -38.43835
 Alpha  occ. eigenvalues --  -38.43534 -38.43163  -2.19953  -2.19893  -2.19865
 Alpha  occ. eigenvalues --   -2.19793  -2.19642  -2.19451  -2.18966  -1.13629
 Alpha  occ. eigenvalues --   -1.13619  -1.13598  -1.13570  -1.13565  -1.13556
 Alpha  occ. eigenvalues --   -1.13527  -1.13510  -1.13487  -1.13451  -1.13423
 Alpha  occ. eigenvalues --   -1.13408  -1.13318  -1.13300  -1.13284  -1.13137
 Alpha  occ. eigenvalues --   -1.13090  -1.13076  -1.12640  -1.12629  -1.12615
 Alpha  occ. eigenvalues --   -0.18014  -0.13225  -0.12090  -0.10716
 Alpha virt. eigenvalues --   -0.05778  -0.05492  -0.04828  -0.03262  -0.02785
 Alpha virt. eigenvalues --   -0.02613  -0.01696  -0.01312  -0.00670  -0.00449
 Alpha virt. eigenvalues --   -0.00056   0.00324   0.00719   0.00769   0.00801

  Beta  occ. eigenvalues --  -38.44124 -38.44073 -38.44015 -38.43858 -38.43830
  Beta  occ. eigenvalues --  -38.43488 -38.43165  -2.19927  -2.19890  -2.19848
  Beta  occ. eigenvalues --   -2.19635  -2.19603  -2.19368  -2.18972  -1.13615
  Beta  occ. eigenvalues --   -1.13595  -1.13573  -1.13561  -1.13546  -1.13545
  Beta  occ. eigenvalues --   -1.13509  -1.13503  -1.13479  -1.13328  -1.13310
  Beta  occ. eigenvalues --   -1.13295  -1.13291  -1.13277  -1.13258  -1.13075
  Beta  occ. eigenvalues --   -1.13030  -1.13016  -1.12643  -1.12632  -1.12610
  Beta  occ. eigenvalues --   -0.17343  -0.12983  -0.11896
  Beta virt. eigenvalues --   -0.06867  -0.05709  -0.05384  -0.04712  -0.02585
  Beta virt. eigenvalues --   -0.02116  -0.01615  -0.01554  -0.01213  -0.00700
  Beta virt. eigenvalues --   -0.00471   0.00115   0.00382   0.00774   0.00830

 Mulliken charges and spin densities:
               1          2
     1  Na   0.000711   0.010440
     2  Na   0.249162   0.053815
     3  Na  -0.355978   0.690073
     4  Na  -0.007104   0.038986
     5  Na   0.220332   0.053367
     6  Na  -0.196293  -0.013844
     7  Na   0.089170   0.167162
 Sum of Mulliken charges =  -0.00000   1.00000

 Dipole moment (field-independent basis, Debye):
    X=             -0.1874    Y=             -0.4344    Z=              0.0763  Tot=              0.4792
 Quadrupole moment (field-independent basis, Debye-Ang):
   XX=            -56.7874   YY=            -62.9160   ZZ=            -74.6754
   XY=             -0.6509   XZ=              0.5963   YZ=             -0.1459

 Normal termination of Gaussian 16 at Fri Dec  8 02:58:17 2023.
