 Gaussian 16, Revision B.01,
 Gaussian 16:  ES64L-G16RevB.01 20-Dec-2017

 -------------------------
 #P B3LYP/6-311+g(d) force
 -------------------------

 -----
 DPGEN
 -----
 Symbolic Z-matrix:
 Charge =  0 Multiplicity = 2

                         Standard orientation:
 ---------------------------------------------------------------------
 Center     Atomic      Atomic             Coordinates (Angstroms)
 Number     Number       Type             X           Y           Z
 ---------------------------------------------------------------------
      1         11           0        0.295367    0.188571    1.861147
      2         11           0        2.677396   -0.663301   -0.108128
      3         11           0        1.266976    2.279813   -0.312383
      4         11           0        0.033525   -0.193263   -1.860042
      5         11           0       -1.767619    1.937423    0.338207
      6         11           0       -2.551355   -0.933783   -0.304971
      7         11           0        0.045710   -2.615460    0.386169
 ---------------------------------------------------------------------

 SCF Done:  E(UB3LYP) =  -1136.13025324     A.U. after   19 cycles

 The electronic state is 2-A.
 Alpha  occ. eigenvalues --  -38.43613 -38.43596 -38.43366 -38.43337 -38.43218
 Alpha  occ. eigenvalues --  -38.43199 -38.43185  -2.19668  -2.19648  -2.19316
 Alpha  occ. eigenvalues --   -2.19293  -2.19194  -2.19176  -2.19137  -1.13380
 Alpha  occ. eigenvalues --   -1.13343  -1.13336  -1.13317  -1.13303  -1.13278
 Alpha  occ. eigenvalues --   -1.13034  -1.12994  -1.12978  -1.12972  -1.12961
 Alpha  occ. eigenvalues --   -1.12939  -1.12923  -1.12847  -1.12830  -1.12820
 Alpha  occ. eigenvalues --   -1.12808  -1.12791  -1.12782  -1.12743  -1.12726
 Alpha  occ. eigenvalues --   -0.20081  -0.13160  -0.12938  -0.11669
 Alpha virt. eigenvalues --   -0.04907  -0.04624  -0.04502  -0.03392  -0.03315
 Alpha virt. eigenvalues --   -0.02954  -0.00998  -0.00825  -0.00091   0.00368
 Alpha virt. eigenvalues --    0.00402   0.00426   0.00994   0.01035   0.01052

  Beta  occ. eigenvalues --  -38.43527 -38.43510 -38.43359 -38.43329 -38.43208
  Beta  occ. eigenvalues --  -38.43187 -38.43173  -2.19511  -2.19491  -2.19306
  Beta  occ. eigenvalues --   -2.19283  -2.19180  -2.19161  -2.19121  -1.13290
  Beta  occ. eigenvalues --   -1.13233  -1.13231  -1.13214  -1.13194  -1.13171
  Beta  occ. eigenvalues --   -1.13030  -1.12981  -1.12967  -1.12958  -1.12928
  Beta  occ. eigenvalues --   -1.12914  -1.12896  -1.12817  -1.12808  -1.12792
  Beta  occ. eigenvalues --   -1.12783  -1.12769  -1.12748  -1.12734  -1.12719
  Beta  occ. eigenvalues --   -0.19294  -0.12858  -0.12638
  Beta virt. eigenvalues --   -0.07615  -0.04902  -0.04620  -0.04499  -0.02524
  Beta virt. eigenvalues --   -0.02447  -0.01830  -0.00935  -0.00766   0.00052
  Beta virt. eigenvalues --    0.00343   0.00377   0.00390   0.01009   0.01018

 Mulliken charges and spin densities:
               1          2
     1  Na  -0.687370   0.512870
     2  Na   0.283391  -0.067092
     3  Na   0.355950   0.008274
     4  Na  -0.690132   0.522899
     5  Na   0.269132   0.018055
     6  Na   0.206695   0.003345
     7  Na   0.262333   0.001649
 Sum of Mulliken charges =  -0.00000   1.00000

 Dipole moment (field-independent basis, Debye):
    X=              0.1511    Y=             -0.0835    Z=             -0.0096  Tot=              0.1729
 Quadrupole moment (field-independent basis, Debye-Ang):
   XX=            -61.7553   YY=            -64.3509   ZZ=            -69.9167
   XY=             -0.0520   XZ=             -0.4729   YZ=             -0.7269

 Normal termination of Gaussian 16 at Sat Dec  9 06:48:14 2023.
