 Gaussian 16, Revision B.01,
 Gaussian 16:  ES64L-G16RevB.01 20-Dec-2017

 -------------------------
 #P B3LYP/6-311+g(d) force
 -------------------------

 -----
 DPGEN
 -----
 Symbolic Z-matrix:
 Charge =  0 Multiplicity = 2

                         Standard orientation:
 ---------------------------------------------------------------------
 Center     Atomic      Atomic             Coordinates (Angstroms)
 Number     Number       Type             X           Y           Z
 ---------------------------------------------------------------------
      1         11           0       -0.538874    3.097478   -0.090731
      2         11           0       -1.311465   -2.750602    0.219538
      3         11           0        2.334427   -2.106934   -0.050463
      4         11           0       -0.193939   -0.221920   -1.669218
      5         11           0        0.032209    0.373234    1.984553
      6         11           0       -3.234187    0.286223   -0.181501
      7         11           0        2.911829    1.322521   -0.212179
 ---------------------------------------------------------------------

 SCF Done:  E(UB3LYP) =  -1136.13875760     A.U. after   19 cycles

 The electronic state is 2-A.
 Alpha  occ. eigenvalues --  -38.44198 -38.44042 -38.43757 -38.43724 -38.43634
 Alpha  occ. eigenvalues --  -38.43383 -38.43229  -2.20003  -2.19843  -2.19559
 Alpha  occ. eigenvalues --   -2.19540  -2.19463  -2.19257  -2.19158  -1.13684
 Alpha  occ. eigenvalues --   -1.13662  -1.13638  -1.13519  -1.13508  -1.13482
 Alpha  occ. eigenvalues --   -1.13239  -1.13227  -1.13216  -1.13203  -1.13192
 Alpha  occ. eigenvalues --   -1.13183  -1.13149  -1.13128  -1.13092  -1.12930
 Alpha  occ. eigenvalues --   -1.12880  -1.12876  -1.12844  -1.12789  -1.12780
 Alpha  occ. eigenvalues --   -0.18222  -0.12838  -0.12455  -0.10386
 Alpha virt. eigenvalues --   -0.05748  -0.05295  -0.05052  -0.03021  -0.02885
 Alpha virt. eigenvalues --   -0.02345  -0.01591  -0.01285  -0.00692  -0.00603
 Alpha virt. eigenvalues --   -0.00008   0.00355   0.00778   0.00813   0.00852

  Beta  occ. eigenvalues --  -38.44193 -38.44038 -38.43754 -38.43722 -38.43629
  Beta  occ. eigenvalues --  -38.43293 -38.43167  -2.19997  -2.19838  -2.19557
  Beta  occ. eigenvalues --   -2.19539  -2.19455  -2.19090  -2.19045  -1.13669
  Beta  occ. eigenvalues --   -1.13649  -1.13637  -1.13507  -1.13498  -1.13480
  Beta  occ. eigenvalues --   -1.13230  -1.13212  -1.13210  -1.13194  -1.13193
  Beta  occ. eigenvalues --   -1.13181  -1.13141  -1.13104  -1.13089  -1.12821
  Beta  occ. eigenvalues --   -1.12764  -1.12762  -1.12755  -1.12709  -1.12696
  Beta  occ. eigenvalues --   -0.17512  -0.12620  -0.12243
  Beta virt. eigenvalues --   -0.06532  -0.05732  -0.05313  -0.04933  -0.02276
  Beta virt. eigenvalues --   -0.02134  -0.01496  -0.01327  -0.01199  -0.00747
  Beta virt. eigenvalues --   -0.00656   0.00137   0.00384   0.00803   0.00823

 Mulliken charges and spin densities:
               1          2
     1  Na   0.058374  -0.141726
     2  Na   0.079217  -0.035017
     3  Na   0.069409  -0.059347
     4  Na  -0.095012   0.596959
     5  Na  -0.335946   0.806873
     6  Na   0.162849  -0.082790
     7  Na   0.061108  -0.084952
 Sum of Mulliken charges =  -0.00000   1.00000

 Dipole moment (field-independent basis, Debye):
    X=             -0.1154    Y=              0.1127    Z=              0.0202  Tot=              0.1626
 Quadrupole moment (field-independent basis, Debye-Ang):
   XX=            -56.1875   YY=            -60.0555   ZZ=            -76.1997
   XY=             -0.0061   XZ=             -0.4662   YZ=             -1.4933

 Normal termination of Gaussian 16 at Thu Dec  7 15:26:12 2023.
