 Gaussian 16, Revision B.01,
 Gaussian 16:  ES64L-G16RevB.01 20-Dec-2017

 -------------------------
 #P B3LYP/6-311+g(d) force
 -------------------------

 -----
 DPGEN
 -----
 Symbolic Z-matrix:
 Charge =  0 Multiplicity = 2

                         Standard orientation:
 ---------------------------------------------------------------------
 Center     Atomic      Atomic             Coordinates (Angstroms)
 Number     Number       Type             X           Y           Z
 ---------------------------------------------------------------------
      1         11           0        0.921968   -1.498658   -0.136527
      2         11           0        5.785874   -0.561346   -0.571890
      3         11           0        3.154916    1.084369    0.152595
      4         11           0       -0.363176    2.008079   -0.273616
      5         11           0       -2.590710   -0.806129   -0.791536
      6         11           0       -1.217011   -0.321535    2.241345
      7         11           0       -5.691861    0.095219   -0.620371
 ---------------------------------------------------------------------

 SCF Done:  E(UB3LYP) =  -1136.11194447     A.U. after   23 cycles

 The electronic state is 2-A.
 Alpha  occ. eigenvalues --  -38.46248 -38.45190 -38.44396 -38.43985 -38.43665
 Alpha  occ. eigenvalues --  -38.43459 -38.43097  -2.22072  -2.21047  -2.20265
 Alpha  occ. eigenvalues --   -2.19768  -2.19518  -2.19348  -2.18874  -1.15739
 Alpha  occ. eigenvalues --   -1.15734  -1.15696  -1.14741  -1.14703  -1.14644
 Alpha  occ. eigenvalues --   -1.13936  -1.13893  -1.13870  -1.13446  -1.13426
 Alpha  occ. eigenvalues --   -1.13413  -1.13206  -1.13195  -1.13122  -1.13048
 Alpha  occ. eigenvalues --   -1.13028  -1.12967  -1.12536  -1.12534  -1.12517
 Alpha  occ. eigenvalues --   -0.18125  -0.13755  -0.11266  -0.11183
 Alpha virt. eigenvalues --   -0.07468  -0.06135  -0.04192  -0.03206  -0.02922
 Alpha virt. eigenvalues --   -0.02450  -0.02079  -0.01902  -0.01462  -0.01003
 Alpha virt. eigenvalues --   -0.00367   0.00173   0.00192   0.00337   0.00485

  Beta  occ. eigenvalues --  -38.46230 -38.45146 -38.44300 -38.43977 -38.43652
  Beta  occ. eigenvalues --  -38.43449 -38.43102  -2.22043  -2.20966  -2.20087
  Beta  occ. eigenvalues --   -2.19751  -2.19497  -2.19331  -2.18885  -1.15717
  Beta  occ. eigenvalues --   -1.15690  -1.15678  -1.14687  -1.14635  -1.14583
  Beta  occ. eigenvalues --   -1.13814  -1.13763  -1.13750  -1.13436  -1.13414
  Beta  occ. eigenvalues --   -1.13401  -1.13196  -1.13181  -1.13083  -1.13038
  Beta  occ. eigenvalues --   -1.13008  -1.12945  -1.12544  -1.12541  -1.12523
  Beta  occ. eigenvalues --   -0.17401  -0.13556  -0.11130
  Beta virt. eigenvalues --   -0.07330  -0.07182  -0.05885  -0.03811  -0.02889
  Beta virt. eigenvalues --   -0.02422  -0.02256  -0.01719  -0.01580  -0.00997
  Beta virt. eigenvalues --   -0.00845  -0.00271   0.00290   0.00419   0.00433

 Mulliken charges and spin densities:
               1          2
     1  Na  -0.201262   0.462743
     2  Na   0.342027   0.064865
     3  Na  -0.319277  -0.076869
     4  Na  -0.170431   0.540879
     5  Na  -0.399095  -0.082181
     6  Na   0.314470   0.109129
     7  Na   0.433568  -0.018567
 Sum of Mulliken charges =  -0.00000   1.00000

 Dipole moment (field-independent basis, Debye):
    X=              0.6526    Y=             -0.2479    Z=              1.6200  Tot=              1.7641
 Quadrupole moment (field-independent basis, Debye-Ang):
   XX=            -73.3493   YY=            -71.8677   ZZ=            -63.5861
   XY=             -5.6746   XZ=             -6.8394   YZ=              3.1410

 Normal termination of Gaussian 16 at Tue Nov 28 19:01:56 2023.
