 Gaussian 16, Revision B.01,
 Gaussian 16:  ES64L-G16RevB.01 20-Dec-2017

 -------------------------
 #P B3LYP/6-311+g(d) force
 -------------------------

 -----
 DPGEN
 -----
 Symbolic Z-matrix:
 Charge =  0 Multiplicity = 2

                         Standard orientation:
 ---------------------------------------------------------------------
 Center     Atomic      Atomic             Coordinates (Angstroms)
 Number     Number       Type             X           Y           Z
 ---------------------------------------------------------------------
      1         11           0        0.878864   -0.563775    2.214508
      2         11           0       -1.500508    2.101008   -0.453505
      3         11           0        4.230279   -0.507394    0.102779
      4         11           0       -4.915116    0.135867    0.385607
      5         11           0        2.080087    2.406473   -0.430348
      6         11           0       -2.110264   -1.807813   -0.626757
      7         11           0        1.336658   -1.764364   -1.192284
 ---------------------------------------------------------------------

 SCF Done:  E(UB3LYP) =  -1136.11296985     A.U. after   33 cycles

 The electronic state is 2-A.
 Alpha  occ. eigenvalues --  -38.46850 -38.44390 -38.44228 -38.44040 -38.43716
 Alpha  occ. eigenvalues --  -38.43686 -38.43316  -2.22588  -2.20180  -2.20055
 Alpha  occ. eigenvalues --   -2.19877  -2.19511  -2.19443  -2.19096  -1.16249
 Alpha  occ. eigenvalues --   -1.16234  -1.16225  -1.13833  -1.13824  -1.13789
 Alpha  occ. eigenvalues --   -1.13738  -1.13710  -1.13703  -1.13538  -1.13503
 Alpha  occ. eigenvalues --   -1.13496  -1.13219  -1.13182  -1.13153  -1.13133
 Alpha  occ. eigenvalues --   -1.13124  -1.13051  -1.12795  -1.12760  -1.12730
 Alpha  occ. eigenvalues --   -0.17110  -0.13932  -0.11292  -0.10621
 Alpha virt. eigenvalues --   -0.07848  -0.05404  -0.04510  -0.03296  -0.03142
 Alpha virt. eigenvalues --   -0.02281  -0.02200  -0.01969  -0.01224  -0.00716
 Alpha virt. eigenvalues --   -0.00539   0.00003   0.00207   0.00517   0.00641

  Beta  occ. eigenvalues --  -38.46821 -38.44312 -38.44208 -38.43965 -38.43714
  Beta  occ. eigenvalues --  -38.43689 -38.43320  -2.22535  -2.20033  -2.20022
  Beta  occ. eigenvalues --   -2.19737  -2.19511  -2.19451  -2.19107  -1.16207
  Beta  occ. eigenvalues --   -1.16199  -1.16184  -1.13732  -1.13723  -1.13717
  Beta  occ. eigenvalues --   -1.13694  -1.13693  -1.13648  -1.13438  -1.13409
  Beta  occ. eigenvalues --   -1.13405  -1.13221  -1.13182  -1.13160  -1.13125
  Beta  occ. eigenvalues --   -1.13106  -1.13052  -1.12806  -1.12768  -1.12718
  Beta  occ. eigenvalues --   -0.16599  -0.13193  -0.11118
  Beta virt. eigenvalues --   -0.07509  -0.07267  -0.05307  -0.03837  -0.03218
  Beta virt. eigenvalues --   -0.02815  -0.02094  -0.02001  -0.01397  -0.00781
  Beta virt. eigenvalues --   -0.00445  -0.00266   0.00054   0.00296   0.00601

 Mulliken charges and spin densities:
               1          2
     1  Na  -0.056682   0.092413
     2  Na  -0.260699  -0.041835
     3  Na   0.380156   0.468297
     4  Na   0.516026   0.433560
     5  Na  -0.262020  -0.035056
     6  Na  -0.235455   0.092001
     7  Na  -0.081326  -0.009381
 Sum of Mulliken charges =  -0.00000   1.00000

 Dipole moment (field-independent basis, Debye):
    X=              0.3102    Y=             -0.6748    Z=              1.5789  Tot=              1.7448
 Quadrupole moment (field-independent basis, Debye-Ang):
   XX=            -65.5153   YY=            -79.2051   ZZ=            -59.8809
   XY=             -0.7926   XZ=              0.6162   YZ=             -0.6649

 Normal termination of Gaussian 16 at Sun Dec  3 17:51:02 2023.
