 Gaussian 16, Revision B.01,
 Gaussian 16:  ES64L-G16RevB.01 20-Dec-2017

 -------------------------
 #P B3LYP/6-311+g(d) force
 -------------------------

 -----
 DPGEN
 -----
 Symbolic Z-matrix:
 Charge =  0 Multiplicity = 2

                         Standard orientation:
 ---------------------------------------------------------------------
 Center     Atomic      Atomic             Coordinates (Angstroms)
 Number     Number       Type             X           Y           Z
 ---------------------------------------------------------------------
      1         11           0        3.181519    0.266608    0.835971
      2         11           0        2.948634   -2.780153    0.752516
      3         11           0       -3.080919   -0.441933   -0.991043
      4         11           0        2.090926    3.450068   -0.156945
      5         11           0       -4.945370    0.354429    1.585948
      6         11           0       -0.227604   -2.129980   -1.174581
      7         11           0        0.032814    1.280961   -0.851866
 ---------------------------------------------------------------------

 SCF Done:  E(UB3LYP) =  -1136.12334822     A.U. after   20 cycles

 The electronic state is 2-A.
 Alpha  occ. eigenvalues --  -38.45117 -38.44372 -38.44154 -38.43926 -38.43727
 Alpha  occ. eigenvalues --  -38.43324 -38.43281  -2.20929  -2.20206  -2.20010
 Alpha  occ. eigenvalues --   -2.19812  -2.19578  -2.19168  -2.19110  -1.14558
 Alpha  occ. eigenvalues --   -1.14554  -1.14550  -1.13895  -1.13877  -1.13807
 Alpha  occ. eigenvalues --   -1.13692  -1.13686  -1.13643  -1.13500  -1.13495
 Alpha  occ. eigenvalues --   -1.13446  -1.13259  -1.13251  -1.13234  -1.12838
 Alpha  occ. eigenvalues --   -1.12815  -1.12801  -1.12792  -1.12759  -1.12730
 Alpha  occ. eigenvalues --   -0.16947  -0.14273  -0.12281  -0.11703
 Alpha virt. eigenvalues --   -0.05496  -0.05299  -0.04759  -0.04014  -0.02648
 Alpha virt. eigenvalues --   -0.02287  -0.02072  -0.01375  -0.00915  -0.00772
 Alpha virt. eigenvalues --   -0.00267   0.00013   0.00062   0.00413   0.00704

  Beta  occ. eigenvalues --  -38.44998 -38.44329 -38.44125 -38.43903 -38.43724
  Beta  occ. eigenvalues --  -38.43323 -38.43264  -2.20708  -2.20130  -2.19958
  Beta  occ. eigenvalues --   -2.19771  -2.19583  -2.19166  -2.19081  -1.14409
  Beta  occ. eigenvalues --   -1.14403  -1.14401  -1.13840  -1.13828  -1.13749
  Beta  occ. eigenvalues --   -1.13659  -1.13654  -1.13595  -1.13472  -1.13469
  Beta  occ. eigenvalues --   -1.13410  -1.13271  -1.13262  -1.13164  -1.12833
  Beta  occ. eigenvalues --   -1.12814  -1.12798  -1.12764  -1.12740  -1.12714
  Beta  occ. eigenvalues --   -0.16410  -0.13376  -0.12124
  Beta virt. eigenvalues --   -0.08063  -0.05180  -0.05023  -0.04489  -0.03790
  Beta virt. eigenvalues --   -0.02099  -0.01925  -0.01745  -0.01295  -0.00797
  Beta virt. eigenvalues --   -0.00419   0.00026   0.00193   0.00291   0.00467

 Mulliken charges and spin densities:
               1          2
     1  Na  -0.012518   0.213682
     2  Na  -0.064899   0.081551
     3  Na  -0.283030  -0.105951
     4  Na   1.507996   0.074998
     5  Na   0.373439   0.553974
     6  Na   0.256905   0.112874
     7  Na  -1.777893   0.068871
 Sum of Mulliken charges =  -0.00000   1.00000

 Dipole moment (field-independent basis, Debye):
    X=             -0.4865    Y=              0.1597    Z=              0.3335  Tot=              0.6111
 Quadrupole moment (field-independent basis, Debye-Ang):
   XX=            -64.6096   YY=            -63.8891   ZZ=            -68.0973
   XY=              2.0137   XZ=             -0.8791   YZ=              1.9886

 Normal termination of Gaussian 16 at Tue Nov 28 19:28:15 2023.
