 Gaussian 16, Revision B.01,
 Gaussian 16:  ES64L-G16RevB.01 20-Dec-2017

 -------------------------
 #P B3LYP/6-311+g(d) force
 -------------------------

 -----
 DPGEN
 -----
 Symbolic Z-matrix:
 Charge =  0 Multiplicity = 2

                         Standard orientation:
 ---------------------------------------------------------------------
 Center     Atomic      Atomic             Coordinates (Angstroms)
 Number     Number       Type             X           Y           Z
 ---------------------------------------------------------------------
      1         11           0       -2.112470    2.601391    0.085568
      2         11           0       -1.796745   -0.138822    2.562441
      3         11           0       -4.464940   -1.111389   -1.039679
      4         11           0       -1.179559   -1.944997   -1.149753
      5         11           0        1.290551    1.254488    0.069877
      6         11           0        3.796281    1.011677   -1.576009
      7         11           0        4.466882   -1.672349    1.047554
 ---------------------------------------------------------------------

 SCF Done:  E(UB3LYP) =  -1136.09989515     A.U. after   24 cycles

 The electronic state is 2-A.
 Alpha  occ. eigenvalues --  -38.45184 -38.44899 -38.44868 -38.44522 -38.44510
 Alpha  occ. eigenvalues --  -38.44326 -38.43677  -2.20958  -2.20642  -2.20600
 Alpha  occ. eigenvalues --   -2.20326  -2.20296  -2.20103  -2.19533  -1.14627
 Alpha  occ. eigenvalues --   -1.14589  -1.14563  -1.14330  -1.14314  -1.14289
 Alpha  occ. eigenvalues --   -1.14280  -1.14278  -1.14249  -1.14053  -1.13979
 Alpha  occ. eigenvalues --   -1.13948  -1.13946  -1.13939  -1.13888  -1.13767
 Alpha  occ. eigenvalues --   -1.13755  -1.13721  -1.13220  -1.13211  -1.13131
 Alpha  occ. eigenvalues --   -0.16375  -0.13972  -0.11395  -0.10439
 Alpha virt. eigenvalues --   -0.07304  -0.06615  -0.04569  -0.03191  -0.02872
 Alpha virt. eigenvalues --   -0.02588  -0.02319  -0.01968  -0.01516  -0.01014
 Alpha virt. eigenvalues --   -0.00483  -0.00197   0.00056   0.00092   0.00343

  Beta  occ. eigenvalues --  -38.45106 -38.44923 -38.44919 -38.44498 -38.44420
  Beta  occ. eigenvalues --  -38.44293 -38.43646  -2.20811  -2.20698  -2.20687
  Beta  occ. eigenvalues --   -2.20307  -2.20106  -2.20039  -2.19477  -1.14526
  Beta  occ. eigenvalues --   -1.14488  -1.14468  -1.14355  -1.14350  -1.14347
  Beta  occ. eigenvalues --   -1.14344  -1.14309  -1.14305  -1.14031  -1.13969
  Beta  occ. eigenvalues --   -1.13911  -1.13816  -1.13815  -1.13764  -1.13723
  Beta  occ. eigenvalues --   -1.13710  -1.13683  -1.13185  -1.13140  -1.13112
  Beta  occ. eigenvalues --   -0.16051  -0.13438  -0.11309
  Beta virt. eigenvalues --   -0.07244  -0.06874  -0.05804  -0.04456  -0.03217
  Beta virt. eigenvalues --   -0.02690  -0.02131  -0.01987  -0.01695  -0.01047
  Beta virt. eigenvalues --   -0.00712  -0.00250  -0.00016   0.00178   0.00284

 Mulliken charges and spin densities:
               1          2
     1  Na   0.329464  -0.269454
     2  Na   0.076005   0.402483
     3  Na   0.074380   0.220308
     4  Na   0.004474  -0.228643
     5  Na  -1.263116   0.430515
     6  Na   0.682188  -0.105206
     7  Na   0.096606   0.549997
 Sum of Mulliken charges =  -0.00000   1.00000

 Dipole moment (field-independent basis, Debye):
    X=             -1.1097    Y=              0.5674    Z=             -0.2178  Tot=              1.2652
 Quadrupole moment (field-independent basis, Debye-Ang):
   XX=            -58.8870   YY=            -74.0570   ZZ=            -70.8786
   XY=             -4.4561   XZ=             -5.8638   YZ=             -5.8646

 Normal termination of Gaussian 16 at Sun Dec  3 23:47:57 2023.
