 Gaussian 16, Revision B.01,
 Gaussian 16:  ES64L-G16RevB.01 20-Dec-2017

 -------------------------
 #P B3LYP/6-311+g(d) force
 -------------------------

 -----
 DPGEN
 -----
 Symbolic Z-matrix:
 Charge =  0 Multiplicity = 2

                         Standard orientation:
 ---------------------------------------------------------------------
 Center     Atomic      Atomic             Coordinates (Angstroms)
 Number     Number       Type             X           Y           Z
 ---------------------------------------------------------------------
      1         11           0        2.973480    1.019378   -0.320624
      2         11           0        1.933559   -2.281790   -0.309030
      3         11           0       -0.193436   -0.052210   -1.290422
      4         11           0       -1.607268   -2.520820   -0.068699
      5         11           0        0.499563    0.191123    2.311797
      6         11           0       -3.284744    0.541892    0.022865
      7         11           0       -0.321155    3.102427   -0.345886
 ---------------------------------------------------------------------

 SCF Done:  E(UB3LYP) =  -1136.13498488     A.U. after   19 cycles

 The electronic state is 2-A.
 Alpha  occ. eigenvalues --  -38.44277 -38.44103 -38.43734 -38.43715 -38.43526
 Alpha  occ. eigenvalues --  -38.43516 -38.42842  -2.20075  -2.19926  -2.19555
 Alpha  occ. eigenvalues --   -2.19535  -2.19386  -2.19375  -2.18881  -1.13752
 Alpha  occ. eigenvalues --   -1.13738  -1.13711  -1.13603  -1.13588  -1.13562
 Alpha  occ. eigenvalues --   -1.13232  -1.13207  -1.13194  -1.13175  -1.13172
 Alpha  occ. eigenvalues --   -1.13160  -1.13121  -1.13073  -1.13041  -1.13030
 Alpha  occ. eigenvalues --   -1.13018  -1.12984  -1.12572  -1.12526  -1.12506
 Alpha  occ. eigenvalues --   -0.18353  -0.12960  -0.12415  -0.10558
 Alpha virt. eigenvalues --   -0.05869  -0.05162  -0.04857  -0.03045  -0.02733
 Alpha virt. eigenvalues --   -0.02511  -0.01637  -0.01218  -0.00668  -0.00490
 Alpha virt. eigenvalues --   -0.00028   0.00321   0.00771   0.00809   0.00865

  Beta  occ. eigenvalues --  -38.44278 -38.44096 -38.43728 -38.43600 -38.43524
  Beta  occ. eigenvalues --  -38.43508 -38.42802  -2.20078  -2.19916  -2.19527
  Beta  occ. eigenvalues --   -2.19384  -2.19364  -2.19342  -2.18811  -1.13748
  Beta  occ. eigenvalues --   -1.13734  -1.13716  -1.13592  -1.13565  -1.13558
  Beta  occ. eigenvalues --   -1.13220  -1.13179  -1.13157  -1.13116  -1.13067
  Beta  occ. eigenvalues --   -1.13058  -1.13028  -1.13027  -1.13022  -1.13018
  Beta  occ. eigenvalues --   -1.12998  -1.12983  -1.12512  -1.12475  -1.12453
  Beta  occ. eigenvalues --   -0.17677  -0.12774  -0.12203
  Beta virt. eigenvalues --   -0.06552  -0.05835  -0.05165  -0.04787  -0.02308
  Beta virt. eigenvalues --   -0.01995  -0.01558  -0.01413  -0.01149  -0.00707
  Beta virt. eigenvalues --   -0.00528   0.00167   0.00376   0.00810   0.00834

 Mulliken charges and spin densities:
               1          2
     1  Na   0.311516   0.036278
     2  Na   0.351340   0.079568
     3  Na  -0.517246   0.053666
     4  Na   0.276148   0.052441
     5  Na  -0.682000   0.770615
     6  Na   0.142028   0.013006
     7  Na   0.118214  -0.005574
 Sum of Mulliken charges =  -0.00000   1.00000

 Dipole moment (field-independent basis, Debye):
    X=             -0.1106    Y=              0.1847    Z=              0.1581  Tot=              0.2671
 Quadrupole moment (field-independent basis, Debye-Ang):
   XX=            -55.2409   YY=            -61.2159   ZZ=            -76.0577
   XY=             -0.1244   XZ=             -1.7046   YZ=             -0.4655

 Normal termination of Gaussian 16 at Sat Dec  9 05:59:33 2023.
