 Gaussian 16, Revision B.01,
 Gaussian 16:  ES64L-G16RevB.01 20-Dec-2017

 -------------------------
 #P B3LYP/6-311+g(d) force
 -------------------------

 -----
 DPGEN
 -----
 Symbolic Z-matrix:
 Charge =  0 Multiplicity = 2

                         Standard orientation:
 ---------------------------------------------------------------------
 Center     Atomic      Atomic             Coordinates (Angstroms)
 Number     Number       Type             X           Y           Z
 ---------------------------------------------------------------------
      1         11           0        3.369848   -1.409325    1.298959
      2         11           0       -3.918450   -0.053988    0.363106
      3         11           0       -2.872834   -3.132195   -0.421548
      4         11           0        0.571472    3.161300   -0.912141
      5         11           0        4.143469    1.403476   -0.423477
      6         11           0        1.012188   -3.620266   -0.503429
      7         11           0       -2.305694    3.650997    0.598530
 ---------------------------------------------------------------------

 SCF Done:  E(UB3LYP) =  -1136.10603356     A.U. after   22 cycles

 The electronic state is 2-A.
 Alpha  occ. eigenvalues --  -38.45250 -38.45113 -38.44925 -38.44473 -38.44261
 Alpha  occ. eigenvalues --  -38.44093 -38.44083  -2.21002  -2.20865  -2.20694
 Alpha  occ. eigenvalues --   -2.20244  -2.20026  -2.19887  -2.19872  -1.14685
 Alpha  occ. eigenvalues --   -1.14675  -1.14634  -1.14551  -1.14537  -1.14513
 Alpha  occ. eigenvalues --   -1.14364  -1.14354  -1.14315  -1.13903  -1.13890
 Alpha  occ. eigenvalues --   -1.13858  -1.13704  -1.13694  -1.13668  -1.13540
 Alpha  occ. eigenvalues --   -1.13531  -1.13526  -1.13522  -1.13521  -1.13514
 Alpha  occ. eigenvalues --   -0.15222  -0.13678  -0.13363  -0.10798
 Alpha virt. eigenvalues --   -0.07651  -0.04927  -0.04813  -0.03482  -0.03304
 Alpha virt. eigenvalues --   -0.02352  -0.02122  -0.01852  -0.01598  -0.01064
 Alpha virt. eigenvalues --   -0.00848  -0.00132   0.00150   0.00288   0.00572

  Beta  occ. eigenvalues --  -38.45240 -38.45121 -38.44879 -38.44395 -38.44259
  Beta  occ. eigenvalues --  -38.44054 -38.44032  -2.20987  -2.20885  -2.20610
  Beta  occ. eigenvalues --   -2.20100  -2.20027  -2.19820  -2.19772  -1.14678
  Beta  occ. eigenvalues --   -1.14669  -1.14598  -1.14569  -1.14554  -1.14490
  Beta  occ. eigenvalues --   -1.14309  -1.14300  -1.14245  -1.13804  -1.13793
  Beta  occ. eigenvalues --   -1.13763  -1.13708  -1.13697  -1.13642  -1.13496
  Beta  occ. eigenvalues --   -1.13483  -1.13478  -1.13461  -1.13450  -1.13447
  Beta  occ. eigenvalues --   -0.14691  -0.13011  -0.12652
  Beta virt. eigenvalues --   -0.07760  -0.07650  -0.04469  -0.04430  -0.03299
  Beta virt. eigenvalues --   -0.02973  -0.02087  -0.01867  -0.01636  -0.01468
  Beta virt. eigenvalues --   -0.00811  -0.00569   0.00067   0.00177   0.00300

 Mulliken charges and spin densities:
               1          2
     1  Na  -0.055808  -0.044783
     2  Na  -0.193322   0.234834
     3  Na   0.375074  -0.051990
     4  Na  -0.409524   0.082247
     5  Na   0.182269   0.285913
     6  Na  -0.251652   0.371395
     7  Na   0.352962   0.122384
 Sum of Mulliken charges =  -0.00000   1.00000

 Dipole moment (field-independent basis, Debye):
    X=              0.0172    Y=              0.3266    Z=              0.1171  Tot=              0.3474
 Quadrupole moment (field-independent basis, Debye-Ang):
   XX=            -65.4591   YY=            -67.7015   ZZ=            -68.5060
   XY=             -1.8898   XZ=             -1.5554   YZ=              0.4560

 Normal termination of Gaussian 16 at Sun Dec  3 13:16:11 2023.
