 Gaussian 16, Revision B.01,
 Gaussian 16:  ES64L-G16RevB.01 20-Dec-2017

 -------------------------
 #P B3LYP/6-311+g(d) force
 -------------------------

 -----
 DPGEN
 -----
 Symbolic Z-matrix:
 Charge =  0 Multiplicity = 2

                         Standard orientation:
 ---------------------------------------------------------------------
 Center     Atomic      Atomic             Coordinates (Angstroms)
 Number     Number       Type             X           Y           Z
 ---------------------------------------------------------------------
      1         11           0       -0.255981    1.534846   -0.206008
      2         11           0        2.802943    3.178342    0.523969
      3         11           0        3.342007    0.352366   -0.426983
      4         11           0        3.132304   -2.858690   -0.185602
      5         11           0       -0.128851   -2.057155    0.135866
      6         11           0       -3.607890   -1.070802    0.801257
      7         11           0       -5.284532    0.921093   -0.642499
 ---------------------------------------------------------------------

 SCF Done:  E(UB3LYP) =  -1136.12070941     A.U. after   21 cycles

 The electronic state is 2-A.
 Alpha  occ. eigenvalues --  -38.45157 -38.44390 -38.44339 -38.43989 -38.43887
 Alpha  occ. eigenvalues --  -38.43616 -38.43208  -2.20945  -2.20230  -2.20167
 Alpha  occ. eigenvalues --   -2.19883  -2.19725  -2.19449  -2.19048  -1.14642
 Alpha  occ. eigenvalues --   -1.14630  -1.14517  -1.14028  -1.13863  -1.13853
 Alpha  occ. eigenvalues --   -1.13824  -1.13793  -1.13747  -1.13619  -1.13556
 Alpha  occ. eigenvalues --   -1.13536  -1.13372  -1.13367  -1.13330  -1.13133
 Alpha  occ. eigenvalues --   -1.13128  -1.13061  -1.12717  -1.12698  -1.12675
 Alpha  occ. eigenvalues --   -0.16830  -0.14408  -0.12405  -0.10993
 Alpha virt. eigenvalues --   -0.06474  -0.05069  -0.04409  -0.03876  -0.03293
 Alpha virt. eigenvalues --   -0.02415  -0.01888  -0.01295  -0.00938  -0.00764
 Alpha virt. eigenvalues --   -0.00311   0.00018   0.00312   0.00429   0.00727

  Beta  occ. eigenvalues --  -38.45115 -38.44336 -38.44309 -38.43954 -38.43886
  Beta  occ. eigenvalues --  -38.43578 -38.43183  -2.20868  -2.20173  -2.20079
  Beta  occ. eigenvalues --   -2.19820  -2.19722  -2.19381  -2.19003  -1.14591
  Beta  occ. eigenvalues --   -1.14574  -1.14462  -1.13965  -1.13849  -1.13794
  Beta  occ. eigenvalues --   -1.13747  -1.13737  -1.13676  -1.13583  -1.13512
  Beta  occ. eigenvalues --   -1.13492  -1.13371  -1.13351  -1.13319  -1.13088
  Beta  occ. eigenvalues --   -1.13081  -1.13006  -1.12675  -1.12668  -1.12649
  Beta  occ. eigenvalues --   -0.16208  -0.13679  -0.12228
  Beta virt. eigenvalues --   -0.07549  -0.06112  -0.04869  -0.03990  -0.03552
  Beta virt. eigenvalues --   -0.02945  -0.02158  -0.01743  -0.01007  -0.00880
  Beta virt. eigenvalues --   -0.00320  -0.00079   0.00233   0.00482   0.00549

 Mulliken charges and spin densities:
               1          2
     1  Na  -0.999104   0.000416
     2  Na   1.122821   0.086007
     3  Na  -0.694284   0.320163
     4  Na   1.075048   0.190290
     5  Na  -0.776772  -0.048502
     6  Na   0.057179   0.099210
     7  Na   0.215111   0.352416
 Sum of Mulliken charges =  -0.00000   1.00000

 Dipole moment (field-independent basis, Debye):
    X=             -0.1652    Y=              0.8840    Z=              0.0982  Tot=              0.9046
 Quadrupole moment (field-independent basis, Debye-Ang):
   XX=            -67.7814   YY=            -62.1853   ZZ=            -70.4263
   XY=              1.1427   XZ=              1.9765   YZ=             -1.6545

 Normal termination of Gaussian 16 at Tue Nov 28 20:02:54 2023.
