 Gaussian 16, Revision B.01,
 Gaussian 16:  ES64L-G16RevB.01 20-Dec-2017

 -------------------------
 #P B3LYP/6-311+g(d) force
 -------------------------

 -----
 DPGEN
 -----
 Symbolic Z-matrix:
 Charge =  0 Multiplicity = 2

                         Standard orientation:
 ---------------------------------------------------------------------
 Center     Atomic      Atomic             Coordinates (Angstroms)
 Number     Number       Type             X           Y           Z
 ---------------------------------------------------------------------
      1         11           0        1.464786   -0.131120    1.822756
      2         11           0       -2.066502   -1.729589    1.017939
      3         11           0        1.030583   -1.616562   -1.095876
      4         11           0        3.862254    0.055138   -0.062973
      5         11           0        0.669026    2.118802   -1.012328
      6         11           0       -2.420121   -0.301346   -1.810483
      7         11           0       -2.540026    1.604677    1.140964
 ---------------------------------------------------------------------

 SCF Done:  E(UB3LYP) =  -1136.12286554     A.U. after   25 cycles

 The electronic state is 2-A.
 Alpha  occ. eigenvalues --  -38.45406 -38.44621 -38.44548 -38.43745 -38.43426
 Alpha  occ. eigenvalues --  -38.43276 -38.43088  -2.21244  -2.20510  -2.20399
 Alpha  occ. eigenvalues --   -2.19565  -2.19300  -2.19143  -2.18888  -1.14958
 Alpha  occ. eigenvalues --   -1.14893  -1.14864  -1.14193  -1.14153  -1.14121
 Alpha  occ. eigenvalues --   -1.14076  -1.14059  -1.14013  -1.13241  -1.13228
 Alpha  occ. eigenvalues --   -1.13191  -1.13006  -1.12962  -1.12907  -1.12817
 Alpha  occ. eigenvalues --   -1.12809  -1.12771  -1.12585  -1.12561  -1.12497
 Alpha  occ. eigenvalues --   -0.18282  -0.14282  -0.11308  -0.10666
 Alpha virt. eigenvalues --   -0.06713  -0.05427  -0.04784  -0.03091  -0.02750
 Alpha virt. eigenvalues --   -0.02480  -0.02368  -0.00980  -0.00561  -0.00274
 Alpha virt. eigenvalues --    0.00097   0.00213   0.00329   0.00637   0.00684

  Beta  occ. eigenvalues --  -38.45406 -38.44575 -38.44509 -38.43720 -38.43395
  Beta  occ. eigenvalues --  -38.43258 -38.43069  -2.21246  -2.20426  -2.20329
  Beta  occ. eigenvalues --   -2.19520  -2.19246  -2.19114  -2.18853  -1.14949
  Beta  occ. eigenvalues --   -1.14893  -1.14865  -1.14137  -1.14088  -1.14063
  Beta  occ. eigenvalues --   -1.14031  -1.13998  -1.13963  -1.13207  -1.13192
  Beta  occ. eigenvalues --   -1.13157  -1.12973  -1.12901  -1.12870  -1.12802
  Beta  occ. eigenvalues --   -1.12778  -1.12737  -1.12563  -1.12520  -1.12476
  Beta  occ. eigenvalues --   -0.17584  -0.14080  -0.10502
  Beta virt. eigenvalues --   -0.07512  -0.06525  -0.04861  -0.04522  -0.02883
  Beta virt. eigenvalues --   -0.02304  -0.02129  -0.01733  -0.00570  -0.00419
  Beta virt. eigenvalues --   -0.00165   0.00206   0.00268   0.00358   0.00750

 Mulliken charges and spin densities:
               1          2
     1  Na  -0.158683   0.135170
     2  Na   0.137668   0.190396
     3  Na  -0.226870   0.272115
     4  Na   0.636003   0.035820
     5  Na  -0.484830   0.077767
     6  Na   0.181193   0.206843
     7  Na  -0.084481   0.081888
 Sum of Mulliken charges =  -0.00000   1.00000

 Dipole moment (field-independent basis, Debye):
    X=              1.2037    Y=             -0.0928    Z=             -0.0593  Tot=              1.2087
 Quadrupole moment (field-independent basis, Debye-Ang):
   XX=            -47.2588   YY=            -80.9227   ZZ=            -65.9451
   XY=              0.3752   XZ=             -0.2294   YZ=              0.6910

 Normal termination of Gaussian 16 at Fri Dec  8 01:38:17 2023.
