 Gaussian 16, Revision B.01,
 Gaussian 16:  ES64L-G16RevB.01 20-Dec-2017

 -------------------------
 #P B3LYP/6-311+g(d) force
 -------------------------

 -----
 DPGEN
 -----
 Symbolic Z-matrix:
 Charge =  0 Multiplicity = 2

                         Standard orientation:
 ---------------------------------------------------------------------
 Center     Atomic      Atomic             Coordinates (Angstroms)
 Number     Number       Type             X           Y           Z
 ---------------------------------------------------------------------
      1         11           0       -3.670676    0.224725    0.495174
      2         11           0        3.939620   -0.135106    0.161174
      3         11           0        1.641278   -2.509323   -0.173270
      4         11           0       -1.990198   -2.906145   -0.448788
      5         11           0        1.787551    2.593044   -0.138803
      6         11           0       -1.712844    2.885577   -0.478104
      7         11           0        0.005268   -0.152771    0.582617
 ---------------------------------------------------------------------

 SCF Done:  E(UB3LYP) =  -1136.12673116     A.U. after   21 cycles

 The electronic state is 2-A.
 Alpha  occ. eigenvalues --  -38.44430 -38.44280 -38.44182 -38.44052 -38.43999
 Alpha  occ. eigenvalues --  -38.43329 -38.43144  -2.20228  -2.20159  -2.19996
 Alpha  occ. eigenvalues --   -2.19991  -2.19841  -2.19186  -2.18990  -1.13974
 Alpha  occ. eigenvalues --   -1.13907  -1.13883  -1.13865  -1.13826  -1.13753
 Alpha  occ. eigenvalues --   -1.13704  -1.13677  -1.13665  -1.13640  -1.13616
 Alpha  occ. eigenvalues --   -1.13604  -1.13512  -1.13495  -1.13459  -1.12843
 Alpha  occ. eigenvalues --   -1.12835  -1.12800  -1.12646  -1.12628  -1.12616
 Alpha  occ. eigenvalues --   -0.17531  -0.13933  -0.13296  -0.09672
 Alpha virt. eigenvalues --   -0.06632  -0.05833  -0.04248  -0.03248  -0.02528
 Alpha virt. eigenvalues --   -0.02475  -0.02221  -0.01533  -0.01098  -0.00268
 Alpha virt. eigenvalues --    0.00008   0.00278   0.00560   0.00694   0.00715

  Beta  occ. eigenvalues --  -38.44418 -38.44266 -38.44174 -38.44051 -38.43973
  Beta  occ. eigenvalues --  -38.43263 -38.43070  -2.20209  -2.20140  -2.19991
  Beta  occ. eigenvalues --   -2.19986  -2.19797  -2.19063  -2.18852  -1.13967
  Beta  occ. eigenvalues --   -1.13898  -1.13874  -1.13828  -1.13819  -1.13701
  Beta  occ. eigenvalues --   -1.13694  -1.13679  -1.13666  -1.13625  -1.13601
  Beta  occ. eigenvalues --   -1.13582  -1.13486  -1.13472  -1.13405  -1.12757
  Beta  occ. eigenvalues --   -1.12751  -1.12722  -1.12551  -1.12537  -1.12523
  Beta  occ. eigenvalues --   -0.17204  -0.13231  -0.12692
  Beta virt. eigenvalues --   -0.06662  -0.06375  -0.05636  -0.04104  -0.02505
  Beta virt. eigenvalues --   -0.02283  -0.02114  -0.01829  -0.01381  -0.00973
  Beta virt. eigenvalues --   -0.00147   0.00314   0.00496   0.00588   0.00769

 Mulliken charges and spin densities:
               1          2
     1  Na   0.486191   0.537370
     2  Na   0.572882   0.450470
     3  Na   0.529677   0.155122
     4  Na   0.473458   0.004797
     5  Na   0.267880   0.108553
     6  Na   0.456147  -0.006725
     7  Na  -2.786235  -0.249587
 Sum of Mulliken charges =  -0.00000   1.00000

 Dipole moment (field-independent basis, Debye):
    X=              0.0151    Y=             -0.2601    Z=             -0.6208  Tot=              0.6732
 Quadrupole moment (field-independent basis, Debye-Ang):
   XX=            -70.2022   YY=            -58.8423   ZZ=            -70.6561
   XY=              4.5211   XZ=              1.3819   YZ=              0.1771

 Normal termination of Gaussian 16 at Wed Nov 29 17:19:46 2023.
