 Gaussian 16, Revision B.01,
 Gaussian 16:  ES64L-G16RevB.01 20-Dec-2017

 -------------------------
 #P B3LYP/6-311+g(d) force
 -------------------------

 -----
 DPGEN
 -----
 Symbolic Z-matrix:
 Charge =  0 Multiplicity = 2

                         Standard orientation:
 ---------------------------------------------------------------------
 Center     Atomic      Atomic             Coordinates (Angstroms)
 Number     Number       Type             X           Y           Z
 ---------------------------------------------------------------------
      1         11           0       -0.040629   -0.189400   -1.868617
      2         11           0       -1.222573   -1.865454    0.096822
      3         11           0       -2.666023    0.658438    0.039996
      4         11           0       -0.087650   -0.097772    1.905850
      5         11           0       -0.103913    2.148911   -0.239015
      6         11           0        2.454817    0.979332    0.232067
      7         11           0        1.665971   -1.634055   -0.167103
 ---------------------------------------------------------------------

 SCF Done:  E(UB3LYP) =  -1136.09310237     A.U. after   19 cycles

 The electronic state is 2-A.
 Alpha  occ. eigenvalues --  -38.44402 -38.44245 -38.43853 -38.43755 -38.43467
 Alpha  occ. eigenvalues --  -38.43320 -38.43018  -2.20593  -2.20394  -2.19904
 Alpha  occ. eigenvalues --   -2.19768  -2.19607  -2.19480  -2.19127  -1.14379
 Alpha  occ. eigenvalues --   -1.14281  -1.14212  -1.14182  -1.14049  -1.13997
 Alpha  occ. eigenvalues --   -1.13756  -1.13632  -1.13525  -1.13503  -1.13463
 Alpha  occ. eigenvalues --   -1.13392  -1.13353  -1.13223  -1.13150  -1.13114
 Alpha  occ. eigenvalues --   -1.13095  -1.12972  -1.12809  -1.12759  -1.12717
 Alpha  occ. eigenvalues --   -0.21365  -0.13848  -0.12695  -0.12391
 Alpha virt. eigenvalues --   -0.05255  -0.04241  -0.03946  -0.03821  -0.03225
 Alpha virt. eigenvalues --   -0.03104  -0.01157  -0.00421  -0.00141   0.00351
 Alpha virt. eigenvalues --    0.00712   0.00784   0.01054   0.01140   0.01203

  Beta  occ. eigenvalues --  -38.44304 -38.44148 -38.43845 -38.43749 -38.43452
  Beta  occ. eigenvalues --  -38.43303 -38.43003  -2.20415  -2.20219  -2.19894
  Beta  occ. eigenvalues --   -2.19761  -2.19587  -2.19458  -2.19107  -1.14270
  Beta  occ. eigenvalues --   -1.14152  -1.14086  -1.14070  -1.13929  -1.13873
  Beta  occ. eigenvalues --   -1.13750  -1.13626  -1.13522  -1.13464  -1.13453
  Beta  occ. eigenvalues --   -1.13351  -1.13341  -1.13163  -1.13129  -1.13086
  Beta  occ. eigenvalues --   -1.13032  -1.12966  -1.12792  -1.12713  -1.12696
  Beta  occ. eigenvalues --   -0.20519  -0.13491  -0.12335
  Beta virt. eigenvalues --   -0.08217  -0.05275  -0.04235  -0.03887  -0.02860
  Beta virt. eigenvalues --   -0.02298  -0.02040  -0.01081  -0.00389   0.00016
  Beta virt. eigenvalues --    0.00369   0.00704   0.00764   0.01072   0.01145

 Mulliken charges and spin densities:
               1          2
     1  Na  -0.121466   0.455993
     2  Na   0.122361  -0.007574
     3  Na  -0.090583  -0.075011
     4  Na  -0.208794   0.523405
     5  Na   0.153777   0.075147
     6  Na  -0.046357  -0.014635
     7  Na   0.191061   0.042674
 Sum of Mulliken charges =  -0.00000   1.00000

 Dipole moment (field-independent basis, Debye):
    X=             -0.1336    Y=              0.1995    Z=              0.1458  Tot=              0.2809
 Quadrupole moment (field-independent basis, Debye-Ang):
   XX=            -59.4561   YY=            -71.2302   ZZ=            -67.2326
   XY=             -0.2258   XZ=              0.2598   YZ=              0.1136

 Normal termination of Gaussian 16 at Sat Dec  9 06:41:21 2023.
