 Gaussian 16, Revision B.01,
 Gaussian 16:  ES64L-G16RevB.01 20-Dec-2017

 -------------------------
 #P B3LYP/6-311+g(d) force
 -------------------------

 -----
 DPGEN
 -----
 Symbolic Z-matrix:
 Charge =  0 Multiplicity = 2

                         Standard orientation:
 ---------------------------------------------------------------------
 Center     Atomic      Atomic             Coordinates (Angstroms)
 Number     Number       Type             X           Y           Z
 ---------------------------------------------------------------------
      1         11           0        0.010288   -0.421911   -1.635251
      2         11           0        0.330732    2.493252   -0.972476
      3         11           0        2.797187   -0.470813   -0.580865
      4         11           0       -0.021202   -2.466695    0.711693
      5         11           0       -2.604489   -0.781940   -0.837971
      6         11           0       -1.745766    1.216739    1.440817
      7         11           0        1.233248    0.431368    1.874054
 ---------------------------------------------------------------------

 SCF Done:  E(UB3LYP) =  -1136.12122518     A.U. after   21 cycles

 The electronic state is 2-A.
 Alpha  occ. eigenvalues --  -38.43924 -38.43729 -38.43707 -38.43599 -38.43585
 Alpha  occ. eigenvalues --  -38.43545 -38.43283  -2.19904  -2.19869  -2.19650
 Alpha  occ. eigenvalues --   -2.19545  -2.19510  -2.19435  -2.19189  -1.13786
 Alpha  occ. eigenvalues --   -1.13638  -1.13599  -1.13541  -1.13527  -1.13504
 Alpha  occ. eigenvalues --   -1.13334  -1.13287  -1.13251  -1.13228  -1.13192
 Alpha  occ. eigenvalues --   -1.13153  -1.13134  -1.13131  -1.13109  -1.13078
 Alpha  occ. eigenvalues --   -1.13050  -1.13029  -1.12882  -1.12856  -1.12781
 Alpha  occ. eigenvalues --   -0.19699  -0.13006  -0.12482  -0.12113
 Alpha virt. eigenvalues --   -0.05079  -0.04361  -0.04181  -0.03688  -0.03508
 Alpha virt. eigenvalues --   -0.03222  -0.01046  -0.00682  -0.00388   0.00401
 Alpha virt. eigenvalues --    0.00557   0.00630   0.00759   0.00946   0.00990

  Beta  occ. eigenvalues --  -38.43858 -38.43720 -38.43637 -38.43589 -38.43550
  Beta  occ. eigenvalues --  -38.43516 -38.43265  -2.19785  -2.19746  -2.19636
  Beta  occ. eigenvalues --   -2.19528  -2.19447  -2.19386  -2.19159  -1.13709
  Beta  occ. eigenvalues --   -1.13549  -1.13529  -1.13458  -1.13446  -1.13417
  Beta  occ. eigenvalues --   -1.13294  -1.13265  -1.13226  -1.13214  -1.13138
  Beta  occ. eigenvalues --   -1.13114  -1.13100  -1.13090  -1.13065  -1.13048
  Beta  occ. eigenvalues --   -1.13015  -1.12994  -1.12863  -1.12812  -1.12764
  Beta  occ. eigenvalues --   -0.18882  -0.12798  -0.11897
  Beta virt. eigenvalues --   -0.08265  -0.04992  -0.04053  -0.03998  -0.03086
  Beta virt. eigenvalues --   -0.02881  -0.02207  -0.01004  -0.00611  -0.00147
  Beta virt. eigenvalues --    0.00433   0.00611   0.00682   0.00853   0.00965

 Mulliken charges and spin densities:
               1          2
     1  Na  -0.001452   0.142575
     2  Na  -0.420438   0.107649
     3  Na   0.368551  -0.058480
     4  Na  -0.532727   0.227242
     5  Na   0.510962   0.023502
     6  Na  -0.103034   0.150789
     7  Na   0.178139   0.406723
 Sum of Mulliken charges =  -0.00000   1.00000

 Dipole moment (field-independent basis, Debye):
    X=              0.2003    Y=              0.1027    Z=              0.2726  Tot=              0.3536
 Quadrupole moment (field-independent basis, Debye-Ang):
   XX=            -61.7830   YY=            -69.2471   ZZ=            -64.9815
   XY=             -0.0087   XZ=             -1.1212   YZ=             -2.6015

 Normal termination of Gaussian 16 at Tue Dec  5 19:31:26 2023.
