 Gaussian 16, Revision B.01,
 Gaussian 16:  ES64L-G16RevB.01 20-Dec-2017

 -------------------------
 #P B3LYP/6-311+g(d) force
 -------------------------

 -----
 DPGEN
 -----
 Symbolic Z-matrix:
 Charge =  0 Multiplicity = 2

                         Standard orientation:
 ---------------------------------------------------------------------
 Center     Atomic      Atomic             Coordinates (Angstroms)
 Number     Number       Type             X           Y           Z
 ---------------------------------------------------------------------
      1         11           0        0.581737   -2.961908   -0.589833
      2         11           0       -2.162405    1.793401   -0.220603
      3         11           0        0.065312   -0.316571    2.057962
      4         11           0       -3.317642   -1.188273    0.177099
      5         11           0        3.346182   -0.363585    0.364745
      6         11           0        0.502536    0.193156   -1.785136
      7         11           0        0.984280    2.843779   -0.004234
 ---------------------------------------------------------------------

 SCF Done:  E(UB3LYP) =  -1136.13282530     A.U. after   20 cycles

 The electronic state is 2-A.
 Alpha  occ. eigenvalues --  -38.44758 -38.44127 -38.44066 -38.43813 -38.43406
 Alpha  occ. eigenvalues --  -38.43346 -38.43204  -2.20539  -2.19911  -2.19903
 Alpha  occ. eigenvalues --   -2.19612  -2.19336  -2.19224  -2.19060  -1.14215
 Alpha  occ. eigenvalues --   -1.14193  -1.14174  -1.13600  -1.13576  -1.13572
 Alpha  occ. eigenvalues --   -1.13547  -1.13542  -1.13514  -1.13306  -1.13267
 Alpha  occ. eigenvalues --   -1.13233  -1.13023  -1.12988  -1.12966  -1.12898
 Alpha  occ. eigenvalues --   -1.12894  -1.12863  -1.12728  -1.12716  -1.12686
 Alpha  occ. eigenvalues --   -0.18138  -0.12935  -0.12192  -0.10802
 Alpha virt. eigenvalues --   -0.06230  -0.04845  -0.04797  -0.03251  -0.02944
 Alpha virt. eigenvalues --   -0.02640  -0.01880  -0.01106  -0.00653  -0.00265
 Alpha virt. eigenvalues --   -0.00072   0.00333   0.00676   0.00764   0.00831

  Beta  occ. eigenvalues --  -38.44748 -38.44131 -38.43984 -38.43793 -38.43341
  Beta  occ. eigenvalues --  -38.43336 -38.43202  -2.20524  -2.19919  -2.19752
  Beta  occ. eigenvalues --   -2.19578  -2.19219  -2.19208  -2.19059  -1.14190
  Beta  occ. eigenvalues --   -1.14182  -1.14165  -1.13607  -1.13567  -1.13552
  Beta  occ. eigenvalues --   -1.13473  -1.13439  -1.13401  -1.13272  -1.13235
  Beta  occ. eigenvalues --   -1.13214  -1.12948  -1.12907  -1.12897  -1.12887
  Beta  occ. eigenvalues --   -1.12864  -1.12839  -1.12716  -1.12708  -1.12676
  Beta  occ. eigenvalues --   -0.17422  -0.12742  -0.11954
  Beta virt. eigenvalues --   -0.06950  -0.06113  -0.04863  -0.04673  -0.02544
  Beta virt. eigenvalues --   -0.02237  -0.01767  -0.01617  -0.01036  -0.00660
  Beta virt. eigenvalues --   -0.00299   0.00076   0.00366   0.00760   0.00836

 Mulliken charges and spin densities:
               1          2
     1  Na  -0.051448  -0.064078
     2  Na   0.000167  -0.043765
     3  Na  -0.401676   0.733280
     4  Na   0.014569  -0.057844
     5  Na   0.140559  -0.004694
     6  Na   0.107381   0.459221
     7  Na   0.190447  -0.022120
 Sum of Mulliken charges =  -0.00000   1.00000

 Dipole moment (field-independent basis, Debye):
    X=              0.5067    Y=             -0.3291    Z=              0.2099  Tot=              0.6396
 Quadrupole moment (field-independent basis, Debye-Ang):
   XX=            -55.6462   YY=            -64.2554   ZZ=            -74.0293
   XY=              1.4084   XZ=              0.9597   YZ=              0.9008

 Normal termination of Gaussian 16 at Thu Dec  7 21:24:07 2023.
