 Gaussian 16, Revision B.01,
 Gaussian 16:  ES64L-G16RevB.01 20-Dec-2017

 -------------------------
 #P B3LYP/6-311+g(d) force
 -------------------------

 -----
 DPGEN
 -----
 Symbolic Z-matrix:
 Charge =  0 Multiplicity = 2

                         Standard orientation:
 ---------------------------------------------------------------------
 Center     Atomic      Atomic             Coordinates (Angstroms)
 Number     Number       Type             X           Y           Z
 ---------------------------------------------------------------------
      1         11           0        2.786218    1.547378   -0.344967
      2         11           0        3.553896   -1.777227   -0.071156
      3         11           0       -2.852191   -2.346978   -0.095438
      4         11           0       -3.072779    1.263224   -0.072403
      5         11           0       -0.296494    2.498266    0.540642
      6         11           0        0.180763   -0.878135    1.858935
      7         11           0       -0.299413   -0.306528   -1.815613
 ---------------------------------------------------------------------

 SCF Done:  E(UB3LYP) =  -1136.12231603     A.U. after   24 cycles

 The electronic state is 2-A.
 Alpha  occ. eigenvalues --  -38.44971 -38.44865 -38.44476 -38.44407 -38.43977
 Alpha  occ. eigenvalues --  -38.43850 -38.42394  -2.20804  -2.20618  -2.20308
 Alpha  occ. eigenvalues --   -2.20225  -2.19756  -2.19675  -2.18292  -1.14495
 Alpha  occ. eigenvalues --   -1.14471  -1.14427  -1.14294  -1.14285  -1.14260
 Alpha  occ. eigenvalues --   -1.14001  -1.13952  -1.13919  -1.13897  -1.13890
 Alpha  occ. eigenvalues --   -1.13858  -1.13431  -1.13417  -1.13400  -1.13352
 Alpha  occ. eigenvalues --   -1.13310  -1.13280  -1.11980  -1.11955  -1.11929
 Alpha  occ. eigenvalues --   -0.17931  -0.13583  -0.11636  -0.10414
 Alpha virt. eigenvalues --   -0.06886  -0.06164  -0.03808  -0.03467  -0.02814
 Alpha virt. eigenvalues --   -0.02350  -0.02336  -0.01678  -0.00972  -0.00220
 Alpha virt. eigenvalues --   -0.00052   0.00183   0.00468   0.00583   0.00593

  Beta  occ. eigenvalues --  -38.44966 -38.44872 -38.44416 -38.44397 -38.43980
  Beta  occ. eigenvalues --  -38.43758 -38.42381  -2.20797  -2.20633  -2.20210
  Beta  occ. eigenvalues --   -2.20196  -2.19763  -2.19505  -2.18272  -1.14492
  Beta  occ. eigenvalues --   -1.14446  -1.14425  -1.14306  -1.14283  -1.14271
  Beta  occ. eigenvalues --   -1.13922  -1.13886  -1.13874  -1.13869  -1.13853
  Beta  occ. eigenvalues --   -1.13832  -1.13437  -1.13408  -1.13402  -1.13238
  Beta  occ. eigenvalues --   -1.13184  -1.13163  -1.11970  -1.11944  -1.11887
  Beta  occ. eigenvalues --   -0.17221  -0.13431  -0.11447
  Beta virt. eigenvalues --   -0.06792  -0.06589  -0.06049  -0.03790  -0.02801
  Beta virt. eigenvalues --   -0.02328  -0.01966  -0.01742  -0.01228  -0.01026
  Beta virt. eigenvalues --   -0.00101   0.00038   0.00231   0.00566   0.00645

 Mulliken charges and spin densities:
               1          2
     1  Na   0.175080   0.120160
     2  Na   0.152008  -0.054254
     3  Na   0.189533  -0.039799
     4  Na   0.213215   0.058177
     5  Na   0.040167   0.023689
     6  Na  -0.487057   0.524439
     7  Na  -0.282946   0.367589
 Sum of Mulliken charges =  -0.00000   1.00000

 Dipole moment (field-independent basis, Debye):
    X=              0.0792    Y=             -0.4276    Z=             -0.2184  Tot=              0.4866
 Quadrupole moment (field-independent basis, Debye-Ang):
   XX=            -49.9790   YY=            -67.7887   ZZ=            -76.0000
   XY=             -1.3822   XZ=             -1.0250   YZ=              0.3483

 Normal termination of Gaussian 16 at Thu Dec  7 14:52:28 2023.
