 Gaussian 16, Revision B.01,
 Gaussian 16:  ES64L-G16RevB.01 20-Dec-2017

 -------------------------
 #P B3LYP/6-311+g(d) force
 -------------------------

 -----
 DPGEN
 -----
 Symbolic Z-matrix:
 Charge =  0 Multiplicity = 2

                         Standard orientation:
 ---------------------------------------------------------------------
 Center     Atomic      Atomic             Coordinates (Angstroms)
 Number     Number       Type             X           Y           Z
 ---------------------------------------------------------------------
      1         11           0        0.079938    1.554876   -0.905407
      2         11           0       -1.624693   -1.739018   -1.873659
      3         11           0       -2.996172    2.273470    0.082546
      4         11           0       -2.553356   -1.350279    1.665635
      5         11           0        3.137403    1.509600   -0.571104
      6         11           0        2.036152   -0.024970    2.108204
      7         11           0        1.920728   -2.223679   -0.506214
 ---------------------------------------------------------------------

 SCF Done:  E(UB3LYP) =  -1136.11658440     A.U. after   22 cycles

 The electronic state is 2-A.
 Alpha  occ. eigenvalues --  -38.45021 -38.44651 -38.44497 -38.44263 -38.44135
 Alpha  occ. eigenvalues --  -38.44046 -38.43048  -2.20767  -2.20490  -2.20353
 Alpha  occ. eigenvalues --   -2.20045  -2.19901  -2.19828  -2.18930  -1.14437
 Alpha  occ. eigenvalues --   -1.14409  -1.14401  -1.14148  -1.14140  -1.14137
 Alpha  occ. eigenvalues --   -1.14057  -1.13999  -1.13960  -1.13729  -1.13714
 Alpha  occ. eigenvalues --   -1.13671  -1.13579  -1.13570  -1.13537  -1.13500
 Alpha  occ. eigenvalues --   -1.13472  -1.13457  -1.12604  -1.12589  -1.12573
 Alpha  occ. eigenvalues --   -0.17379  -0.13559  -0.11421  -0.10865
 Alpha virt. eigenvalues --   -0.06539  -0.05680  -0.05091  -0.03360  -0.02881
 Alpha virt. eigenvalues --   -0.02628  -0.01769  -0.01368  -0.00682  -0.00502
 Alpha virt. eigenvalues --   -0.00031   0.00088   0.00144   0.00283   0.00526

  Beta  occ. eigenvalues --  -38.44982 -38.44593 -38.44490 -38.44251 -38.44143
  Beta  occ. eigenvalues --  -38.44006 -38.43022  -2.20694  -2.20380  -2.20343
  Beta  occ. eigenvalues --   -2.20026  -2.19916  -2.19756  -2.18883  -1.14383
  Beta  occ. eigenvalues --   -1.14360  -1.14349  -1.14086  -1.14067  -1.14061
  Beta  occ. eigenvalues --   -1.14037  -1.13983  -1.13942  -1.13709  -1.13695
  Beta  occ. eigenvalues --   -1.13650  -1.13590  -1.13576  -1.13545  -1.13444
  Beta  occ. eigenvalues --   -1.13426  -1.13403  -1.12563  -1.12561  -1.12536
  Beta  occ. eigenvalues --   -0.16777  -0.13311  -0.11201
  Beta virt. eigenvalues --   -0.07372  -0.06400  -0.05232  -0.04533  -0.03210
  Beta virt. eigenvalues --   -0.02375  -0.01924  -0.01696  -0.01240  -0.00431
  Beta virt. eigenvalues --   -0.00253   0.00103   0.00149   0.00327   0.00358

 Mulliken charges and spin densities:
               1          2
     1  Na  -1.030907   0.437589
     2  Na   0.239568   0.035160
     3  Na   0.481714  -0.182566
     4  Na  -0.179856   0.351864
     5  Na   0.637845  -0.115562
     6  Na   0.062500   0.384835
     7  Na  -0.210864   0.088680
 Sum of Mulliken charges =  -0.00000   1.00000

 Dipole moment (field-independent basis, Debye):
    X=              0.4000    Y=             -0.1562    Z=              0.3950  Tot=              0.5835
 Quadrupole moment (field-independent basis, Debye-Ang):
   XX=            -54.4645   YY=            -73.7924   ZZ=            -67.8368
   XY=              0.8567   XZ=             -1.8015   YZ=              0.4820

 Normal termination of Gaussian 16 at Sun Dec  3 23:13:59 2023.
