 Gaussian 16, Revision B.01,
 Gaussian 16:  ES64L-G16RevB.01 20-Dec-2017

 -------------------------
 #P B3LYP/6-311+g(d) force
 -------------------------

 -----
 DPGEN
 -----
 Symbolic Z-matrix:
 Charge =  0 Multiplicity = 2

                         Standard orientation:
 ---------------------------------------------------------------------
 Center     Atomic      Atomic             Coordinates (Angstroms)
 Number     Number       Type             X           Y           Z
 ---------------------------------------------------------------------
      1         11           0       -3.586042   -0.281451   -0.100440
      2         11           0       -0.057082   -0.329504    1.910638
      3         11           0        0.190756    0.373329   -1.797978
      4         11           0       -1.334120    2.417606    0.394710
      5         11           0       -0.870463   -2.405573   -0.454822
      6         11           0        3.012254   -1.535893    0.260871
      7         11           0        2.644697    1.761486   -0.212980
 ---------------------------------------------------------------------

 SCF Done:  E(UB3LYP) =  -1136.13050060     A.U. after   21 cycles

 The electronic state is 2-A.
 Alpha  occ. eigenvalues --  -38.45230 -38.44351 -38.43988 -38.43708 -38.43528
 Alpha  occ. eigenvalues --  -38.43016 -38.42902  -2.21011  -2.20150  -2.19823
 Alpha  occ. eigenvalues --   -2.19611  -2.19464  -2.18867  -2.18782  -1.14682
 Alpha  occ. eigenvalues --   -1.14669  -1.14650  -1.13827  -1.13817  -1.13787
 Alpha  occ. eigenvalues --   -1.13523  -1.13475  -1.13452  -1.13301  -1.13256
 Alpha  occ. eigenvalues --   -1.13215  -1.13146  -1.13105  -1.13080  -1.12555
 Alpha  occ. eigenvalues --   -1.12539  -1.12483  -1.12483  -1.12456  -1.12384
 Alpha  occ. eigenvalues --   -0.18478  -0.13449  -0.11734  -0.10761
 Alpha virt. eigenvalues --   -0.06662  -0.05270  -0.03780  -0.03415  -0.02766
 Alpha virt. eigenvalues --   -0.02486  -0.02296  -0.01263  -0.00331  -0.00161
 Alpha virt. eigenvalues --   -0.00048   0.00264   0.00667   0.00695   0.00841

  Beta  occ. eigenvalues --  -38.45231 -38.44347 -38.43982 -38.43627 -38.43454
  Beta  occ. eigenvalues --  -38.43004 -38.42886  -2.21016  -2.20145  -2.19815
  Beta  occ. eigenvalues --   -2.19463  -2.19329  -2.18849  -2.18758  -1.14681
  Beta  occ. eigenvalues --   -1.14665  -1.14655  -1.13824  -1.13797  -1.13786
  Beta  occ. eigenvalues --   -1.13506  -1.13460  -1.13451  -1.13202  -1.13151
  Beta  occ. eigenvalues --   -1.13105  -1.13055  -1.13004  -1.12985  -1.12544
  Beta  occ. eigenvalues --   -1.12505  -1.12472  -1.12469  -1.12412  -1.12367
  Beta  occ. eigenvalues --   -0.17747  -0.13252  -0.11465
  Beta virt. eigenvalues --   -0.06877  -0.06580  -0.05253  -0.03753  -0.02690
  Beta virt. eigenvalues --   -0.02242  -0.01960  -0.01449  -0.01208  -0.00361
  Beta virt. eigenvalues --   -0.00114   0.00048   0.00287   0.00757   0.00818

 Mulliken charges and spin densities:
               1          2
     1  Na   0.059111  -0.088799
     2  Na  -0.343309   0.703897
     3  Na  -0.138846   0.568368
     4  Na   0.037127  -0.063746
     5  Na   0.108804  -0.018575
     6  Na   0.078335  -0.033187
     7  Na   0.198778  -0.067957
 Sum of Mulliken charges =  -0.00000   1.00000

 Dipole moment (field-independent basis, Debye):
    X=             -0.2092    Y=             -0.0742    Z=              0.0812  Tot=              0.2363
 Quadrupole moment (field-independent basis, Debye-Ang):
   XX=            -47.7299   YY=            -70.0099   ZZ=            -74.3501
   XY=             -0.2269   XZ=              0.6955   YZ=              0.9667

 Normal termination of Gaussian 16 at Wed Dec  6 00:00:07 2023.
