 Gaussian 16, Revision B.01,
 Gaussian 16:  ES64L-G16RevB.01 20-Dec-2017

 -------------------------
 #P B3LYP/6-311+g(d) force
 -------------------------

 -----
 DPGEN
 -----
 Symbolic Z-matrix:
 Charge =  0 Multiplicity = 2

                         Standard orientation:
 ---------------------------------------------------------------------
 Center     Atomic      Atomic             Coordinates (Angstroms)
 Number     Number       Type             X           Y           Z
 ---------------------------------------------------------------------
      1         11           0        1.241691    0.066333    1.675023
      2         11           0       -2.090475   -1.624121    1.372092
      3         11           0       -1.402348    1.826493    0.586414
      4         11           0        0.054482   -0.813374   -1.795861
      5         11           0        2.041781    1.965897   -0.436563
      6         11           0        3.500814   -1.408132   -0.304961
      7         11           0       -3.345947   -0.013096   -1.096144
 ---------------------------------------------------------------------

 SCF Done:  E(UB3LYP) =  -1136.12288717     A.U. after   26 cycles

 The electronic state is 2-A.
 Alpha  occ. eigenvalues --  -38.44590 -38.44401 -38.44378 -38.43971 -38.43807
 Alpha  occ. eigenvalues --  -38.43585 -38.42626  -2.20471  -2.20260  -2.20206
 Alpha  occ. eigenvalues --   -2.19774  -2.19702  -2.19553  -2.18540  -1.14154
 Alpha  occ. eigenvalues --   -1.14138  -1.14109  -1.13921  -1.13898  -1.13897
 Alpha  occ. eigenvalues --   -1.13879  -1.13875  -1.13806  -1.13511  -1.13464
 Alpha  occ. eigenvalues --   -1.13434  -1.13411  -1.13372  -1.13281  -1.13230
 Alpha  occ. eigenvalues --   -1.13164  -1.13138  -1.12227  -1.12219  -1.12160
 Alpha  occ. eigenvalues --   -0.18705  -0.14338  -0.11394  -0.10831
 Alpha virt. eigenvalues --   -0.06683  -0.05419  -0.04765  -0.03155  -0.02561
 Alpha virt. eigenvalues --   -0.02452  -0.02185  -0.00991  -0.00846  -0.00134
 Alpha virt. eigenvalues --    0.00179   0.00213   0.00316   0.00601   0.00750

  Beta  occ. eigenvalues --  -38.44573 -38.44341 -38.44333 -38.43981 -38.43795
  Beta  occ. eigenvalues --  -38.43542 -38.42613  -2.20440  -2.20150  -2.20124
  Beta  occ. eigenvalues --   -2.19793  -2.19680  -2.19476  -2.18520  -1.14137
  Beta  occ. eigenvalues --   -1.14103  -1.14080  -1.13849  -1.13836  -1.13824
  Beta  occ. eigenvalues --   -1.13808  -1.13794  -1.13745  -1.13491  -1.13467
  Beta  occ. eigenvalues --   -1.13446  -1.13421  -1.13346  -1.13269  -1.13179
  Beta  occ. eigenvalues --   -1.13104  -1.13088  -1.12217  -1.12177  -1.12146
  Beta  occ. eigenvalues --   -0.17962  -0.14202  -0.10696
  Beta virt. eigenvalues --   -0.07447  -0.06433  -0.05160  -0.04241  -0.02883
  Beta virt. eigenvalues --   -0.02301  -0.01858  -0.01642  -0.00856  -0.00448
  Beta virt. eigenvalues --   -0.00031   0.00211   0.00310   0.00405   0.00676

 Mulliken charges and spin densities:
               1          2
     1  Na  -0.047608   0.221808
     2  Na  -0.195834   0.138510
     3  Na  -0.475823   0.315505
     4  Na  -0.653476   0.388878
     5  Na   0.311135   0.028273
     6  Na   0.178003  -0.120688
     7  Na   0.883603   0.027715
 Sum of Mulliken charges =  -0.00000   1.00000

 Dipole moment (field-independent basis, Debye):
    X=             -0.2341    Y=             -0.0453    Z=             -0.2884  Tot=              0.3742
 Quadrupole moment (field-independent basis, Debye-Ang):
   XX=            -50.8369   YY=            -74.8647   ZZ=            -69.8496
   XY=              0.7130   XZ=              0.4491   YZ=             -5.2077

 Normal termination of Gaussian 16 at Fri Dec  8 00:47:23 2023.
