 Gaussian 16, Revision B.01,
 Gaussian 16:  ES64L-G16RevB.01 20-Dec-2017

 -------------------------
 #P B3LYP/6-311+g(d) force
 -------------------------

 -----
 DPGEN
 -----
 Symbolic Z-matrix:
 Charge =  0 Multiplicity = 2

                         Standard orientation:
 ---------------------------------------------------------------------
 Center     Atomic      Atomic             Coordinates (Angstroms)
 Number     Number       Type             X           Y           Z
 ---------------------------------------------------------------------
      1         11           0       -3.097240   -1.789614   -0.002744
      2         11           0       -2.063479    2.527341   -0.237086
      3         11           0       -0.513577   -0.275932    1.976235
      4         11           0        3.101043   -0.277782    0.182235
      5         11           0        1.198075   -2.938403   -0.315319
      6         11           0        1.452329    2.696918    0.134810
      7         11           0       -0.077150    0.057471   -1.738131
 ---------------------------------------------------------------------

 SCF Done:  E(UB3LYP) =  -1136.13324752     A.U. after   20 cycles

 The electronic state is 2-A.
 Alpha  occ. eigenvalues --  -38.44497 -38.44286 -38.44039 -38.43648 -38.43616
 Alpha  occ. eigenvalues --  -38.43579 -38.43433  -2.20245  -2.20079  -2.19850
 Alpha  occ. eigenvalues --   -2.19489  -2.19455  -2.19409  -2.19324  -1.13921
 Alpha  occ. eigenvalues --   -1.13899  -1.13891  -1.13756  -1.13739  -1.13713
 Alpha  occ. eigenvalues --   -1.13524  -1.13520  -1.13487  -1.13165  -1.13145
 Alpha  occ. eigenvalues --   -1.13125  -1.13118  -1.13109  -1.13102  -1.13080
 Alpha  occ. eigenvalues --   -1.13067  -1.13039  -1.13008  -1.12953  -1.12946
 Alpha  occ. eigenvalues --   -0.17956  -0.12738  -0.12443  -0.10376
 Alpha virt. eigenvalues --   -0.06175  -0.05392  -0.04837  -0.03024  -0.02931
 Alpha virt. eigenvalues --   -0.02394  -0.01688  -0.01560  -0.00690  -0.00601
 Alpha virt. eigenvalues --   -0.00034   0.00333   0.00702   0.00791   0.00840

  Beta  occ. eigenvalues --  -38.44500 -38.44279 -38.44030 -38.43612 -38.43574
  Beta  occ. eigenvalues --  -38.43566 -38.43364  -2.20252  -2.20068  -2.19836
  Beta  occ. eigenvalues --   -2.19450  -2.19402  -2.19339  -2.19199  -1.13910
  Beta  occ. eigenvalues --   -1.13907  -1.13898  -1.13736  -1.13728  -1.13708
  Beta  occ. eigenvalues --   -1.13516  -1.13494  -1.13478  -1.13144  -1.13110
  Beta  occ. eigenvalues --   -1.13089  -1.13068  -1.13062  -1.13055  -1.13028
  Beta  occ. eigenvalues --   -1.13021  -1.12992  -1.12922  -1.12868  -1.12851
  Beta  occ. eigenvalues --   -0.17260  -0.12518  -0.12229
  Beta virt. eigenvalues --   -0.06619  -0.06115  -0.05235  -0.04827  -0.02311
  Beta virt. eigenvalues --   -0.02218  -0.01669  -0.01449  -0.01339  -0.00712
  Beta virt. eigenvalues --   -0.00657   0.00116   0.00373   0.00708   0.00837

 Mulliken charges and spin densities:
               1          2
     1  Na   0.002503  -0.186463
     2  Na   0.168920  -0.081722
     3  Na  -0.338779   0.726037
     4  Na   0.012690   0.027948
     5  Na   0.199918  -0.034930
     6  Na   0.043761   0.027868
     7  Na  -0.089012   0.521263
 Sum of Mulliken charges =  -0.00000   1.00000

 Dipole moment (field-independent basis, Debye):
    X=             -0.5239    Y=             -0.1305    Z=             -0.0271  Tot=              0.5405
 Quadrupole moment (field-independent basis, Debye-Ang):
   XX=            -57.5500   YY=            -59.1953   ZZ=            -76.2503
   XY=             -0.1430   XZ=              1.3471   YZ=              0.9860

 Normal termination of Gaussian 16 at Fri Dec  8 02:37:09 2023.
