 Gaussian 16, Revision B.01,
 Gaussian 16:  ES64L-G16RevB.01 20-Dec-2017

 -------------------------
 #P B3LYP/6-311+g(d) force
 -------------------------

 -----
 DPGEN
 -----
 Symbolic Z-matrix:
 Charge =  0 Multiplicity = 2

                         Standard orientation:
 ---------------------------------------------------------------------
 Center     Atomic      Atomic             Coordinates (Angstroms)
 Number     Number       Type             X           Y           Z
 ---------------------------------------------------------------------
      1         11           0       -0.113363   -0.023662    1.957085
      2         11           0       -0.410390    3.304709    0.440833
      3         11           0       -1.320414    1.134583   -1.479924
      4         11           0       -0.079613   -2.093965   -1.194147
      5         11           0       -3.392933   -1.642902    0.461035
      6         11           0        3.038417   -1.766671    0.446074
      7         11           0        2.278296    1.087908   -0.630957
 ---------------------------------------------------------------------

 SCF Done:  E(UB3LYP) =  -1136.13308891     A.U. after   19 cycles

 The electronic state is 2-A.
 Alpha  occ. eigenvalues --  -38.44203 -38.43981 -38.43933 -38.43739 -38.43683
 Alpha  occ. eigenvalues --  -38.43494 -38.43469  -2.19959  -2.19845  -2.19782
 Alpha  occ. eigenvalues --   -2.19581  -2.19519  -2.19376  -2.19346  -1.13633
 Alpha  occ. eigenvalues --   -1.13626  -1.13588  -1.13540  -1.13525  -1.13485
 Alpha  occ. eigenvalues --   -1.13457  -1.13415  -1.13396  -1.13288  -1.13255
 Alpha  occ. eigenvalues --   -1.13193  -1.13181  -1.13164  -1.13158  -1.13142
 Alpha  occ. eigenvalues --   -1.13057  -1.13006  -1.12984  -1.12981  -1.12911
 Alpha  occ. eigenvalues --   -0.18159  -0.12826  -0.12448  -0.10758
 Alpha virt. eigenvalues --   -0.05860  -0.05319  -0.04579  -0.03197  -0.03146
 Alpha virt. eigenvalues --   -0.02600  -0.01697  -0.01357  -0.00501  -0.00206
 Alpha virt. eigenvalues --    0.00173   0.00317   0.00710   0.00760   0.00807

  Beta  occ. eigenvalues --  -38.44202 -38.43970 -38.43848 -38.43707 -38.43682
  Beta  occ. eigenvalues --  -38.43491 -38.43425  -2.19958  -2.19827  -2.19625
  Beta  occ. eigenvalues --   -2.19525  -2.19520  -2.19347  -2.19293  -1.13634
  Beta  occ. eigenvalues --   -1.13614  -1.13589  -1.13528  -1.13492  -1.13474
  Beta  occ. eigenvalues --   -1.13353  -1.13304  -1.13283  -1.13245  -1.13207
  Beta  occ. eigenvalues --   -1.13184  -1.13167  -1.13152  -1.13132  -1.13123
  Beta  occ. eigenvalues --   -1.13007  -1.12981  -1.12971  -1.12934  -1.12875
  Beta  occ. eigenvalues --   -0.17412  -0.12675  -0.12274
  Beta virt. eigenvalues --   -0.06884  -0.05707  -0.05230  -0.04457  -0.02604
  Beta virt. eigenvalues --   -0.02525  -0.01699  -0.01506  -0.01298  -0.00331
  Beta virt. eigenvalues --   -0.00129   0.00232   0.00357   0.00741   0.00836

 Mulliken charges and spin densities:
               1          2
     1  Na  -0.467979   0.783283
     2  Na   0.274943  -0.108902
     3  Na   0.181137   0.281976
     4  Na  -0.236611   0.142821
     5  Na  -0.025000  -0.139235
     6  Na   0.518227  -0.059067
     7  Na  -0.244716   0.099123
 Sum of Mulliken charges =  -0.00000   1.00000

 Dipole moment (field-independent basis, Debye):
    X=             -0.0468    Y=             -0.1000    Z=              0.1893  Tot=              0.2192
 Quadrupole moment (field-independent basis, Debye-Ang):
   XX=            -58.5332   YY=            -62.3708   ZZ=            -72.5934
   XY=             -0.5693   XZ=             -0.5852   YZ=              0.1860

 Normal termination of Gaussian 16 at Thu Dec  7 08:35:19 2023.
