 Gaussian 16, Revision B.01,
 Gaussian 16:  ES64L-G16RevB.01 20-Dec-2017

 -------------------------
 #P B3LYP/6-311+g(d) force
 -------------------------

 -----
 DPGEN
 -----
 Symbolic Z-matrix:
 Charge =  0 Multiplicity = 2

                         Standard orientation:
 ---------------------------------------------------------------------
 Center     Atomic      Atomic             Coordinates (Angstroms)
 Number     Number       Type             X           Y           Z
 ---------------------------------------------------------------------
      1         11           0        5.834040   -0.105062   -0.636926
      2         11           0       -2.592409   -0.615847    1.697102
      3         11           0        7.034629   -2.965027    0.048797
      4         11           0       -5.344935   -0.610751   -0.467839
      5         11           0        0.199544    2.306129    0.719633
      6         11           0        3.153511    2.853692   -0.537260
      7         11           0       -8.284380   -0.863134   -0.823508
 ---------------------------------------------------------------------

 SCF Done:  E(UB3LYP) =  -1136.10327401     A.U. after   19 cycles

 The electronic state is 2-A.
 Alpha  occ. eigenvalues --  -38.45464 -38.45038 -38.44706 -38.44498 -38.44339
 Alpha  occ. eigenvalues --  -38.44102 -38.43931  -2.21252  -2.20868  -2.20452
 Alpha  occ. eigenvalues --   -2.20292  -2.20124  -2.19925  -2.19702  -1.14894
 Alpha  occ. eigenvalues --   -1.14886  -1.14864  -1.14556  -1.14490  -1.14489
 Alpha  occ. eigenvalues --   -1.14140  -1.14136  -1.14118  -1.13946  -1.13936
 Alpha  occ. eigenvalues --   -1.13907  -1.13781  -1.13773  -1.13773  -1.13608
 Alpha  occ. eigenvalues --   -1.13586  -1.13584  -1.13377  -1.13374  -1.13339
 Alpha  occ. eigenvalues --   -0.15177  -0.14184  -0.12859  -0.11863
 Alpha virt. eigenvalues --   -0.07033  -0.05305  -0.04292  -0.03399  -0.03013
 Alpha virt. eigenvalues --   -0.02690  -0.02610  -0.02042  -0.01594  -0.01465
 Alpha virt. eigenvalues --   -0.01284  -0.00749  -0.00343   0.00279   0.00527

  Beta  occ. eigenvalues --  -38.45362 -38.44961 -38.44728 -38.44450 -38.44311
  Beta  occ. eigenvalues --  -38.44106 -38.43940  -2.21061  -2.20727  -2.20497
  Beta  occ. eigenvalues --   -2.20202  -2.20072  -2.19941  -2.19720  -1.14764
  Beta  occ. eigenvalues --   -1.14757  -1.14739  -1.14463  -1.14393  -1.14392
  Beta  occ. eigenvalues --   -1.14172  -1.14169  -1.14119  -1.13884  -1.13875
  Beta  occ. eigenvalues --   -1.13857  -1.13748  -1.13738  -1.13737  -1.13607
  Beta  occ. eigenvalues --   -1.13605  -1.13552  -1.13391  -1.13388  -1.13333
  Beta  occ. eigenvalues --   -0.14353  -0.13665  -0.12298
  Beta virt. eigenvalues --   -0.08767  -0.06723  -0.04814  -0.03904  -0.03175
  Beta virt. eigenvalues --   -0.02856  -0.02511  -0.02433  -0.01781  -0.01395
  Beta virt. eigenvalues --   -0.01081  -0.00872  -0.00371  -0.00211   0.00335

 Mulliken charges and spin densities:
               1          2
     1  Na  -0.453736  -0.019980
     2  Na  -0.213539   0.372195
     3  Na   0.509600   0.117095
     4  Na  -0.503344   0.100431
     5  Na  -0.157836  -0.105458
     6  Na   0.101719   0.252797
     7  Na   0.717136   0.282920
 Sum of Mulliken charges =  -0.00000   1.00000

 Dipole moment (field-independent basis, Debye):
    X=             -1.4746    Y=             -0.5186    Z=              0.3551  Tot=              1.6029
 Quadrupole moment (field-independent basis, Debye-Ang):
   XX=            -54.1977   YY=            -64.3821   ZZ=            -71.7531
   XY=             -1.3248   XZ=              1.1209   YZ=             -3.6473

 Normal termination of Gaussian 16 at Sun Dec  3 20:22:16 2023.
