 Gaussian 16, Revision B.01,
 Gaussian 16:  ES64L-G16RevB.01 20-Dec-2017

 -------------------------
 #P B3LYP/6-311+g(d) force
 -------------------------

 -----
 DPGEN
 -----
 Symbolic Z-matrix:
 Charge =  0 Multiplicity = 2

                         Standard orientation:
 ---------------------------------------------------------------------
 Center     Atomic      Atomic             Coordinates (Angstroms)
 Number     Number       Type             X           Y           Z
 ---------------------------------------------------------------------
      1         11           0       -0.976893   -2.457654    0.007938
      2         11           0       -0.346829    0.175992   -2.130284
      3         11           0        2.197746    1.724707    0.786991
      4         11           0        3.273931   -1.545776   -0.733764
      5         11           0        0.107438   -0.409653    2.312383
      6         11           0       -0.675364    2.743480   -0.405465
      7         11           0       -3.580029   -0.231095    0.162199
 ---------------------------------------------------------------------

 SCF Done:  E(UB3LYP) =  -1136.12380320     A.U. after   21 cycles

 The electronic state is 2-A.
 Alpha  occ. eigenvalues --  -38.44996 -38.44528 -38.44483 -38.44427 -38.43648
 Alpha  occ. eigenvalues --  -38.43468 -38.42755  -2.20757  -2.20373  -2.20292
 Alpha  occ. eigenvalues --   -2.20226  -2.19493  -2.19317  -2.18612  -1.14437
 Alpha  occ. eigenvalues --   -1.14408  -1.14399  -1.14037  -1.14019  -1.13986
 Alpha  occ. eigenvalues --   -1.13970  -1.13950  -1.13897  -1.13891  -1.13885
 Alpha  occ. eigenvalues --   -1.13854  -1.13188  -1.13148  -1.13121  -1.13013
 Alpha  occ. eigenvalues --   -1.13003  -1.12921  -1.12315  -1.12263  -1.12241
 Alpha  occ. eigenvalues --   -0.17859  -0.12841  -0.11806  -0.11504
 Alpha virt. eigenvalues --   -0.06426  -0.04924  -0.04325  -0.03459  -0.03325
 Alpha virt. eigenvalues --   -0.03015  -0.02072  -0.00941  -0.00308  -0.00112
 Alpha virt. eigenvalues --   -0.00040   0.00304   0.00401   0.00664   0.00839

  Beta  occ. eigenvalues --  -38.45000 -38.44458 -38.44445 -38.44356 -38.43633
  Beta  occ. eigenvalues --  -38.43462 -38.42754  -2.20765  -2.20218  -2.20180
  Beta  occ. eigenvalues --   -2.20161  -2.19467  -2.19311  -2.18614  -1.14437
  Beta  occ. eigenvalues --   -1.14412  -1.14403  -1.13936  -1.13904  -1.13883
  Beta  occ. eigenvalues --   -1.13881  -1.13860  -1.13857  -1.13849  -1.13826
  Beta  occ. eigenvalues --   -1.13800  -1.13159  -1.13124  -1.13104  -1.13010
  Beta  occ. eigenvalues --   -1.12974  -1.12918  -1.12310  -1.12252  -1.12245
  Beta  occ. eigenvalues --   -0.17115  -0.12637  -0.11546
  Beta virt. eigenvalues --   -0.07729  -0.06249  -0.04735  -0.04079  -0.02932
  Beta virt. eigenvalues --   -0.02643  -0.02190  -0.01924  -0.00828  -0.00217
  Beta virt. eigenvalues --   -0.00117   0.00008   0.00326   0.00579   0.00788

 Mulliken charges and spin densities:
               1          2
     1  Na   0.114792   0.007470
     2  Na  -0.121464   0.626575
     3  Na   0.070411   0.072122
     4  Na  -0.080024   0.087420
     5  Na  -0.067228   0.376330
     6  Na   0.006456  -0.070157
     7  Na   0.077056  -0.099759
 Sum of Mulliken charges =  -0.00000   1.00000

 Dipole moment (field-independent basis, Debye):
    X=             -0.5973    Y=             -0.2587    Z=              0.1253  Tot=              0.6629
 Quadrupole moment (field-independent basis, Debye-Ang):
   XX=            -55.3116   YY=            -71.2012   ZZ=            -69.4247
   XY=             -0.9307   XZ=             -1.8237   YZ=              2.8513

 Normal termination of Gaussian 16 at Sun Dec  3 15:02:34 2023.
