 Gaussian 16, Revision B.01,
 Gaussian 16:  ES64L-G16RevB.01 20-Dec-2017

 -------------------------
 #P B3LYP/6-311+g(d) force
 -------------------------

 -----
 DPGEN
 -----
 Symbolic Z-matrix:
 Charge =  0 Multiplicity = 2

                         Standard orientation:
 ---------------------------------------------------------------------
 Center     Atomic      Atomic             Coordinates (Angstroms)
 Number     Number       Type             X           Y           Z
 ---------------------------------------------------------------------
      1         11           0        4.157094    0.630810   -0.706509
      2         11           0        0.442624   -0.401731    1.961955
      3         11           0        1.386677    2.517264    0.592444
      4         11           0       -2.231815    1.420828   -1.183323
      5         11           0       -1.533557   -2.041682   -0.056722
      6         11           0        2.555844   -2.188596   -0.597931
      7         11           0       -4.776868    0.063107   -0.009914
 ---------------------------------------------------------------------

 SCF Done:  E(UB3LYP) =  -1136.11675374     A.U. after   24 cycles

 The electronic state is 2-A.
 Alpha  occ. eigenvalues --  -38.44920 -38.44762 -38.44343 -38.44325 -38.44142
 Alpha  occ. eigenvalues --  -38.43550 -38.43045  -2.20735  -2.20562  -2.20183
 Alpha  occ. eigenvalues --   -2.20163  -2.19947  -2.19368  -2.18859  -1.14434
 Alpha  occ. eigenvalues --   -1.14384  -1.14364  -1.14242  -1.14218  -1.14171
 Alpha  occ. eigenvalues --   -1.13861  -1.13849  -1.13831  -1.13820  -1.13797
 Alpha  occ. eigenvalues --   -1.13774  -1.13628  -1.13607  -1.13550  -1.13070
 Alpha  occ. eigenvalues --   -1.13064  -1.12952  -1.12542  -1.12517  -1.12485
 Alpha  occ. eigenvalues --   -0.17025  -0.14364  -0.11487  -0.11149
 Alpha virt. eigenvalues --   -0.06481  -0.05613  -0.04279  -0.03557  -0.03069
 Alpha virt. eigenvalues --   -0.02761  -0.01894  -0.01432  -0.00762  -0.00527
 Alpha virt. eigenvalues --   -0.00283  -0.00164   0.00413   0.00506   0.00721

  Beta  occ. eigenvalues --  -38.44885 -38.44764 -38.44283 -38.44263 -38.44103
  Beta  occ. eigenvalues --  -38.43543 -38.43018  -2.20669  -2.20567  -2.20069
  Beta  occ. eigenvalues --   -2.20054  -2.19878  -2.19357  -2.18809  -1.14398
  Beta  occ. eigenvalues --   -1.14337  -1.14320  -1.14247  -1.14219  -1.14153
  Beta  occ. eigenvalues --   -1.13781  -1.13767  -1.13758  -1.13749  -1.13708
  Beta  occ. eigenvalues --   -1.13696  -1.13585  -1.13564  -1.13476  -1.13059
  Beta  occ. eigenvalues --   -1.13051  -1.12947  -1.12497  -1.12487  -1.12450
  Beta  occ. eigenvalues --   -0.16411  -0.13658  -0.11040
  Beta virt. eigenvalues --   -0.07804  -0.06247  -0.05431  -0.03793  -0.03199
  Beta virt. eigenvalues --   -0.02872  -0.02291  -0.01500  -0.01223  -0.00519
  Beta virt. eigenvalues --   -0.00335  -0.00122  -0.00084   0.00496   0.00584

 Mulliken charges and spin densities:
               1          2
     1  Na   0.106412   0.200885
     2  Na   0.147177   0.249712
     3  Na  -0.129156   0.174778
     4  Na  -0.382706   0.084869
     5  Na  -0.130538  -0.067648
     6  Na  -0.116998   0.255468
     7  Na   0.505808   0.101936
 Sum of Mulliken charges =  -0.00000   1.00000

 Dipole moment (field-independent basis, Debye):
    X=             -1.2972    Y=             -0.3206    Z=              0.0575  Tot=              1.3375
 Quadrupole moment (field-independent basis, Debye-Ang):
   XX=            -56.3001   YY=            -74.8841   ZZ=            -67.1091
   XY=              2.2242   XZ=             -2.9415   YZ=              0.4170

 Normal termination of Gaussian 16 at Mon Dec  4 04:12:00 2023.
