 Gaussian 16, Revision B.01,
 Gaussian 16:  ES64L-G16RevB.01 20-Dec-2017

 -------------------------
 #P B3LYP/6-311+g(d) force
 -------------------------

 -----
 DPGEN
 -----
 Symbolic Z-matrix:
 Charge =  0 Multiplicity = 2

                         Standard orientation:
 ---------------------------------------------------------------------
 Center     Atomic      Atomic             Coordinates (Angstroms)
 Number     Number       Type             X           Y           Z
 ---------------------------------------------------------------------
      1         11           0       -0.051222   -1.023823   -1.087457
      2         11           0        1.599403    0.701983    1.697388
      3         11           0       -2.147613   -0.974517    1.835762
      4         11           0        3.864750   -1.954132   -0.216897
      5         11           0       -1.563169    1.925173    0.290035
      6         11           0        1.955716    2.162851   -1.202427
      7         11           0       -3.657867   -0.837536   -1.316403
 ---------------------------------------------------------------------

 SCF Done:  E(UB3LYP) =  -1136.12204993     A.U. after   23 cycles

 The electronic state is 2-A.
 Alpha  occ. eigenvalues --  -38.44493 -38.44459 -38.44384 -38.44211 -38.44176
 Alpha  occ. eigenvalues --  -38.43536 -38.43510  -2.20320  -2.20307  -2.20218
 Alpha  occ. eigenvalues --   -2.20056  -2.19995  -2.19394  -2.19242  -1.13997
 Alpha  occ. eigenvalues --   -1.13985  -1.13973  -1.13963  -1.13951  -1.13934
 Alpha  occ. eigenvalues --   -1.13898  -1.13897  -1.13807  -1.13765  -1.13748
 Alpha  occ. eigenvalues --   -1.13667  -1.13654  -1.13625  -1.13595  -1.13091
 Alpha  occ. eigenvalues --   -1.13078  -1.12996  -1.12923  -1.12918  -1.12873
 Alpha  occ. eigenvalues --   -0.18100  -0.13717  -0.11118  -0.10775
 Alpha virt. eigenvalues --   -0.06362  -0.05661  -0.05325  -0.03033  -0.02652
 Alpha virt. eigenvalues --   -0.02285  -0.02106  -0.01431  -0.01126  -0.00216
 Alpha virt. eigenvalues --    0.00047   0.00112   0.00232   0.00300   0.00441

  Beta  occ. eigenvalues --  -38.44460 -38.44401 -38.44361 -38.44187 -38.44144
  Beta  occ. eigenvalues --  -38.43524 -38.43520  -2.20246  -2.20213  -2.20178
  Beta  occ. eigenvalues --   -2.20013  -2.19935  -2.19376  -2.19261  -1.13935
  Beta  occ. eigenvalues --   -1.13923  -1.13921  -1.13911  -1.13895  -1.13887
  Beta  occ. eigenvalues --   -1.13862  -1.13823  -1.13778  -1.13729  -1.13710
  Beta  occ. eigenvalues --   -1.13624  -1.13619  -1.13586  -1.13556  -1.13083
  Beta  occ. eigenvalues --   -1.13025  -1.12992  -1.12933  -1.12931  -1.12886
  Beta  occ. eigenvalues --   -0.17369  -0.13525  -0.10691
  Beta virt. eigenvalues --   -0.07307  -0.06155  -0.05543  -0.04606  -0.02837
  Beta virt. eigenvalues --   -0.02337  -0.01789  -0.01687  -0.01265  -0.00638
  Beta virt. eigenvalues --   -0.00164   0.00158   0.00280   0.00323   0.00379

 Mulliken charges and spin densities:
               1          2
     1  Na  -0.906767   0.351404
     2  Na   0.155160   0.242655
     3  Na   0.076523   0.210934
     4  Na  -0.011671  -0.111681
     5  Na   0.023593   0.242276
     6  Na   0.147207   0.003841
     7  Na   0.515954   0.060571
 Sum of Mulliken charges =  -0.00000   1.00000

 Dipole moment (field-independent basis, Debye):
    X=             -1.1167    Y=              0.6268    Z=              0.0190  Tot=              1.2807
 Quadrupole moment (field-independent basis, Debye-Ang):
   XX=            -54.4829   YY=            -74.2466   ZZ=            -67.1505
   XY=              4.2768   XZ=              0.3370   YZ=             -2.4342

 Normal termination of Gaussian 16 at Fri Dec  8 01:57:15 2023.
