 Gaussian 16, Revision B.01,
 Gaussian 16:  ES64L-G16RevB.01 20-Dec-2017

 -------------------------
 #P B3LYP/6-311+g(d) force
 -------------------------

 -----
 DPGEN
 -----
 Symbolic Z-matrix:
 Charge =  0 Multiplicity = 2

                         Standard orientation:
 ---------------------------------------------------------------------
 Center     Atomic      Atomic             Coordinates (Angstroms)
 Number     Number       Type             X           Y           Z
 ---------------------------------------------------------------------
      1         11           0       -0.208832    3.144018    0.008246
      2         11           0        5.343555   -0.877431   -0.845690
      3         11           0        2.810904    1.264612   -0.069714
      4         11           0        3.588539   -1.712859    1.217207
      5         11           0       -0.625379   -0.138486    0.095419
      6         11           0       -4.406714   -1.466101   -1.063321
      7         11           0       -6.502073   -0.213753    0.657852
 ---------------------------------------------------------------------

 SCF Done:  E(UB3LYP) =  -1136.10963357     A.U. after   20 cycles

 The electronic state is 2-A.
 Alpha  occ. eigenvalues --  -38.44829 -38.44825 -38.44206 -38.44019 -38.43884
 Alpha  occ. eigenvalues --  -38.43822 -38.43622  -2.20729  -2.20691  -2.20073
 Alpha  occ. eigenvalues --   -2.19827  -2.19693  -2.19626  -2.19437  -1.14621
 Alpha  occ. eigenvalues --   -1.14387  -1.14365  -1.14323  -1.14310  -1.14195
 Alpha  occ. eigenvalues --   -1.13786  -1.13765  -1.13655  -1.13568  -1.13470
 Alpha  occ. eigenvalues --   -1.13468  -1.13362  -1.13355  -1.13323  -1.13282
 Alpha  occ. eigenvalues --   -1.13270  -1.13241  -1.13117  -1.13090  -1.13047
 Alpha  occ. eigenvalues --   -0.16745  -0.13945  -0.12637  -0.09789
 Alpha virt. eigenvalues --   -0.06546  -0.05920  -0.04698  -0.03740  -0.02781
 Alpha virt. eigenvalues --   -0.02249  -0.02061  -0.01708  -0.01336  -0.00971
 Alpha virt. eigenvalues --   -0.00348  -0.00008   0.00382   0.00411   0.00544

  Beta  occ. eigenvalues --  -38.44817 -38.44797 -38.44175 -38.43997 -38.43864
  Beta  occ. eigenvalues --  -38.43826 -38.43572  -2.20696  -2.20650  -2.20020
  Beta  occ. eigenvalues --   -2.19786  -2.19657  -2.19635  -2.19345  -1.14594
  Beta  occ. eigenvalues --   -1.14356  -1.14342  -1.14294  -1.14279  -1.14164
  Beta  occ. eigenvalues --   -1.13750  -1.13703  -1.13618  -1.13548  -1.13443
  Beta  occ. eigenvalues --   -1.13439  -1.13332  -1.13328  -1.13298  -1.13290
  Beta  occ. eigenvalues --   -1.13274  -1.13229  -1.13056  -1.13021  -1.12982
  Beta  occ. eigenvalues --   -0.16236  -0.13713  -0.12424
  Beta virt. eigenvalues --   -0.06579  -0.05979  -0.05531  -0.04396  -0.03448
  Beta virt. eigenvalues --   -0.02626  -0.02084  -0.01853  -0.01377  -0.01122
  Beta virt. eigenvalues --   -0.00624  -0.00063   0.00200   0.00457   0.00548

 Mulliken charges and spin densities:
               1          2
     1  Na   0.285061   0.189283
     2  Na   0.963573   0.004311
     3  Na  -0.490472   0.195805
     4  Na   0.094343   0.131703
     5  Na  -0.828989   0.395627
     6  Na  -0.093614  -0.017506
     7  Na   0.070098   0.100777
 Sum of Mulliken charges =  -0.00000   1.00000

 Dipole moment (field-independent basis, Debye):
    X=              1.5141    Y=             -0.0279    Z=              0.0538  Tot=              1.5153
 Quadrupole moment (field-independent basis, Debye-Ang):
   XX=            -57.9253   YY=            -68.7324   ZZ=            -67.3499
   XY=            -11.0226   XZ=             -5.5727   YZ=              2.8466

 Normal termination of Gaussian 16 at Tue Nov 28 22:48:34 2023.
