 Gaussian 16, Revision B.01,
 Gaussian 16:  ES64L-G16RevB.01 20-Dec-2017

 -------------------------
 #P B3LYP/6-311+g(d) force
 -------------------------

 -----
 DPGEN
 -----
 Symbolic Z-matrix:
 Charge =  0 Multiplicity = 2

                         Standard orientation:
 ---------------------------------------------------------------------
 Center     Atomic      Atomic             Coordinates (Angstroms)
 Number     Number       Type             X           Y           Z
 ---------------------------------------------------------------------
      1         11           0        0.077761    0.276241   -1.562245
      2         11           0       -3.439505    0.184936   -0.111170
      3         11           0       -0.855385   -2.704114   -0.429001
      4         11           0       -0.812934    2.676094    0.374442
      5         11           0        2.546050   -1.473457   -0.052347
      6         11           0        2.381961    1.808128   -0.163102
      7         11           0        0.102052   -0.767828    1.943423
 ---------------------------------------------------------------------

 SCF Done:  E(UB3LYP) =  -1136.13482199     A.U. after   20 cycles

 The electronic state is 2-A.
 Alpha  occ. eigenvalues --  -38.44470 -38.43735 -38.43552 -38.43492 -38.43413
 Alpha  occ. eigenvalues --  -38.43372 -38.43042  -2.20237  -2.19633  -2.19421
 Alpha  occ. eigenvalues --   -2.19392  -2.19295  -2.19275  -2.19063  -1.13914
 Alpha  occ. eigenvalues --   -1.13891  -1.13879  -1.13337  -1.13304  -1.13273
 Alpha  occ. eigenvalues --   -1.13136  -1.13122  -1.13106  -1.13048  -1.13029
 Alpha  occ. eigenvalues --   -1.13025  -1.12980  -1.12952  -1.12935  -1.12912
 Alpha  occ. eigenvalues --   -1.12903  -1.12886  -1.12736  -1.12692  -1.12671
 Alpha  occ. eigenvalues --   -0.18843  -0.12934  -0.12717  -0.10589
 Alpha virt. eigenvalues --   -0.05925  -0.05002  -0.04668  -0.03065  -0.02996
 Alpha virt. eigenvalues --   -0.02307  -0.01695  -0.01066  -0.00358  -0.00253
 Alpha virt. eigenvalues --    0.00002   0.00341   0.00802   0.00856   0.00917

  Beta  occ. eigenvalues --  -38.44472 -38.43725 -38.43539 -38.43486 -38.43405
  Beta  occ. eigenvalues --  -38.43287 -38.42979  -2.20243  -2.19621  -2.19402
  Beta  occ. eigenvalues --   -2.19385  -2.19261  -2.19138  -2.18950  -1.13907
  Beta  occ. eigenvalues --   -1.13896  -1.13885  -1.13330  -1.13270  -1.13257
  Beta  occ. eigenvalues --   -1.13119  -1.13107  -1.13063  -1.13035  -1.13018
  Beta  occ. eigenvalues --   -1.13010  -1.12967  -1.12907  -1.12881  -1.12852
  Beta  occ. eigenvalues --   -1.12804  -1.12793  -1.12660  -1.12611  -1.12588
  Beta  occ. eigenvalues --   -0.18118  -0.12711  -0.12476
  Beta virt. eigenvalues --   -0.06675  -0.05906  -0.04982  -0.04579  -0.02283
  Beta virt. eigenvalues --   -0.02273  -0.01647  -0.01261  -0.01006  -0.00398
  Beta virt. eigenvalues --   -0.00260   0.00150   0.00374   0.00836   0.00863

 Mulliken charges and spin densities:
               1          2
     1  Na  -0.271172   0.433137
     2  Na  -0.064184  -0.085756
     3  Na   0.102875  -0.110149
     4  Na   0.006126   0.005631
     5  Na   0.510034   0.017238
     6  Na   0.254904   0.031651
     7  Na  -0.538583   0.708248
 Sum of Mulliken charges =  -0.00000   1.00000

 Dipole moment (field-independent basis, Debye):
    X=             -0.3362    Y=             -0.1262    Z=              0.1199  Tot=              0.3786
 Quadrupole moment (field-independent basis, Debye-Ang):
   XX=            -54.7274   YY=            -63.1970   ZZ=            -74.8974
   XY=              0.2167   XZ=             -0.1169   YZ=              2.0555

 Normal termination of Gaussian 16 at Tue Dec  5 18:04:04 2023.
