 Gaussian 16, Revision B.01,
 Gaussian 16:  ES64L-G16RevB.01 20-Dec-2017

 -------------------------
 #P B3LYP/6-311+g(d) force
 -------------------------

 -----
 DPGEN
 -----
 Symbolic Z-matrix:
 Charge =  0 Multiplicity = 2

                         Standard orientation:
 ---------------------------------------------------------------------
 Center     Atomic      Atomic             Coordinates (Angstroms)
 Number     Number       Type             X           Y           Z
 ---------------------------------------------------------------------
      1         11           0       -0.151386   -0.420245    2.099130
      2         11           0       -0.246263   -0.191703   -1.784741
      3         11           0       -2.083869    2.054171   -0.084364
      4         11           0        3.276610   -0.091604    0.371102
      5         11           0        1.315062    2.604009   -0.195231
      6         11           0       -3.466354   -1.328918    0.146453
      7         11           0        1.356200   -2.625711   -0.552349
 ---------------------------------------------------------------------

 SCF Done:  E(UB3LYP) =  -1136.13102569     A.U. after   21 cycles

 The electronic state is 2-A.
 Alpha  occ. eigenvalues --  -38.44777 -38.44466 -38.44340 -38.43742 -38.43588
 Alpha  occ. eigenvalues --  -38.43388 -38.42835  -2.20529  -2.20292  -2.20161
 Alpha  occ. eigenvalues --   -2.19585  -2.19507  -2.19246  -2.18677  -1.14201
 Alpha  occ. eigenvalues --   -1.14193  -1.14166  -1.13957  -1.13954  -1.13943
 Alpha  occ. eigenvalues --   -1.13830  -1.13804  -1.13769  -1.13294  -1.13260
 Alpha  occ. eigenvalues --   -1.13203  -1.13199  -1.13152  -1.13118  -1.12918
 Alpha  occ. eigenvalues --   -1.12885  -1.12880  -1.12353  -1.12338  -1.12327
 Alpha  occ. eigenvalues --   -0.18168  -0.13245  -0.11920  -0.10873
 Alpha virt. eigenvalues --   -0.06448  -0.05261  -0.04271  -0.03391  -0.02793
 Alpha virt. eigenvalues --   -0.02742  -0.02077  -0.01146  -0.00558  -0.00197
 Alpha virt. eigenvalues --   -0.00091   0.00298   0.00592   0.00692   0.00784

  Beta  occ. eigenvalues --  -38.44780 -38.44460 -38.44256 -38.43737 -38.43511
  Beta  occ. eigenvalues --  -38.43371 -38.42834  -2.20537  -2.20283  -2.20007
  Beta  occ. eigenvalues --   -2.19578  -2.19367  -2.19218  -2.18677  -1.14201
  Beta  occ. eigenvalues --   -1.14193  -1.14172  -1.13951  -1.13940  -1.13930
  Beta  occ. eigenvalues --   -1.13726  -1.13698  -1.13655  -1.13277  -1.13243
  Beta  occ. eigenvalues --   -1.13196  -1.13111  -1.13054  -1.13023  -1.12885
  Beta  occ. eigenvalues --   -1.12865  -1.12847  -1.12353  -1.12336  -1.12313
  Beta  occ. eigenvalues --   -0.17442  -0.13074  -0.11671
  Beta virt. eigenvalues --   -0.07029  -0.06290  -0.05239  -0.04167  -0.02724
  Beta virt. eigenvalues --   -0.02104  -0.01973  -0.01652  -0.01093  -0.00566
  Beta virt. eigenvalues --   -0.00208   0.00054   0.00323   0.00747   0.00770

 Mulliken charges and spin densities:
               1          2
     1  Na  -0.345748   0.596032
     2  Na   0.117326   0.354624
     3  Na   0.061795   0.013551
     4  Na   0.098148   0.102208
     5  Na  -0.137371   0.003139
     6  Na   0.047323  -0.062508
     7  Na   0.158528  -0.007046
 Sum of Mulliken charges =  -0.00000   1.00000

 Dipole moment (field-independent basis, Debye):
    X=             -0.4289    Y=             -0.3644    Z=              0.2766  Tot=              0.6271
 Quadrupole moment (field-independent basis, Debye-Ang):
   XX=            -52.7505   YY=            -67.6125   ZZ=            -73.7663
   XY=              0.8297   XZ=              0.5356   YZ=              0.3372

 Normal termination of Gaussian 16 at Thu Dec  7 20:19:56 2023.
