 Gaussian 16, Revision B.01,
 Gaussian 16:  ES64L-G16RevB.01 20-Dec-2017

 -------------------------
 #P B3LYP/6-311+g(d) force
 -------------------------

 -----
 DPGEN
 -----
 Symbolic Z-matrix:
 Charge =  0 Multiplicity = 2

                         Standard orientation:
 ---------------------------------------------------------------------
 Center     Atomic      Atomic             Coordinates (Angstroms)
 Number     Number       Type             X           Y           Z
 ---------------------------------------------------------------------
      1         11           0        2.683308    1.245199    0.253237
      2         11           0       -3.083781    0.705595   -0.081258
      3         11           0       -0.460695    2.802091   -0.425324
      4         11           0        0.515464   -0.058074    2.141949
      5         11           0        2.347515   -1.927235   -0.752046
      6         11           0       -0.118302   -0.301977   -1.475982
      7         11           0       -1.883510   -2.465599    0.339425
 ---------------------------------------------------------------------

 SCF Done:  E(UB3LYP) =  -1136.13409627     A.U. after   20 cycles

 The electronic state is 2-A.
 Alpha  occ. eigenvalues --  -38.44062 -38.44033 -38.43829 -38.43825 -38.43613
 Alpha  occ. eigenvalues --  -38.43138 -38.42925  -2.19915  -2.19903  -2.19714
 Alpha  occ. eigenvalues --   -2.19697  -2.19439  -2.19159  -2.18785  -1.13611
 Alpha  occ. eigenvalues --   -1.13583  -1.13569  -1.13551  -1.13543  -1.13528
 Alpha  occ. eigenvalues --   -1.13436  -1.13383  -1.13378  -1.13355  -1.13320
 Alpha  occ. eigenvalues --   -1.13290  -1.13120  -1.13100  -1.13075  -1.12837
 Alpha  occ. eigenvalues --   -1.12809  -1.12781  -1.12470  -1.12443  -1.12414
 Alpha  occ. eigenvalues --   -0.18674  -0.13377  -0.12176  -0.11017
 Alpha virt. eigenvalues --   -0.05607  -0.05318  -0.04409  -0.03425  -0.02848
 Alpha virt. eigenvalues --   -0.02632  -0.01562  -0.01103  -0.00355  -0.00181
 Alpha virt. eigenvalues --   -0.00010   0.00342   0.00775   0.00863   0.00886

  Beta  occ. eigenvalues --  -38.44062 -38.43937 -38.43815 -38.43802 -38.43607
  Beta  occ. eigenvalues --  -38.43085 -38.42919  -2.19905  -2.19736  -2.19700
  Beta  occ. eigenvalues --   -2.19651  -2.19431  -2.19063  -2.18776  -1.13579
  Beta  occ. eigenvalues --   -1.13568  -1.13540  -1.13509  -1.13428  -1.13409
  Beta  occ. eigenvalues --   -1.13395  -1.13357  -1.13346  -1.13318  -1.13279
  Beta  occ. eigenvalues --   -1.13269  -1.13114  -1.13079  -1.13072  -1.12770
  Beta  occ. eigenvalues --   -1.12736  -1.12711  -1.12457  -1.12435  -1.12401
  Beta  occ. eigenvalues --   -0.17983  -0.13126  -0.11906
  Beta virt. eigenvalues --   -0.07103  -0.05547  -0.05227  -0.04350  -0.02682
  Beta virt. eigenvalues --   -0.02130  -0.01625  -0.01451  -0.01005  -0.00369
  Beta virt. eigenvalues --   -0.00189   0.00131   0.00387   0.00858   0.00869

 Mulliken charges and spin densities:
               1          2
     1  Na   0.402607   0.166762
     2  Na   0.046532  -0.008869
     3  Na   0.017420  -0.010508
     4  Na  -0.464575   0.584797
     5  Na   0.151218   0.031225
     6  Na  -0.160646   0.181180
     7  Na   0.007444   0.055414
 Sum of Mulliken charges =  -0.00000   1.00000

 Dipole moment (field-independent basis, Debye):
    X=             -0.0416    Y=             -0.1982    Z=              0.3181  Tot=              0.3771
 Quadrupole moment (field-independent basis, Debye-Ang):
   XX=            -56.1322   YY=            -64.8195   ZZ=            -73.2767
   XY=              0.1242   XZ=             -1.3173   YZ=             -0.3953

 Normal termination of Gaussian 16 at Fri Dec  8 04:56:25 2023.
