 Gaussian 16, Revision B.01,
 Gaussian 16:  ES64L-G16RevB.01 20-Dec-2017

 -------------------------
 #P B3LYP/6-311+g(d) force
 -------------------------

 -----
 DPGEN
 -----
 Symbolic Z-matrix:
 Charge =  0 Multiplicity = 2

                         Standard orientation:
 ---------------------------------------------------------------------
 Center     Atomic      Atomic             Coordinates (Angstroms)
 Number     Number       Type             X           Y           Z
 ---------------------------------------------------------------------
      1         11           0        0.066475    3.368733    0.320087
      2         11           0        3.571080    0.473255   -0.483315
      3         11           0        0.048775   -0.236016    2.341754
      4         11           0       -0.214148    0.449910   -1.268323
      5         11           0       -3.397364    0.514298   -0.654250
      6         11           0       -2.071354   -2.228595    0.096574
      7         11           0        1.996537   -2.341586   -0.352527
 ---------------------------------------------------------------------

 SCF Done:  E(UB3LYP) =  -1136.12659445     A.U. after   21 cycles

 The electronic state is 2-A.
 Alpha  occ. eigenvalues --  -38.44737 -38.44440 -38.44230 -38.43608 -38.43560
 Alpha  occ. eigenvalues --  -38.43494 -38.43331  -2.20526  -2.20287  -2.20057
 Alpha  occ. eigenvalues --   -2.19430  -2.19420  -2.19413  -2.19106  -1.14194
 Alpha  occ. eigenvalues --   -1.14186  -1.14154  -1.13967  -1.13947  -1.13910
 Alpha  occ. eigenvalues --   -1.13707  -1.13690  -1.13659  -1.13133  -1.13113
 Alpha  occ. eigenvalues --   -1.13096  -1.13096  -1.13082  -1.13069  -1.13061
 Alpha  occ. eigenvalues --   -1.13054  -1.13046  -1.12774  -1.12760  -1.12752
 Alpha  occ. eigenvalues --   -0.17832  -0.13382  -0.11760  -0.10818
 Alpha virt. eigenvalues --   -0.06261  -0.05032  -0.04859  -0.03179  -0.02802
 Alpha virt. eigenvalues --   -0.02551  -0.02154  -0.01181  -0.00770  -0.00469
 Alpha virt. eigenvalues --   -0.00117   0.00255   0.00698   0.00725   0.00782

  Beta  occ. eigenvalues --  -38.44717 -38.44414 -38.44113 -38.43605 -38.43556
  Beta  occ. eigenvalues --  -38.43476 -38.43329  -2.20491  -2.20240  -2.19842
  Beta  occ. eigenvalues --   -2.19426  -2.19410  -2.19389  -2.19104  -1.14170
  Beta  occ. eigenvalues --   -1.14158  -1.14130  -1.13935  -1.13913  -1.13874
  Beta  occ. eigenvalues --   -1.13564  -1.13546  -1.13502  -1.13116  -1.13103
  Beta  occ. eigenvalues --   -1.13096  -1.13082  -1.13078  -1.13047  -1.13045
  Beta  occ. eigenvalues --   -1.13028  -1.13023  -1.12770  -1.12754  -1.12750
  Beta  occ. eigenvalues --   -0.17206  -0.12995  -0.11615
  Beta virt. eigenvalues --   -0.07050  -0.06006  -0.04906  -0.04788  -0.02591
  Beta virt. eigenvalues --   -0.02110  -0.01988  -0.01660  -0.01118  -0.00691
  Beta virt. eigenvalues --   -0.00489   0.00070   0.00332   0.00739   0.00814

 Mulliken charges and spin densities:
               1          2
     1  Na  -0.162194   0.073640
     2  Na   0.109940   0.089412
     3  Na  -0.377602   0.670545
     4  Na  -0.120436  -0.198641
     5  Na   0.357186   0.160799
     6  Na   0.150955   0.109983
     7  Na   0.042151   0.094261
 Sum of Mulliken charges =  -0.00000   1.00000

 Dipole moment (field-independent basis, Debye):
    X=              0.0715    Y=              0.0493    Z=              0.2456  Tot=              0.2605
 Quadrupole moment (field-independent basis, Debye-Ang):
   XX=            -55.7424   YY=            -65.4068   ZZ=            -73.4703
   XY=              1.1150   XZ=              0.1201   YZ=              1.0272

 Normal termination of Gaussian 16 at Tue Dec  5 18:37:46 2023.
