 Gaussian 16, Revision B.01,
 Gaussian 16:  ES64L-G16RevB.01 20-Dec-2017

 -------------------------
 #P B3LYP/6-311+g(d) force
 -------------------------

 -----
 DPGEN
 -----
 Symbolic Z-matrix:
 Charge =  0 Multiplicity = 2

                         Standard orientation:
 ---------------------------------------------------------------------
 Center     Atomic      Atomic             Coordinates (Angstroms)
 Number     Number       Type             X           Y           Z
 ---------------------------------------------------------------------
      1         11           0        1.717684   -1.817624    1.828155
      2         11           0        1.087324    0.730616   -1.000112
      3         11           0       -2.061883    1.472070    0.498215
      4         11           0       -1.494980   -1.772861   -0.210318
      5         11           0       -4.303553   -0.765845   -0.500331
      6         11           0        1.182757    3.317466    0.412312
      7         11           0        3.872650   -1.163823   -1.027920
 ---------------------------------------------------------------------

 SCF Done:  E(UB3LYP) =  -1136.11983394     A.U. after   21 cycles

 The electronic state is 2-A.
 Alpha  occ. eigenvalues --  -38.44458 -38.44279 -38.44036 -38.43962 -38.43735
 Alpha  occ. eigenvalues --  -38.43676 -38.43486  -2.20314  -2.20171  -2.19917
 Alpha  occ. eigenvalues --   -2.19758  -2.19612  -2.19563  -2.19311  -1.14036
 Alpha  occ. eigenvalues --   -1.14009  -1.13919  -1.13880  -1.13837  -1.13833
 Alpha  occ. eigenvalues --   -1.13559  -1.13546  -1.13518  -1.13453  -1.13427
 Alpha  occ. eigenvalues --   -1.13405  -1.13384  -1.13289  -1.13256  -1.13205
 Alpha  occ. eigenvalues --   -1.13185  -1.13123  -1.12965  -1.12955  -1.12918
 Alpha  occ. eigenvalues --   -0.17598  -0.14138  -0.12229  -0.10153
 Alpha virt. eigenvalues --   -0.06515  -0.05767  -0.04047  -0.03732  -0.02800
 Alpha virt. eigenvalues --   -0.02450  -0.01773  -0.01412  -0.00814  -0.00534
 Alpha virt. eigenvalues --   -0.00133  -0.00098   0.00416   0.00614   0.00686

  Beta  occ. eigenvalues --  -38.44452 -38.44261 -38.44001 -38.43920 -38.43740
  Beta  occ. eigenvalues --  -38.43660 -38.43414  -2.20306  -2.20143  -2.19851
  Beta  occ. eigenvalues --   -2.19681  -2.19592  -2.19568  -2.19178  -1.14031
  Beta  occ. eigenvalues --   -1.13997  -1.13904  -1.13860  -1.13822  -1.13786
  Beta  occ. eigenvalues --   -1.13512  -1.13499  -1.13478  -1.13452  -1.13377
  Beta  occ. eigenvalues --   -1.13343  -1.13326  -1.13250  -1.13235  -1.13207
  Beta  occ. eigenvalues --   -1.13186  -1.13114  -1.12872  -1.12863  -1.12833
  Beta  occ. eigenvalues --   -0.17143  -0.13633  -0.11972
  Beta virt. eigenvalues --   -0.06566  -0.06333  -0.05610  -0.03630  -0.03454
  Beta virt. eigenvalues --   -0.02445  -0.02196  -0.01610  -0.01066  -0.00441
  Beta virt. eigenvalues --   -0.00168  -0.00061   0.00072   0.00579   0.00697

 Mulliken charges and spin densities:
               1          2
     1  Na  -0.100354   0.177845
     2  Na   0.334215   0.201107
     3  Na  -0.121628   0.079466
     4  Na  -0.485073   0.037665
     5  Na   0.452009   0.227252
     6  Na   0.065219  -0.008179
     7  Na  -0.144388   0.284844
 Sum of Mulliken charges =  -0.00000   1.00000

 Dipole moment (field-independent basis, Debye):
    X=             -1.0182    Y=              0.2336    Z=              0.8977  Tot=              1.3774
 Quadrupole moment (field-independent basis, Debye-Ang):
   XX=            -61.7796   YY=            -67.8126   ZZ=            -68.6447
   XY=              0.9061   XZ=              3.8663   YZ=              3.5636

 Normal termination of Gaussian 16 at Wed Nov 29 00:57:47 2023.
