 Gaussian 16, Revision B.01,
 Gaussian 16:  ES64L-G16RevB.01 20-Dec-2017

 -------------------------
 #P B3LYP/6-311+g(d) force
 -------------------------

 -----
 DPGEN
 -----
 Symbolic Z-matrix:
 Charge =  0 Multiplicity = 2

                         Standard orientation:
 ---------------------------------------------------------------------
 Center     Atomic      Atomic             Coordinates (Angstroms)
 Number     Number       Type             X           Y           Z
 ---------------------------------------------------------------------
      1         11           0       -5.125749   -1.035346   -0.500325
      2         11           0        1.859576   -1.634600    0.541783
      3         11           0       -2.198811   -1.783523    0.542937
      4         11           0       -1.336692    1.984101   -1.174949
      5         11           0        4.531721   -1.687485   -0.491926
      6         11           0        2.369891    1.832467   -0.652397
      7         11           0       -0.099936    2.324386    1.734878
 ---------------------------------------------------------------------

 SCF Done:  E(UB3LYP) =  -1136.11224753     A.U. after   21 cycles

 The electronic state is 2-A.
 Alpha  occ. eigenvalues --  -38.45667 -38.45028 -38.45018 -38.44196 -38.43502
 Alpha  occ. eigenvalues --  -38.43482 -38.43318  -2.21453  -2.20848  -2.20817
 Alpha  occ. eigenvalues --   -2.20029  -2.19357  -2.19300  -2.19119  -1.15162
 Alpha  occ. eigenvalues --   -1.15126  -1.15046  -1.14543  -1.14522  -1.14511
 Alpha  occ. eigenvalues --   -1.14482  -1.14468  -1.14387  -1.13796  -1.13670
 Alpha  occ. eigenvalues --   -1.13643  -1.13020  -1.13009  -1.12980  -1.12976
 Alpha  occ. eigenvalues --   -1.12951  -1.12937  -1.12806  -1.12784  -1.12735
 Alpha  occ. eigenvalues --   -0.16976  -0.13506  -0.12627  -0.09957
 Alpha virt. eigenvalues --   -0.06689  -0.06450  -0.04223  -0.03748  -0.02746
 Alpha virt. eigenvalues --   -0.02317  -0.02211  -0.01636  -0.01217  -0.00879
 Alpha virt. eigenvalues --   -0.00116  -0.00056   0.00082   0.00377   0.00511

  Beta  occ. eigenvalues --  -38.45656 -38.45012 -38.44989 -38.44190 -38.43463
  Beta  occ. eigenvalues --  -38.43450 -38.43301  -2.21432  -2.20817  -2.20764
  Beta  occ. eigenvalues --   -2.20018  -2.19300  -2.19226  -2.19092  -1.15145
  Beta  occ. eigenvalues --   -1.15108  -1.15033  -1.14520  -1.14489  -1.14480
  Beta  occ. eigenvalues --   -1.14449  -1.14435  -1.14348  -1.13789  -1.13662
  Beta  occ. eigenvalues --   -1.13628  -1.12985  -1.12973  -1.12932  -1.12914
  Beta  occ. eigenvalues --   -1.12900  -1.12886  -1.12793  -1.12770  -1.12679
  Beta  occ. eigenvalues --   -0.16466  -0.13354  -0.12286
  Beta virt. eigenvalues --   -0.06668  -0.06411  -0.05999  -0.03747  -0.03404
  Beta virt. eigenvalues --   -0.02585  -0.02180  -0.01999  -0.01232  -0.00993
  Beta virt. eigenvalues --   -0.00565   0.00012   0.00093   0.00239   0.00505

 Mulliken charges and spin densities:
               1          2
     1  Na   0.546674   0.276468
     2  Na  -1.275337   0.028195
     3  Na  -0.407964   0.019159
     4  Na  -0.037673   0.040601
     5  Na   0.976898   0.242848
     6  Na  -0.037728   0.216341
     7  Na   0.235129   0.176387
 Sum of Mulliken charges =  -0.00000   1.00000

 Dipole moment (field-independent basis, Debye):
    X=              1.0092    Y=              1.8778    Z=              0.1028  Tot=              2.1343
 Quadrupole moment (field-independent basis, Debye-Ang):
   XX=            -63.4775   YY=            -68.9805   ZZ=            -67.7929
   XY=             -4.6062   XZ=             -0.0062   YZ=              2.5688

 Normal termination of Gaussian 16 at Mon Dec  4 04:49:18 2023.
