 Gaussian 16, Revision B.01,
 Gaussian 16:  ES64L-G16RevB.01 20-Dec-2017

 -------------------------
 #P B3LYP/6-311+g(d) force
 -------------------------

 -----
 DPGEN
 -----
 Symbolic Z-matrix:
 Charge =  0 Multiplicity = 2

                         Standard orientation:
 ---------------------------------------------------------------------
 Center     Atomic      Atomic             Coordinates (Angstroms)
 Number     Number       Type             X           Y           Z
 ---------------------------------------------------------------------
      1         11           0       -1.852272   -0.620461    2.549157
      2         11           0       -3.996364    1.009195   -0.008678
      3         11           0        3.188409    1.209591    0.090348
      4         11           0       -3.510920   -2.004062   -1.333467
      5         11           0        5.953328   -1.070592   -0.048049
      6         11           0       -0.516125    2.174987   -0.736175
      7         11           0        0.733942   -0.698658   -0.513136
 ---------------------------------------------------------------------

 SCF Done:  E(UB3LYP) =  -1136.10057328     A.U. after   29 cycles

 The electronic state is 2-A.
 Alpha  occ. eigenvalues --  -38.45625 -38.45363 -38.45025 -38.44717 -38.44007
 Alpha  occ. eigenvalues --  -38.43524 -38.43384  -2.21469  -2.21170  -2.20787
 Alpha  occ. eigenvalues --   -2.20525  -2.19827  -2.19270  -2.19224  -1.15154
 Alpha  occ. eigenvalues --   -1.15130  -1.15096  -1.14842  -1.14817  -1.14811
 Alpha  occ. eigenvalues --   -1.14466  -1.14447  -1.14418  -1.14180  -1.14141
 Alpha  occ. eigenvalues --   -1.14130  -1.13543  -1.13516  -1.13404  -1.12940
 Alpha  occ. eigenvalues --   -1.12938  -1.12914  -1.12898  -1.12877  -1.12853
 Alpha  occ. eigenvalues --   -0.17244  -0.13907  -0.11115  -0.10837
 Alpha virt. eigenvalues --   -0.08108  -0.05552  -0.04691  -0.03453  -0.03175
 Alpha virt. eigenvalues --   -0.02490  -0.02260  -0.02171  -0.01159  -0.01093
 Alpha virt. eigenvalues --   -0.00551  -0.00099   0.00003   0.00370   0.00427

  Beta  occ. eigenvalues --  -38.45616 -38.45337 -38.45023 -38.44589 -38.44007
  Beta  occ. eigenvalues --  -38.43517 -38.43368  -2.21455  -2.21124  -2.20785
  Beta  occ. eigenvalues --   -2.20287  -2.19828  -2.19256  -2.19195  -1.15150
  Beta  occ. eigenvalues --   -1.15104  -1.15085  -1.14793  -1.14788  -1.14779
  Beta  occ. eigenvalues --   -1.14465  -1.14433  -1.14419  -1.14016  -1.13978
  Beta  occ. eigenvalues --   -1.13969  -1.13544  -1.13515  -1.13403  -1.12931
  Beta  occ. eigenvalues --   -1.12929  -1.12894  -1.12889  -1.12857  -1.12828
  Beta  occ. eigenvalues --   -0.16676  -0.13674  -0.10679
  Beta virt. eigenvalues --   -0.08017  -0.07053  -0.05415  -0.04487  -0.02978
  Beta virt. eigenvalues --   -0.02858  -0.02168  -0.01748  -0.01665  -0.01070
  Beta virt. eigenvalues --   -0.00765  -0.00508  -0.00037   0.00206   0.00426

 Mulliken charges and spin densities:
               1          2
     1  Na  -0.038745   0.551485
     2  Na   0.111744   0.391386
     3  Na   0.343066  -0.082059
     4  Na   0.324706  -0.027196
     5  Na   0.185995   0.013830
     6  Na   0.198047  -0.025179
     7  Na  -1.124813   0.177733
 Sum of Mulliken charges =  -0.00000   1.00000

 Dipole moment (field-independent basis, Debye):
    X=             -1.9284    Y=              0.1956    Z=             -0.2401  Tot=              1.9531
 Quadrupole moment (field-independent basis, Debye-Ang):
   XX=            -75.8342   YY=            -61.7763   ZZ=            -73.8490
   XY=             -4.8037   XZ=             -1.4456   YZ=              6.5198

 Normal termination of Gaussian 16 at Tue Nov 28 21:42:29 2023.
