 Gaussian 16, Revision B.01,
 Gaussian 16:  ES64L-G16RevB.01 20-Dec-2017

 -------------------------
 #P B3LYP/6-311+g(d) force
 -------------------------

 -----
 DPGEN
 -----
 Symbolic Z-matrix:
 Charge =  0 Multiplicity = 2

                         Standard orientation:
 ---------------------------------------------------------------------
 Center     Atomic      Atomic             Coordinates (Angstroms)
 Number     Number       Type             X           Y           Z
 ---------------------------------------------------------------------
      1         11           0       -0.893406   -2.907503    0.721009
      2         11           0        3.532401   -1.433630   -0.287082
      3         11           0       -0.797838    0.684342    1.770319
      4         11           0       -1.161764    2.665854   -0.434604
      5         11           0       -2.916998   -0.791225   -0.843196
      6         11           0        0.359240   -0.298929   -1.215416
      7         11           0        1.878365    2.081092    0.288970
 ---------------------------------------------------------------------

 SCF Done:  E(UB3LYP) =  -1136.12930954     A.U. after   20 cycles

 The electronic state is 2-A.
 Alpha  occ. eigenvalues --  -38.44022 -38.43992 -38.43918 -38.43796 -38.43527
 Alpha  occ. eigenvalues --  -38.43413 -38.42870  -2.19848  -2.19816  -2.19750
 Alpha  occ. eigenvalues --   -2.19662  -2.19464  -2.19383  -2.18879  -1.13542
 Alpha  occ. eigenvalues --   -1.13517  -1.13507  -1.13494  -1.13491  -1.13429
 Alpha  occ. eigenvalues --   -1.13426  -1.13407  -1.13385  -1.13342  -1.13312
 Alpha  occ. eigenvalues --   -1.13284  -1.13253  -1.13123  -1.13075  -1.13055
 Alpha  occ. eigenvalues --   -1.12995  -1.12943  -1.12592  -1.12534  -1.12487
 Alpha  occ. eigenvalues --   -0.18754  -0.13215  -0.12362  -0.10409
 Alpha virt. eigenvalues --   -0.05842  -0.05268  -0.04895  -0.03219  -0.02582
 Alpha virt. eigenvalues --   -0.02076  -0.01570  -0.01386  -0.00635  -0.00242
 Alpha virt. eigenvalues --   -0.00022   0.00293   0.00762   0.00824   0.00828

  Beta  occ. eigenvalues --  -38.44002 -38.43994 -38.43910 -38.43770 -38.43514
  Beta  occ. eigenvalues --  -38.43341 -38.42831  -2.19812  -2.19804  -2.19756
  Beta  occ. eigenvalues --   -2.19617  -2.19444  -2.19253  -2.18810  -1.13536
  Beta  occ. eigenvalues --   -1.13496  -1.13475  -1.13468  -1.13459  -1.13426
  Beta  occ. eigenvalues --   -1.13416  -1.13410  -1.13388  -1.13304  -1.13282
  Beta  occ. eigenvalues --   -1.13239  -1.13218  -1.13103  -1.13038  -1.12971
  Beta  occ. eigenvalues --   -1.12909  -1.12853  -1.12538  -1.12485  -1.12423
  Beta  occ. eigenvalues --   -0.18046  -0.12964  -0.12175
  Beta virt. eigenvalues --   -0.06558  -0.05706  -0.05170  -0.04770  -0.02507
  Beta virt. eigenvalues --   -0.02068  -0.01648  -0.01334  -0.00984  -0.00516
  Beta virt. eigenvalues --   -0.00226   0.00134   0.00359   0.00793   0.00855

 Mulliken charges and spin densities:
               1          2
     1  Na  -0.210968   0.100795
     2  Na   0.031780  -0.045837
     3  Na  -0.410884   0.443418
     4  Na   0.236142   0.086157
     5  Na   0.268622   0.081834
     6  Na   0.169733   0.369946
     7  Na  -0.084426  -0.036312
 Sum of Mulliken charges =  -0.00000   1.00000

 Dipole moment (field-independent basis, Debye):
    X=             -0.0885    Y=             -0.1139    Z=              0.2395  Tot=              0.2796
 Quadrupole moment (field-independent basis, Debye-Ang):
   XX=            -57.8415   YY=            -58.9219   ZZ=            -75.1521
   XY=             -0.0307   XZ=              2.4458   YZ=             -1.9322

 Normal termination of Gaussian 16 at Tue Nov 28 23:44:43 2023.
