 Gaussian 16, Revision B.01,
 Gaussian 16:  ES64L-G16RevB.01 20-Dec-2017

 -------------------------
 #P B3LYP/6-311+g(d) force
 -------------------------

 -----
 DPGEN
 -----
 Symbolic Z-matrix:
 Charge =  0 Multiplicity = 2

                         Standard orientation:
 ---------------------------------------------------------------------
 Center     Atomic      Atomic             Coordinates (Angstroms)
 Number     Number       Type             X           Y           Z
 ---------------------------------------------------------------------
      1         11           0       -0.018833   -0.050672   -1.689249
      2         11           0        1.008990    0.368998    1.805800
      3         11           0        1.052055    2.864139   -0.478640
      4         11           0       -1.712873    1.578341    0.699228
      5         11           0       -2.814410   -0.998732   -0.557802
      6         11           0       -0.128906   -2.311483    0.838277
      7         11           0        2.613977   -1.450590   -0.617614
 ---------------------------------------------------------------------

 SCF Done:  E(UB3LYP) =  -1136.13186275     A.U. after   18 cycles

 The electronic state is 2-A.
 Alpha  occ. eigenvalues --  -38.43652 -38.43530 -38.43500 -38.43412 -38.43367
 Alpha  occ. eigenvalues --  -38.43322 -38.43112  -2.19540  -2.19525  -2.19374
 Alpha  occ. eigenvalues --   -2.19370  -2.19368  -2.19337  -2.19031  -1.13298
 Alpha  occ. eigenvalues --   -1.13260  -1.13221  -1.13190  -1.13184  -1.13131
 Alpha  occ. eigenvalues --   -1.13097  -1.13087  -1.13044  -1.13035  -1.13026
 Alpha  occ. eigenvalues --   -1.13005  -1.12996  -1.12991  -1.12982  -1.12969
 Alpha  occ. eigenvalues --   -1.12956  -1.12935  -1.12684  -1.12665  -1.12657
 Alpha  occ. eigenvalues --   -0.19499  -0.12962  -0.12701  -0.11560
 Alpha virt. eigenvalues --   -0.05023  -0.04871  -0.04253  -0.03462  -0.03231
 Alpha virt. eigenvalues --   -0.02879  -0.01110  -0.01053  -0.00239   0.00364
 Alpha virt. eigenvalues --    0.00383   0.00462   0.00910   0.00922   0.00996

  Beta  occ. eigenvalues --  -38.43639 -38.43493 -38.43458 -38.43388 -38.43350
  Beta  occ. eigenvalues --  -38.43248 -38.43107  -2.19519  -2.19394  -2.19360
  Beta  occ. eigenvalues --   -2.19334  -2.19310  -2.19233  -2.19024  -1.13256
  Beta  occ. eigenvalues --   -1.13200  -1.13169  -1.13167  -1.13129  -1.13062
  Beta  occ. eigenvalues --   -1.13048  -1.13043  -1.13020  -1.13005  -1.12993
  Beta  occ. eigenvalues --   -1.12951  -1.12950  -1.12937  -1.12928  -1.12918
  Beta  occ. eigenvalues --   -1.12903  -1.12873  -1.12666  -1.12660  -1.12644
  Beta  occ. eigenvalues --   -0.18721  -0.12716  -0.12487
  Beta virt. eigenvalues --   -0.07482  -0.04942  -0.04801  -0.04217  -0.02696
  Beta virt. eigenvalues --   -0.02557  -0.01771  -0.01022  -0.01003  -0.00024
  Beta virt. eigenvalues --    0.00332   0.00419   0.00499   0.00918   0.00929

 Mulliken charges and spin densities:
               1          2
     1  Na  -0.439298   0.514627
     2  Na   0.325284   0.237126
     3  Na   0.032371  -0.052775
     4  Na  -0.370096   0.203144
     5  Na   0.714878  -0.098614
     6  Na  -0.299580   0.241011
     7  Na   0.036442  -0.044518
 Sum of Mulliken charges =  -0.00000   1.00000

 Dipole moment (field-independent basis, Debye):
    X=              0.4005    Y=              0.0886    Z=             -0.0533  Tot=              0.4137
 Quadrupole moment (field-independent basis, Debye-Ang):
   XX=            -61.6128   YY=            -63.3677   ZZ=            -69.6312
   XY=              0.7421   XZ=             -1.5901   YZ=             -0.6483

 Normal termination of Gaussian 16 at Fri Dec  8 04:16:11 2023.
