 Gaussian 16, Revision B.01,
 Gaussian 16:  ES64L-G16RevB.01 20-Dec-2017

 -------------------------
 #P B3LYP/6-311+g(d) force
 -------------------------

 -----
 DPGEN
 -----
 Symbolic Z-matrix:
 Charge =  0 Multiplicity = 2

                         Standard orientation:
 ---------------------------------------------------------------------
 Center     Atomic      Atomic             Coordinates (Angstroms)
 Number     Number       Type             X           Y           Z
 ---------------------------------------------------------------------
      1         11           0       -2.108025    0.725361   -1.205338
      2         11           0       -1.635652    0.344959    1.841965
      3         11           0        2.679609    1.276586   -0.298964
      4         11           0        4.136329   -1.533031    0.200692
      5         11           0        0.620966   -1.667951   -0.363697
      6         11           0       -0.021112    2.515937    0.007501
      7         11           0       -3.672114   -1.661860   -0.182159
 ---------------------------------------------------------------------

 SCF Done:  E(UB3LYP) =  -1136.11376405     A.U. after   26 cycles

 The electronic state is 2-A.
 Alpha  occ. eigenvalues --  -38.45524 -38.44617 -38.44554 -38.44396 -38.43813
 Alpha  occ. eigenvalues --  -38.43371 -38.42514  -2.21308  -2.20439  -2.20425
 Alpha  occ. eigenvalues --   -2.20243  -2.19818  -2.19321  -2.18471  -1.15017
 Alpha  occ. eigenvalues --   -1.15002  -1.14898  -1.14176  -1.14119  -1.14104
 Alpha  occ. eigenvalues --   -1.14079  -1.14069  -1.14012  -1.13969  -1.13893
 Alpha  occ. eigenvalues --   -1.13867  -1.13518  -1.13475  -1.13440  -1.12982
 Alpha  occ. eigenvalues --   -1.12965  -1.12918  -1.12178  -1.12125  -1.12091
 Alpha  occ. eigenvalues --   -0.18509  -0.14549  -0.12073  -0.10049
 Alpha virt. eigenvalues --   -0.07139  -0.06173  -0.03919  -0.03438  -0.02941
 Alpha virt. eigenvalues --   -0.02206  -0.02064  -0.01654  -0.00885  -0.00282
 Alpha virt. eigenvalues --   -0.00040   0.00049   0.00504   0.00569   0.00720

  Beta  occ. eigenvalues --  -38.45516 -38.44621 -38.44549 -38.44375 -38.43766
  Beta  occ. eigenvalues --  -38.43281 -38.42504  -2.21295  -2.20434  -2.20429
  Beta  occ. eigenvalues --   -2.20210  -2.19734  -2.19154  -2.18459  -1.15003
  Beta  occ. eigenvalues --   -1.14977  -1.14895  -1.14177  -1.14115  -1.14097
  Beta  occ. eigenvalues --   -1.14079  -1.14071  -1.14011  -1.13941  -1.13864
  Beta  occ. eigenvalues --   -1.13830  -1.13437  -1.13419  -1.13381  -1.12871
  Beta  occ. eigenvalues --   -1.12845  -1.12800  -1.12175  -1.12120  -1.12041
  Beta  occ. eigenvalues --   -0.17911  -0.14334  -0.11838
  Beta virt. eigenvalues --   -0.06973  -0.06298  -0.05903  -0.03886  -0.03080
  Beta virt. eigenvalues --   -0.02747  -0.01781  -0.01570  -0.01023  -0.00766
  Beta virt. eigenvalues --   -0.00019   0.00112   0.00157   0.00614   0.00722

 Mulliken charges and spin densities:
               1          2
     1  Na   0.041904   0.317620
     2  Na  -0.416728   0.355612
     3  Na  -0.410681  -0.105107
     4  Na   0.946131   0.003071
     5  Na  -0.907573   0.028277
     6  Na   0.188310   0.352553
     7  Na   0.558638   0.047974
 Sum of Mulliken charges =  -0.00000   1.00000

 Dipole moment (field-independent basis, Debye):
    X=              1.0375    Y=             -1.0913    Z=              0.4360  Tot=              1.5677
 Quadrupole moment (field-independent basis, Debye-Ang):
   XX=            -50.8891   YY=            -68.0800   ZZ=            -76.6003
   XY=              0.9631   XZ=             -0.8986   YZ=              0.7741

 Normal termination of Gaussian 16 at Thu Dec  7 06:07:47 2023.
