 Gaussian 16, Revision B.01,
 Gaussian 16:  ES64L-G16RevB.01 20-Dec-2017

 -------------------------
 #P B3LYP/6-311+g(d) force
 -------------------------

 -----
 DPGEN
 -----
 Symbolic Z-matrix:
 Charge =  0 Multiplicity = 2

                         Standard orientation:
 ---------------------------------------------------------------------
 Center     Atomic      Atomic             Coordinates (Angstroms)
 Number     Number       Type             X           Y           Z
 ---------------------------------------------------------------------
      1         11           0        3.002203   -0.878106   -0.817537
      2         11           0       -2.061538    2.342099   -0.202478
      3         11           0        0.396979   -0.032071    2.031987
      4         11           0        0.310810   -2.821172    0.266488
      5         11           0       -3.440942   -1.150760   -0.098433
      6         11           0       -0.108297    0.215796   -1.518994
      7         11           0        1.900786    2.324214    0.338968
 ---------------------------------------------------------------------

 SCF Done:  E(UB3LYP) =  -1136.13308171     A.U. after   20 cycles

 The electronic state is 2-A.
 Alpha  occ. eigenvalues --  -38.44686 -38.43968 -38.43919 -38.43584 -38.43476
 Alpha  occ. eigenvalues --  -38.43365 -38.43177  -2.20429  -2.19818  -2.19732
 Alpha  occ. eigenvalues --   -2.19492  -2.19330  -2.19326  -2.19021  -1.14115
 Alpha  occ. eigenvalues --   -1.14077  -1.14071  -1.13499  -1.13459  -1.13454
 Alpha  occ. eigenvalues --   -1.13452  -1.13394  -1.13340  -1.13171  -1.13148
 Alpha  occ. eigenvalues --   -1.13109  -1.13026  -1.12996  -1.12994  -1.12970
 Alpha  occ. eigenvalues --   -1.12955  -1.12929  -1.12709  -1.12687  -1.12642
 Alpha  occ. eigenvalues --   -0.18361  -0.12992  -0.12158  -0.10772
 Alpha virt. eigenvalues --   -0.06074  -0.05277  -0.04422  -0.03121  -0.02856
 Alpha virt. eigenvalues --   -0.02523  -0.01856  -0.01261  -0.00496  -0.00364
 Alpha virt. eigenvalues --   -0.00036   0.00293   0.00721   0.00801   0.00831

  Beta  occ. eigenvalues --  -38.44692 -38.43936 -38.43916 -38.43486 -38.43464
  Beta  occ. eigenvalues --  -38.43317 -38.43168  -2.20441  -2.19762  -2.19728
  Beta  occ. eigenvalues --   -2.19314  -2.19311  -2.19241  -2.19009  -1.14119
  Beta  occ. eigenvalues --   -1.14084  -1.14079  -1.13452  -1.13442  -1.13420
  Beta  occ. eigenvalues --   -1.13413  -1.13385  -1.13338  -1.13072  -1.13029
  Beta  occ. eigenvalues --   -1.12990  -1.12979  -1.12951  -1.12945  -1.12930
  Beta  occ. eigenvalues --   -1.12908  -1.12871  -1.12696  -1.12661  -1.12633
  Beta  occ. eigenvalues --   -0.17651  -0.12751  -0.11916
  Beta virt. eigenvalues --   -0.06861  -0.06027  -0.05198  -0.04370  -0.02492
  Beta virt. eigenvalues --   -0.02085  -0.01804  -0.01463  -0.01162  -0.00521
  Beta virt. eigenvalues --   -0.00344   0.00103   0.00346   0.00781   0.00832

 Mulliken charges and spin densities:
               1          2
     1  Na   0.142019   0.145920
     2  Na   0.038344  -0.078133
     3  Na  -0.149747   0.633060
     4  Na  -0.018241  -0.008801
     5  Na  -0.111256  -0.079645
     6  Na  -0.031933   0.357252
     7  Na   0.130814   0.030346
 Sum of Mulliken charges =  -0.00000   1.00000

 Dipole moment (field-independent basis, Debye):
    X=             -0.3585    Y=              0.0599    Z=              0.0698  Tot=              0.3701
 Quadrupole moment (field-independent basis, Debye-Ang):
   XX=            -54.0668   YY=            -64.0216   ZZ=            -74.5481
   XY=              0.8848   XZ=             -1.4957   YZ=              0.7621

 Normal termination of Gaussian 16 at Tue Dec  5 19:34:55 2023.
