 Gaussian 16, Revision B.01,
 Gaussian 16:  ES64L-G16RevB.01 20-Dec-2017

 -------------------------
 #P B3LYP/6-311+g(d) force
 -------------------------

 -----
 DPGEN
 -----
 Symbolic Z-matrix:
 Charge =  0 Multiplicity = 2

                         Standard orientation:
 ---------------------------------------------------------------------
 Center     Atomic      Atomic             Coordinates (Angstroms)
 Number     Number       Type             X           Y           Z
 ---------------------------------------------------------------------
      1         11           0       -0.252214    2.758737    0.274489
      2         11           0       -2.129704   -2.104688    0.122291
      3         11           0        0.135057   -0.567931    2.015147
      4         11           0        2.491953    1.478591   -0.256979
      5         11           0       -0.117371   -0.649613   -1.723641
      6         11           0       -2.518343    1.076203   -0.310998
      7         11           0        2.390623   -1.991298   -0.120309
 ---------------------------------------------------------------------

 SCF Done:  E(UB3LYP) =  -1136.13072871     A.U. after   19 cycles

 The electronic state is 2-A.
 Alpha  occ. eigenvalues --  -38.43932 -38.43897 -38.43835 -38.43749 -38.43688
 Alpha  occ. eigenvalues --  -38.43416 -38.43173  -2.19793  -2.19747  -2.19735
 Alpha  occ. eigenvalues --   -2.19690  -2.19596  -2.19400  -2.19093  -1.13502
 Alpha  occ. eigenvalues --   -1.13476  -1.13460  -1.13453  -1.13450  -1.13428
 Alpha  occ. eigenvalues --   -1.13414  -1.13412  -1.13385  -1.13365  -1.13341
 Alpha  occ. eigenvalues --   -1.13286  -1.13249  -1.13217  -1.13213  -1.13058
 Alpha  occ. eigenvalues --   -1.13030  -1.13013  -1.12761  -1.12734  -1.12712
 Alpha  occ. eigenvalues --   -0.19089  -0.13249  -0.12708  -0.11063
 Alpha virt. eigenvalues --   -0.05674  -0.05134  -0.04469  -0.03405  -0.03068
 Alpha virt. eigenvalues --   -0.02730  -0.01332  -0.01128  -0.00161  -0.00069
 Alpha virt. eigenvalues --    0.00087   0.00361   0.00853   0.00882   0.00936

  Beta  occ. eigenvalues --  -38.43928 -38.43891 -38.43827 -38.43741 -38.43595
  Beta  occ. eigenvalues --  -38.43347 -38.43170  -2.19789  -2.19741  -2.19725
  Beta  occ. eigenvalues --   -2.19679  -2.19424  -2.19274  -2.19089  -1.13501
  Beta  occ. eigenvalues --   -1.13469  -1.13454  -1.13447  -1.13430  -1.13417
  Beta  occ. eigenvalues --   -1.13390  -1.13389  -1.13363  -1.13360  -1.13306
  Beta  occ. eigenvalues --   -1.13278  -1.13139  -1.13096  -1.13094  -1.12976
  Beta  occ. eigenvalues --   -1.12943  -1.12921  -1.12762  -1.12732  -1.12687
  Beta  occ. eigenvalues --   -0.18348  -0.12991  -0.12479
  Beta virt. eigenvalues --   -0.07112  -0.05684  -0.05060  -0.04421  -0.02566
  Beta virt. eigenvalues --   -0.02295  -0.01663  -0.01255  -0.01078  -0.00216
  Beta virt. eigenvalues --    0.00003   0.00157   0.00404   0.00857   0.00949

 Mulliken charges and spin densities:
               1          2
     1  Na  -0.004409  -0.031181
     2  Na   0.502081   0.009413
     3  Na  -0.513366   0.603810
     4  Na  -0.063499   0.046322
     5  Na  -0.248045   0.264418
     6  Na   0.041024   0.134096
     7  Na   0.286215  -0.026877
 Sum of Mulliken charges =  -0.00000   1.00000

 Dipole moment (field-independent basis, Debye):
    X=              0.2509    Y=             -0.5499    Z=              0.0861  Tot=              0.6106
 Quadrupole moment (field-independent basis, Debye-Ang):
   XX=            -58.9045   YY=            -64.0667   ZZ=            -72.8026
   XY=              0.3545   XZ=             -0.4695   YZ=             -0.2424

 Normal termination of Gaussian 16 at Thu Dec  7 07:17:58 2023.
