 Gaussian 16, Revision B.01,
 Gaussian 16:  ES64L-G16RevB.01 20-Dec-2017

 -------------------------
 #P B3LYP/6-311+g(d) force
 -------------------------

 -----
 DPGEN
 -----
 Symbolic Z-matrix:
 Charge =  0 Multiplicity = 2

                         Standard orientation:
 ---------------------------------------------------------------------
 Center     Atomic      Atomic             Coordinates (Angstroms)
 Number     Number       Type             X           Y           Z
 ---------------------------------------------------------------------
      1         11           0       -2.477583   -1.780620    1.605000
      2         11           0        2.275270    2.663413    0.287771
      3         11           0        3.659070   -0.079630    0.679450
      4         11           0        2.832297   -2.529784   -1.152836
      5         11           0        0.256689   -0.231057   -0.248742
      6         11           0       -1.927018    2.261070   -0.461507
      7         11           0       -4.618724   -0.303392   -0.709136
 ---------------------------------------------------------------------

 SCF Done:  E(UB3LYP) =  -1136.11097824     A.U. after   29 cycles

 The electronic state is 2-A.
 Alpha  occ. eigenvalues --  -38.45697 -38.45011 -38.44016 -38.44003 -38.43607
 Alpha  occ. eigenvalues --  -38.43365 -38.43364  -2.21438  -2.20804  -2.19826
 Alpha  occ. eigenvalues --   -2.19815  -2.19520  -2.19273  -2.19206  -1.15124
 Alpha  occ. eigenvalues --   -1.15117  -1.15076  -1.14464  -1.14451  -1.14417
 Alpha  occ. eigenvalues --   -1.13512  -1.13498  -1.13484  -1.13479  -1.13458
 Alpha  occ. eigenvalues --   -1.13431  -1.13223  -1.13179  -1.13138  -1.12992
 Alpha  occ. eigenvalues --   -1.12927  -1.12881  -1.12868  -1.12865  -1.12807
 Alpha  occ. eigenvalues --   -0.17015  -0.14597  -0.11641  -0.10154
 Alpha virt. eigenvalues --   -0.07657  -0.05004  -0.04602  -0.03412  -0.03119
 Alpha virt. eigenvalues --   -0.02587  -0.02139  -0.01169  -0.00949  -0.00567
 Alpha virt. eigenvalues --   -0.00400  -0.00188   0.00240   0.00463   0.00596

  Beta  occ. eigenvalues --  -38.45719 -38.44950 -38.43994 -38.43976 -38.43558
  Beta  occ. eigenvalues --  -38.43325 -38.43322  -2.21482  -2.20691  -2.19779
  Beta  occ. eigenvalues --   -2.19775  -2.19435  -2.19202  -2.19133  -1.15153
  Beta  occ. eigenvalues --   -1.15135  -1.15100  -1.14388  -1.14365  -1.14344
  Beta  occ. eigenvalues --   -1.13477  -1.13469  -1.13453  -1.13445  -1.13419
  Beta  occ. eigenvalues --   -1.13407  -1.13161  -1.13125  -1.13057  -1.12945
  Beta  occ. eigenvalues --   -1.12889  -1.12825  -1.12823  -1.12811  -1.12728
  Beta  occ. eigenvalues --   -0.16500  -0.13973  -0.11193
  Beta virt. eigenvalues --   -0.07698  -0.06696  -0.04706  -0.04382  -0.02982
  Beta virt. eigenvalues --   -0.02768  -0.02497  -0.01663  -0.01042  -0.00641
  Beta virt. eigenvalues --   -0.00425  -0.00121  -0.00031   0.00333   0.00593

 Mulliken charges and spin densities:
               1          2
     1  Na   0.572774  -0.079194
     2  Na   0.326469   0.126362
     3  Na   0.917649   0.282827
     4  Na   0.630175   0.123184
     5  Na  -3.202467   0.171078
     6  Na   0.714387  -0.090115
     7  Na   0.041013   0.465858
 Sum of Mulliken charges =  -0.00000   1.00000

 Dipole moment (field-independent basis, Debye):
    X=             -1.1442    Y=             -0.4441    Z=             -0.0774  Tot=              1.2298
 Quadrupole moment (field-independent basis, Debye-Ang):
   XX=            -66.1098   YY=            -68.7178   ZZ=            -65.5528
   XY=             -7.6007   XZ=              1.6650   YZ=             -1.9716

 Normal termination of Gaussian 16 at Tue Dec  5 10:13:44 2023.
