 Gaussian 16, Revision B.01,
 Gaussian 16:  ES64L-G16RevB.01 20-Dec-2017

 -------------------------
 #P B3LYP/6-311+g(d) force
 -------------------------

 -----
 DPGEN
 -----
 Symbolic Z-matrix:
 Charge =  0 Multiplicity = 2

                         Standard orientation:
 ---------------------------------------------------------------------
 Center     Atomic      Atomic             Coordinates (Angstroms)
 Number     Number       Type             X           Y           Z
 ---------------------------------------------------------------------
      1         11           0       -0.473512   -0.494766    0.459085
      2         11           0        2.880772   -0.937941    1.907357
      3         11           0        1.907492   -1.891692   -1.576664
      4         11           0        2.507332    1.435761   -0.779889
      5         11           0       -0.445456    3.128205   -0.122630
      6         11           0       -3.213776    0.999856    0.243692
      7         11           0       -3.162851   -2.239424   -0.130951
 ---------------------------------------------------------------------

 SCF Done:  E(UB3LYP) =  -1136.12480617     A.U. after   21 cycles

 The electronic state is 2-A.
 Alpha  occ. eigenvalues --  -38.44593 -38.44539 -38.44459 -38.43960 -38.43708
 Alpha  occ. eigenvalues --  -38.43582 -38.42868  -2.20425  -2.20406  -2.20282
 Alpha  occ. eigenvalues --   -2.19796  -2.19661  -2.19425  -2.18683  -1.14128
 Alpha  occ. eigenvalues --   -1.14105  -1.14092  -1.14078  -1.14054  -1.14037
 Alpha  occ. eigenvalues --   -1.13953  -1.13935  -1.13901  -1.13476  -1.13442
 Alpha  occ. eigenvalues --   -1.13414  -1.13366  -1.13324  -1.13289  -1.13076
 Alpha  occ. eigenvalues --   -1.13068  -1.13023  -1.12350  -1.12350  -1.12335
 Alpha  occ. eigenvalues --   -0.17728  -0.14300  -0.11998  -0.10182
 Alpha virt. eigenvalues --   -0.06509  -0.05973  -0.04642  -0.03415  -0.02456
 Alpha virt. eigenvalues --   -0.02175  -0.01847  -0.01455  -0.01072  -0.00513
 Alpha virt. eigenvalues --   -0.00336   0.00221   0.00302   0.00624   0.00647

  Beta  occ. eigenvalues --  -38.44573 -38.44540 -38.44464 -38.43905 -38.43698
  Beta  occ. eigenvalues --  -38.43483 -38.42870  -2.20408  -2.20392  -2.20292
  Beta  occ. eigenvalues --   -2.19695  -2.19646  -2.19242  -2.18687  -1.14128
  Beta  occ. eigenvalues --   -1.14077  -1.14076  -1.14046  -1.14044  -1.14035
  Beta  occ. eigenvalues --   -1.13960  -1.13939  -1.13907  -1.13413  -1.13363
  Beta  occ. eigenvalues --   -1.13345  -1.13324  -1.13313  -1.13283  -1.12949
  Beta  occ. eigenvalues --   -1.12940  -1.12903  -1.12353  -1.12351  -1.12335
  Beta  occ. eigenvalues --   -0.17297  -0.13995  -0.11870
  Beta virt. eigenvalues --   -0.06471  -0.06155  -0.05763  -0.04430  -0.03117
  Beta virt. eigenvalues --   -0.02226  -0.01763  -0.01306  -0.01201  -0.00913
  Beta virt. eigenvalues --   -0.00366   0.00076   0.00335   0.00516   0.00691

 Mulliken charges and spin densities:
               1          2
     1  Na  -1.918768   0.387316
     2  Na   0.322123   0.322746
     3  Na   0.225154   0.205208
     4  Na   0.373527   0.322758
     5  Na   0.284437  -0.068383
     6  Na   0.212203  -0.104469
     7  Na   0.501324  -0.065177
 Sum of Mulliken charges =  -0.00000   1.00000

 Dipole moment (field-independent basis, Debye):
    X=             -1.0528    Y=             -0.3865    Z=             -0.5939  Tot=              1.2691
 Quadrupole moment (field-independent basis, Debye-Ang):
   XX=            -53.2470   YY=            -64.7024   ZZ=            -76.5373
   XY=              2.9106   XZ=             -2.1904   YZ=              1.1881

 Normal termination of Gaussian 16 at Tue Dec  5 16:58:19 2023.
