 Gaussian 16, Revision B.01,
 Gaussian 16:  ES64L-G16RevB.01 20-Dec-2017

 -------------------------
 #P B3LYP/6-311+g(d) force
 -------------------------

 -----
 DPGEN
 -----
 Symbolic Z-matrix:
 Charge =  0 Multiplicity = 2

                         Standard orientation:
 ---------------------------------------------------------------------
 Center     Atomic      Atomic             Coordinates (Angstroms)
 Number     Number       Type             X           Y           Z
 ---------------------------------------------------------------------
      1         11           0       -0.051139    1.218325   -0.417042
      2         11           0       -2.660047    3.625221    0.393089
      3         11           0       -3.090421    0.356988   -0.197151
      4         11           0       -0.415927   -2.271932    1.177565
      5         11           0        3.082202   -1.146736    0.246672
      6         11           0       -2.408673   -2.926938   -0.856905
      7         11           0        5.544005    1.145071   -0.346227
 ---------------------------------------------------------------------

 SCF Done:  E(UB3LYP) =  -1136.11956810     A.U. after   21 cycles

 The electronic state is 2-A.
 Alpha  occ. eigenvalues --  -38.45143 -38.44809 -38.44212 -38.44159 -38.43766
 Alpha  occ. eigenvalues --  -38.43593 -38.43200  -2.20958  -2.20601  -2.20104
 Alpha  occ. eigenvalues --   -2.20033  -2.19642  -2.19392  -2.18988  -1.14676
 Alpha  occ. eigenvalues --   -1.14652  -1.14528  -1.14277  -1.14266  -1.14222
 Alpha  occ. eigenvalues --   -1.13825  -1.13792  -1.13787  -1.13694  -1.13674
 Alpha  occ. eigenvalues --   -1.13659  -1.13288  -1.13272  -1.13260  -1.13032
 Alpha  occ. eigenvalues --   -1.13031  -1.13009  -1.12681  -1.12663  -1.12628
 Alpha  occ. eigenvalues --   -0.17283  -0.13522  -0.12926  -0.10364
 Alpha virt. eigenvalues --   -0.06570  -0.05330  -0.04996  -0.03411  -0.02693
 Alpha virt. eigenvalues --   -0.02338  -0.02153  -0.01793  -0.01103  -0.00554
 Alpha virt. eigenvalues --   -0.00268  -0.00196   0.00410   0.00516   0.00553

  Beta  occ. eigenvalues --  -38.45121 -38.44810 -38.44187 -38.44135 -38.43738
  Beta  occ. eigenvalues --  -38.43497 -38.43202  -2.20918  -2.20602  -2.20060
  Beta  occ. eigenvalues --   -2.19992  -2.19591  -2.19212  -2.18999  -1.14654
  Beta  occ. eigenvalues --   -1.14622  -1.14494  -1.14276  -1.14266  -1.14223
  Beta  occ. eigenvalues --   -1.13795  -1.13763  -1.13755  -1.13667  -1.13634
  Beta  occ. eigenvalues --   -1.13613  -1.13251  -1.13237  -1.13219  -1.12909
  Beta  occ. eigenvalues --   -1.12908  -1.12895  -1.12696  -1.12679  -1.12581
  Beta  occ. eigenvalues --   -0.16830  -0.13208  -0.12277
  Beta virt. eigenvalues --   -0.06923  -0.06444  -0.05129  -0.04553  -0.02971
  Beta virt. eigenvalues --   -0.02561  -0.02166  -0.01900  -0.01559  -0.00805
  Beta virt. eigenvalues --   -0.00218  -0.00060   0.00105   0.00482   0.00601

 Mulliken charges and spin densities:
               1          2
     1  Na  -1.042594  -0.120994
     2  Na   0.816355  -0.009620
     3  Na  -0.019963   0.376583
     4  Na  -0.109806   0.081376
     5  Na  -0.253671   0.089441
     6  Na   0.317174   0.128691
     7  Na   0.292504   0.454522
 Sum of Mulliken charges =  -0.00000   1.00000

 Dipole moment (field-independent basis, Debye):
    X=             -2.2770    Y=              1.0397    Z=              0.2277  Tot=              2.5134
 Quadrupole moment (field-independent basis, Debye-Ang):
   XX=            -76.2074   YY=            -56.0337   ZZ=            -69.2426
   XY=             -5.0815   XZ=             -1.2810   YZ=              1.0213

 Normal termination of Gaussian 16 at Wed Nov 29 03:08:49 2023.
