 Gaussian 16, Revision B.01,
 Gaussian 16:  ES64L-G16RevB.01 20-Dec-2017

 -------------------------
 #P B3LYP/6-311+g(d) force
 -------------------------

 -----
 DPGEN
 -----
 Symbolic Z-matrix:
 Charge =  0 Multiplicity = 2

                         Standard orientation:
 ---------------------------------------------------------------------
 Center     Atomic      Atomic             Coordinates (Angstroms)
 Number     Number       Type             X           Y           Z
 ---------------------------------------------------------------------
      1         11           0        3.222828   -0.906865   -0.033024
      2         11           0       -0.138466   -0.057464    2.264224
      3         11           0       -2.370503   -1.599136   -0.482405
      4         11           0       -3.468514    1.541611   -0.002000
      5         11           0        2.002192    2.884647   -0.135391
      6         11           0        0.534084   -2.843674   -0.340685
      7         11           0        0.218379    0.980881   -1.270719
 ---------------------------------------------------------------------

 SCF Done:  E(UB3LYP) =  -1136.12265055     A.U. after   21 cycles

 The electronic state is 2-A.
 Alpha  occ. eigenvalues --  -38.45151 -38.44981 -38.44036 -38.43767 -38.43726
 Alpha  occ. eigenvalues --  -38.43576 -38.43024  -2.20932  -2.20743  -2.19871
 Alpha  occ. eigenvalues --   -2.19633  -2.19557  -2.19498  -2.18885  -1.14614
 Alpha  occ. eigenvalues --   -1.14596  -1.14561  -1.14411  -1.14407  -1.14382
 Alpha  occ. eigenvalues --   -1.13699  -1.13501  -1.13484  -1.13324  -1.13293
 Alpha  occ. eigenvalues --   -1.13272  -1.13215  -1.13182  -1.13167  -1.13164
 Alpha  occ. eigenvalues --   -1.13136  -1.13090  -1.12564  -1.12542  -1.12528
 Alpha  occ. eigenvalues --   -0.17937  -0.13245  -0.12249  -0.10365
 Alpha virt. eigenvalues --   -0.06858  -0.05390  -0.04482  -0.03127  -0.02629
 Alpha virt. eigenvalues --   -0.02516  -0.02280  -0.01355  -0.00984  -0.00338
 Alpha virt. eigenvalues --   -0.00076   0.00226   0.00608   0.00622   0.00741

  Beta  occ. eigenvalues --  -38.45149 -38.44983 -38.44035 -38.43752 -38.43607
  Beta  occ. eigenvalues --  -38.43548 -38.43015  -2.20932  -2.20748  -2.19872
  Beta  occ. eigenvalues --   -2.19607  -2.19449  -2.19335  -2.18871  -1.14608
  Beta  occ. eigenvalues --   -1.14587  -1.14564  -1.14417  -1.14401  -1.14386
  Beta  occ. eigenvalues --   -1.13692  -1.13490  -1.13486  -1.13308  -1.13264
  Beta  occ. eigenvalues --   -1.13248  -1.13129  -1.13105  -1.13058  -1.13054
  Beta  occ. eigenvalues --   -1.13029  -1.13011  -1.12555  -1.12534  -1.12498
  Beta  occ. eigenvalues --   -0.17279  -0.13086  -0.12068
  Beta virt. eigenvalues --   -0.06819  -0.06381  -0.05286  -0.04452  -0.02497
  Beta virt. eigenvalues --   -0.02245  -0.01956  -0.01455  -0.01190  -0.00987
  Beta virt. eigenvalues --   -0.00340   0.00126   0.00290   0.00652   0.00730

 Mulliken charges and spin densities:
               1          2
     1  Na   0.200601   0.021527
     2  Na  -0.481157   0.705208
     3  Na   0.312448   0.107534
     4  Na   0.308547   0.025615
     5  Na   0.235163  -0.006180
     6  Na  -0.145611   0.048708
     7  Na  -0.429992   0.097587
 Sum of Mulliken charges =  -0.00000   1.00000

 Dipole moment (field-independent basis, Debye):
    X=              0.1486    Y=              0.6078    Z=              0.1823  Tot=              0.6517
 Quadrupole moment (field-independent basis, Debye-Ang):
   XX=            -51.4157   YY=            -64.6734   ZZ=            -77.3118
   XY=             -2.4641   XZ=              0.8636   YZ=              1.8259

 Normal termination of Gaussian 16 at Thu Dec  7 19:37:58 2023.
