 Gaussian 16, Revision B.01,
 Gaussian 16:  ES64L-G16RevB.01 20-Dec-2017

 -------------------------
 #P B3LYP/6-311+g(d) force
 -------------------------

 -----
 DPGEN
 -----
 Symbolic Z-matrix:
 Charge =  0 Multiplicity = 2

                         Standard orientation:
 ---------------------------------------------------------------------
 Center     Atomic      Atomic             Coordinates (Angstroms)
 Number     Number       Type             X           Y           Z
 ---------------------------------------------------------------------
      1         11           0        0.409309    0.085557   -1.594027
      2         11           0       -2.754985    1.248674   -0.548872
      3         11           0        1.904828   -2.474661   -0.641427
      4         11           0        0.239566    2.799634    0.261174
      5         11           0        0.059875   -0.645861    1.999075
      6         11           0        3.072440    0.752347    0.285826
      7         11           0       -2.931032   -1.765690    0.238251
 ---------------------------------------------------------------------

 SCF Done:  E(UB3LYP) =  -1136.13205268     A.U. after   20 cycles

 The electronic state is 2-A.
 Alpha  occ. eigenvalues --  -38.44603 -38.44143 -38.43854 -38.43802 -38.43590
 Alpha  occ. eigenvalues --  -38.43388 -38.42790  -2.20450  -2.19952  -2.19709
 Alpha  occ. eigenvalues --   -2.19664  -2.19442  -2.19368  -2.18655  -1.14135
 Alpha  occ. eigenvalues --   -1.14113  -1.14075  -1.13662  -1.13611  -1.13591
 Alpha  occ. eigenvalues --   -1.13382  -1.13343  -1.13336  -1.13322  -1.13315
 Alpha  occ. eigenvalues --   -1.13295  -1.13193  -1.13082  -1.13072  -1.13042
 Alpha  occ. eigenvalues --   -1.13001  -1.12964  -1.12337  -1.12318  -1.12292
 Alpha  occ. eigenvalues --   -0.18460  -0.13519  -0.12009  -0.10796
 Alpha virt. eigenvalues --   -0.06166  -0.05260  -0.04355  -0.03348  -0.02869
 Alpha virt. eigenvalues --   -0.02469  -0.01858  -0.01125  -0.00560  -0.00158
 Alpha virt. eigenvalues --   -0.00051   0.00326   0.00707   0.00756   0.00806

  Beta  occ. eigenvalues --  -38.44594 -38.44143 -38.43791 -38.43770 -38.43570
  Beta  occ. eigenvalues --  -38.43329 -38.42787  -2.20437  -2.19955  -2.19647
  Beta  occ. eigenvalues --   -2.19552  -2.19409  -2.19260  -2.18652  -1.14123
  Beta  occ. eigenvalues --   -1.14090  -1.14062  -1.13666  -1.13599  -1.13593
  Beta  occ. eigenvalues --   -1.13316  -1.13303  -1.13284  -1.13278  -1.13237
  Beta  occ. eigenvalues --   -1.13206  -1.13149  -1.13054  -1.13041  -1.12966
  Beta  occ. eigenvalues --   -1.12931  -1.12890  -1.12336  -1.12312  -1.12272
  Beta  occ. eigenvalues --   -0.17765  -0.13301  -0.11743
  Beta virt. eigenvalues --   -0.06953  -0.06071  -0.05174  -0.04233  -0.02710
  Beta virt. eigenvalues --   -0.02143  -0.01793  -0.01462  -0.01006  -0.00577
  Beta virt. eigenvalues --   -0.00167   0.00102   0.00367   0.00785   0.00835

 Mulliken charges and spin densities:
               1          2
     1  Na   0.088244   0.244633
     2  Na   0.100506   0.030638
     3  Na   0.097206  -0.002076
     4  Na  -0.154829   0.055166
     5  Na  -0.393869   0.608882
     6  Na   0.216391   0.098528
     7  Na   0.046352  -0.035770
 Sum of Mulliken charges =  -0.00000   1.00000

 Dipole moment (field-independent basis, Debye):
    X=              0.3083    Y=             -0.2604    Z=              0.2062  Tot=              0.4532
 Quadrupole moment (field-independent basis, Debye-Ang):
   XX=            -54.4798   YY=            -65.5630   ZZ=            -74.0912
   XY=              0.7991   XZ=              1.4278   YZ=              1.1049

 Normal termination of Gaussian 16 at Thu Dec  7 22:10:35 2023.
