 Gaussian 16, Revision B.01,
 Gaussian 16:  ES64L-G16RevB.01 20-Dec-2017

 -------------------------
 #P B3LYP/6-311+g(d) force
 -------------------------

 -----
 DPGEN
 -----
 Symbolic Z-matrix:
 Charge =  0 Multiplicity = 2

                         Standard orientation:
 ---------------------------------------------------------------------
 Center     Atomic      Atomic             Coordinates (Angstroms)
 Number     Number       Type             X           Y           Z
 ---------------------------------------------------------------------
      1         11           0       -4.177418    1.729325    0.540073
      2         11           0       -4.338122   -1.289961   -0.320887
      3         11           0       -1.151311   -2.964287   -0.416893
      4         11           0        2.417500   -3.054380    0.538510
      5         11           0        4.627947   -0.309650   -0.006458
      6         11           0        3.191950    2.762054   -0.286680
      7         11           0       -0.570546    3.126898   -0.047665
 ---------------------------------------------------------------------

 SCF Done:  E(UB3LYP) =  -1136.10433756     A.U. after   26 cycles

 The electronic state is 2-A.
 Alpha  occ. eigenvalues --  -38.45189 -38.45068 -38.45063 -38.44841 -38.44446
 Alpha  occ. eigenvalues --  -38.44340 -38.44037  -2.20980  -2.20814  -2.20802
 Alpha  occ. eigenvalues --   -2.20650  -2.20210  -2.20101  -2.19840  -1.14669
 Alpha  occ. eigenvalues --   -1.14643  -1.14619  -1.14501  -1.14490  -1.14490
 Alpha  occ. eigenvalues --   -1.14477  -1.14458  -1.14442  -1.14309  -1.14298
 Alpha  occ. eigenvalues --   -1.14292  -1.13880  -1.13872  -1.13829  -1.13764
 Alpha  occ. eigenvalues --   -1.13755  -1.13711  -1.13496  -1.13485  -1.13472
 Alpha  occ. eigenvalues --   -0.15508  -0.14224  -0.13008  -0.10789
 Alpha virt. eigenvalues --   -0.08153  -0.04943  -0.04711  -0.03629  -0.03417
 Alpha virt. eigenvalues --   -0.02590  -0.02235  -0.01709  -0.01177  -0.00910
 Alpha virt. eigenvalues --   -0.00833  -0.00242  -0.00039   0.00397   0.00464

  Beta  occ. eigenvalues --  -38.45165 -38.45074 -38.45068 -38.44814 -38.44401
  Beta  occ. eigenvalues --  -38.44268 -38.43979  -2.20939  -2.20831  -2.20817
  Beta  occ. eigenvalues --   -2.20605  -2.20128  -2.19968  -2.19732  -1.14632
  Beta  occ. eigenvalues --   -1.14619  -1.14577  -1.14519  -1.14506  -1.14504
  Beta  occ. eigenvalues --   -1.14491  -1.14433  -1.14423  -1.14281  -1.14272
  Beta  occ. eigenvalues --   -1.14240  -1.13824  -1.13817  -1.13770  -1.13673
  Beta  occ. eigenvalues --   -1.13666  -1.13621  -1.13421  -1.13414  -1.13404
  Beta  occ. eigenvalues --   -0.14962  -0.13647  -0.12231
  Beta virt. eigenvalues --   -0.08359  -0.07672  -0.04343  -0.04134  -0.03461
  Beta virt. eigenvalues --   -0.03157  -0.02440  -0.02189  -0.01559  -0.01005
  Beta virt. eigenvalues --   -0.00581  -0.00491  -0.00150   0.00185   0.00488

 Mulliken charges and spin densities:
               1          2
     1  Na   0.270896   0.141845
     2  Na   0.179528   0.207021
     3  Na  -0.284638   0.248210
     4  Na   0.140196  -0.103390
     5  Na  -0.128008   0.241646
     6  Na   0.109900  -0.049424
     7  Na  -0.287874   0.314091
 Sum of Mulliken charges =  -0.00000   1.00000

 Dipole moment (field-independent basis, Debye):
    X=             -0.6603    Y=             -0.0338    Z=              0.1032  Tot=              0.6692
 Quadrupole moment (field-independent basis, Debye-Ang):
   XX=            -58.9633   YY=            -66.7092   ZZ=            -73.4462
   XY=             -0.7376   XZ=              0.2286   YZ=              0.4609

 Normal termination of Gaussian 16 at Sun Dec  3 17:31:48 2023.
