 Gaussian 16, Revision B.01,
 Gaussian 16:  ES64L-G16RevB.01 20-Dec-2017

 -------------------------
 #P B3LYP/6-311+g(d) force
 -------------------------

 -----
 DPGEN
 -----
 Symbolic Z-matrix:
 Charge =  0 Multiplicity = 2

                         Standard orientation:
 ---------------------------------------------------------------------
 Center     Atomic      Atomic             Coordinates (Angstroms)
 Number     Number       Type             X           Y           Z
 ---------------------------------------------------------------------
      1         11           0       -0.239835   -1.600723    0.463903
      2         11           0       -3.250051   -3.268673   -0.250427
      3         11           0       -3.133500    0.150987   -0.626133
      4         11           0       -2.859428    3.463016   -0.247888
      5         11           0       -0.074186    1.713594    0.942381
      6         11           0        3.345268   -0.816839    0.541725
      7         11           0        6.211733    0.358639   -0.823562
 ---------------------------------------------------------------------

 SCF Done:  E(UB3LYP) =  -1136.12601721     A.U. after   20 cycles

 The electronic state is 2-A.
 Alpha  occ. eigenvalues --  -38.44709 -38.44642 -38.44130 -38.43829 -38.43792
 Alpha  occ. eigenvalues --  -38.43666 -38.43657  -2.20527  -2.20439  -2.19990
 Alpha  occ. eigenvalues --   -2.19659  -2.19645  -2.19474  -2.19433  -1.14236
 Alpha  occ. eigenvalues --   -1.14213  -1.14107  -1.14073  -1.14073  -1.14057
 Alpha  occ. eigenvalues --   -1.13694  -1.13684  -1.13587  -1.13369  -1.13347
 Alpha  occ. eigenvalues --   -1.13311  -1.13302  -1.13268  -1.13244  -1.13137
 Alpha  occ. eigenvalues --   -1.13134  -1.13127  -1.13120  -1.13093  -1.13073
 Alpha  occ. eigenvalues --   -0.16905  -0.13757  -0.12521  -0.11455
 Alpha virt. eigenvalues --   -0.05785  -0.05449  -0.04592  -0.03971  -0.02674
 Alpha virt. eigenvalues --   -0.02242  -0.01919  -0.01760  -0.01270  -0.00895
 Alpha virt. eigenvalues --   -0.00520   0.00040   0.00141   0.00384   0.00682

  Beta  occ. eigenvalues --  -38.44677 -38.44540 -38.44106 -38.43813 -38.43754
  Beta  occ. eigenvalues --  -38.43667 -38.43649  -2.20471  -2.20250  -2.19947
  Beta  occ. eigenvalues --   -2.19616  -2.19594  -2.19459  -2.19442  -1.14194
  Beta  occ. eigenvalues --   -1.14178  -1.14056  -1.13945  -1.13944  -1.13932
  Beta  occ. eigenvalues --   -1.13664  -1.13655  -1.13551  -1.13326  -1.13306
  Beta  occ. eigenvalues --   -1.13284  -1.13283  -1.13253  -1.13182  -1.13153
  Beta  occ. eigenvalues --   -1.13144  -1.13113  -1.13109  -1.13073  -1.13034
  Beta  occ. eigenvalues --   -0.16347  -0.12853  -0.12355
  Beta virt. eigenvalues --   -0.08027  -0.05358  -0.05276  -0.04159  -0.03810
  Beta virt. eigenvalues --   -0.02277  -0.01970  -0.01691  -0.01518  -0.01059
  Beta virt. eigenvalues --   -0.00551  -0.00194   0.00176   0.00303   0.00485

 Mulliken charges and spin densities:
               1          2
     1  Na  -1.125664   0.044273
     2  Na   1.073467   0.215871
     3  Na  -0.833327   0.335796
     4  Na   0.955217   0.053882
     5  Na  -0.320513   0.039369
     6  Na  -0.365852  -0.155049
     7  Na   0.616672   0.465857
 Sum of Mulliken charges =  -0.00000   1.00000

 Dipole moment (field-independent basis, Debye):
    X=             -0.6222    Y=              0.6048    Z=             -0.1094  Tot=              0.8746
 Quadrupole moment (field-independent basis, Debye-Ang):
   XX=            -61.8796   YY=            -60.1997   ZZ=            -71.4414
   XY=              2.3712   XZ=             -0.7116   YZ=             -0.7506

 Normal termination of Gaussian 16 at Tue Nov 28 20:36:30 2023.
