 Gaussian 16, Revision B.01,
 Gaussian 16:  ES64L-G16RevB.01 20-Dec-2017

 -------------------------
 #P B3LYP/6-311+g(d) force
 -------------------------

 -----
 DPGEN
 -----
 Symbolic Z-matrix:
 Charge =  0 Multiplicity = 2

                         Standard orientation:
 ---------------------------------------------------------------------
 Center     Atomic      Atomic             Coordinates (Angstroms)
 Number     Number       Type             X           Y           Z
 ---------------------------------------------------------------------
      1         11           0        2.372382   -0.285421    0.878382
      2         11           0        3.926339    2.816584   -0.406315
      3         11           0       -3.337813    0.193775    0.545447
      4         11           0        4.325373   -2.623241   -0.460916
      5         11           0       -6.101263   -0.134241   -0.543661
      6         11           0       -0.358896    1.753721   -0.004290
      7         11           0       -0.826123   -1.721178   -0.008648
 ---------------------------------------------------------------------

 SCF Done:  E(UB3LYP) =  -1136.10626138     A.U. after   28 cycles

 The electronic state is 2-A.
 Alpha  occ. eigenvalues --  -38.46228 -38.45921 -38.44150 -38.43995 -38.43649
 Alpha  occ. eigenvalues --  -38.43464 -38.43223  -2.22057  -2.21689  -2.19983
 Alpha  occ. eigenvalues --   -2.19819  -2.19569  -2.19321  -2.18986  -1.15728
 Alpha  occ. eigenvalues --   -1.15695  -1.15673  -1.15335  -1.15313  -1.15294
 Alpha  occ. eigenvalues --   -1.13698  -1.13607  -1.13605  -1.13511  -1.13504
 Alpha  occ. eigenvalues --   -1.13454  -1.13263  -1.13226  -1.13184  -1.13020
 Alpha  occ. eigenvalues --   -1.13012  -1.12941  -1.12654  -1.12646  -1.12631
 Alpha  occ. eigenvalues --   -0.17128  -0.14301  -0.12077  -0.11053
 Alpha virt. eigenvalues --   -0.06639  -0.05793  -0.04765  -0.03513  -0.02801
 Alpha virt. eigenvalues --   -0.02694  -0.02272  -0.01428  -0.01075  -0.00839
 Alpha virt. eigenvalues --   -0.00605  -0.00153  -0.00139   0.00244   0.00712

  Beta  occ. eigenvalues --  -38.46175 -38.45808 -38.44082 -38.44013 -38.43643
  Beta  occ. eigenvalues --  -38.43461 -38.43230  -2.21961  -2.21478  -2.19858
  Beta  occ. eigenvalues --   -2.19854  -2.19565  -2.19319  -2.18999  -1.15663
  Beta  occ. eigenvalues --   -1.15631  -1.15602  -1.15191  -1.15168  -1.15153
  Beta  occ. eigenvalues --   -1.13615  -1.13538  -1.13533  -1.13522  -1.13520
  Beta  occ. eigenvalues --   -1.13458  -1.13261  -1.13229  -1.13140  -1.13020
  Beta  occ. eigenvalues --   -1.12985  -1.12945  -1.12663  -1.12655  -1.12637
  Beta  occ. eigenvalues --   -0.16661  -0.13508  -0.10745
  Beta virt. eigenvalues --   -0.08614  -0.06176  -0.05438  -0.04589  -0.03152
  Beta virt. eigenvalues --   -0.02477  -0.02398  -0.01860  -0.01060  -0.00882
  Beta virt. eigenvalues --   -0.00535  -0.00402  -0.00053  -0.00040   0.00321

 Mulliken charges and spin densities:
               1          2
     1  Na  -0.542252   0.009551
     2  Na   0.371001   0.496165
     3  Na   0.080450   0.076159
     4  Na   0.217400  -0.035223
     5  Na  -0.183828   0.211746
     6  Na  -0.036854   0.020763
     7  Na   0.094083   0.220839
 Sum of Mulliken charges =  -0.00000   1.00000

 Dipole moment (field-independent basis, Debye):
    X=             -0.0420    Y=              0.7896    Z=             -0.7040  Tot=              1.0587
 Quadrupole moment (field-independent basis, Debye-Ang):
   XX=            -67.0381   YY=            -65.5322   ZZ=            -71.1165
   XY=              7.8379   XZ=             -1.1226   YZ=              0.6585

 Normal termination of Gaussian 16 at Tue Nov 28 19:24:30 2023.
