 Gaussian 16, Revision B.01,
 Gaussian 16:  ES64L-G16RevB.01 20-Dec-2017

 -------------------------
 #P B3LYP/6-311+g(d) force
 -------------------------

 -----
 DPGEN
 -----
 Symbolic Z-matrix:
 Charge =  0 Multiplicity = 2

                         Standard orientation:
 ---------------------------------------------------------------------
 Center     Atomic      Atomic             Coordinates (Angstroms)
 Number     Number       Type             X           Y           Z
 ---------------------------------------------------------------------
      1         11           0        1.118766    2.970396   -0.048689
      2         11           0       -2.728684    1.493931    0.083542
      3         11           0       -2.284622   -1.840848   -0.173249
      4         11           0       -0.188689   -0.113813    1.672027
      5         11           0        1.257689   -2.756595   -0.098551
      6         11           0       -0.022219    0.247416   -1.537580
      7         11           0        2.847758   -0.000488    0.102500
 ---------------------------------------------------------------------

 SCF Done:  E(UB3LYP) =  -1136.13772131     A.U. after   19 cycles

 The electronic state is 2-A.
 Alpha  occ. eigenvalues --  -38.44023 -38.43724 -38.43702 -38.43610 -38.43402
 Alpha  occ. eigenvalues --  -38.42849 -38.42727  -2.19873  -2.19609  -2.19533
 Alpha  occ. eigenvalues --   -2.19519  -2.19273  -2.18852  -2.18760  -1.13551
 Alpha  occ. eigenvalues --   -1.13544  -1.13509  -1.13297  -1.13279  -1.13233
 Alpha  occ. eigenvalues --   -1.13229  -1.13217  -1.13204  -1.13183  -1.13178
 Alpha  occ. eigenvalues --   -1.13137  -1.12934  -1.12930  -1.12915  -1.12589
 Alpha  occ. eigenvalues --   -1.12473  -1.12460  -1.12434  -1.12385  -1.12371
 Alpha  occ. eigenvalues --   -0.19092  -0.13266  -0.12654  -0.10229
 Alpha virt. eigenvalues --   -0.05577  -0.05198  -0.04951  -0.03018  -0.02648
 Alpha virt. eigenvalues --   -0.01931  -0.01485  -0.01378  -0.00429  -0.00313
 Alpha virt. eigenvalues --    0.00054   0.00358   0.00826   0.00866   0.00884

  Beta  occ. eigenvalues --  -38.44017 -38.43715 -38.43699 -38.43602 -38.43397
  Beta  occ. eigenvalues --  -38.42770 -38.42659  -2.19867  -2.19597  -2.19532
  Beta  occ. eigenvalues --   -2.19510  -2.19269  -2.18709  -2.18637  -1.13550
  Beta  occ. eigenvalues --   -1.13512  -1.13508  -1.13292  -1.13239  -1.13229
  Beta  occ. eigenvalues --   -1.13223  -1.13216  -1.13192  -1.13171  -1.13143
  Beta  occ. eigenvalues --   -1.13136  -1.12933  -1.12917  -1.12896  -1.12493
  Beta  occ. eigenvalues --   -1.12370  -1.12356  -1.12341  -1.12296  -1.12279
  Beta  occ. eigenvalues --   -0.18374  -0.12995  -0.12407
  Beta virt. eigenvalues --   -0.06331  -0.05572  -0.05166  -0.04950  -0.02189
  Beta virt. eigenvalues --   -0.01914  -0.01405  -0.01312  -0.00936  -0.00484
  Beta virt. eigenvalues --   -0.00355   0.00189   0.00393   0.00839   0.00882

 Mulliken charges and spin densities:
               1          2
     1  Na   0.128310  -0.113693
     2  Na   0.139635  -0.116044
     3  Na   0.251538  -0.022570
     4  Na  -0.394740   0.680284
     5  Na   0.120425  -0.030847
     6  Na  -0.486692   0.608262
     7  Na   0.241523  -0.005391
 Sum of Mulliken charges =  -0.00000   1.00000

 Dipole moment (field-independent basis, Debye):
    X=             -0.2675    Y=              0.2009    Z=              0.0466  Tot=              0.3378
 Quadrupole moment (field-independent basis, Debye-Ang):
   XX=            -56.5987   YY=            -57.2936   ZZ=            -77.2210
   XY=             -0.3597   XZ=              0.4004   YZ=              0.9097

 Normal termination of Gaussian 16 at Wed Nov 29 03:31:22 2023.
