 Gaussian 16, Revision B.01,
 Gaussian 16:  ES64L-G16RevB.01 20-Dec-2017

 -------------------------
 #P B3LYP/6-311+g(d) force
 -------------------------

 -----
 DPGEN
 -----
 Symbolic Z-matrix:
 Charge =  0 Multiplicity = 2

                         Standard orientation:
 ---------------------------------------------------------------------
 Center     Atomic      Atomic             Coordinates (Angstroms)
 Number     Number       Type             X           Y           Z
 ---------------------------------------------------------------------
      1         11           0        1.179257   -2.398549   -0.227040
      2         11           0       -3.061106    1.070818   -0.582336
      3         11           0       -2.077161   -1.766820    0.224259
      4         11           0       -0.236878    0.012751    2.015504
      5         11           0        3.211627    0.282824    0.009677
      6         11           0        0.549647    2.735268    0.201583
      7         11           0        0.434614    0.063708   -1.641648
 ---------------------------------------------------------------------

 SCF Done:  E(UB3LYP) =  -1136.13156922     A.U. after   19 cycles

 The electronic state is 2-A.
 Alpha  occ. eigenvalues --  -38.44476 -38.44252 -38.43622 -38.43463 -38.43286
 Alpha  occ. eigenvalues --  -38.43129 -38.42932  -2.20324  -2.20078  -2.19561
 Alpha  occ. eigenvalues --   -2.19485  -2.19222  -2.18986  -2.18870  -1.14013
 Alpha  occ. eigenvalues --   -1.13986  -1.13952  -1.13774  -1.13733  -1.13700
 Alpha  occ. eigenvalues --   -1.13259  -1.13224  -1.13206  -1.13169  -1.13145
 Alpha  occ. eigenvalues --   -1.13089  -1.12895  -1.12872  -1.12859  -1.12672
 Alpha  occ. eigenvalues --   -1.12662  -1.12596  -1.12567  -1.12511  -1.12477
 Alpha  occ. eigenvalues --   -0.19076  -0.13431  -0.12215  -0.11009
 Alpha virt. eigenvalues --   -0.06073  -0.04757  -0.04255  -0.03461  -0.02841
 Alpha virt. eigenvalues --   -0.02602  -0.01842  -0.00857  -0.00225  -0.00047
 Alpha virt. eigenvalues --    0.00052   0.00340   0.00851   0.00899   0.00935

  Beta  occ. eigenvalues --  -38.44475 -38.44237 -38.43526 -38.43404 -38.43276
  Beta  occ. eigenvalues --  -38.43123 -38.42924  -2.20324  -2.20050  -2.19384
  Beta  occ. eigenvalues --   -2.19376  -2.19210  -2.18978  -2.18860  -1.14005
  Beta  occ. eigenvalues --   -1.13981  -1.13948  -1.13758  -1.13699  -1.13683
  Beta  occ. eigenvalues --   -1.13163  -1.13133  -1.13087  -1.13063  -1.13046
  Beta  occ. eigenvalues --   -1.13010  -1.12877  -1.12858  -1.12826  -1.12668
  Beta  occ. eigenvalues --   -1.12629  -1.12594  -1.12553  -1.12492  -1.12459
  Beta  occ. eigenvalues --   -0.18347  -0.13166  -0.11939
  Beta virt. eigenvalues --   -0.07105  -0.05988  -0.04722  -0.04242  -0.02692
  Beta virt. eigenvalues --   -0.02049  -0.01731  -0.01564  -0.00796  -0.00233
  Beta virt. eigenvalues --   -0.00013   0.00114   0.00370   0.00889   0.00922

 Mulliken charges and spin densities:
               1          2
     1  Na   0.324935  -0.033742
     2  Na  -0.068970   0.015844
     3  Na   0.452039   0.101127
     4  Na  -0.441951   0.560285
     5  Na   0.189711  -0.070784
     6  Na   0.033439  -0.050417
     7  Na  -0.489203   0.477687
 Sum of Mulliken charges =  -0.00000   1.00000

 Dipole moment (field-independent basis, Debye):
    X=              0.2554    Y=              0.3079    Z=              0.1229  Tot=              0.4185
 Quadrupole moment (field-independent basis, Debye-Ang):
   XX=            -53.8480   YY=            -67.1345   ZZ=            -72.8357
   XY=             -0.5261   XZ=              1.7921   YZ=             -0.4441

 Normal termination of Gaussian 16 at Fri Dec  8 05:13:40 2023.
