 Gaussian 16, Revision B.01,
 Gaussian 16:  ES64L-G16RevB.01 20-Dec-2017

 -------------------------
 #P B3LYP/6-311+g(d) force
 -------------------------

 -----
 DPGEN
 -----
 Symbolic Z-matrix:
 Charge =  0 Multiplicity = 2

                         Standard orientation:
 ---------------------------------------------------------------------
 Center     Atomic      Atomic             Coordinates (Angstroms)
 Number     Number       Type             X           Y           Z
 ---------------------------------------------------------------------
      1         11           0        1.484326   -1.812438   -0.517946
      2         11           0        5.099346   -0.382017   -0.694503
      3         11           0        2.655977    1.789530   -0.072490
      4         11           0       -0.798301    2.098899    0.349004
      5         11           0       -2.168701   -0.737542   -1.222524
      6         11           0       -0.296360   -1.013135    2.646113
      7         11           0       -5.976287    0.056703   -0.487655
 ---------------------------------------------------------------------

 SCF Done:  E(UB3LYP) =  -1136.10562373     A.U. after   26 cycles

 The electronic state is 2-A.
 Alpha  occ. eigenvalues --  -38.45246 -38.45087 -38.45054 -38.44417 -38.44347
 Alpha  occ. eigenvalues --  -38.44001 -38.43835  -2.21043  -2.20911  -2.20798
 Alpha  occ. eigenvalues --   -2.20249  -2.20116  -2.19715  -2.19624  -1.14737
 Alpha  occ. eigenvalues --   -1.14701  -1.14631  -1.14585  -1.14544  -1.14524
 Alpha  occ. eigenvalues --   -1.14480  -1.14466  -1.14424  -1.13934  -1.13909
 Alpha  occ. eigenvalues --   -1.13865  -1.13819  -1.13793  -1.13716  -1.13395
 Alpha  occ. eigenvalues --   -1.13392  -1.13339  -1.13292  -1.13288  -1.13255
 Alpha  occ. eigenvalues --   -0.17265  -0.13201  -0.12062  -0.10869
 Alpha virt. eigenvalues --   -0.07512  -0.05648  -0.04926  -0.03457  -0.02912
 Alpha virt. eigenvalues --   -0.02619  -0.02331  -0.01888  -0.01516  -0.00853
 Alpha virt. eigenvalues --   -0.00397   0.00031   0.00208   0.00353   0.00448

  Beta  occ. eigenvalues --  -38.45185 -38.45055 -38.45005 -38.44371 -38.44337
  Beta  occ. eigenvalues --  -38.44002 -38.43831  -2.20931  -2.20802  -2.20762
  Beta  occ. eigenvalues --   -2.20166  -2.20098  -2.19719  -2.19617  -1.14660
  Beta  occ. eigenvalues --   -1.14628  -1.14543  -1.14486  -1.14483  -1.14458
  Beta  occ. eigenvalues --   -1.14436  -1.14423  -1.14417  -1.13881  -1.13859
  Beta  occ. eigenvalues --   -1.13801  -1.13783  -1.13780  -1.13699  -1.13398
  Beta  occ. eigenvalues --   -1.13394  -1.13341  -1.13287  -1.13280  -1.13250
  Beta  occ. eigenvalues --   -0.16426  -0.13112  -0.10825
  Beta virt. eigenvalues --   -0.07959  -0.07352  -0.05353  -0.04334  -0.02887
  Beta virt. eigenvalues --   -0.02730  -0.02308  -0.01917  -0.01754  -0.01181
  Beta virt. eigenvalues --   -0.00797  -0.00265   0.00205   0.00409   0.00445

 Mulliken charges and spin densities:
               1          2
     1  Na  -0.566479   0.474426
     2  Na   0.600890  -0.008480
     3  Na  -0.169503   0.012916
     4  Na  -0.149463   0.610811
     5  Na  -0.059069  -0.041364
     6  Na   0.190160  -0.037333
     7  Na   0.153464  -0.010975
 Sum of Mulliken charges =  -0.00000   1.00000

 Dipole moment (field-independent basis, Debye):
    X=              1.3884    Y=             -0.3056    Z=              1.3624  Tot=              1.9691
 Quadrupole moment (field-independent basis, Debye-Ang):
   XX=            -70.1653   YY=            -68.5414   ZZ=            -68.4038
   XY=             -3.7295   XZ=             -5.6749   YZ=              1.5851

 Normal termination of Gaussian 16 at Wed Nov 29 01:57:52 2023.
