 Gaussian 16, Revision B.01,
 Gaussian 16:  ES64L-G16RevB.01 20-Dec-2017

 -------------------------
 #P B3LYP/6-311+g(d) force
 -------------------------

 -----
 DPGEN
 -----
 Symbolic Z-matrix:
 Charge =  0 Multiplicity = 2

                         Standard orientation:
 ---------------------------------------------------------------------
 Center     Atomic      Atomic             Coordinates (Angstroms)
 Number     Number       Type             X           Y           Z
 ---------------------------------------------------------------------
      1         11           0       -2.732359   -1.477974    0.123685
      2         11           0       -2.010854    1.834648   -0.337715
      3         11           0       -0.026991   -0.157594    1.970938
      4         11           0        0.965404    2.755450    0.435905
      5         11           0        0.756542   -2.606015    0.107436
      6         11           0        3.345955   -0.314441   -0.404766
      7         11           0       -0.297697   -0.034074   -1.895483
 ---------------------------------------------------------------------

 SCF Done:  E(UB3LYP) =  -1136.13538649     A.U. after   20 cycles

 The electronic state is 2-A.
 Alpha  occ. eigenvalues --  -38.44193 -38.43807 -38.43714 -38.43653 -38.43335
 Alpha  occ. eigenvalues --  -38.43323 -38.43297  -2.19970  -2.19759  -2.19645
 Alpha  occ. eigenvalues --   -2.19506  -2.19262  -2.19217  -2.19144  -1.13643
 Alpha  occ. eigenvalues --   -1.13624  -1.13613  -1.13493  -1.13411  -1.13358
 Alpha  occ. eigenvalues --   -1.13329  -1.13292  -1.13264  -1.13176  -1.13165
 Alpha  occ. eigenvalues --   -1.13146  -1.12960  -1.12923  -1.12910  -1.12892
 Alpha  occ. eigenvalues --   -1.12889  -1.12816  -1.12815  -1.12787  -1.12762
 Alpha  occ. eigenvalues --   -0.18816  -0.12859  -0.12508  -0.11164
 Alpha virt. eigenvalues --   -0.05641  -0.04823  -0.04598  -0.03306  -0.03106
 Alpha virt. eigenvalues --   -0.02814  -0.01548  -0.00964  -0.00221  -0.00074
 Alpha virt. eigenvalues --    0.00013   0.00350   0.00822   0.00918   0.00921

  Beta  occ. eigenvalues --  -38.44188 -38.43729 -38.43649 -38.43626 -38.43327
  Beta  occ. eigenvalues --  -38.43311 -38.43289  -2.19963  -2.19615  -2.19503
  Beta  occ. eigenvalues --   -2.19484  -2.19246  -2.19207  -2.19132  -1.13629
  Beta  occ. eigenvalues --   -1.13619  -1.13610  -1.13399  -1.13312  -1.13258
  Beta  occ. eigenvalues --   -1.13226  -1.13188  -1.13173  -1.13156  -1.13144
  Beta  occ. eigenvalues --   -1.13118  -1.12945  -1.12898  -1.12892  -1.12871
  Beta  occ. eigenvalues --   -1.12861  -1.12809  -1.12794  -1.12771  -1.12757
  Beta  occ. eigenvalues --   -0.18057  -0.12600  -0.12254
  Beta virt. eigenvalues --   -0.07255  -0.05571  -0.04804  -0.04544  -0.02518
  Beta virt. eigenvalues --   -0.02324  -0.01790  -0.01460  -0.00888  -0.00223
  Beta virt. eigenvalues --   -0.00096   0.00097   0.00375   0.00870   0.00920

 Mulliken charges and spin densities:
               1          2
     1  Na   0.182190  -0.094798
     2  Na   0.356443   0.033373
     3  Na  -0.242494   0.633840
     4  Na  -0.021560  -0.039746
     5  Na   0.125930  -0.081919
     6  Na  -0.114989  -0.035016
     7  Na  -0.285520   0.584266
 Sum of Mulliken charges =  -0.00000   1.00000

 Dipole moment (field-independent basis, Debye):
    X=              0.1693    Y=             -0.1651    Z=              0.0010  Tot=              0.2365
 Quadrupole moment (field-independent basis, Debye-Ang):
   XX=            -57.3909   YY=            -65.1224   ZZ=            -72.0307
   XY=              1.6217   XZ=             -0.9374   YZ=              0.2924

 Normal termination of Gaussian 16 at Tue Dec  5 21:32:22 2023.
