 Gaussian 16, Revision B.01,
 Gaussian 16:  ES64L-G16RevB.01 20-Dec-2017

 -------------------------
 #P B3LYP/6-311+g(d) force
 -------------------------

 -----
 DPGEN
 -----
 Symbolic Z-matrix:
 Charge =  0 Multiplicity = 2

                         Standard orientation:
 ---------------------------------------------------------------------
 Center     Atomic      Atomic             Coordinates (Angstroms)
 Number     Number       Type             X           Y           Z
 ---------------------------------------------------------------------
      1         11           0        1.274830    2.317755    0.360984
      2         11           0       -2.035917    2.089242   -0.483591
      3         11           0       -3.270475   -0.766347   -1.240169
      4         11           0       -1.381823   -0.118300    1.737544
      5         11           0        1.998470   -0.817356    1.450019
      6         11           0       -0.240224   -2.605556   -0.172596
      7         11           0        3.655139   -0.099439   -1.652191
 ---------------------------------------------------------------------

 SCF Done:  E(UB3LYP) =  -1136.12789375     A.U. after   21 cycles

 The electronic state is 2-A.
 Alpha  occ. eigenvalues --  -38.44782 -38.44204 -38.44193 -38.43661 -38.43458
 Alpha  occ. eigenvalues --  -38.43378 -38.43281  -2.20568  -2.20131  -2.20039
 Alpha  occ. eigenvalues --   -2.19546  -2.19277  -2.19210  -2.19159  -1.14220
 Alpha  occ. eigenvalues --   -1.14203  -1.14178  -1.13823  -1.13792  -1.13758
 Alpha  occ. eigenvalues --   -1.13711  -1.13687  -1.13656  -1.13240  -1.13222
 Alpha  occ. eigenvalues --   -1.13179  -1.12969  -1.12958  -1.12903  -1.12892
 Alpha  occ. eigenvalues --   -1.12875  -1.12841  -1.12838  -1.12825  -1.12782
 Alpha  occ. eigenvalues --   -0.17933  -0.13887  -0.11832  -0.11176
 Alpha virt. eigenvalues --   -0.05781  -0.05313  -0.05039  -0.03618  -0.02716
 Alpha virt. eigenvalues --   -0.02630  -0.01621  -0.00728  -0.00501  -0.00293
 Alpha virt. eigenvalues --   -0.00256   0.00281   0.00333   0.00454   0.00482

  Beta  occ. eigenvalues --  -38.44695 -38.44160 -38.44148 -38.43644 -38.43456
  Beta  occ. eigenvalues --  -38.43379 -38.43276  -2.20404  -2.20054  -2.19955
  Beta  occ. eigenvalues --   -2.19522  -2.19277  -2.19213  -2.19153  -1.14108
  Beta  occ. eigenvalues --   -1.14091  -1.14071  -1.13776  -1.13722  -1.13696
  Beta  occ. eigenvalues --   -1.13651  -1.13630  -1.13599  -1.13225  -1.13203
  Beta  occ. eigenvalues --   -1.13130  -1.12971  -1.12952  -1.12894  -1.12890
  Beta  occ. eigenvalues --   -1.12864  -1.12842  -1.12839  -1.12819  -1.12761
  Beta  occ. eigenvalues --   -0.17342  -0.13282  -0.11690
  Beta virt. eigenvalues --   -0.07613  -0.05481  -0.04971  -0.04641  -0.03552
  Beta virt. eigenvalues --   -0.02194  -0.01886  -0.01399  -0.00534  -0.00336
  Beta virt. eigenvalues --   -0.00162  -0.00133   0.00450   0.00485   0.00557

 Mulliken charges and spin densities:
               1          2
     1  Na  -0.690976   0.039683
     2  Na   0.080415   0.015455
     3  Na   0.038452   0.250399
     4  Na   0.482872   0.198412
     5  Na   0.634122   0.023063
     6  Na  -0.562953   0.029412
     7  Na   0.018068   0.443576
 Sum of Mulliken charges =  -0.00000   1.00000

 Dipole moment (field-independent basis, Debye):
    X=             -0.0824    Y=             -0.2801    Z=             -0.3951  Tot=              0.4913
 Quadrupole moment (field-independent basis, Debye-Ang):
   XX=            -61.3161   YY=            -72.2706   ZZ=            -64.6551
   XY=              0.2919   XZ=             -0.0789   YZ=              1.2465

 Normal termination of Gaussian 16 at Tue Nov 28 22:04:25 2023.
