 Gaussian 16, Revision B.01,
 Gaussian 16:  ES64L-G16RevB.01 20-Dec-2017

 -------------------------
 #P B3LYP/6-311+g(d) force
 -------------------------

 -----
 DPGEN
 -----
 Symbolic Z-matrix:
 Charge =  0 Multiplicity = 2

                         Standard orientation:
 ---------------------------------------------------------------------
 Center     Atomic      Atomic             Coordinates (Angstroms)
 Number     Number       Type             X           Y           Z
 ---------------------------------------------------------------------
      1         11           0       -2.845911    1.232904    0.121616
      2         11           0       -0.001505   -0.302313    2.049283
      3         11           0        3.392545    0.503769    0.195435
      4         11           0       -2.606641   -2.111522   -0.083862
      5         11           0        0.388890    3.035574   -0.179014
      6         11           0       -0.204483    0.220157   -1.674492
      7         11           0        1.877105   -2.578569   -0.428965
 ---------------------------------------------------------------------

 SCF Done:  E(UB3LYP) =  -1136.13326105     A.U. after   20 cycles

 The electronic state is 2-A.
 Alpha  occ. eigenvalues --  -38.44744 -38.44172 -38.44002 -38.43848 -38.43784
 Alpha  occ. eigenvalues --  -38.43332 -38.43109  -2.20514  -2.20018  -2.19802
 Alpha  occ. eigenvalues --   -2.19639  -2.19623  -2.19253  -2.18930  -1.14192
 Alpha  occ. eigenvalues --   -1.14165  -1.14159  -1.13708  -1.13686  -1.13651
 Alpha  occ. eigenvalues --   -1.13468  -1.13454  -1.13451  -1.13313  -1.13304
 Alpha  occ. eigenvalues --   -1.13291  -1.13279  -1.13254  -1.13236  -1.12946
 Alpha  occ. eigenvalues --   -1.12895  -1.12882  -1.12612  -1.12586  -1.12562
 Alpha  occ. eigenvalues --   -0.18026  -0.13173  -0.11985  -0.10440
 Alpha virt. eigenvalues --   -0.06108  -0.05532  -0.04668  -0.03281  -0.02693
 Alpha virt. eigenvalues --   -0.02415  -0.01857  -0.01273  -0.00771  -0.00567
 Alpha virt. eigenvalues --   -0.00039   0.00337   0.00699   0.00785   0.00815

  Beta  occ. eigenvalues --  -38.44743 -38.44166 -38.44002 -38.43839 -38.43693
  Beta  occ. eigenvalues --  -38.43268 -38.43106  -2.20515  -2.20012  -2.19803
  Beta  occ. eigenvalues --   -2.19624  -2.19456  -2.19137  -2.18929  -1.14176
  Beta  occ. eigenvalues --   -1.14168  -1.14163  -1.13702  -1.13663  -1.13648
  Beta  occ. eigenvalues --   -1.13461  -1.13454  -1.13446  -1.13295  -1.13283
  Beta  occ. eigenvalues --   -1.13270  -1.13182  -1.13137  -1.13115  -1.12865
  Beta  occ. eigenvalues --   -1.12812  -1.12798  -1.12600  -1.12575  -1.12561
  Beta  occ. eigenvalues --   -0.17315  -0.13004  -0.11769
  Beta virt. eigenvalues --   -0.06599  -0.06001  -0.05520  -0.04602  -0.02550
  Beta virt. eigenvalues --   -0.01982  -0.01747  -0.01425  -0.01177  -0.00815
  Beta virt. eigenvalues --   -0.00593   0.00118   0.00366   0.00759   0.00792

 Mulliken charges and spin densities:
               1          2
     1  Na   0.231085   0.006100
     2  Na  -0.324354   0.712356
     3  Na   0.039415  -0.024069
     4  Na   0.039877  -0.098908
     5  Na   0.003472  -0.078735
     6  Na   0.046159   0.553337
     7  Na  -0.035655  -0.070080
 Sum of Mulliken charges =  -0.00000   1.00000

 Dipole moment (field-independent basis, Debye):
    X=              0.1257    Y=             -0.1232    Z=              0.1328  Tot=              0.2205
 Quadrupole moment (field-independent basis, Debye-Ang):
   XX=            -53.5806   YY=            -63.1736   ZZ=            -76.1990
   XY=              1.1019   XZ=             -0.0616   YZ=              1.5501

 Normal termination of Gaussian 16 at Fri Dec  8 06:29:33 2023.
