 Gaussian 16, Revision B.01,
 Gaussian 16:  ES64L-G16RevB.01 20-Dec-2017

 -------------------------
 #P B3LYP/6-311+g(d) force
 -------------------------

 -----
 DPGEN
 -----
 Symbolic Z-matrix:
 Charge =  0 Multiplicity = 2

                         Standard orientation:
 ---------------------------------------------------------------------
 Center     Atomic      Atomic             Coordinates (Angstroms)
 Number     Number       Type             X           Y           Z
 ---------------------------------------------------------------------
      1         11           0        3.084827    2.385216    0.905581
      2         11           0        4.358602   -1.599583   -0.122517
      3         11           0       -1.953025   -2.536442    0.081159
      4         11           0        1.652738   -3.158071   -0.407755
      5         11           0       -4.595635   -0.991828    0.473976
      6         11           0        0.389599    3.803349   -0.595705
      7         11           0       -2.937105    2.097360   -0.334739
 ---------------------------------------------------------------------

 SCF Done:  E(UB3LYP) =  -1136.10620649     A.U. after   24 cycles

 The electronic state is 2-A.
 Alpha  occ. eigenvalues --  -38.45140 -38.44894 -38.44527 -38.44468 -38.44346
 Alpha  occ. eigenvalues --  -38.44288 -38.44166  -2.20942  -2.20688  -2.20320
 Alpha  occ. eigenvalues --   -2.20247  -2.20165  -2.20045  -2.19954  -1.14642
 Alpha  occ. eigenvalues --   -1.14606  -1.14585  -1.14367  -1.14339  -1.14325
 Alpha  occ. eigenvalues --   -1.13986  -1.13982  -1.13965  -1.13902  -1.13891
 Alpha  occ. eigenvalues --   -1.13880  -1.13818  -1.13810  -1.13798  -1.13730
 Alpha  occ. eigenvalues --   -1.13721  -1.13687  -1.13616  -1.13602  -1.13560
 Alpha  occ. eigenvalues --   -0.15622  -0.13983  -0.13366  -0.10514
 Alpha virt. eigenvalues --   -0.08025  -0.05004  -0.04390  -0.03673  -0.03313
 Alpha virt. eigenvalues --   -0.02488  -0.02366  -0.01960  -0.01221  -0.00904
 Alpha virt. eigenvalues --   -0.00596  -0.00199   0.00123   0.00350   0.00570

  Beta  occ. eigenvalues --  -38.45149 -38.44859 -38.44523 -38.44404 -38.44301
  Beta  occ. eigenvalues --  -38.44296 -38.44082  -2.20965  -2.20625  -2.20317
  Beta  occ. eigenvalues --   -2.20128  -2.20074  -2.20072  -2.19797  -1.14647
  Beta  occ. eigenvalues --   -1.14626  -1.14580  -1.14321  -1.14298  -1.14278
  Beta  occ. eigenvalues --   -1.13988  -1.13982  -1.13933  -1.13821  -1.13816
  Beta  occ. eigenvalues --   -1.13798  -1.13755  -1.13754  -1.13749  -1.13741
  Beta  occ. eigenvalues --   -1.13739  -1.13665  -1.13509  -1.13495  -1.13461
  Beta  occ. eigenvalues --   -0.15130  -0.13411  -0.12706
  Beta virt. eigenvalues --   -0.07939  -0.07341  -0.04606  -0.04013  -0.03490
  Beta virt. eigenvalues --   -0.02941  -0.02302  -0.02110  -0.01764  -0.01183
  Beta virt. eigenvalues --   -0.00551  -0.00371   0.00018   0.00212   0.00490

 Mulliken charges and spin densities:
               1          2
     1  Na  -0.211362   0.312360
     2  Na  -0.107804   0.144310
     3  Na  -0.499291   0.165463
     4  Na   0.101404   0.031766
     5  Na   1.080842   0.030731
     6  Na  -0.082522  -0.097664
     7  Na  -0.281268   0.413036
 Sum of Mulliken charges =  -0.00000   1.00000

 Dipole moment (field-independent basis, Debye):
    X=             -0.0539    Y=             -0.6225    Z=              0.1655  Tot=              0.6463
 Quadrupole moment (field-independent basis, Debye-Ang):
   XX=            -52.1548   YY=            -74.2096   ZZ=            -72.7555
   XY=              1.9906   XZ=             -0.2575   YZ=             -0.8512

 Normal termination of Gaussian 16 at Mon Dec  4 03:37:06 2023.
