 Gaussian 16, Revision B.01,
 Gaussian 16:  ES64L-G16RevB.01 20-Dec-2017

 -------------------------
 #P B3LYP/6-311+g(d) force
 -------------------------

 -----
 DPGEN
 -----
 Symbolic Z-matrix:
 Charge =  0 Multiplicity = 2

                         Standard orientation:
 ---------------------------------------------------------------------
 Center     Atomic      Atomic             Coordinates (Angstroms)
 Number     Number       Type             X           Y           Z
 ---------------------------------------------------------------------
      1         11           0        2.193092    2.339177   -0.343864
      2         11           0       -2.920853   -1.175201   -0.057261
      3         11           0        0.367651   -2.848594   -0.551343
      4         11           0        3.131073   -0.743695    0.186201
      5         11           0       -0.410862    0.158295   -1.652221
      6         11           0       -0.223346   -0.141767    2.453972
      7         11           0       -2.136754    2.411786   -0.035483
 ---------------------------------------------------------------------

 SCF Done:  E(UB3LYP) =  -1136.13200958     A.U. after   19 cycles

 The electronic state is 2-A.
 Alpha  occ. eigenvalues --  -38.44460 -38.44347 -38.44016 -38.43895 -38.43780
 Alpha  occ. eigenvalues --  -38.43478 -38.43124  -2.20266  -2.20174  -2.19827
 Alpha  occ. eigenvalues --   -2.19698  -2.19576  -2.19425  -2.18958  -1.13906
 Alpha  occ. eigenvalues --   -1.13895  -1.13885  -1.13868  -1.13836  -1.13796
 Alpha  occ. eigenvalues --   -1.13506  -1.13496  -1.13476  -1.13396  -1.13358
 Alpha  occ. eigenvalues --   -1.13331  -1.13251  -1.13234  -1.13212  -1.13106
 Alpha  occ. eigenvalues --   -1.13067  -1.13054  -1.12649  -1.12611  -1.12586
 Alpha  occ. eigenvalues --   -0.18018  -0.13057  -0.11985  -0.11087
 Alpha virt. eigenvalues --   -0.05797  -0.05565  -0.04449  -0.03366  -0.03085
 Alpha virt. eigenvalues --   -0.02816  -0.01546  -0.01181  -0.00621  -0.00376
 Alpha virt. eigenvalues --   -0.00084   0.00347   0.00701   0.00807   0.00830

  Beta  occ. eigenvalues --  -38.44344 -38.44343 -38.44017 -38.43893 -38.43779
  Beta  occ. eigenvalues --  -38.43426 -38.43115  -2.20170  -2.20050  -2.19830
  Beta  occ. eigenvalues --   -2.19698  -2.19576  -2.19330  -2.18945  -1.13860
  Beta  occ. eigenvalues --   -1.13821  -1.13796  -1.13760  -1.13745  -1.13732
  Beta  occ. eigenvalues --   -1.13510  -1.13483  -1.13481  -1.13389  -1.13347
  Beta  occ. eigenvalues --   -1.13332  -1.13243  -1.13231  -1.13213  -1.13044
  Beta  occ. eigenvalues --   -1.12997  -1.12982  -1.12633  -1.12592  -1.12579
  Beta  occ. eigenvalues --   -0.17316  -0.12920  -0.11786
  Beta virt. eigenvalues --   -0.07055  -0.05776  -0.05446  -0.04385  -0.02631
  Beta virt. eigenvalues --   -0.02139  -0.01967  -0.01459  -0.01105  -0.00661
  Beta virt. eigenvalues --   -0.00410   0.00104   0.00396   0.00801   0.00831

 Mulliken charges and spin densities:
               1          2
     1  Na   0.015724  -0.031363
     2  Na   0.215508   0.058270
     3  Na   0.048289   0.038457
     4  Na  -0.014686   0.025142
     5  Na   0.308001   0.159289
     6  Na  -0.557642   0.767619
     7  Na  -0.015194  -0.017415
 Sum of Mulliken charges =  -0.00000   1.00000

 Dipole moment (field-independent basis, Debye):
    X=             -0.3703    Y=              0.0854    Z=              0.2585  Tot=              0.4596
 Quadrupole moment (field-independent basis, Debye-Ang):
   XX=            -57.2423   YY=            -64.8554   ZZ=            -73.2965
   XY=             -0.2288   XZ=             -0.1214   YZ=              0.3068

 Normal termination of Gaussian 16 at Thu Dec  7 21:05:06 2023.
