 Gaussian 16, Revision B.01,
 Gaussian 16:  ES64L-G16RevB.01 20-Dec-2017

 -------------------------
 #P B3LYP/6-311+g(d) force
 -------------------------

 -----
 DPGEN
 -----
 Symbolic Z-matrix:
 Charge =  0 Multiplicity = 2

                         Standard orientation:
 ---------------------------------------------------------------------
 Center     Atomic      Atomic             Coordinates (Angstroms)
 Number     Number       Type             X           Y           Z
 ---------------------------------------------------------------------
      1         11           0       -3.845193   -0.658026    0.958179
      2         11           0        1.239279    0.993809   -1.276757
      3         11           0       -1.011208   -1.631231   -0.978138
      4         11           0       -1.719230    2.622519   -0.811377
      5         11           0        3.548992    0.991296    1.311004
      6         11           0        2.084495   -2.145428   -0.643804
      7         11           0       -0.297136   -0.172939    1.440893
 ---------------------------------------------------------------------

 SCF Done:  E(UB3LYP) =  -1136.12235173     A.U. after   22 cycles

 The electronic state is 2-A.
 Alpha  occ. eigenvalues --  -38.44837 -38.44634 -38.44324 -38.43478 -38.43432
 Alpha  occ. eigenvalues --  -38.43127 -38.43096  -2.20753  -2.20425  -2.20128
 Alpha  occ. eigenvalues --   -2.19358  -2.19227  -2.19091  -2.19048  -1.14538
 Alpha  occ. eigenvalues --   -1.14389  -1.14345  -1.14094  -1.14065  -1.14043
 Alpha  occ. eigenvalues --   -1.13785  -1.13766  -1.13747  -1.13067  -1.13025
 Alpha  occ. eigenvalues --   -1.12990  -1.12903  -1.12886  -1.12857  -1.12835
 Alpha  occ. eigenvalues --   -1.12765  -1.12727  -1.12690  -1.12672  -1.12656
 Alpha  occ. eigenvalues --   -0.18430  -0.13639  -0.11516  -0.11085
 Alpha virt. eigenvalues --   -0.06472  -0.05084  -0.04632  -0.03162  -0.02619
 Alpha virt. eigenvalues --   -0.02422  -0.02060  -0.01250  -0.00917  -0.00097
 Alpha virt. eigenvalues --    0.00074   0.00158   0.00388   0.00653   0.00693

  Beta  occ. eigenvalues --  -38.44824 -38.44595 -38.44257 -38.43470 -38.43406
  Beta  occ. eigenvalues --  -38.43109 -38.43066  -2.20728  -2.20352  -2.20002
  Beta  occ. eigenvalues --   -2.19346  -2.19180  -2.19064  -2.18997  -1.14508
  Beta  occ. eigenvalues --   -1.14376  -1.14325  -1.14043  -1.14015  -1.13998
  Beta  occ. eigenvalues --   -1.13698  -1.13681  -1.13664  -1.13044  -1.13022
  Beta  occ. eigenvalues --   -1.12971  -1.12859  -1.12855  -1.12827  -1.12821
  Beta  occ. eigenvalues --   -1.12732  -1.12692  -1.12645  -1.12623  -1.12614
  Beta  occ. eigenvalues --   -0.17866  -0.13126  -0.11125
  Beta virt. eigenvalues --   -0.07600  -0.06164  -0.04995  -0.04091  -0.02964
  Beta virt. eigenvalues --   -0.02300  -0.01963  -0.01400  -0.01138  -0.00600
  Beta virt. eigenvalues --   -0.00015   0.00173   0.00242   0.00462   0.00723

 Mulliken charges and spin densities:
               1          2
     1  Na   0.714768   0.178889
     2  Na   0.139620   0.083774
     3  Na  -0.114534   0.114339
     4  Na  -0.348131   0.079873
     5  Na   0.145316   0.340171
     6  Na   0.275035   0.024361
     7  Na  -0.812074   0.178593
 Sum of Mulliken charges =  -0.00000   1.00000

 Dipole moment (field-independent basis, Debye):
    X=             -0.3811    Y=             -0.2680    Z=              0.2643  Tot=              0.5357
 Quadrupole moment (field-independent basis, Debye-Ang):
   XX=            -51.3286   YY=            -73.8874   ZZ=            -68.5031
   XY=             -2.4827   XZ=             -0.0752   YZ=              0.8773

 Normal termination of Gaussian 16 at Tue Dec  5 20:01:51 2023.
