 Gaussian 16, Revision B.01,
 Gaussian 16:  ES64L-G16RevB.01 20-Dec-2017

 -------------------------
 #P B3LYP/6-311+g(d) force
 -------------------------

 -----
 DPGEN
 -----
 Symbolic Z-matrix:
 Charge =  0 Multiplicity = 2

                         Standard orientation:
 ---------------------------------------------------------------------
 Center     Atomic      Atomic             Coordinates (Angstroms)
 Number     Number       Type             X           Y           Z
 ---------------------------------------------------------------------
      1         11           0       -0.830167   -2.620904    0.423214
      2         11           0       -0.785097    2.832643    0.014573
      3         11           0        2.306233    1.455664    0.315117
      4         11           0       -0.253886   -0.082728    1.833905
      5         11           0       -0.033499    0.020169   -1.637913
      6         11           0        2.647592   -1.443466   -0.499839
      7         11           0       -3.051175   -0.161379   -0.449057
 ---------------------------------------------------------------------

 SCF Done:  E(UB3LYP) =  -1136.13521755     A.U. after   20 cycles

 The electronic state is 2-A.
 Alpha  occ. eigenvalues --  -38.44022 -38.43555 -38.43453 -38.43402 -38.43344
 Alpha  occ. eigenvalues --  -38.43177 -38.43154  -2.19883  -2.19444  -2.19403
 Alpha  occ. eigenvalues --   -2.19387  -2.19254  -2.19186  -2.19043  -1.13578
 Alpha  occ. eigenvalues --   -1.13536  -1.13508  -1.13231  -1.13193  -1.13124
 Alpha  occ. eigenvalues --   -1.13107  -1.13060  -1.13045  -1.13027  -1.12996
 Alpha  occ. eigenvalues --   -1.12967  -1.12909  -1.12880  -1.12863  -1.12852
 Alpha  occ. eigenvalues --   -1.12815  -1.12807  -1.12708  -1.12702  -1.12671
 Alpha  occ. eigenvalues --   -0.19284  -0.13281  -0.12528  -0.11020
 Alpha virt. eigenvalues --   -0.05488  -0.04731  -0.04644  -0.03334  -0.02925
 Alpha virt. eigenvalues --   -0.02512  -0.01478  -0.01017  -0.00170   0.00027
 Alpha virt. eigenvalues --    0.00106   0.00357   0.00863   0.00942   0.00953

  Beta  occ. eigenvalues --  -38.44009 -38.43544 -38.43444 -38.43329 -38.43314
  Beta  occ. eigenvalues --  -38.43174 -38.43087  -2.19862  -2.19427  -2.19376
  Beta  occ. eigenvalues --   -2.19250  -2.19225  -2.19064  -2.19041  -1.13554
  Beta  occ. eigenvalues --   -1.13513  -1.13495  -1.13223  -1.13113  -1.13098
  Beta  occ. eigenvalues --   -1.13066  -1.13043  -1.13014  -1.12958  -1.12939
  Beta  occ. eigenvalues --   -1.12899  -1.12874  -1.12840  -1.12808  -1.12786
  Beta  occ. eigenvalues --   -1.12749  -1.12718  -1.12693  -1.12683  -1.12658
  Beta  occ. eigenvalues --   -0.18564  -0.12989  -0.12242
  Beta virt. eigenvalues --   -0.07084  -0.05440  -0.04713  -0.04619  -0.02540
  Beta virt. eigenvalues --   -0.02149  -0.01468  -0.01358  -0.00954  -0.00129
  Beta virt. eigenvalues --   -0.00000   0.00159   0.00382   0.00891   0.00945

 Mulliken charges and spin densities:
               1          2
     1  Na   0.220134   0.016926
     2  Na  -0.038253  -0.082535
     3  Na   0.187475   0.032753
     4  Na  -0.200629   0.517919
     5  Na  -0.330231   0.550829
     6  Na   0.126957   0.010287
     7  Na   0.034546  -0.046179
 Sum of Mulliken charges =  -0.00000   1.00000

 Dipole moment (field-independent basis, Debye):
    X=             -0.3075    Y=             -0.0271    Z=             -0.0122  Tot=              0.3090
 Quadrupole moment (field-independent basis, Debye-Ang):
   XX=            -57.3554   YY=            -62.9729   ZZ=            -73.3082
   XY=             -0.7354   XZ=              0.7062   YZ=              0.6135

 Normal termination of Gaussian 16 at Fri Dec  8 03:58:38 2023.
