 Gaussian 16, Revision B.01,
 Gaussian 16:  ES64L-G16RevB.01 20-Dec-2017

 -------------------------
 #P B3LYP/6-311+g(d) force
 -------------------------

 -----
 DPGEN
 -----
 Symbolic Z-matrix:
 Charge =  0 Multiplicity = 2

                         Standard orientation:
 ---------------------------------------------------------------------
 Center     Atomic      Atomic             Coordinates (Angstroms)
 Number     Number       Type             X           Y           Z
 ---------------------------------------------------------------------
      1         11           0       -2.080747    2.402168   -0.036295
      2         11           0        3.410686    1.771033   -0.695972
      3         11           0        0.959531    3.451278    0.837302
      4         11           0       -4.488108   -0.395076   -0.471983
      5         11           0        1.070695   -2.812928    1.688584
      6         11           0        3.214525   -2.326012   -0.978884
      7         11           0       -2.086582   -2.090464   -0.342753
 ---------------------------------------------------------------------

 SCF Done:  E(UB3LYP) =  -1136.10997050     A.U. after   21 cycles

 The electronic state is 2-A.
 Alpha  occ. eigenvalues --  -38.45358 -38.45167 -38.44873 -38.44060 -38.44039
 Alpha  occ. eigenvalues --  -38.43966 -38.43504  -2.21090  -2.20980  -2.20660
 Alpha  occ. eigenvalues --   -2.19851  -2.19824  -2.19823  -2.19311  -1.14780
 Alpha  occ. eigenvalues --   -1.14755  -1.14728  -1.14667  -1.14650  -1.14637
 Alpha  occ. eigenvalues --   -1.14337  -1.14330  -1.14267  -1.13507  -1.13504
 Alpha  occ. eigenvalues --   -1.13500  -1.13488  -1.13477  -1.13474  -1.13456
 Alpha  occ. eigenvalues --   -1.13447  -1.13439  -1.12981  -1.12978  -1.12965
 Alpha  occ. eigenvalues --   -0.15858  -0.13724  -0.13262  -0.10387
 Alpha virt. eigenvalues --   -0.07309  -0.05170  -0.04672  -0.03518  -0.03213
 Alpha virt. eigenvalues --   -0.02250  -0.02167  -0.01804  -0.01228  -0.00929
 Alpha virt. eigenvalues --   -0.00350  -0.00149   0.00103   0.00509   0.00530

  Beta  occ. eigenvalues --  -38.45367 -38.45149 -38.44824 -38.44009 -38.43978
  Beta  occ. eigenvalues --  -38.43933 -38.43503  -2.21110  -2.20953  -2.20573
  Beta  occ. eigenvalues --   -2.19764  -2.19756  -2.19709  -2.19315  -1.14797
  Beta  occ. eigenvalues --   -1.14770  -1.14719  -1.14647  -1.14627  -1.14599
  Beta  occ. eigenvalues --   -1.14279  -1.14273  -1.14192  -1.13459  -1.13440
  Beta  occ. eigenvalues --   -1.13433  -1.13419  -1.13415  -1.13411  -1.13401
  Beta  occ. eigenvalues --   -1.13399  -1.13371  -1.12986  -1.12983  -1.12938
  Beta  occ. eigenvalues --   -0.15386  -0.13225  -0.12739
  Beta virt. eigenvalues --   -0.07201  -0.07114  -0.04833  -0.04282  -0.03259
  Beta virt. eigenvalues --   -0.02811  -0.02039  -0.01902  -0.01614  -0.01024
  Beta virt. eigenvalues --   -0.00829  -0.00059   0.00145   0.00303   0.00557

 Mulliken charges and spin densities:
               1          2
     1  Na  -0.082413   0.306095
     2  Na  -0.141368   0.297170
     3  Na  -0.193099  -0.113655
     4  Na   0.795425   0.155353
     5  Na   0.089009   0.250356
     6  Na   0.348361  -0.016868
     7  Na  -0.815914   0.121549
 Sum of Mulliken charges =  -0.00000   1.00000

 Dipole moment (field-independent basis, Debye):
    X=             -0.7402    Y=             -0.7926    Z=             -0.1628  Tot=              1.0966
 Quadrupole moment (field-independent basis, Debye-Ang):
   XX=            -62.7594   YY=            -69.8507   ZZ=            -68.5993
   XY=             -4.9217   XZ=             -0.5450   YZ=              2.4472

 Normal termination of Gaussian 16 at Mon Dec  4 03:54:10 2023.
