 Gaussian 16, Revision B.01,
 Gaussian 16:  ES64L-G16RevB.01 20-Dec-2017

 -------------------------
 #P B3LYP/6-311+g(d) force
 -------------------------

 -----
 DPGEN
 -----
 Symbolic Z-matrix:
 Charge =  0 Multiplicity = 2

                         Standard orientation:
 ---------------------------------------------------------------------
 Center     Atomic      Atomic             Coordinates (Angstroms)
 Number     Number       Type             X           Y           Z
 ---------------------------------------------------------------------
      1         11           0       -3.491537    0.680939    0.173649
      2         11           0        0.297789   -0.038996    2.050610
      3         11           0       -1.792791   -2.621677   -0.248113
      4         11           0        0.145656   -0.304484   -1.717134
      5         11           0       -0.417577    3.028703   -0.188367
      6         11           0        2.372655   -2.234283    0.143884
      7         11           0        2.885806    1.489799   -0.214530
 ---------------------------------------------------------------------

 SCF Done:  E(UB3LYP) =  -1136.13350605     A.U. after   20 cycles

 The electronic state is 2-A.
 Alpha  occ. eigenvalues --  -38.44552 -38.44186 -38.44054 -38.43938 -38.43740
 Alpha  occ. eigenvalues --  -38.43507 -38.43400  -2.20298  -2.19990  -2.19857
 Alpha  occ. eigenvalues --   -2.19731  -2.19587  -2.19301  -2.19296  -1.13979
 Alpha  occ. eigenvalues --   -1.13948  -1.13944  -1.13667  -1.13651  -1.13627
 Alpha  occ. eigenvalues --   -1.13532  -1.13522  -1.13494  -1.13425  -1.13393
 Alpha  occ. eigenvalues --   -1.13355  -1.13254  -1.13215  -1.13203  -1.12989
 Alpha  occ. eigenvalues --   -1.12978  -1.12967  -1.12931  -1.12927  -1.12923
 Alpha  occ. eigenvalues --   -0.17870  -0.12774  -0.12220  -0.10441
 Alpha virt. eigenvalues --   -0.05994  -0.05652  -0.04818  -0.03053  -0.02797
 Alpha virt. eigenvalues --   -0.02485  -0.01756  -0.01426  -0.00845  -0.00627
 Alpha virt. eigenvalues --   -0.00050   0.00327   0.00706   0.00764   0.00822

  Beta  occ. eigenvalues --  -38.44553 -38.44179 -38.44049 -38.43933 -38.43648
  Beta  occ. eigenvalues --  -38.43504 -38.43335  -2.20302  -2.19982  -2.19851
  Beta  occ. eigenvalues --   -2.19723  -2.19416  -2.19296  -2.19181  -1.13972
  Beta  occ. eigenvalues --   -1.13952  -1.13948  -1.13649  -1.13640  -1.13621
  Beta  occ. eigenvalues --   -1.13521  -1.13502  -1.13491  -1.13410  -1.13379
  Beta  occ. eigenvalues --   -1.13354  -1.13140  -1.13097  -1.13079  -1.12974
  Beta  occ. eigenvalues --   -1.12959  -1.12927  -1.12900  -1.12845  -1.12835
  Beta  occ. eigenvalues --   -0.17157  -0.12601  -0.11997
  Beta virt. eigenvalues --   -0.06599  -0.05901  -0.05653  -0.04729  -0.02366
  Beta virt. eigenvalues --   -0.02077  -0.01654  -0.01459  -0.01336  -0.00894
  Beta virt. eigenvalues --   -0.00667   0.00107   0.00362   0.00759   0.00783

 Mulliken charges and spin densities:
               1          2
     1  Na  -0.095520  -0.054040
     2  Na  -0.295997   0.831761
     3  Na   0.054319  -0.120699
     4  Na   0.132850   0.593842
     5  Na  -0.126733  -0.095646
     6  Na   0.160891  -0.104213
     7  Na   0.170191  -0.051004
 Sum of Mulliken charges =  -0.00000   1.00000

 Dipole moment (field-independent basis, Debye):
    X=              0.0649    Y=             -0.1581    Z=              0.0609  Tot=              0.1814
 Quadrupole moment (field-independent basis, Debye-Ang):
   XX=            -54.1056   YY=            -62.3412   ZZ=            -76.3262
   XY=             -0.4734   XZ=             -0.6951   YZ=             -0.5206

 Normal termination of Gaussian 16 at Thu Dec  7 05:44:59 2023.
