 Gaussian 16, Revision B.01,
 Gaussian 16:  ES64L-G16RevB.01 20-Dec-2017

 -------------------------
 #P B3LYP/6-311+g(d) force
 -------------------------

 -----
 DPGEN
 -----
 Symbolic Z-matrix:
 Charge =  0 Multiplicity = 2

                         Standard orientation:
 ---------------------------------------------------------------------
 Center     Atomic      Atomic             Coordinates (Angstroms)
 Number     Number       Type             X           Y           Z
 ---------------------------------------------------------------------
      1         11           0        3.375074   -0.653746    1.871769
      2         11           0       -3.707002    1.485448    0.911872
      3         11           0       -2.588703   -1.519290   -1.216098
      4         11           0       -1.117482   -1.019421    1.137566
      5         11           0       -0.602901    1.314120   -0.455287
      6         11           0        1.452683   -1.256276   -1.201128
      7         11           0        3.188333    1.649164   -1.048695
 ---------------------------------------------------------------------

 SCF Done:  E(UB3LYP) =  -1136.10989440     A.U. after   28 cycles

 The electronic state is 2-A.
 Alpha  occ. eigenvalues --  -38.44831 -38.44649 -38.44594 -38.44297 -38.44255
 Alpha  occ. eigenvalues --  -38.43459 -38.42995  -2.20714  -2.20647  -2.20397
 Alpha  occ. eigenvalues --   -2.20202  -2.20108  -2.19351  -2.18824  -1.14633
 Alpha  occ. eigenvalues --   -1.14482  -1.14360  -1.14294  -1.14196  -1.14164
 Alpha  occ. eigenvalues --   -1.14051  -1.14034  -1.14004  -1.13925  -1.13841
 Alpha  occ. eigenvalues --   -1.13784  -1.13776  -1.13750  -1.13738  -1.13065
 Alpha  occ. eigenvalues --   -1.13033  -1.12937  -1.12495  -1.12484  -1.12460
 Alpha  occ. eigenvalues --   -0.18461  -0.14606  -0.11041  -0.10677
 Alpha virt. eigenvalues --   -0.06841  -0.05522  -0.05227  -0.03066  -0.02709
 Alpha virt. eigenvalues --   -0.02246  -0.01931  -0.01452  -0.01130  -0.00076
 Alpha virt. eigenvalues --   -0.00005   0.00123   0.00241   0.00355   0.00394

  Beta  occ. eigenvalues --  -38.44841 -38.44634 -38.44499 -38.44267 -38.44232
  Beta  occ. eigenvalues --  -38.43438 -38.42990  -2.20731  -2.20622  -2.20218
  Beta  occ. eigenvalues --   -2.20163  -2.20055  -2.19319  -2.18813  -1.14634
  Beta  occ. eigenvalues --   -1.14467  -1.14366  -1.14301  -1.14181  -1.14146
  Beta  occ. eigenvalues --   -1.13929  -1.13907  -1.13898  -1.13889  -1.13811
  Beta  occ. eigenvalues --   -1.13748  -1.13733  -1.13709  -1.13691  -1.13044
  Beta  occ. eigenvalues --   -1.12971  -1.12921  -1.12486  -1.12478  -1.12453
  Beta  occ. eigenvalues --   -0.17970  -0.14121  -0.10630
  Beta virt. eigenvalues --   -0.07211  -0.06735  -0.05175  -0.04672  -0.02855
  Beta virt. eigenvalues --   -0.02470  -0.01664  -0.01499  -0.01330  -0.00660
  Beta virt. eigenvalues --    0.00030   0.00048   0.00321   0.00368   0.00437

 Mulliken charges and spin densities:
               1          2
     1  Na  -0.223452   0.470389
     2  Na   0.546918   0.091388
     3  Na   0.366946   0.005214
     4  Na  -0.106087   0.113268
     5  Na  -1.323805  -0.003017
     6  Na   0.317710   0.310379
     7  Na   0.421771   0.012379
 Sum of Mulliken charges =  -0.00000   1.00000

 Dipole moment (field-independent basis, Debye):
    X=             -0.1500    Y=             -0.5563    Z=             -0.6642  Tot=              0.8792
 Quadrupole moment (field-independent basis, Debye-Ang):
   XX=            -54.1626   YY=            -76.3634   ZZ=            -67.5762
   XY=              5.2938   XZ=              1.2035   YZ=             -0.8723

 Normal termination of Gaussian 16 at Tue Dec  5 14:35:02 2023.
