 Gaussian 16, Revision B.01,
 Gaussian 16:  ES64L-G16RevB.01 20-Dec-2017

 -------------------------
 #P B3LYP/6-311+g(d) force
 -------------------------

 -----
 DPGEN
 -----
 Symbolic Z-matrix:
 Charge =  0 Multiplicity = 2

                         Standard orientation:
 ---------------------------------------------------------------------
 Center     Atomic      Atomic             Coordinates (Angstroms)
 Number     Number       Type             X           Y           Z
 ---------------------------------------------------------------------
      1         11           0       -1.412491    2.482509   -0.479125
      2         11           0        0.109935    0.047381    2.122263
      3         11           0        1.491382    2.401087    0.012133
      4         11           0       -3.095794   -0.901013    0.282812
      5         11           0        2.966943   -1.019159   -0.027192
      6         11           0       -0.005618   -0.181536   -1.555889
      7         11           0       -0.054357   -2.829269   -0.355003
 ---------------------------------------------------------------------

 SCF Done:  E(UB3LYP) =  -1136.13404628     A.U. after   19 cycles

 The electronic state is 2-A.
 Alpha  occ. eigenvalues --  -38.43803 -38.43768 -38.43749 -38.43644 -38.43532
 Alpha  occ. eigenvalues --  -38.43432 -38.43194  -2.19685  -2.19638  -2.19566
 Alpha  occ. eigenvalues --   -2.19475  -2.19440  -2.19349  -2.19236  -1.13451
 Alpha  occ. eigenvalues --   -1.13356  -1.13322  -1.13299  -1.13280  -1.13256
 Alpha  occ. eigenvalues --   -1.13241  -1.13235  -1.13220  -1.13202  -1.13153
 Alpha  occ. eigenvalues --   -1.13132  -1.13125  -1.13114  -1.13062  -1.13005
 Alpha  occ. eigenvalues --   -1.12993  -1.12921  -1.12892  -1.12868  -1.12821
 Alpha  occ. eigenvalues --   -0.18876  -0.13018  -0.12534  -0.10968
 Alpha virt. eigenvalues --   -0.05365  -0.04949  -0.04860  -0.03190  -0.02985
 Alpha virt. eigenvalues --   -0.02715  -0.01417  -0.01134  -0.00230  -0.00138
 Alpha virt. eigenvalues --    0.00011   0.00354   0.00870   0.00889   0.00917

  Beta  occ. eigenvalues --  -38.43764 -38.43738 -38.43704 -38.43643 -38.43520
  Beta  occ. eigenvalues --  -38.43426 -38.43133  -2.19621  -2.19562  -2.19502
  Beta  occ. eigenvalues --   -2.19475  -2.19421  -2.19342  -2.19126  -1.13424
  Beta  occ. eigenvalues --   -1.13264  -1.13255  -1.13237  -1.13228  -1.13218
  Beta  occ. eigenvalues --   -1.13217  -1.13199  -1.13188  -1.13164  -1.13145
  Beta  occ. eigenvalues --   -1.13125  -1.13107  -1.13100  -1.13034  -1.12997
  Beta  occ. eigenvalues --   -1.12962  -1.12912  -1.12817  -1.12791  -1.12746
  Beta  occ. eigenvalues --   -0.18143  -0.12730  -0.12321
  Beta virt. eigenvalues --   -0.07022  -0.05334  -0.04885  -0.04857  -0.02376
  Beta virt. eigenvalues --   -0.02254  -0.01624  -0.01328  -0.01048  -0.00251
  Beta virt. eigenvalues --   -0.00186   0.00130   0.00375   0.00882   0.00912

 Mulliken charges and spin densities:
               1          2
     1  Na   0.233136   0.012561
     2  Na  -0.604845   0.788081
     3  Na   0.259907   0.026136
     4  Na  -0.004531  -0.003114
     5  Na   0.098681  -0.043348
     6  Na  -0.249085   0.251818
     7  Na   0.266738  -0.032133
 Sum of Mulliken charges =  -0.00000   1.00000

 Dipole moment (field-independent basis, Debye):
    X=             -0.0113    Y=             -0.1924    Z=              0.2948  Tot=              0.3522
 Quadrupole moment (field-independent basis, Debye-Ang):
   XX=            -58.2847   YY=            -62.1112   ZZ=            -73.5337
   XY=             -0.2089   XZ=             -0.2288   YZ=             -0.5101

 Normal termination of Gaussian 16 at Tue Dec  5 10:57:13 2023.
