 Gaussian 16, Revision B.01,
 Gaussian 16:  ES64L-G16RevB.01 20-Dec-2017

 -------------------------
 #P B3LYP/6-311+g(d) force
 -------------------------

 -----
 DPGEN
 -----
 Symbolic Z-matrix:
 Charge =  0 Multiplicity = 2

                         Standard orientation:
 ---------------------------------------------------------------------
 Center     Atomic      Atomic             Coordinates (Angstroms)
 Number     Number       Type             X           Y           Z
 ---------------------------------------------------------------------
      1         11           0        1.880032   -0.077890    2.609012
      2         11           0        3.791552   -0.843937    0.030428
      3         11           0       -3.045375   -1.137660   -0.341125
      4         11           0        3.250264    2.247514   -1.247142
      5         11           0       -5.739755    1.076153    0.299914
      6         11           0        0.345288   -2.243267   -1.130806
      7         11           0       -0.482005    0.979086   -0.220281
 ---------------------------------------------------------------------

 SCF Done:  E(UB3LYP) =  -1136.10275699     A.U. after   30 cycles

 The electronic state is 2-A.
 Alpha  occ. eigenvalues --  -38.46123 -38.45827 -38.45444 -38.44178 -38.43737
 Alpha  occ. eigenvalues --  -38.43549 -38.43114  -2.21923  -2.21635  -2.21265
 Alpha  occ. eigenvalues --   -2.19983  -2.19565  -2.19299  -2.18928  -1.15631
 Alpha  occ. eigenvalues --   -1.15560  -1.15546  -1.15331  -1.15291  -1.15281
 Alpha  occ. eigenvalues --   -1.14922  -1.14880  -1.14871  -1.13640  -1.13627
 Alpha  occ. eigenvalues --   -1.13603  -1.13275  -1.13263  -1.13149  -1.12968
 Alpha  occ. eigenvalues --   -1.12966  -1.12929  -1.12606  -1.12587  -1.12570
 Alpha  occ. eigenvalues --   -0.17476  -0.13800  -0.11605  -0.10744
 Alpha virt. eigenvalues --   -0.08236  -0.05405  -0.04609  -0.03454  -0.03204
 Alpha virt. eigenvalues --   -0.02619  -0.02533  -0.02052  -0.01200  -0.00900
 Alpha virt. eigenvalues --   -0.00497  -0.00151  -0.00071   0.00462   0.00498

  Beta  occ. eigenvalues --  -38.46110 -38.45830 -38.45336 -38.44108 -38.43737
  Beta  occ. eigenvalues --  -38.43541 -38.43112  -2.21900  -2.21645  -2.21065
  Beta  occ. eigenvalues --   -2.19854  -2.19567  -2.19284  -2.18926  -1.15601
  Beta  occ. eigenvalues --   -1.15544  -1.15533  -1.15312  -1.15303  -1.15274
  Beta  occ. eigenvalues --   -1.14780  -1.14747  -1.14737  -1.13552  -1.13534
  Beta  occ. eigenvalues --   -1.13522  -1.13277  -1.13263  -1.13147  -1.12957
  Beta  occ. eigenvalues --   -1.12955  -1.12919  -1.12604  -1.12582  -1.12569
  Beta  occ. eigenvalues --   -0.16868  -0.13557  -0.10593
  Beta virt. eigenvalues --   -0.08060  -0.07604  -0.05193  -0.04377  -0.03011
  Beta virt. eigenvalues --   -0.02976  -0.02018  -0.01959  -0.01830  -0.00962
  Beta virt. eigenvalues --   -0.00810  -0.00413  -0.00053   0.00088   0.00532

 Mulliken charges and spin densities:
               1          2
     1  Na   0.090211   0.355566
     2  Na   0.390021   0.280686
     3  Na  -0.100599  -0.010097
     4  Na   0.304211   0.171468
     5  Na   0.279278   0.020258
     6  Na   0.081590  -0.067941
     7  Na  -1.044712   0.250059
 Sum of Mulliken charges =  -0.00000   1.00000

 Dipole moment (field-independent basis, Debye):
    X=              2.1218    Y=             -0.3998    Z=              0.2527  Tot=              2.1739
 Quadrupole moment (field-independent basis, Debye-Ang):
   XX=            -70.9074   YY=            -66.5676   ZZ=            -72.4164
   XY=             -5.3224   XZ=             -2.3856   YZ=              2.1707

 Normal termination of Gaussian 16 at Wed Nov 29 00:58:52 2023.
