 Gaussian 16, Revision B.01,
 Gaussian 16:  ES64L-G16RevB.01 20-Dec-2017

 -------------------------
 #P B3LYP/6-311+g(d) force
 -------------------------

 -----
 DPGEN
 -----
 Symbolic Z-matrix:
 Charge =  0 Multiplicity = 2

                         Standard orientation:
 ---------------------------------------------------------------------
 Center     Atomic      Atomic             Coordinates (Angstroms)
 Number     Number       Type             X           Y           Z
 ---------------------------------------------------------------------
      1         11           0        1.445537    2.963260   -1.599796
      2         11           0        3.179271    0.305423    0.593829
      3         11           0       -2.769667   -0.378748    0.998137
      4         11           0        2.758188   -2.886583   -0.717412
      5         11           0       -5.260745   -0.336849   -0.971843
      6         11           0        0.167855    0.878379    2.433680
      7         11           0        0.479561   -0.544881   -0.736596
 ---------------------------------------------------------------------

 SCF Done:  E(UB3LYP) =  -1136.11180193     A.U. after   22 cycles

 The electronic state is 2-A.
 Alpha  occ. eigenvalues --  -38.45190 -38.44655 -38.44636 -38.44482 -38.44084
 Alpha  occ. eigenvalues --  -38.43350 -38.42755  -2.21048  -2.20567  -2.20432
 Alpha  occ. eigenvalues --   -2.20281  -2.19929  -2.19186  -2.18575  -1.14776
 Alpha  occ. eigenvalues --   -1.14738  -1.14629  -1.14272  -1.14242  -1.14179
 Alpha  occ. eigenvalues --   -1.14085  -1.14069  -1.14026  -1.13931  -1.13920
 Alpha  occ. eigenvalues --   -1.13914  -1.13592  -1.13580  -1.13539  -1.12874
 Alpha  occ. eigenvalues --   -1.12857  -1.12835  -1.12253  -1.12237  -1.12222
 Alpha  occ. eigenvalues --   -0.17559  -0.13689  -0.11728  -0.11364
 Alpha virt. eigenvalues --   -0.07262  -0.05162  -0.04207  -0.03293  -0.02897
 Alpha virt. eigenvalues --   -0.02478  -0.02309  -0.01467  -0.01276  -0.00703
 Alpha virt. eigenvalues --   -0.00435  -0.00221   0.00077   0.00574   0.00682

  Beta  occ. eigenvalues --  -38.45192 -38.44655 -38.44533 -38.44422 -38.44022
  Beta  occ. eigenvalues --  -38.43348 -38.42771  -2.21053  -2.20570  -2.20241
  Beta  occ. eigenvalues --   -2.20169  -2.19814  -2.19189  -2.18606  -1.14782
  Beta  occ. eigenvalues --   -1.14719  -1.14642  -1.14267  -1.14225  -1.14190
  Beta  occ. eigenvalues --   -1.13954  -1.13935  -1.13904  -1.13857  -1.13843
  Beta  occ. eigenvalues --   -1.13839  -1.13512  -1.13498  -1.13466  -1.12884
  Beta  occ. eigenvalues --   -1.12865  -1.12785  -1.12278  -1.12256  -1.12237
  Beta  occ. eigenvalues --   -0.17081  -0.13093  -0.11278
  Beta virt. eigenvalues --   -0.07846  -0.07056  -0.04750  -0.03951  -0.02960
  Beta virt. eigenvalues --   -0.02568  -0.02303  -0.01968  -0.01188  -0.00844
  Beta virt. eigenvalues --   -0.00451  -0.00277   0.00001   0.00123   0.00638

 Mulliken charges and spin densities:
               1          2
     1  Na  -0.078647   0.352346
     2  Na   1.150835   0.160581
     3  Na   0.074207   0.076053
     4  Na   0.235824  -0.213495
     5  Na   0.046713   0.296496
     6  Na   0.028789   0.033790
     7  Na  -1.457722   0.294230
 Sum of Mulliken charges =  -0.00000   1.00000

 Dipole moment (field-independent basis, Debye):
    X=              0.6652    Y=              0.8514    Z=              0.2343  Tot=              1.1055
 Quadrupole moment (field-independent basis, Debye-Ang):
   XX=            -59.8981   YY=            -71.3146   ZZ=            -66.4910
   XY=              1.4967   XZ=              7.6421   YZ=             -0.5493

 Normal termination of Gaussian 16 at Tue Nov 28 23:55:28 2023.
