 Gaussian 16, Revision B.01,
 Gaussian 16:  ES64L-G16RevB.01 20-Dec-2017

 -------------------------
 #P B3LYP/6-311+g(d) force
 -------------------------

 -----
 DPGEN
 -----
 Symbolic Z-matrix:
 Charge =  0 Multiplicity = 2

                         Standard orientation:
 ---------------------------------------------------------------------
 Center     Atomic      Atomic             Coordinates (Angstroms)
 Number     Number       Type             X           Y           Z
 ---------------------------------------------------------------------
      1         11           0       -3.005471   -0.394248   -0.163948
      2         11           0       -0.299299   -2.776835    0.084143
      3         11           0        1.696620    2.321986   -0.126018
      4         11           0        0.155561   -0.168968    1.854488
      5         11           0       -0.107753   -0.094638   -1.694866
      6         11           0       -1.317003    2.179378    0.204513
      7         11           0        2.877345   -1.066676   -0.158313
 ---------------------------------------------------------------------

 SCF Done:  E(UB3LYP) =  -1136.13584130     A.U. after   19 cycles

 The electronic state is 2-A.
 Alpha  occ. eigenvalues --  -38.43909 -38.43704 -38.43433 -38.43337 -38.43273
 Alpha  occ. eigenvalues --  -38.43111 -38.43078  -2.19748  -2.19593  -2.19327
 Alpha  occ. eigenvalues --   -2.19264  -2.19241  -2.19146  -2.19074  -1.13424
 Alpha  occ. eigenvalues --   -1.13416  -1.13383  -1.13306  -1.13257  -1.13226
 Alpha  occ. eigenvalues --   -1.13069  -1.13025  -1.13019  -1.12944  -1.12929
 Alpha  occ. eigenvalues --   -1.12905  -1.12886  -1.12879  -1.12852  -1.12841
 Alpha  occ. eigenvalues --   -1.12783  -1.12749  -1.12715  -1.12690  -1.12675
 Alpha  occ. eigenvalues --   -0.19449  -0.13062  -0.12824  -0.10932
 Alpha virt. eigenvalues --   -0.05513  -0.04872  -0.04558  -0.03130  -0.03011
 Alpha virt. eigenvalues --   -0.02474  -0.01456  -0.01011  -0.00111  -0.00007
 Alpha virt. eigenvalues --    0.00096   0.00363   0.00861   0.00955   0.00978

  Beta  occ. eigenvalues --  -38.43904 -38.43699 -38.43425 -38.43332 -38.43185
  Beta  occ. eigenvalues --  -38.43066 -38.43036  -2.19744  -2.19588  -2.19317
  Beta  occ. eigenvalues --   -2.19236  -2.19103  -2.19058  -2.19010  -1.13415
  Beta  occ. eigenvalues --   -1.13399  -1.13382  -1.13304  -1.13239  -1.13211
  Beta  occ. eigenvalues --   -1.13048  -1.13005  -1.12981  -1.12927  -1.12889
  Beta  occ. eigenvalues --   -1.12868  -1.12847  -1.12782  -1.12769  -1.12750
  Beta  occ. eigenvalues --   -1.12703  -1.12675  -1.12666  -1.12651  -1.12625
  Beta  occ. eigenvalues --   -0.18692  -0.12797  -0.12538
  Beta virt. eigenvalues --   -0.06960  -0.05502  -0.04860  -0.04561  -0.02309
  Beta virt. eigenvalues --   -0.02174  -0.01405  -0.01376  -0.00950  -0.00163
  Beta virt. eigenvalues --    0.00022   0.00139   0.00380   0.00879   0.00965

 Mulliken charges and spin densities:
               1          2
     1  Na   0.256810  -0.037872
     2  Na   0.187573  -0.128974
     3  Na   0.085049  -0.071415
     4  Na  -0.455848   0.648121
     5  Na  -0.546799   0.631581
     6  Na   0.396599   0.073291
     7  Na   0.076616  -0.114733
 Sum of Mulliken charges =  -0.00000   1.00000

 Dipole moment (field-independent basis, Debye):
    X=              0.2288    Y=             -0.3600    Z=              0.0252  Tot=              0.4273
 Quadrupole moment (field-independent basis, Debye-Ang):
   XX=            -56.6992   YY=            -63.1377   ZZ=            -73.6316
   XY=              0.5650   XZ=             -0.5310   YZ=              0.1523

 Normal termination of Gaussian 16 at Tue Dec  5 09:52:46 2023.
