 Gaussian 16, Revision B.01,
 Gaussian 16:  ES64L-G16RevB.01 20-Dec-2017

 -------------------------
 #P B3LYP/6-311+g(d) force
 -------------------------

 -----
 DPGEN
 -----
 Symbolic Z-matrix:
 Charge =  0 Multiplicity = 2

                         Standard orientation:
 ---------------------------------------------------------------------
 Center     Atomic      Atomic             Coordinates (Angstroms)
 Number     Number       Type             X           Y           Z
 ---------------------------------------------------------------------
      1         11           0        3.104561    0.650740    0.121670
      2         11           0       -2.262769   -2.108702   -0.233878
      3         11           0        1.748066   -2.284977    0.167654
      4         11           0       -0.680595    0.086017    2.364199
      5         11           0        0.181811    2.819766   -0.083163
      6         11           0       -2.755955    1.113240   -0.578119
      7         11           0        0.664881   -0.276083   -1.758364
 ---------------------------------------------------------------------

 SCF Done:  E(UB3LYP) =  -1136.13339718     A.U. after   18 cycles

 The electronic state is 2-A.
 Alpha  occ. eigenvalues --  -38.44243 -38.44215 -38.43913 -38.43782 -38.43631
 Alpha  occ. eigenvalues --  -38.43624 -38.42900  -2.20073  -2.20068  -2.19758
 Alpha  occ. eigenvalues --   -2.19736  -2.19510  -2.19442  -2.18737  -1.13775
 Alpha  occ. eigenvalues --   -1.13741  -1.13716  -1.13702  -1.13696  -1.13690
 Alpha  occ. eigenvalues --   -1.13495  -1.13433  -1.13419  -1.13409  -1.13380
 Alpha  occ. eigenvalues --   -1.13346  -1.13164  -1.13161  -1.13118  -1.13111
 Alpha  occ. eigenvalues --   -1.13100  -1.13081  -1.12416  -1.12403  -1.12377
 Alpha  occ. eigenvalues --   -0.18376  -0.13371  -0.12022  -0.11091
 Alpha virt. eigenvalues --   -0.05706  -0.05273  -0.04417  -0.03686  -0.02959
 Alpha virt. eigenvalues --   -0.02883  -0.01477  -0.00923  -0.00322  -0.00231
 Alpha virt. eigenvalues --   -0.00109   0.00370   0.00719   0.00839   0.00887

  Beta  occ. eigenvalues --  -38.44214 -38.44140 -38.43902 -38.43730 -38.43626
  Beta  occ. eigenvalues --  -38.43620 -38.42897  -2.20072  -2.19877  -2.19740
  Beta  occ. eigenvalues --   -2.19641  -2.19504  -2.19438  -2.18734  -1.13771
  Beta  occ. eigenvalues --   -1.13728  -1.13702  -1.13588  -1.13564  -1.13555
  Beta  occ. eigenvalues --   -1.13441  -1.13421  -1.13401  -1.13387  -1.13318
  Beta  occ. eigenvalues --   -1.13278  -1.13152  -1.13133  -1.13112  -1.13105
  Beta  occ. eigenvalues --   -1.13083  -1.13081  -1.12414  -1.12381  -1.12376
  Beta  occ. eigenvalues --   -0.17673  -0.13174  -0.11831
  Beta virt. eigenvalues --   -0.07163  -0.05591  -0.05259  -0.04287  -0.02960
  Beta virt. eigenvalues --   -0.02147  -0.01918  -0.01383  -0.00857  -0.00365
  Beta virt. eigenvalues --   -0.00261   0.00084   0.00418   0.00859   0.00882

 Mulliken charges and spin densities:
               1          2
     1  Na   0.192926   0.017786
     2  Na   0.145594  -0.016901
     3  Na   0.160660   0.024983
     4  Na  -0.637362   0.689273
     5  Na   0.025719  -0.010891
     6  Na   0.151571   0.029812
     7  Na  -0.039107   0.265938
 Sum of Mulliken charges =  -0.00000   1.00000

 Dipole moment (field-independent basis, Debye):
    X=              0.2031    Y=             -0.1238    Z=              0.1718  Tot=              0.2934
 Quadrupole moment (field-independent basis, Debye-Ang):
   XX=            -57.6477   YY=            -67.0998   ZZ=            -71.2843
   XY=              0.5720   XZ=              2.2362   YZ=             -0.6428

 Normal termination of Gaussian 16 at Fri Dec  8 03:29:01 2023.
