 Gaussian 16, Revision B.01,
 Gaussian 16:  ES64L-G16RevB.01 20-Dec-2017

 -------------------------
 #P B3LYP/6-311+g(d) force
 -------------------------

 -----
 DPGEN
 -----
 Symbolic Z-matrix:
 Charge =  0 Multiplicity = 2

                         Standard orientation:
 ---------------------------------------------------------------------
 Center     Atomic      Atomic             Coordinates (Angstroms)
 Number     Number       Type             X           Y           Z
 ---------------------------------------------------------------------
      1         11           0       -0.567929   -2.129834    1.678499
      2         11           0        0.213500   -0.302818   -1.154739
      3         11           0       -0.707782    2.039982    1.591383
      4         11           0        3.933183   -1.384312   -0.796188
      5         11           0        2.767875    1.608565    0.438518
      6         11           0       -2.208158    1.528920   -1.460413
      7         11           0       -3.430689   -1.360504   -0.297061
 ---------------------------------------------------------------------

 SCF Done:  E(UB3LYP) =  -1136.12031927     A.U. after   23 cycles

 The electronic state is 2-A.
 Alpha  occ. eigenvalues --  -38.44536 -38.44501 -38.44451 -38.44270 -38.43724
 Alpha  occ. eigenvalues --  -38.43653 -38.43343  -2.20352  -2.20335  -2.20299
 Alpha  occ. eigenvalues --   -2.20050  -2.19557  -2.19537  -2.19174  -1.14080
 Alpha  occ. eigenvalues --   -1.14033  -1.14013  -1.14006  -1.13994  -1.13982
 Alpha  occ. eigenvalues --   -1.13972  -1.13947  -1.13924  -1.13716  -1.13703
 Alpha  occ. eigenvalues --   -1.13672  -1.13256  -1.13204  -1.13195  -1.13179
 Alpha  occ. eigenvalues --   -1.13153  -1.13147  -1.12837  -1.12822  -1.12804
 Alpha  occ. eigenvalues --   -0.17794  -0.13671  -0.11422  -0.11080
 Alpha virt. eigenvalues --   -0.06616  -0.05597  -0.03933  -0.03406  -0.03188
 Alpha virt. eigenvalues --   -0.02477  -0.02207  -0.01406  -0.00648  -0.00351
 Alpha virt. eigenvalues --   -0.00035   0.00097   0.00359   0.00594   0.00714

  Beta  occ. eigenvalues --  -38.44537 -38.44495 -38.44436 -38.44247 -38.43660
  Beta  occ. eigenvalues --  -38.43610 -38.43300  -2.20340  -2.20326  -2.20292
  Beta  occ. eigenvalues --   -2.20006  -2.19478  -2.19419  -2.19096  -1.14034
  Beta  occ. eigenvalues --   -1.14023  -1.14017  -1.13999  -1.13984  -1.13974
  Beta  occ. eigenvalues --   -1.13963  -1.13938  -1.13900  -1.13685  -1.13671
  Beta  occ. eigenvalues --   -1.13644  -1.13200  -1.13147  -1.13125  -1.13091
  Beta  occ. eigenvalues --   -1.13090  -1.13070  -1.12780  -1.12765  -1.12749
  Beta  occ. eigenvalues --   -0.17171  -0.13301  -0.11100
  Beta virt. eigenvalues --   -0.07496  -0.06409  -0.05427  -0.03343  -0.03095
  Beta virt. eigenvalues --   -0.02746  -0.02348  -0.01545  -0.01270  -0.00425
  Beta virt. eigenvalues --   -0.00169   0.00057   0.00175   0.00462   0.00651

 Mulliken charges and spin densities:
               1          2
     1  Na  -0.110194   0.331450
     2  Na  -1.082880  -0.039755
     3  Na  -0.242042   0.275940
     4  Na   0.356964   0.088664
     5  Na  -0.013769   0.114537
     6  Na   1.110104   0.250852
     7  Na  -0.018183  -0.021688
 Sum of Mulliken charges =  -0.00000   1.00000

 Dipole moment (field-independent basis, Debye):
    X=              0.1164    Y=              0.0131    Z=              0.1615  Tot=              0.1995
 Quadrupole moment (field-independent basis, Debye-Ang):
   XX=            -52.8450   YY=            -72.3893   ZZ=            -69.6863
   XY=             -0.9650   XZ=              0.9512   YZ=              1.1939

 Normal termination of Gaussian 16 at Tue Dec  5 10:15:54 2023.
