 Gaussian 16, Revision B.01,
 Gaussian 16:  ES64L-G16RevB.01 20-Dec-2017

 -------------------------
 #P B3LYP/6-311+g(d) force
 -------------------------

 -----
 DPGEN
 -----
 Symbolic Z-matrix:
 Charge =  0 Multiplicity = 2

                         Standard orientation:
 ---------------------------------------------------------------------
 Center     Atomic      Atomic             Coordinates (Angstroms)
 Number     Number       Type             X           Y           Z
 ---------------------------------------------------------------------
      1         11           0       -1.619491    2.189218   -0.436472
      2         11           0        2.908941   -0.834665   -0.232931
      3         11           0        0.199060   -2.909708    0.130233
      4         11           0        1.638535    2.517419    0.065888
      5         11           0        0.206810   -0.256936   -1.490367
      6         11           0       -2.985118   -0.847716   -0.314771
      7         11           0       -0.348737    0.142388    2.278421
 ---------------------------------------------------------------------

 SCF Done:  E(UB3LYP) =  -1136.13700276     A.U. after   18 cycles

 The electronic state is 2-A.
 Alpha  occ. eigenvalues --  -38.43955 -38.43739 -38.43693 -38.43579 -38.43378
 Alpha  occ. eigenvalues --  -38.43340 -38.43063  -2.19809  -2.19607  -2.19532
 Alpha  occ. eigenvalues --   -2.19442  -2.19245  -2.19228  -2.19118  -1.13461
 Alpha  occ. eigenvalues --   -1.13438  -1.13425  -1.13353  -1.13259  -1.13231
 Alpha  occ. eigenvalues --   -1.13215  -1.13193  -1.13179  -1.13159  -1.13100
 Alpha  occ. eigenvalues --   -1.13052  -1.12979  -1.12923  -1.12897  -1.12883
 Alpha  occ. eigenvalues --   -1.12883  -1.12830  -1.12783  -1.12742  -1.12727
 Alpha  occ. eigenvalues --   -0.18809  -0.12944  -0.12596  -0.11010
 Alpha virt. eigenvalues --   -0.05340  -0.04971  -0.04817  -0.03171  -0.03006
 Alpha virt. eigenvalues --   -0.02812  -0.01337  -0.01088  -0.00274  -0.00153
 Alpha virt. eigenvalues --   -0.00025   0.00352   0.00839   0.00895   0.00925

  Beta  occ. eigenvalues --  -38.43846 -38.43735 -38.43688 -38.43575 -38.43376
  Beta  occ. eigenvalues --  -38.43328 -38.43012  -2.19610  -2.19601  -2.19525
  Beta  occ. eigenvalues --   -2.19437  -2.19228  -2.19226  -2.19026  -1.13343
  Beta  occ. eigenvalues --   -1.13328  -1.13299  -1.13282  -1.13243  -1.13230
  Beta  occ. eigenvalues --   -1.13206  -1.13184  -1.13163  -1.13151  -1.13078
  Beta  occ. eigenvalues --   -1.13051  -1.12967  -1.12908  -1.12884  -1.12870
  Beta  occ. eigenvalues --   -1.12859  -1.12824  -1.12718  -1.12678  -1.12664
  Beta  occ. eigenvalues --   -0.18088  -0.12700  -0.12391
  Beta virt. eigenvalues --   -0.07002  -0.05332  -0.04967  -0.04742  -0.02382
  Beta virt. eigenvalues --   -0.02226  -0.01695  -0.01263  -0.01017  -0.00308
  Beta virt. eigenvalues --   -0.00194   0.00137   0.00388   0.00888   0.00911

 Mulliken charges and spin densities:
               1          2
     1  Na   0.290031   0.051624
     2  Na   0.317973   0.024965
     3  Na   0.191121   0.041083
     4  Na   0.166069   0.036167
     5  Na  -0.427322   0.091313
     6  Na   0.214903  -0.000555
     7  Na  -0.752775   0.755403
 Sum of Mulliken charges =  -0.00000   1.00000

 Dipole moment (field-independent basis, Debye):
    X=              0.0042    Y=             -0.1747    Z=              0.3111  Tot=              0.3568
 Quadrupole moment (field-independent basis, Debye-Ang):
   XX=            -58.8888   YY=            -62.0680   ZZ=            -73.1603
   XY=              0.9057   XZ=              1.0342   YZ=             -0.6912

 Normal termination of Gaussian 16 at Fri Dec  8 06:48:11 2023.
