 Gaussian 16, Revision B.01,
 Gaussian 16:  ES64L-G16RevB.01 20-Dec-2017

 -------------------------
 #P B3LYP/6-311+g(d) force
 -------------------------

 -----
 DPGEN
 -----
 Symbolic Z-matrix:
 Charge =  0 Multiplicity = 2

                         Standard orientation:
 ---------------------------------------------------------------------
 Center     Atomic      Atomic             Coordinates (Angstroms)
 Number     Number       Type             X           Y           Z
 ---------------------------------------------------------------------
      1         11           0       -0.081727    0.127877    2.143793
      2         11           0       -0.300000   -0.012781   -1.570852
      3         11           0       -1.790614   -2.256743    0.314238
      4         11           0        0.594464    3.024550    0.137363
      5         11           0        1.677257   -2.488831   -0.266041
      6         11           0       -3.005321    1.069932   -0.479652
      7         11           0        2.905942    0.535997   -0.278849
 ---------------------------------------------------------------------

 SCF Done:  E(UB3LYP) =  -1136.13827761     A.U. after   18 cycles

 The electronic state is 2-A.
 Alpha  occ. eigenvalues --  -38.43953 -38.43835 -38.43614 -38.43604 -38.43586
 Alpha  occ. eigenvalues --  -38.43282 -38.43173  -2.19785  -2.19710  -2.19483
 Alpha  occ. eigenvalues --   -2.19448  -2.19426  -2.19171  -2.19142  -1.13502
 Alpha  occ. eigenvalues --   -1.13428  -1.13409  -1.13374  -1.13337  -1.13333
 Alpha  occ. eigenvalues --   -1.13175  -1.13152  -1.13138  -1.13126  -1.13113
 Alpha  occ. eigenvalues --   -1.13102  -1.13095  -1.13076  -1.13044  -1.12857
 Alpha  occ. eigenvalues --   -1.12835  -1.12800  -1.12795  -1.12782  -1.12771
 Alpha  occ. eigenvalues --   -0.18642  -0.12956  -0.12502  -0.10943
 Alpha virt. eigenvalues --   -0.05478  -0.05032  -0.04820  -0.03189  -0.02954
 Alpha virt. eigenvalues --   -0.02708  -0.01411  -0.01182  -0.00356  -0.00247
 Alpha virt. eigenvalues --   -0.00018   0.00349   0.00833   0.00882   0.00888

  Beta  occ. eigenvalues --  -38.43940 -38.43735 -38.43604 -38.43602 -38.43580
  Beta  occ. eigenvalues --  -38.43278 -38.43117  -2.19763  -2.19524  -2.19468
  Beta  occ. eigenvalues --   -2.19440  -2.19423  -2.19137  -2.19069  -1.13476
  Beta  occ. eigenvalues --   -1.13405  -1.13397  -1.13255  -1.13211  -1.13203
  Beta  occ. eigenvalues --   -1.13162  -1.13133  -1.13125  -1.13112  -1.13093
  Beta  occ. eigenvalues --   -1.13090  -1.13076  -1.13071  -1.13042  -1.12822
  Beta  occ. eigenvalues --   -1.12796  -1.12775  -1.12764  -1.12725  -1.12714
  Beta  occ. eigenvalues --   -0.17931  -0.12694  -0.12262
  Beta virt. eigenvalues --   -0.07020  -0.05432  -0.04962  -0.04799  -0.02414
  Beta virt. eigenvalues --   -0.02221  -0.01645  -0.01305  -0.01097  -0.00392
  Beta virt. eigenvalues --   -0.00281   0.00121   0.00384   0.00858   0.00890

 Mulliken charges and spin densities:
               1          2
     1  Na  -0.472658   0.663268
     2  Na  -0.314481   0.333451
     3  Na   0.292221   0.089665
     4  Na   0.111822  -0.030060
     5  Na   0.111460  -0.013272
     6  Na   0.175673  -0.031142
     7  Na   0.095963  -0.011911
 Sum of Mulliken charges =  -0.00000   1.00000

 Dipole moment (field-independent basis, Debye):
    X=             -0.2528    Y=              0.1663    Z=              0.2128  Tot=              0.3699
 Quadrupole moment (field-independent basis, Debye-Ang):
   XX=            -59.2197   YY=            -61.1444   ZZ=            -73.6023
   XY=             -0.2711   XZ=             -0.4706   YZ=             -0.3697

 Normal termination of Gaussian 16 at Thu Dec  7 05:06:10 2023.
