 Gaussian 16, Revision B.01,
 Gaussian 16:  ES64L-G16RevB.01 20-Dec-2017

 -------------------------
 #P B3LYP/6-311+g(d) force
 -------------------------

 -----
 DPGEN
 -----
 Symbolic Z-matrix:
 Charge =  0 Multiplicity = 2

                         Standard orientation:
 ---------------------------------------------------------------------
 Center     Atomic      Atomic             Coordinates (Angstroms)
 Number     Number       Type             X           Y           Z
 ---------------------------------------------------------------------
      1         11           0        0.199509    1.742081   -0.006507
      2         11           0        2.620076    3.529921   -0.437517
      3         11           0        2.835141    0.003775    0.991344
      4         11           0        2.862272   -2.804339   -0.909843
      5         11           0        0.388815   -2.141006    0.718685
      6         11           0       -2.991872   -0.924634   -0.494344
      7         11           0       -5.913941    0.594202    0.138183
 ---------------------------------------------------------------------

 SCF Done:  E(UB3LYP) =  -1136.11802009     A.U. after   21 cycles

 The electronic state is 2-A.
 Alpha  occ. eigenvalues --  -38.45058 -38.44506 -38.44445 -38.44198 -38.43858
 Alpha  occ. eigenvalues --  -38.43557 -38.42893  -2.20931  -2.20362  -2.20269
 Alpha  occ. eigenvalues --   -2.20068  -2.19767  -2.19358  -2.18678  -1.14659
 Alpha  occ. eigenvalues --   -1.14621  -1.14513  -1.14059  -1.14005  -1.13994
 Alpha  occ. eigenvalues --   -1.13985  -1.13920  -1.13900  -1.13759  -1.13741
 Alpha  occ. eigenvalues --   -1.13636  -1.13465  -1.13430  -1.13359  -1.12996
 Alpha  occ. eigenvalues --   -1.12995  -1.12980  -1.12370  -1.12359  -1.12322
 Alpha  occ. eigenvalues --   -0.17437  -0.13330  -0.13074  -0.10363
 Alpha virt. eigenvalues --   -0.06692  -0.05327  -0.04714  -0.03672  -0.02845
 Alpha virt. eigenvalues --   -0.02335  -0.01882  -0.01373  -0.01035  -0.00845
 Alpha virt. eigenvalues --   -0.00374  -0.00203   0.00367   0.00434   0.00512

  Beta  occ. eigenvalues --  -38.45045 -38.44474 -38.44440 -38.44178 -38.43828
  Beta  occ. eigenvalues --  -38.43463 -38.42900  -2.20910  -2.20304  -2.20258
  Beta  occ. eigenvalues --   -2.20033  -2.19713  -2.19183  -2.18698  -1.14627
  Beta  occ. eigenvalues --   -1.14606  -1.14498  -1.14020  -1.13985  -1.13965
  Beta  occ. eigenvalues --   -1.13940  -1.13912  -1.13890  -1.13736  -1.13719
  Beta  occ. eigenvalues --   -1.13602  -1.13431  -1.13398  -1.13295  -1.12876
  Beta  occ. eigenvalues --   -1.12875  -1.12868  -1.12391  -1.12379  -1.12280
  Beta  occ. eigenvalues --   -0.16957  -0.13203  -0.12254
  Beta virt. eigenvalues --   -0.07003  -0.06498  -0.05009  -0.04339  -0.03295
  Beta virt. eigenvalues --   -0.02738  -0.02020  -0.01720  -0.01188  -0.00776
  Beta virt. eigenvalues --   -0.00518  -0.00104   0.00158   0.00482   0.00521

 Mulliken charges and spin densities:
               1          2
     1  Na  -1.311530  -0.077236
     2  Na   1.213417   0.157586
     3  Na   0.018370   0.283554
     4  Na   0.416975   0.232301
     5  Na  -0.222292  -0.061142
     6  Na  -0.285894   0.082914
     7  Na   0.170953   0.382023
 Sum of Mulliken charges =  -0.00000   1.00000

 Dipole moment (field-independent basis, Debye):
    X=              2.9998    Y=              0.4160    Z=             -0.2496  Tot=              3.0387
 Quadrupole moment (field-independent basis, Debye-Ang):
   XX=            -73.3576   YY=            -60.0070   ZZ=            -67.5662
   XY=              1.0436   XZ=             -2.5581   YZ=              0.9295

 Normal termination of Gaussian 16 at Tue Nov 28 20:32:30 2023.
