 Gaussian 16, Revision B.01,
 Gaussian 16:  ES64L-G16RevB.01 20-Dec-2017

 -------------------------
 #P B3LYP/6-311+g(d) force
 -------------------------

 -----
 DPGEN
 -----
 Symbolic Z-matrix:
 Charge =  0 Multiplicity = 2

                         Standard orientation:
 ---------------------------------------------------------------------
 Center     Atomic      Atomic             Coordinates (Angstroms)
 Number     Number       Type             X           Y           Z
 ---------------------------------------------------------------------
      1         11           0       -2.741758    1.767183   -0.363642
      2         11           0        3.149253    1.053874    1.209786
      3         11           0       -0.699351   -1.626824   -1.480988
      4         11           0        0.743844   -1.222721    1.782412
      5         11           0        2.708844   -0.565887   -1.544771
      6         11           0       -0.032766    1.515268   -0.562622
      7         11           0       -3.128066   -0.920893    0.959825
 ---------------------------------------------------------------------

 SCF Done:  E(UB3LYP) =  -1136.11574138     A.U. after   25 cycles

 The electronic state is 2-A.
 Alpha  occ. eigenvalues --  -38.44952 -38.44951 -38.44339 -38.44071 -38.43520
 Alpha  occ. eigenvalues --  -38.43308 -38.43304  -2.20810  -2.20799  -2.20202
 Alpha  occ. eigenvalues --   -2.19921  -2.19492  -2.19235  -2.19188  -1.14488
 Alpha  occ. eigenvalues --   -1.14483  -1.14465  -1.14462  -1.14439  -1.14412
 Alpha  occ. eigenvalues --   -1.13873  -1.13854  -1.13828  -1.13616  -1.13565
 Alpha  occ. eigenvalues --   -1.13527  -1.13400  -1.13157  -1.13142  -1.12886
 Alpha  occ. eigenvalues --   -1.12871  -1.12829  -1.12823  -1.12809  -1.12787
 Alpha  occ. eigenvalues --   -0.18717  -0.14457  -0.11720  -0.10889
 Alpha virt. eigenvalues --   -0.06859  -0.05035  -0.04861  -0.03265  -0.02738
 Alpha virt. eigenvalues --   -0.02496  -0.02334  -0.01035  -0.00676  -0.00002
 Alpha virt. eigenvalues --    0.00147   0.00197   0.00309   0.00575   0.00821

  Beta  occ. eigenvalues --  -38.44933 -38.44913 -38.44306 -38.44020 -38.43494
  Beta  occ. eigenvalues --  -38.43306 -38.43272  -2.20765  -2.20742  -2.20142
  Beta  occ. eigenvalues --   -2.19827  -2.19450  -2.19240  -2.19126  -1.14465
  Beta  occ. eigenvalues --   -1.14436  -1.14424  -1.14411  -1.14393  -1.14392
  Beta  occ. eigenvalues --   -1.13822  -1.13814  -1.13784  -1.13554  -1.13499
  Beta  occ. eigenvalues --   -1.13450  -1.13384  -1.13122  -1.13089  -1.12870
  Beta  occ. eigenvalues --   -1.12844  -1.12831  -1.12784  -1.12778  -1.12743
  Beta  occ. eigenvalues --   -0.18018  -0.14215  -0.10726
  Beta virt. eigenvalues --   -0.07767  -0.06635  -0.04813  -0.04295  -0.02954
  Beta virt. eigenvalues --   -0.02354  -0.02103  -0.01748  -0.00668  -0.00520
  Beta virt. eigenvalues --    0.00072   0.00192   0.00281   0.00416   0.00684

 Mulliken charges and spin densities:
               1          2
     1  Na  -0.420080  -0.162955
     2  Na   0.990925   0.079430
     3  Na  -0.013322   0.169066
     4  Na  -0.817090   0.293635
     5  Na   0.296206  -0.002226
     6  Na  -0.664371   0.435486
     7  Na   0.627733   0.187562
 Sum of Mulliken charges =  -0.00000   1.00000

 Dipole moment (field-independent basis, Debye):
    X=              0.6760    Y=             -0.7866    Z=              0.2632  Tot=              1.0700
 Quadrupole moment (field-independent basis, Debye-Ang):
   XX=            -49.0871   YY=            -79.9915   ZZ=            -66.5067
   XY=              2.6458   XZ=             -2.8840   YZ=              2.0455

 Normal termination of Gaussian 16 at Thu Dec  7 16:43:16 2023.
