 Gaussian 16, Revision B.01,
 Gaussian 16:  ES64L-G16RevB.01 20-Dec-2017

 -------------------------
 #P B3LYP/6-311+g(d) force
 -------------------------

 -----
 DPGEN
 -----
 Symbolic Z-matrix:
 Charge =  0 Multiplicity = 2

                         Standard orientation:
 ---------------------------------------------------------------------
 Center     Atomic      Atomic             Coordinates (Angstroms)
 Number     Number       Type             X           Y           Z
 ---------------------------------------------------------------------
      1         11           0        3.223821   -0.096246   -0.795272
      2         11           0       -1.405873   -1.910013   -0.766793
      3         11           0        1.391631    3.175032    0.246034
      4         11           0       -1.200177    1.666146   -1.071237
      5         11           0       -3.769182    0.032235    0.196108
      6         11           0        0.137757    0.014601    1.992370
      7         11           0        1.622022   -2.881756    0.198790
 ---------------------------------------------------------------------

 SCF Done:  E(UB3LYP) =  -1136.12798589     A.U. after   21 cycles

 The electronic state is 2-A.
 Alpha  occ. eigenvalues --  -38.44673 -38.44523 -38.44107 -38.43930 -38.43642
 Alpha  occ. eigenvalues --  -38.43447 -38.43409  -2.20503  -2.20308  -2.19975
 Alpha  occ. eigenvalues --   -2.19796  -2.19445  -2.19282  -2.19264  -1.14181
 Alpha  occ. eigenvalues --   -1.14162  -1.14148  -1.13980  -1.13959  -1.13932
 Alpha  occ. eigenvalues --   -1.13670  -1.13645  -1.13602  -1.13489  -1.13474
 Alpha  occ. eigenvalues --   -1.13420  -1.13118  -1.13097  -1.13087  -1.12958
 Alpha  occ. eigenvalues --   -1.12942  -1.12934  -1.12927  -1.12897  -1.12868
 Alpha  occ. eigenvalues --   -0.17814  -0.13467  -0.12574  -0.10093
 Alpha virt. eigenvalues --   -0.06530  -0.05410  -0.04974  -0.03246  -0.02890
 Alpha virt. eigenvalues --   -0.02336  -0.01946  -0.01220  -0.00951  -0.00580
 Alpha virt. eigenvalues --   -0.00016   0.00227   0.00593   0.00633   0.00791

  Beta  occ. eigenvalues --  -38.44673 -38.44477 -38.44101 -38.43916 -38.43643
  Beta  occ. eigenvalues --  -38.43446 -38.43304  -2.20505  -2.20224  -2.19966
  Beta  occ. eigenvalues --   -2.19772  -2.19448  -2.19283  -2.19072  -1.14185
  Beta  occ. eigenvalues --   -1.14164  -1.14133  -1.13919  -1.13903  -1.13871
  Beta  occ. eigenvalues --   -1.13665  -1.13625  -1.13590  -1.13475  -1.13444
  Beta  occ. eigenvalues --   -1.13403  -1.13121  -1.13091  -1.13083  -1.12963
  Beta  occ. eigenvalues --   -1.12942  -1.12904  -1.12799  -1.12770  -1.12729
  Beta  occ. eigenvalues --   -0.17223  -0.13084  -0.12458
  Beta virt. eigenvalues --   -0.06481  -0.06241  -0.05331  -0.04907  -0.02649
  Beta virt. eigenvalues --   -0.02255  -0.01996  -0.01344  -0.01169  -0.00875
  Beta virt. eigenvalues --   -0.00456   0.00165   0.00337   0.00650   0.00735

 Mulliken charges and spin densities:
               1          2
     1  Na  -0.227913   0.181239
     2  Na  -0.255314   0.002049
     3  Na   0.302748   0.049272
     4  Na  -0.389720   0.106018
     5  Na   0.729548   0.021391
     6  Na  -0.559197   0.513630
     7  Na   0.399848   0.126400
 Sum of Mulliken charges =  -0.00000   1.00000

 Dipole moment (field-independent basis, Debye):
    X=             -0.8090    Y=              0.1088    Z=              0.2176  Tot=              0.8448
 Quadrupole moment (field-independent basis, Debye-Ang):
   XX=            -57.2519   YY=            -64.2923   ZZ=            -74.5044
   XY=              1.1892   XZ=             -1.3120   YZ=              0.6015

 Normal termination of Gaussian 16 at Fri Dec  8 05:29:01 2023.
