 Gaussian 16, Revision B.01,
 Gaussian 16:  ES64L-G16RevB.01 20-Dec-2017

 -------------------------
 #P B3LYP/6-311+g(d) force
 -------------------------

 -----
 DPGEN
 -----
 Symbolic Z-matrix:
 Charge =  0 Multiplicity = 2

                         Standard orientation:
 ---------------------------------------------------------------------
 Center     Atomic      Atomic             Coordinates (Angstroms)
 Number     Number       Type             X           Y           Z
 ---------------------------------------------------------------------
      1         11           0       -0.023600    0.368854    1.876193
      2         11           0       -1.356933   -2.272059    0.377288
      3         11           0        2.980696    0.843429    0.317591
      4         11           0        0.109059   -0.042167   -1.839774
      5         11           0       -0.378886    2.960326   -0.299596
      6         11           0       -3.011724    0.284980   -0.090042
      7         11           0        1.681388   -2.143363   -0.341658
 ---------------------------------------------------------------------

 SCF Done:  E(UB3LYP) =  -1136.13543348     A.U. after   19 cycles

 The electronic state is 2-A.
 Alpha  occ. eigenvalues --  -38.44018 -38.43931 -38.43520 -38.43478 -38.43456
 Alpha  occ. eigenvalues --  -38.43213 -38.43057  -2.19854  -2.19797  -2.19440
 Alpha  occ. eigenvalues --   -2.19427  -2.19351  -2.19156  -2.19011  -1.13537
 Alpha  occ. eigenvalues --   -1.13515  -1.13501  -1.13488  -1.13459  -1.13428
 Alpha  occ. eigenvalues --   -1.13178  -1.13120  -1.13092  -1.13082  -1.13055
 Alpha  occ. eigenvalues --   -1.13047  -1.13014  -1.12995  -1.12973  -1.12857
 Alpha  occ. eigenvalues --   -1.12811  -1.12777  -1.12675  -1.12655  -1.12626
 Alpha  occ. eigenvalues --   -0.19150  -0.13065  -0.12571  -0.11118
 Alpha virt. eigenvalues --   -0.05663  -0.04776  -0.04485  -0.03293  -0.03117
 Alpha virt. eigenvalues --   -0.02689  -0.01465  -0.00980  -0.00161  -0.00061
 Alpha virt. eigenvalues --    0.00110   0.00375   0.00879   0.00922   0.00972

  Beta  occ. eigenvalues --  -38.44011 -38.43928 -38.43514 -38.43400 -38.43374
  Beta  occ. eigenvalues --  -38.43203 -38.43046  -2.19843  -2.19794  -2.19343
  Beta  occ. eigenvalues --   -2.19291  -2.19282  -2.19141  -2.18995  -1.13524
  Beta  occ. eigenvalues --   -1.13502  -1.13493  -1.13485  -1.13436  -1.13424
  Beta  occ. eigenvalues --   -1.13086  -1.13054  -1.13018  -1.13006  -1.12973
  Beta  occ. eigenvalues --   -1.12962  -1.12942  -1.12939  -1.12937  -1.12845
  Beta  occ. eigenvalues --   -1.12779  -1.12746  -1.12666  -1.12634  -1.12595
  Beta  occ. eigenvalues --   -0.18393  -0.12806  -0.12299
  Beta virt. eigenvalues --   -0.07172  -0.05644  -0.04726  -0.04483  -0.02489
  Beta virt. eigenvalues --   -0.02306  -0.01634  -0.01378  -0.00902  -0.00201
  Beta virt. eigenvalues --   -0.00005   0.00138   0.00391   0.00882   0.00939

 Mulliken charges and spin densities:
               1          2
     1  Na  -0.353331   0.579987
     2  Na   0.213232   0.061832
     3  Na   0.046199  -0.084351
     4  Na  -0.319196   0.549889
     5  Na  -0.051157  -0.123225
     6  Na   0.083456  -0.068460
     7  Na   0.380797   0.084328
 Sum of Mulliken charges =  -0.00000   1.00000

 Dipole moment (field-independent basis, Debye):
    X=              0.0681    Y=              0.4687    Z=              0.0429  Tot=              0.4756
 Quadrupole moment (field-independent basis, Debye-Ang):
   XX=            -57.7942   YY=            -64.0050   ZZ=            -72.5055
   XY=              0.0604   XZ=              0.5798   YZ=             -0.7981

 Normal termination of Gaussian 16 at Thu Dec  7 05:37:22 2023.
