 Gaussian 16, Revision B.01,
 Gaussian 16:  ES64L-G16RevB.01 20-Dec-2017

 -------------------------
 #P B3LYP/6-311+g(d) force
 -------------------------

 -----
 DPGEN
 -----
 Symbolic Z-matrix:
 Charge =  0 Multiplicity = 2

                         Standard orientation:
 ---------------------------------------------------------------------
 Center     Atomic      Atomic             Coordinates (Angstroms)
 Number     Number       Type             X           Y           Z
 ---------------------------------------------------------------------
      1         11           0        3.104560    0.749149    0.130398
      2         11           0        0.138218    3.177482    0.099772
      3         11           0       -3.146172    1.206877   -0.063866
      4         11           0        0.045245   -0.381458    1.854191
      5         11           0       -0.398402    0.176569   -1.659024
      6         11           0        2.377660   -2.074890   -0.473712
      7         11           0       -2.121108   -2.853729    0.112241
 ---------------------------------------------------------------------

 SCF Done:  E(UB3LYP) =  -1136.12927678     A.U. after   20 cycles

 The electronic state is 2-A.
 Alpha  occ. eigenvalues --  -38.44889 -38.44179 -38.44010 -38.43968 -38.43634
 Alpha  occ. eigenvalues --  -38.43477 -38.43401  -2.20669  -2.19929  -2.19866
 Alpha  occ. eigenvalues --   -2.19817  -2.19427  -2.19369  -2.19267  -1.14358
 Alpha  occ. eigenvalues --   -1.14329  -1.14289  -1.13680  -1.13605  -1.13587
 Alpha  occ. eigenvalues --   -1.13572  -1.13522  -1.13506  -1.13460  -1.13445
 Alpha  occ. eigenvalues --   -1.13397  -1.13115  -1.13094  -1.13067  -1.13060
 Alpha  occ. eigenvalues --   -1.13003  -1.12985  -1.12949  -1.12901  -1.12873
 Alpha  occ. eigenvalues --   -0.17961  -0.13196  -0.12070  -0.10156
 Alpha virt. eigenvalues --   -0.06182  -0.05612  -0.04871  -0.03170  -0.02644
 Alpha virt. eigenvalues --   -0.02167  -0.01868  -0.01572  -0.00796  -0.00666
 Alpha virt. eigenvalues --   -0.00028   0.00318   0.00684   0.00723   0.00810

  Beta  occ. eigenvalues --  -38.44884 -38.44179 -38.44006 -38.43952 -38.43630
  Beta  occ. eigenvalues --  -38.43418 -38.43320  -2.20662  -2.19931  -2.19862
  Beta  occ. eigenvalues --   -2.19791  -2.19423  -2.19262  -2.19116  -1.14340
  Beta  occ. eigenvalues --   -1.14320  -1.14288  -1.13673  -1.13594  -1.13588
  Beta  occ. eigenvalues --   -1.13576  -1.13507  -1.13493  -1.13433  -1.13419
  Beta  occ. eigenvalues --   -1.13385  -1.13105  -1.13081  -1.13056  -1.12988
  Beta  occ. eigenvalues --   -1.12925  -1.12911  -1.12846  -1.12798  -1.12760
  Beta  occ. eigenvalues --   -0.17282  -0.12956  -0.11866
  Beta virt. eigenvalues --   -0.06461  -0.06070  -0.05509  -0.04811  -0.02452
  Beta virt. eigenvalues --   -0.01998  -0.01756  -0.01510  -0.01179  -0.00844
  Beta virt. eigenvalues --   -0.00660   0.00127   0.00367   0.00698   0.00791

 Mulliken charges and spin densities:
               1          2
     1  Na   0.113383   0.011714
     2  Na  -0.056438  -0.055706
     3  Na   0.083043  -0.122830
     4  Na  -0.225639   0.754948
     5  Na   0.008105   0.501945
     6  Na   0.150018   0.045252
     7  Na  -0.072473  -0.135322
 Sum of Mulliken charges =  -0.00000   1.00000

 Dipole moment (field-independent basis, Debye):
    X=             -0.5484    Y=              0.0484    Z=              0.0300  Tot=              0.5514
 Quadrupole moment (field-independent basis, Debye-Ang):
   XX=            -54.8428   YY=            -60.3987   ZZ=            -77.3004
   XY=              0.0902   XZ=             -0.7326   YZ=              1.6709

 Normal termination of Gaussian 16 at Wed Nov 29 16:16:59 2023.
