 Gaussian 16, Revision B.01,
 Gaussian 16:  ES64L-G16RevB.01 20-Dec-2017

 -------------------------
 #P B3LYP/6-311+g(d) force
 -------------------------

 -----
 DPGEN
 -----
 Symbolic Z-matrix:
 Charge =  0 Multiplicity = 2

                         Standard orientation:
 ---------------------------------------------------------------------
 Center     Atomic      Atomic             Coordinates (Angstroms)
 Number     Number       Type             X           Y           Z
 ---------------------------------------------------------------------
      1         11           0       -1.414952    2.997404   -0.721516
      2         11           0        3.631104   -0.982169   -0.909920
      3         11           0       -1.635685    0.015076    1.438116
      4         11           0        1.546952    1.884743    0.971829
      5         11           0       -3.436339   -2.041927   -0.432783
      6         11           0       -0.021165   -0.289556   -1.557588
      7         11           0        1.330086   -1.583572    1.211861
 ---------------------------------------------------------------------

 SCF Done:  E(UB3LYP) =  -1136.12930134     A.U. after   21 cycles

 The electronic state is 2-A.
 Alpha  occ. eigenvalues --  -38.44214 -38.44139 -38.43961 -38.43878 -38.43690
 Alpha  occ. eigenvalues --  -38.43388 -38.43228  -2.20037  -2.20022  -2.19735
 Alpha  occ. eigenvalues --   -2.19719  -2.19613  -2.19192  -2.19148  -1.13754
 Alpha  occ. eigenvalues --   -1.13714  -1.13687  -1.13676  -1.13656  -1.13624
 Alpha  occ. eigenvalues --   -1.13415  -1.13414  -1.13393  -1.13391  -1.13369
 Alpha  occ. eigenvalues --   -1.13332  -1.13303  -1.13257  -1.13223  -1.12863
 Alpha  occ. eigenvalues --   -1.12860  -1.12853  -1.12822  -1.12801  -1.12741
 Alpha  occ. eigenvalues --   -0.18309  -0.13207  -0.11731  -0.10856
 Alpha virt. eigenvalues --   -0.06235  -0.05400  -0.04353  -0.03225  -0.02600
 Alpha virt. eigenvalues --   -0.02410  -0.01983  -0.01358  -0.00944  -0.00037
 Alpha virt. eigenvalues --    0.00196   0.00339   0.00490   0.00575   0.00715

  Beta  occ. eigenvalues --  -38.44192 -38.44091 -38.43962 -38.43855 -38.43650
  Beta  occ. eigenvalues --  -38.43375 -38.43190  -2.19997  -2.19933  -2.19736
  Beta  occ. eigenvalues --   -2.19682  -2.19546  -2.19168  -2.19084  -1.13692
  Beta  occ. eigenvalues --   -1.13683  -1.13654  -1.13645  -1.13592  -1.13560
  Beta  occ. eigenvalues --   -1.13416  -1.13391  -1.13384  -1.13369  -1.13341
  Beta  occ. eigenvalues --   -1.13309  -1.13263  -1.13188  -1.13165  -1.12844
  Beta  occ. eigenvalues --   -1.12830  -1.12817  -1.12806  -1.12734  -1.12696
  Beta  occ. eigenvalues --   -0.17526  -0.13019  -0.11590
  Beta virt. eigenvalues --   -0.06979  -0.06040  -0.05243  -0.04027  -0.02885
  Beta virt. eigenvalues --   -0.02175  -0.01947  -0.01446  -0.01206  -0.00615
  Beta virt. eigenvalues --    0.00013   0.00222   0.00404   0.00615   0.00695

 Mulliken charges and spin densities:
               1          2
     1  Na  -0.068602  -0.060594
     2  Na   0.337543   0.079149
     3  Na   0.423411   0.077230
     4  Na  -0.094210   0.106857
     5  Na  -0.056628  -0.023671
     6  Na  -0.562137   0.626544
     7  Na   0.020622   0.194484
 Sum of Mulliken charges =  -0.00000   1.00000

 Dipole moment (field-independent basis, Debye):
    X=              0.4956    Y=              0.0757    Z=             -0.1970  Tot=              0.5387
 Quadrupole moment (field-independent basis, Debye-Ang):
   XX=            -53.9452   YY=            -67.8285   ZZ=            -70.5921
   XY=             -0.0751   XZ=              0.7603   YZ=              0.7007

 Normal termination of Gaussian 16 at Tue Dec  5 19:39:45 2023.
