 Gaussian 16, Revision B.01,
 Gaussian 16:  ES64L-G16RevB.01 20-Dec-2017

 -------------------------
 #P B3LYP/6-311+g(d) force
 -------------------------

 -----
 DPGEN
 -----
 Symbolic Z-matrix:
 Charge =  0 Multiplicity = 2

                         Standard orientation:
 ---------------------------------------------------------------------
 Center     Atomic      Atomic             Coordinates (Angstroms)
 Number     Number       Type             X           Y           Z
 ---------------------------------------------------------------------
      1         11           0       -2.561433    2.586410    0.229788
      2         11           0       -4.549753   -0.522866   -0.338670
      3         11           0        3.944769    1.621693   -0.043409
      4         11           0        3.569022   -1.554959   -0.599511
      5         11           0       -2.152252   -2.438902   -0.165400
      6         11           0        1.187047   -3.241727    0.779292
      7         11           0        0.562600    3.550352    0.137911
 ---------------------------------------------------------------------

 SCF Done:  E(UB3LYP) =  -1136.11178825     A.U. after   21 cycles

 The electronic state is 2-A.
 Alpha  occ. eigenvalues --  -38.44970 -38.44877 -38.44806 -38.44491 -38.44184
 Alpha  occ. eigenvalues --  -38.44112 -38.43815  -2.20770  -2.20661  -2.20616
 Alpha  occ. eigenvalues --   -2.20293  -2.19963  -2.19950  -2.19639  -1.14448
 Alpha  occ. eigenvalues --   -1.14444  -1.14433  -1.14335  -1.14334  -1.14295
 Alpha  occ. eigenvalues --   -1.14292  -1.14285  -1.14279  -1.13945  -1.13939
 Alpha  occ. eigenvalues --   -1.13915  -1.13633  -1.13632  -1.13614  -1.13596
 Alpha  occ. eigenvalues --   -1.13588  -1.13571  -1.13289  -1.13281  -1.13276
 Alpha  occ. eigenvalues --   -0.15826  -0.14280  -0.13451  -0.11028
 Alpha virt. eigenvalues --   -0.07453  -0.04520  -0.04486  -0.03610  -0.03501
 Alpha virt. eigenvalues --   -0.02607  -0.02115  -0.01983  -0.01241  -0.00612
 Alpha virt. eigenvalues --   -0.00324  -0.00194   0.00061   0.00525   0.00694

  Beta  occ. eigenvalues --  -38.44955 -38.44842 -38.44799 -38.44431 -38.44165
  Beta  occ. eigenvalues --  -38.44063 -38.43760  -2.20749  -2.20611  -2.20602
  Beta  occ. eigenvalues --   -2.20184  -2.19932  -2.19859  -2.19537  -1.14438
  Beta  occ. eigenvalues --   -1.14428  -1.14381  -1.14297  -1.14294  -1.14293
  Beta  occ. eigenvalues --   -1.14285  -1.14242  -1.14223  -1.13871  -1.13867
  Beta  occ. eigenvalues --   -1.13840  -1.13615  -1.13611  -1.13555  -1.13549
  Beta  occ. eigenvalues --   -1.13526  -1.13513  -1.13225  -1.13212  -1.13204
  Beta  occ. eigenvalues --   -0.15264  -0.13552  -0.12629
  Beta virt. eigenvalues --   -0.07879  -0.07613  -0.04128  -0.04030  -0.03252
  Beta virt. eigenvalues --   -0.03160  -0.02385  -0.01889  -0.01856  -0.01085
  Beta virt. eigenvalues --   -0.00320   0.00025   0.00038   0.00249   0.00486

 Mulliken charges and spin densities:
               1          2
     1  Na   0.090605   0.175458
     2  Na   0.950965   0.205269
     3  Na   0.062655   0.293136
     4  Na  -0.179274   0.025695
     5  Na  -0.607745   0.171141
     6  Na  -0.217606   0.205883
     7  Na  -0.099599  -0.076582
 Sum of Mulliken charges =  -0.00000   1.00000

 Dipole moment (field-independent basis, Debye):
    X=             -0.2730    Y=              0.0499    Z=             -0.0491  Tot=              0.2818
 Quadrupole moment (field-independent basis, Debye-Ang):
   XX=            -58.9732   YY=            -68.3750   ZZ=            -72.5115
   XY=             -1.1405   XZ=             -0.2116   YZ=              0.5798

 Normal termination of Gaussian 16 at Sun Dec  3 20:38:20 2023.
