 Gaussian 16, Revision B.01,
 Gaussian 16:  ES64L-G16RevB.01 20-Dec-2017

 -------------------------
 #P B3LYP/6-311+g(d) force
 -------------------------

 -----
 DPGEN
 -----
 Symbolic Z-matrix:
 Charge =  0 Multiplicity = 2

                         Standard orientation:
 ---------------------------------------------------------------------
 Center     Atomic      Atomic             Coordinates (Angstroms)
 Number     Number       Type             X           Y           Z
 ---------------------------------------------------------------------
      1         11           0       -3.580037   -1.636524    0.256704
      2         11           0       -0.427389   -0.131441    2.152323
      3         11           0        3.274373   -1.790768    0.629705
      4         11           0        0.671650   -1.663449   -1.445977
      5         11           0        2.102560    1.195750   -0.726803
      6         11           0       -0.067031    3.408562    0.297227
      7         11           0       -1.974126    0.617869   -1.163178
 ---------------------------------------------------------------------

 SCF Done:  E(UB3LYP) =  -1136.12880827     A.U. after   19 cycles

 The electronic state is 2-A.
 Alpha  occ. eigenvalues --  -38.44540 -38.44289 -38.44158 -38.44013 -38.43744
 Alpha  occ. eigenvalues --  -38.43566 -38.42924  -2.20340  -2.20083  -2.19968
 Alpha  occ. eigenvalues --   -2.19883  -2.19625  -2.19455  -2.18741  -1.14008
 Alpha  occ. eigenvalues --   -1.13972  -1.13953  -1.13787  -1.13733  -1.13722
 Alpha  occ. eigenvalues --   -1.13648  -1.13628  -1.13617  -1.13594  -1.13536
 Alpha  occ. eigenvalues --   -1.13473  -1.13322  -1.13300  -1.13232  -1.13147
 Alpha  occ. eigenvalues --   -1.13119  -1.13062  -1.12416  -1.12396  -1.12384
 Alpha  occ. eigenvalues --   -0.17919  -0.13284  -0.11964  -0.10880
 Alpha virt. eigenvalues --   -0.06270  -0.05202  -0.04407  -0.03594  -0.02812
 Alpha virt. eigenvalues --   -0.02758  -0.01908  -0.01320  -0.00641  -0.00244
 Alpha virt. eigenvalues --    0.00210   0.00285   0.00532   0.00613   0.00763

  Beta  occ. eigenvalues --  -38.44447 -38.44295 -38.44152 -38.43970 -38.43731
  Beta  occ. eigenvalues --  -38.43539 -38.42925  -2.20168  -2.20095  -2.19958
  Beta  occ. eigenvalues --   -2.19808  -2.19604  -2.19408  -2.18744  -1.13891
  Beta  occ. eigenvalues --   -1.13850  -1.13830  -1.13795  -1.13737  -1.13724
  Beta  occ. eigenvalues --   -1.13640  -1.13619  -1.13599  -1.13541  -1.13475
  Beta  occ. eigenvalues --   -1.13421  -1.13299  -1.13269  -1.13223  -1.13113
  Beta  occ. eigenvalues --   -1.13069  -1.13033  -1.12421  -1.12390  -1.12384
  Beta  occ. eigenvalues --   -0.17170  -0.13179  -0.11853
  Beta virt. eigenvalues --   -0.06980  -0.05983  -0.05082  -0.04316  -0.03025
  Beta virt. eigenvalues --   -0.02222  -0.01925  -0.01678  -0.01194  -0.00553
  Beta virt. eigenvalues --   -0.00106   0.00277   0.00348   0.00681   0.00736

 Mulliken charges and spin densities:
               1          2
     1  Na   0.166374  -0.151195
     2  Na  -0.672410   0.777769
     3  Na   0.322805  -0.040160
     4  Na   0.030743   0.074137
     5  Na  -0.293879   0.209738
     6  Na   0.490624  -0.139620
     7  Na  -0.044259   0.269330
 Sum of Mulliken charges =  -0.00000   1.00000

 Dipole moment (field-independent basis, Debye):
    X=              0.0704    Y=             -0.7305    Z=              0.3238  Tot=              0.8021
 Quadrupole moment (field-independent basis, Debye-Ang):
   XX=            -56.4197   YY=            -65.7899   ZZ=            -71.9649
   XY=             -0.0194   XZ=              0.9546   YZ=             -1.0702

 Normal termination of Gaussian 16 at Thu Dec  7 07:08:44 2023.
