 Gaussian 16, Revision B.01,
 Gaussian 16:  ES64L-G16RevB.01 20-Dec-2017

 -------------------------
 #P B3LYP/6-311+g(d) force
 -------------------------

 -----
 DPGEN
 -----
 Symbolic Z-matrix:
 Charge =  0 Multiplicity = 2

                         Standard orientation:
 ---------------------------------------------------------------------
 Center     Atomic      Atomic             Coordinates (Angstroms)
 Number     Number       Type             X           Y           Z
 ---------------------------------------------------------------------
      1         11           0       -0.164373    1.030677    0.940787
      2         11           0        6.478317    0.028458    1.036721
      3         11           0        4.039481    0.081504   -0.974719
      4         11           0        0.878693   -2.333727   -0.601415
      5         11           0       -3.051486   -0.957115   -0.328823
      6         11           0       -1.847960    2.765477   -0.793494
      7         11           0       -6.332673   -0.615273    0.720943
 ---------------------------------------------------------------------

 SCF Done:  E(UB3LYP) =  -1136.10447099     A.U. after   22 cycles

 The electronic state is 2-A.
 Alpha  occ. eigenvalues --  -38.45753 -38.45465 -38.44683 -38.44556 -38.44329
 Alpha  occ. eigenvalues --  -38.43423 -38.43002  -2.21539  -2.21301  -2.20523
 Alpha  occ. eigenvalues --   -2.20348  -2.20110  -2.19221  -2.18747  -1.15190
 Alpha  occ. eigenvalues --   -1.15156  -1.15153  -1.14999  -1.14931  -1.14908
 Alpha  occ. eigenvalues --   -1.14208  -1.14175  -1.14157  -1.14018  -1.13994
 Alpha  occ. eigenvalues --   -1.13992  -1.13786  -1.13773  -1.13738  -1.12923
 Alpha  occ. eigenvalues --   -1.12898  -1.12822  -1.12422  -1.12420  -1.12385
 Alpha  occ. eigenvalues --   -0.16604  -0.13839  -0.12139  -0.11114
 Alpha virt. eigenvalues --   -0.06511  -0.05963  -0.04824  -0.03478  -0.03106
 Alpha virt. eigenvalues --   -0.02667  -0.02028  -0.01850  -0.01179  -0.00961
 Alpha virt. eigenvalues --   -0.00700  -0.00494   0.00012   0.00242   0.00482

  Beta  occ. eigenvalues --  -38.45643 -38.45392 -38.44680 -38.44514 -38.44336
  Beta  occ. eigenvalues --  -38.43409 -38.43020  -2.21333  -2.21166  -2.20524
  Beta  occ. eigenvalues --   -2.20270  -2.20128  -2.19195  -2.18781  -1.15050
  Beta  occ. eigenvalues --   -1.15017  -1.15014  -1.14907  -1.14841  -1.14813
  Beta  occ. eigenvalues --   -1.14193  -1.14182  -1.14133  -1.13972  -1.13942
  Beta  occ. eigenvalues --   -1.13940  -1.13800  -1.13787  -1.13725  -1.12905
  Beta  occ. eigenvalues --   -1.12870  -1.12812  -1.12445  -1.12444  -1.12406
  Beta  occ. eigenvalues --   -0.15838  -0.13330  -0.10983
  Beta virt. eigenvalues --   -0.08524  -0.06184  -0.05602  -0.04323  -0.03283
  Beta virt. eigenvalues --   -0.02612  -0.02461  -0.01723  -0.01434  -0.01112
  Beta virt. eigenvalues --   -0.00792  -0.00382  -0.00257   0.00106   0.00333

 Mulliken charges and spin densities:
               1          2
     1  Na  -0.462417   0.049822
     2  Na   0.159481   0.180463
     3  Na  -0.262826  -0.041105
     4  Na   0.337346   0.476614
     5  Na  -0.464827   0.127382
     6  Na   0.506667   0.263877
     7  Na   0.186576  -0.057053
 Sum of Mulliken charges =  -0.00000   1.00000

 Dipole moment (field-independent basis, Debye):
    X=              2.0217    Y=              0.9341    Z=             -0.1634  Tot=              2.2330
 Quadrupole moment (field-independent basis, Debye-Ang):
   XX=            -75.7086   YY=            -66.4874   ZZ=            -65.9936
   XY=             -8.5801   XZ=              5.1821   YZ=             -1.5911

 Normal termination of Gaussian 16 at Tue Nov 28 21:31:55 2023.
