 Gaussian 16, Revision B.01,
 Gaussian 16:  ES64L-G16RevB.01 20-Dec-2017

 -------------------------
 #P B3LYP/6-311+g(d) force
 -------------------------

 -----
 DPGEN
 -----
 Symbolic Z-matrix:
 Charge =  0 Multiplicity = 2

                         Standard orientation:
 ---------------------------------------------------------------------
 Center     Atomic      Atomic             Coordinates (Angstroms)
 Number     Number       Type             X           Y           Z
 ---------------------------------------------------------------------
      1         11           0       -2.227803    1.970853    0.068403
      2         11           0        0.923541    2.764685   -0.153306
      3         11           0        0.514275   -0.260424   -1.784612
      4         11           0        0.896350   -2.937940    0.202506
      5         11           0        3.254362   -0.022593    0.098919
      6         11           0       -0.191636   -0.040838    1.906911
      7         11           0       -3.169089   -1.473743   -0.338821
 ---------------------------------------------------------------------

 SCF Done:  E(UB3LYP) =  -1136.13520052     A.U. after   20 cycles

 The electronic state is 2-A.
 Alpha  occ. eigenvalues --  -38.44437 -38.44358 -38.43856 -38.43601 -38.43455
 Alpha  occ. eigenvalues --  -38.43414 -38.43164  -2.20252  -2.20115  -2.19671
 Alpha  occ. eigenvalues --   -2.19452  -2.19368  -2.19307  -2.19029  -1.13935
 Alpha  occ. eigenvalues --   -1.13913  -1.13885  -1.13789  -1.13772  -1.13755
 Alpha  occ. eigenvalues --   -1.13359  -1.13345  -1.13293  -1.13148  -1.13123
 Alpha  occ. eigenvalues --   -1.13090  -1.13049  -1.13004  -1.12988  -1.12978
 Alpha  occ. eigenvalues --   -1.12931  -1.12926  -1.12705  -1.12687  -1.12666
 Alpha  occ. eigenvalues --   -0.18298  -0.12982  -0.12326  -0.10484
 Alpha virt. eigenvalues --   -0.06119  -0.05164  -0.04796  -0.03171  -0.02847
 Alpha virt. eigenvalues --   -0.02379  -0.01795  -0.01178  -0.00685  -0.00393
 Alpha virt. eigenvalues --   -0.00030   0.00340   0.00769   0.00793   0.00849

  Beta  occ. eigenvalues --  -38.44433 -38.44353 -38.43849 -38.43597 -38.43387
  Beta  occ. eigenvalues --  -38.43329 -38.43159  -2.20250  -2.20107  -2.19661
  Beta  occ. eigenvalues --   -2.19449  -2.19244  -2.19151  -2.19023  -1.13923
  Beta  occ. eigenvalues --   -1.13903  -1.13882  -1.13773  -1.13768  -1.13751
  Beta  occ. eigenvalues --   -1.13351  -1.13316  -1.13290  -1.13140  -1.13108
  Beta  occ. eigenvalues --   -1.13084  -1.12965  -1.12917  -1.12897  -1.12875
  Beta  occ. eigenvalues --   -1.12818  -1.12817  -1.12699  -1.12674  -1.12650
  Beta  occ. eigenvalues --   -0.17581  -0.12770  -0.12093
  Beta virt. eigenvalues --   -0.06669  -0.06053  -0.05105  -0.04747  -0.02431
  Beta virt. eigenvalues --   -0.02112  -0.01692  -0.01381  -0.01092  -0.00737
  Beta virt. eigenvalues --   -0.00436   0.00114   0.00369   0.00777   0.00841

 Mulliken charges and spin densities:
               1          2
     1  Na   0.093682  -0.027860
     2  Na   0.064578  -0.081989
     3  Na  -0.191953   0.717717
     4  Na   0.011212  -0.136859
     5  Na   0.250090  -0.073097
     6  Na  -0.156023   0.657970
     7  Na  -0.071586  -0.055883
 Sum of Mulliken charges =  -0.00000   1.00000

 Dipole moment (field-independent basis, Debye):
    X=              0.2271    Y=             -0.3606    Z=              0.0406  Tot=              0.4280
 Quadrupole moment (field-independent basis, Debye-Ang):
   XX=            -55.1479   YY=            -62.3502   ZZ=            -75.4776
   XY=              0.4960   XZ=              1.6389   YZ=             -0.2333

 Normal termination of Gaussian 16 at Tue Dec  5 18:54:06 2023.
