 Gaussian 16, Revision B.01,
 Gaussian 16:  ES64L-G16RevB.01 20-Dec-2017

 -------------------------
 #P B3LYP/6-311+g(d) force
 -------------------------

 -----
 DPGEN
 -----
 Symbolic Z-matrix:
 Charge =  0 Multiplicity = 2

                         Standard orientation:
 ---------------------------------------------------------------------
 Center     Atomic      Atomic             Coordinates (Angstroms)
 Number     Number       Type             X           Y           Z
 ---------------------------------------------------------------------
      1         11           0        2.188084   -0.986659   -0.827411
      2         11           0        4.762269   -1.476422    1.583104
      3         11           0        4.323847    1.793684    0.035718
      4         11           0        0.965669    1.805520   -0.920845
      5         11           0       -1.367509   -1.260767   -0.660364
      6         11           0       -4.739242   -0.910263   -0.755492
      7         11           0       -6.133118    1.034907    1.545290
 ---------------------------------------------------------------------

 SCF Done:  E(UB3LYP) =  -1136.11429583     A.U. after   22 cycles

 The electronic state is 2-A.
 Alpha  occ. eigenvalues --  -38.44657 -38.44427 -38.44334 -38.44302 -38.44087
 Alpha  occ. eigenvalues --  -38.43875 -38.43486  -2.20423  -2.20241  -2.20203
 Alpha  occ. eigenvalues --   -2.20187  -2.19880  -2.19680  -2.19299  -1.14081
 Alpha  occ. eigenvalues --   -1.14079  -1.14057  -1.14025  -1.13926  -1.13911
 Alpha  occ. eigenvalues --   -1.13892  -1.13864  -1.13856  -1.13813  -1.13787
 Alpha  occ. eigenvalues --   -1.13743  -1.13558  -1.13550  -1.13520  -1.13336
 Alpha  occ. eigenvalues --   -1.13333  -1.13289  -1.12976  -1.12966  -1.12909
 Alpha  occ. eigenvalues --   -0.16746  -0.14057  -0.11781  -0.11118
 Alpha virt. eigenvalues --   -0.07079  -0.05063  -0.04385  -0.03603  -0.02970
 Alpha virt. eigenvalues --   -0.02582  -0.02187  -0.01597  -0.01001  -0.00725
 Alpha virt. eigenvalues --   -0.00394  -0.00123  -0.00081   0.00305   0.00517

  Beta  occ. eigenvalues --  -38.44627 -38.44404 -38.44291 -38.44285 -38.44096
  Beta  occ. eigenvalues --  -38.43816 -38.43457  -2.20367  -2.20201  -2.20173
  Beta  occ. eigenvalues --   -2.20110  -2.19899  -2.19568  -2.19244  -1.14042
  Beta  occ. eigenvalues --   -1.14040  -1.14022  -1.13981  -1.13904  -1.13881
  Beta  occ. eigenvalues --   -1.13872  -1.13812  -1.13801  -1.13775  -1.13743
  Beta  occ. eigenvalues --   -1.13686  -1.13568  -1.13565  -1.13520  -1.13259
  Beta  occ. eigenvalues --   -1.13252  -1.13222  -1.12937  -1.12925  -1.12883
  Beta  occ. eigenvalues --   -0.16119  -0.13795  -0.11431
  Beta virt. eigenvalues --   -0.07647  -0.06594  -0.04771  -0.04032  -0.03441
  Beta virt. eigenvalues --   -0.02481  -0.02464  -0.01790  -0.01436  -0.00783
  Beta virt. eigenvalues --   -0.00453  -0.00090   0.00017   0.00096   0.00357

 Mulliken charges and spin densities:
               1          2
     1  Na  -0.506849   0.023496
     2  Na   0.237093   0.285285
     3  Na   0.396659   0.030156
     4  Na  -0.135433   0.325112
     5  Na  -0.544728   0.165656
     6  Na   0.489725   0.019502
     7  Na   0.063532   0.150793
 Sum of Mulliken charges =  -0.00000   1.00000

 Dipole moment (field-independent basis, Debye):
    X=              0.2402    Y=              0.9559    Z=              0.4606  Tot=              1.0879
 Quadrupole moment (field-independent basis, Debye-Ang):
   XX=            -65.3862   YY=            -64.9661   ZZ=            -67.3844
   XY=             -0.8460   XZ=             -1.4974   YZ=              2.7961

 Normal termination of Gaussian 16 at Wed Nov 29 01:27:12 2023.
