 Gaussian 16, Revision B.01,
 Gaussian 16:  ES64L-G16RevB.01 20-Dec-2017

 -------------------------
 #P B3LYP/6-311+g(d) force
 -------------------------

 -----
 DPGEN
 -----
 Symbolic Z-matrix:
 Charge =  0 Multiplicity = 2

                         Standard orientation:
 ---------------------------------------------------------------------
 Center     Atomic      Atomic             Coordinates (Angstroms)
 Number     Number       Type             X           Y           Z
 ---------------------------------------------------------------------
      1         11           0        3.161752    0.553384    0.925143
      2         11           0        3.874316   -2.813641   -0.119198
      3         11           0       -2.813086   -1.311133   -0.310948
      4         11           0        1.561148    3.825407   -0.104088
      5         11           0       -5.943342   -0.278128    0.582373
      6         11           0        0.838091   -1.414483   -0.247198
      7         11           0       -0.678879    1.438594   -0.726083
 ---------------------------------------------------------------------

 SCF Done:  E(UB3LYP) =  -1136.12482181     A.U. after   20 cycles

 The electronic state is 2-A.
 Alpha  occ. eigenvalues --  -38.44925 -38.44436 -38.44334 -38.43954 -38.43745
 Alpha  occ. eigenvalues --  -38.43566 -38.43207  -2.20738  -2.20239  -2.20135
 Alpha  occ. eigenvalues --   -2.19814  -2.19661  -2.19363  -2.19026  -1.14459
 Alpha  occ. eigenvalues --   -1.14427  -1.14304  -1.13871  -1.13870  -1.13852
 Alpha  occ. eigenvalues --   -1.13808  -1.13798  -1.13758  -1.13541  -1.13498
 Alpha  occ. eigenvalues --   -1.13414  -1.13363  -1.13344  -1.13236  -1.13027
 Alpha  occ. eigenvalues --   -1.13026  -1.12992  -1.12714  -1.12710  -1.12672
 Alpha  occ. eigenvalues --   -0.17015  -0.13839  -0.12509  -0.11171
 Alpha virt. eigenvalues --   -0.06198  -0.05012  -0.04685  -0.03968  -0.02438
 Alpha virt. eigenvalues --   -0.02305  -0.02028  -0.01814  -0.01092  -0.00878
 Alpha virt. eigenvalues --   -0.00290   0.00013   0.00277   0.00398   0.00635

  Beta  occ. eigenvalues --  -38.44903 -38.44327 -38.44323 -38.43933 -38.43706
  Beta  occ. eigenvalues --  -38.43554 -38.43207  -2.20697  -2.20121  -2.20028
  Beta  occ. eigenvalues --   -2.19779  -2.19592  -2.19341  -2.19036  -1.14430
  Beta  occ. eigenvalues --   -1.14401  -1.14271  -1.13797  -1.13788  -1.13748
  Beta  occ. eigenvalues --   -1.13727  -1.13726  -1.13715  -1.13503  -1.13477
  Beta  occ. eigenvalues --   -1.13387  -1.13323  -1.13302  -1.13158  -1.13011
  Beta  occ. eigenvalues --   -1.13010  -1.12976  -1.12731  -1.12726  -1.12608
  Beta  occ. eigenvalues --   -0.16483  -0.13108  -0.12224
  Beta virt. eigenvalues --   -0.07618  -0.06098  -0.04646  -0.04203  -0.03814
  Beta virt. eigenvalues --   -0.02300  -0.01906  -0.01808  -0.01385  -0.00896
  Beta virt. eigenvalues --   -0.00566   0.00031   0.00116   0.00427   0.00495

 Mulliken charges and spin densities:
               1          2
     1  Na  -0.160243   0.221645
     2  Na   1.053508   0.059862
     3  Na  -0.043999   0.042790
     4  Na   0.511332   0.072358
     5  Na   0.297282   0.482354
     6  Na  -1.074567   0.166589
     7  Na  -0.583313  -0.045597
 Sum of Mulliken charges =  -0.00000   1.00000

 Dipole moment (field-independent basis, Debye):
    X=              1.5152    Y=             -0.1682    Z=              0.0820  Tot=              1.5267
 Quadrupole moment (field-independent basis, Debye-Ang):
   XX=            -60.8422   YY=            -61.7260   ZZ=            -71.4592
   XY=             -6.2473   XZ=              0.1399   YZ=              1.0463

 Normal termination of Gaussian 16 at Tue Nov 28 21:44:13 2023.
