 Gaussian 16, Revision B.01,
 Gaussian 16:  ES64L-G16RevB.01 20-Dec-2017

 -------------------------
 #P B3LYP/6-311+g(d) force
 -------------------------

 -----
 DPGEN
 -----
 Symbolic Z-matrix:
 Charge =  0 Multiplicity = 2

                         Standard orientation:
 ---------------------------------------------------------------------
 Center     Atomic      Atomic             Coordinates (Angstroms)
 Number     Number       Type             X           Y           Z
 ---------------------------------------------------------------------
      1         11           0        0.552770   -1.243335    1.530504
      2         11           0        0.632945   -1.268112   -1.754145
      3         11           0       -1.754896    1.631301   -1.234616
      4         11           0        3.888949   -0.109241    0.437907
      5         11           0       -2.389605    0.950844    1.718786
      6         11           0        1.822901    1.563773   -0.310530
      7         11           0       -2.753064   -1.525230   -0.387905
 ---------------------------------------------------------------------

 SCF Done:  E(UB3LYP) =  -1136.11698548     A.U. after   27 cycles

 The electronic state is 2-A.
 Alpha  occ. eigenvalues --  -38.45529 -38.44411 -38.44002 -38.43840 -38.43653
 Alpha  occ. eigenvalues --  -38.43579 -38.43187  -2.21391  -2.20261  -2.19892
 Alpha  occ. eigenvalues --   -2.19704  -2.19584  -2.19465  -2.19076  -1.15173
 Alpha  occ. eigenvalues --   -1.15025  -1.14983  -1.13947  -1.13938  -1.13875
 Alpha  occ. eigenvalues --   -1.13562  -1.13543  -1.13517  -1.13418  -1.13371
 Alpha  occ. eigenvalues --   -1.13309  -1.13264  -1.13243  -1.13223  -1.13144
 Alpha  occ. eigenvalues --   -1.13096  -1.13071  -1.12747  -1.12721  -1.12720
 Alpha  occ. eigenvalues --   -0.18714  -0.14469  -0.11599  -0.10718
 Alpha virt. eigenvalues --   -0.06947  -0.04974  -0.04782  -0.03203  -0.02763
 Alpha virt. eigenvalues --   -0.02628  -0.02283  -0.00873  -0.00639  -0.00169
 Alpha virt. eigenvalues --    0.00144   0.00171   0.00322   0.00706   0.00807

  Beta  occ. eigenvalues --  -38.45527 -38.44398 -38.43957 -38.43811 -38.43641
  Beta  occ. eigenvalues --  -38.43524 -38.43159  -2.21388  -2.20241  -2.19807
  Beta  occ. eigenvalues --   -2.19652  -2.19565  -2.19366  -2.19029  -1.15175
  Beta  occ. eigenvalues --   -1.15014  -1.14984  -1.13931  -1.13900  -1.13870
  Beta  occ. eigenvalues --   -1.13513  -1.13484  -1.13448  -1.13386  -1.13322
  Beta  occ. eigenvalues --   -1.13272  -1.13238  -1.13229  -1.13194  -1.13083
  Beta  occ. eigenvalues --   -1.13013  -1.13003  -1.12720  -1.12686  -1.12664
  Beta  occ. eigenvalues --   -0.17954  -0.14307  -0.10538
  Beta virt. eigenvalues --   -0.07676  -0.06714  -0.04768  -0.04218  -0.02844
  Beta virt. eigenvalues --   -0.02497  -0.02142  -0.01626  -0.00765  -0.00296
  Beta virt. eigenvalues --   -0.00089   0.00154   0.00314   0.00363   0.00802

 Mulliken charges and spin densities:
               1          2
     1  Na  -0.373388   0.311517
     2  Na  -0.262645   0.333540
     3  Na  -0.101534   0.209998
     4  Na   1.081591  -0.038551
     5  Na   0.105642   0.161740
     6  Na  -0.723497  -0.015544
     7  Na   0.273831   0.037300
 Sum of Mulliken charges =  -0.00000   1.00000

 Dipole moment (field-independent basis, Debye):
    X=              0.7667    Y=             -0.8369    Z=              0.2744  Tot=              1.1677
 Quadrupole moment (field-independent basis, Debye-Ang):
   XX=            -48.8015   YY=            -80.2405   ZZ=            -66.3179
   XY=              0.1059   XZ=              1.1496   YZ=              0.4035

 Normal termination of Gaussian 16 at Tue Dec  5 11:26:28 2023.
