 Gaussian 16, Revision B.01,
 Gaussian 16:  ES64L-G16RevB.01 20-Dec-2017

 -------------------------
 #P B3LYP/6-311+g(d) force
 -------------------------

 -----
 DPGEN
 -----
 Symbolic Z-matrix:
 Charge =  0 Multiplicity = 2

                         Standard orientation:
 ---------------------------------------------------------------------
 Center     Atomic      Atomic             Coordinates (Angstroms)
 Number     Number       Type             X           Y           Z
 ---------------------------------------------------------------------
      1         11           0        0.017396    0.029613   -1.347286
      2         11           0        2.637927    2.352756    0.077287
      3         11           0       -3.606047    0.411260   -1.242425
      4         11           0       -1.121728    1.723828    1.570257
      5         11           0       -2.100718   -1.376054    0.603399
      6         11           0        1.063077   -1.997606    1.311819
      7         11           0        3.110094   -1.143797   -0.973050
 ---------------------------------------------------------------------

 SCF Done:  E(UB3LYP) =  -1136.12228850     A.U. after   24 cycles

 The electronic state is 2-A.
 Alpha  occ. eigenvalues --  -38.44677 -38.44315 -38.44288 -38.44061 -38.43616
 Alpha  occ. eigenvalues --  -38.43577 -38.42960  -2.20544  -2.20243  -2.20146
 Alpha  occ. eigenvalues --   -2.19891  -2.19593  -2.19336  -2.18843  -1.14253
 Alpha  occ. eigenvalues --   -1.14180  -1.14150  -1.13975  -1.13906  -1.13881
 Alpha  occ. eigenvalues --   -1.13825  -1.13789  -1.13750  -1.13569  -1.13534
 Alpha  occ. eigenvalues --   -1.13506  -1.13279  -1.13259  -1.13212  -1.13022
 Alpha  occ. eigenvalues --   -1.12990  -1.12988  -1.12514  -1.12501  -1.12477
 Alpha  occ. eigenvalues --   -0.18484  -0.14159  -0.11266  -0.11143
 Alpha virt. eigenvalues --   -0.06345  -0.05535  -0.04696  -0.03201  -0.02647
 Alpha virt. eigenvalues --   -0.02524  -0.02179  -0.01067  -0.00766  -0.00161
 Alpha virt. eigenvalues --    0.00146   0.00278   0.00381   0.00487   0.00720

  Beta  occ. eigenvalues --  -38.44623 -38.44293 -38.44268 -38.43994 -38.43592
  Beta  occ. eigenvalues --  -38.43590 -38.42939  -2.20445  -2.20204  -2.20109
  Beta  occ. eigenvalues --   -2.19768  -2.19558  -2.19362  -2.18807  -1.14190
  Beta  occ. eigenvalues --   -1.14105  -1.14082  -1.13933  -1.13878  -1.13851
  Beta  occ. eigenvalues --   -1.13798  -1.13764  -1.13729  -1.13484  -1.13439
  Beta  occ. eigenvalues --   -1.13425  -1.13261  -1.13196  -1.13171  -1.13041
  Beta  occ. eigenvalues --   -1.13007  -1.12997  -1.12488  -1.12474  -1.12441
  Beta  occ. eigenvalues --   -0.17780  -0.13830  -0.11037
  Beta virt. eigenvalues --   -0.07434  -0.06111  -0.05392  -0.04110  -0.02977
  Beta virt. eigenvalues --   -0.02269  -0.02123  -0.01501  -0.00996  -0.00386
  Beta virt. eigenvalues --   -0.00019   0.00197   0.00298   0.00513   0.00626

 Mulliken charges and spin densities:
               1          2
     1  Na  -1.123069   0.069639
     2  Na  -0.163053  -0.020680
     3  Na   0.661530   0.207477
     4  Na  -0.342876   0.353317
     5  Na   0.280443   0.268107
     6  Na  -0.359383   0.073244
     7  Na   1.046407   0.048897
 Sum of Mulliken charges =  -0.00000   1.00000

 Dipole moment (field-independent basis, Debye):
    X=             -0.3600    Y=              0.0821    Z=             -0.0949  Tot=              0.3812
 Quadrupole moment (field-independent basis, Debye-Ang):
   XX=            -51.6517   YY=            -75.0846   ZZ=            -68.4082
   XY=             -2.7368   XZ=              0.0142   YZ=              0.5586

 Normal termination of Gaussian 16 at Thu Dec  7 20:39:32 2023.
