 Gaussian 16, Revision B.01,
 Gaussian 16:  ES64L-G16RevB.01 20-Dec-2017

 -------------------------
 #P B3LYP/6-311+g(d) force
 -------------------------

 -----
 DPGEN
 -----
 Symbolic Z-matrix:
 Charge =  0 Multiplicity = 2

                         Standard orientation:
 ---------------------------------------------------------------------
 Center     Atomic      Atomic             Coordinates (Angstroms)
 Number     Number       Type             X           Y           Z
 ---------------------------------------------------------------------
      1         11           0       -1.632436   -3.094834   -0.289929
      2         11           0        2.945816    1.889279   -0.266780
      3         11           0        0.270436    3.542575   -1.078237
      4         11           0       -2.961330    2.175670    0.992198
      5         11           0        1.733620   -2.807023   -0.983525
      6         11           0        3.679682   -0.926729    1.530790
      7         11           0       -4.035788   -0.778938    0.095483
 ---------------------------------------------------------------------

 SCF Done:  E(UB3LYP) =  -1136.11100692     A.U. after   19 cycles

 The electronic state is 2-A.
 Alpha  occ. eigenvalues --  -38.45087 -38.45045 -38.44602 -38.44393 -38.44167
 Alpha  occ. eigenvalues --  -38.44038 -38.43777  -2.20855  -2.20803  -2.20401
 Alpha  occ. eigenvalues --   -2.20199  -2.19978  -2.19836  -2.19578  -1.14525
 Alpha  occ. eigenvalues --   -1.14520  -1.14487  -1.14487  -1.14478  -1.14430
 Alpha  occ. eigenvalues --   -1.14087  -1.14076  -1.14045  -1.13865  -1.13862
 Alpha  occ. eigenvalues --   -1.13852  -1.13626  -1.13621  -1.13597  -1.13500
 Alpha  occ. eigenvalues --   -1.13493  -1.13469  -1.13235  -1.13228  -1.13205
 Alpha  occ. eigenvalues --   -0.15696  -0.14005  -0.13220  -0.10802
 Alpha virt. eigenvalues --   -0.07364  -0.05039  -0.04386  -0.03558  -0.03302
 Alpha virt. eigenvalues --   -0.02251  -0.02005  -0.01740  -0.01245  -0.01198
 Alpha virt. eigenvalues --   -0.00627  -0.00041   0.00017   0.00470   0.00667

  Beta  occ. eigenvalues --  -38.45059 -38.45033 -38.44581 -38.44383 -38.44096
  Beta  occ. eigenvalues --  -38.44005 -38.43723  -2.20806  -2.20786  -2.20371
  Beta  occ. eigenvalues --   -2.20183  -2.19846  -2.19776  -2.19480  -1.14493
  Beta  occ. eigenvalues --   -1.14487  -1.14480  -1.14469  -1.14441  -1.14390
  Beta  occ. eigenvalues --   -1.14069  -1.14060  -1.13979  -1.13858  -1.13853
  Beta  occ. eigenvalues --   -1.13822  -1.13537  -1.13528  -1.13513  -1.13461
  Beta  occ. eigenvalues --   -1.13454  -1.13424  -1.13166  -1.13163  -1.13137
  Beta  occ. eigenvalues --   -0.15181  -0.13349  -0.12418
  Beta virt. eigenvalues --   -0.07652  -0.07497  -0.04632  -0.03960  -0.03336
  Beta virt. eigenvalues --   -0.02939  -0.01971  -0.01835  -0.01596  -0.01029
  Beta virt. eigenvalues --   -0.00938  -0.00372   0.00191   0.00246   0.00445

 Mulliken charges and spin densities:
               1          2
     1  Na  -0.169414   0.121696
     2  Na  -0.338622   0.138308
     3  Na   0.063555   0.181033
     4  Na  -0.128213   0.116112
     5  Na   0.059417   0.044137
     6  Na   0.365417   0.335112
     7  Na   0.147860   0.063601
 Sum of Mulliken charges =  -0.00000   1.00000

 Dipole moment (field-independent basis, Debye):
    X=             -0.1665    Y=             -0.2062    Z=              0.2427  Tot=              0.3594
 Quadrupole moment (field-independent basis, Debye-Ang):
   XX=            -63.8517   YY=            -68.5861   ZZ=            -68.7507
   XY=             -2.2075   XZ=             -0.2683   YZ=              1.2585

 Normal termination of Gaussian 16 at Mon Dec  4 03:30:42 2023.
