 Gaussian 16, Revision B.01,
 Gaussian 16:  ES64L-G16RevB.01 20-Dec-2017

 -------------------------
 #P B3LYP/6-311+g(d) force
 -------------------------

 -----
 DPGEN
 -----
 Symbolic Z-matrix:
 Charge =  0 Multiplicity = 2

                         Standard orientation:
 ---------------------------------------------------------------------
 Center     Atomic      Atomic             Coordinates (Angstroms)
 Number     Number       Type             X           Y           Z
 ---------------------------------------------------------------------
      1         11           0        4.161830   -0.720063   -0.643888
      2         11           0        1.878490    2.216710   -0.667534
      3         11           0       -4.326892    0.446943   -0.937731
      4         11           0        0.896107   -1.431911   -0.733399
      5         11           0        1.376840   -0.087313    1.854507
      6         11           0       -2.431812   -1.721570    0.303548
      7         11           0       -1.554562    1.297205    0.824497
 ---------------------------------------------------------------------

 SCF Done:  E(UB3LYP) =  -1136.11697481     A.U. after   26 cycles

 The electronic state is 2-A.
 Alpha  occ. eigenvalues --  -38.44726 -38.44454 -38.44049 -38.43928 -38.43767
 Alpha  occ. eigenvalues --  -38.43712 -38.42851  -2.20651  -2.20310  -2.19869
 Alpha  occ. eigenvalues --   -2.19818  -2.19690  -2.19541  -2.18757  -1.14406
 Alpha  occ. eigenvalues --   -1.14287  -1.14242  -1.13967  -1.13951  -1.13946
 Alpha  occ. eigenvalues --   -1.13566  -1.13522  -1.13509  -1.13489  -1.13473
 Alpha  occ. eigenvalues --   -1.13451  -1.13409  -1.13334  -1.13305  -1.13209
 Alpha  occ. eigenvalues --   -1.13183  -1.13160  -1.12469  -1.12450  -1.12352
 Alpha  occ. eigenvalues --   -0.18329  -0.14801  -0.11284  -0.10659
 Alpha virt. eigenvalues --   -0.06669  -0.05323  -0.04925  -0.02965  -0.02888
 Alpha virt. eigenvalues --   -0.02197  -0.02052  -0.01193  -0.01106  -0.00456
 Alpha virt. eigenvalues --   -0.00071   0.00141   0.00362   0.00574   0.00684

  Beta  occ. eigenvalues --  -38.44691 -38.44392 -38.44025 -38.43915 -38.43735
  Beta  occ. eigenvalues --  -38.43682 -38.42841  -2.20591  -2.20193  -2.19825
  Beta  occ. eigenvalues --   -2.19801  -2.19638  -2.19486  -2.18744  -1.14360
  Beta  occ. eigenvalues --   -1.14219  -1.14208  -1.13896  -1.13868  -1.13865
  Beta  occ. eigenvalues --   -1.13537  -1.13500  -1.13496  -1.13482  -1.13432
  Beta  occ. eigenvalues --   -1.13390  -1.13369  -1.13303  -1.13244  -1.13171
  Beta  occ. eigenvalues --   -1.13137  -1.13126  -1.12447  -1.12432  -1.12339
  Beta  occ. eigenvalues --   -0.17605  -0.14269  -0.10512
  Beta virt. eigenvalues --   -0.07677  -0.06350  -0.05006  -0.04458  -0.02746
  Beta virt. eigenvalues --   -0.02666  -0.01778  -0.01532  -0.00964  -0.00744
  Beta virt. eigenvalues --   -0.00259   0.00013   0.00214   0.00433   0.00617

 Mulliken charges and spin densities:
               1          2
     1  Na   0.512123   0.263899
     2  Na  -0.252926   0.168058
     3  Na   0.091801   0.273990
     4  Na  -0.785954   0.004346
     5  Na   0.161314   0.303272
     6  Na   0.567253  -0.038481
     7  Na  -0.293612   0.024915
 Sum of Mulliken charges =  -0.00000   1.00000

 Dipole moment (field-independent basis, Debye):
    X=             -0.0331    Y=              0.4238    Z=              0.1436  Tot=              0.4487
 Quadrupole moment (field-independent basis, Debye-Ang):
   XX=            -57.3149   YY=            -76.3321   ZZ=            -64.6499
   XY=              1.6394   XZ=              3.5914   YZ=             -6.2943

 Normal termination of Gaussian 16 at Thu Dec  7 03:34:16 2023.
