 Gaussian 16, Revision B.01,
 Gaussian 16:  ES64L-G16RevB.01 20-Dec-2017

 -------------------------
 #P B3LYP/6-311+g(d) force
 -------------------------

 -----
 DPGEN
 -----
 Symbolic Z-matrix:
 Charge =  0 Multiplicity = 2

                         Standard orientation:
 ---------------------------------------------------------------------
 Center     Atomic      Atomic             Coordinates (Angstroms)
 Number     Number       Type             X           Y           Z
 ---------------------------------------------------------------------
      1         11           0       -2.260267    2.068082   -0.180522
      2         11           0        0.610032   -2.649102   -0.520668
      3         11           0        0.199002    0.199604   -1.565111
      4         11           0        1.263547    2.737283   -0.207494
      5         11           0       -2.584046   -1.807555   -0.003233
      6         11           0        3.124138   -0.595990    0.387685
      7         11           0       -0.352408    0.047679    2.089342
 ---------------------------------------------------------------------

 SCF Done:  E(UB3LYP) =  -1136.13672792     A.U. after   19 cycles

 The electronic state is 2-A.
 Alpha  occ. eigenvalues --  -38.43893 -38.43805 -38.43754 -38.43691 -38.43666
 Alpha  occ. eigenvalues --  -38.43295 -38.43132  -2.19722  -2.19654  -2.19573
 Alpha  occ. eigenvalues --   -2.19563  -2.19492  -2.19200  -2.19148  -1.13414
 Alpha  occ. eigenvalues --   -1.13398  -1.13384  -1.13349  -1.13306  -1.13262
 Alpha  occ. eigenvalues --   -1.13245  -1.13236  -1.13230  -1.13215  -1.13196
 Alpha  occ. eigenvalues --   -1.13183  -1.13161  -1.13155  -1.13131  -1.12988
 Alpha  occ. eigenvalues --   -1.12847  -1.12811  -1.12809  -1.12761  -1.12740
 Alpha  occ. eigenvalues --   -0.18628  -0.12824  -0.12619  -0.10776
 Alpha virt. eigenvalues --   -0.05510  -0.05185  -0.04725  -0.03114  -0.03022
 Alpha virt. eigenvalues --   -0.02574  -0.01410  -0.01272  -0.00349  -0.00256
 Alpha virt. eigenvalues --    0.00012   0.00356   0.00811   0.00871   0.00904

  Beta  occ. eigenvalues --  -38.43888 -38.43799 -38.43748 -38.43664 -38.43597
  Beta  occ. eigenvalues --  -38.43280 -38.43071  -2.19717  -2.19647  -2.19563
  Beta  occ. eigenvalues --   -2.19492  -2.19389  -2.19177  -2.19039  -1.13406
  Beta  occ. eigenvalues --   -1.13380  -1.13372  -1.13344  -1.13287  -1.13259
  Beta  occ. eigenvalues --   -1.13240  -1.13213  -1.13210  -1.13174  -1.13144
  Beta  occ. eigenvalues --   -1.13136  -1.13109  -1.13069  -1.13048  -1.12949
  Beta  occ. eigenvalues --   -1.12812  -1.12797  -1.12734  -1.12689  -1.12669
  Beta  occ. eigenvalues --   -0.17910  -0.12560  -0.12407
  Beta virt. eigenvalues --   -0.06872  -0.05517  -0.05085  -0.04696  -0.02356
  Beta virt. eigenvalues --   -0.02258  -0.01522  -0.01305  -0.01206  -0.00401
  Beta virt. eigenvalues --   -0.00265   0.00137   0.00382   0.00821   0.00902

 Mulliken charges and spin densities:
               1          2
     1  Na   0.089387  -0.093006
     2  Na   0.284425   0.021800
     3  Na  -0.064789   0.308039
     4  Na   0.167383  -0.038910
     5  Na   0.083890  -0.062711
     6  Na  -0.015253   0.048148
     7  Na  -0.545043   0.816639
 Sum of Mulliken charges =  -0.00000   1.00000

 Dipole moment (field-independent basis, Debye):
    X=             -0.1132    Y=              0.3058    Z=              0.2481  Tot=              0.4097
 Quadrupole moment (field-independent basis, Debye-Ang):
   XX=            -57.5124   YY=            -61.4106   ZZ=            -74.2879
   XY=              0.2580   XZ=              1.4797   YZ=              0.2878

 Normal termination of Gaussian 16 at Thu Dec  7 06:30:05 2023.
