 Gaussian 16, Revision B.01,
 Gaussian 16:  ES64L-G16RevB.01 20-Dec-2017

 -------------------------
 #P B3LYP/6-311+g(d) force
 -------------------------

 -----
 DPGEN
 -----
 Symbolic Z-matrix:
 Charge =  0 Multiplicity = 2

                         Standard orientation:
 ---------------------------------------------------------------------
 Center     Atomic      Atomic             Coordinates (Angstroms)
 Number     Number       Type             X           Y           Z
 ---------------------------------------------------------------------
      1         11           0       -3.402622   -1.795889   -0.617730
      2         11           0        3.488723   -1.328269   -1.200644
      3         11           0        1.318999    2.524177   -0.152021
      4         11           0       -1.508669   -0.795019    1.774748
      5         11           0        2.528996   -0.389103    1.748727
      6         11           0       -2.500051    2.002067   -0.255648
      7         11           0        0.074623   -0.217965   -1.297432
 ---------------------------------------------------------------------

 SCF Done:  E(UB3LYP) =  -1136.12260897     A.U. after   23 cycles

 The electronic state is 2-A.
 Alpha  occ. eigenvalues --  -38.44420 -38.44117 -38.44111 -38.44086 -38.44037
 Alpha  occ. eigenvalues --  -38.43992 -38.43481  -2.20217  -2.19980  -2.19923
 Alpha  occ. eigenvalues --   -2.19905  -2.19898  -2.19872  -2.19296  -1.13915
 Alpha  occ. eigenvalues --   -1.13884  -1.13824  -1.13686  -1.13652  -1.13631
 Alpha  occ. eigenvalues --   -1.13608  -1.13598  -1.13586  -1.13573  -1.13567
 Alpha  occ. eigenvalues --   -1.13561  -1.13550  -1.13532  -1.13523  -1.13516
 Alpha  occ. eigenvalues --   -1.13498  -1.13467  -1.12989  -1.12961  -1.12903
 Alpha  occ. eigenvalues --   -0.17898  -0.14064  -0.11131  -0.10732
 Alpha virt. eigenvalues --   -0.06344  -0.05931  -0.04983  -0.03175  -0.02512
 Alpha virt. eigenvalues --   -0.02315  -0.02261  -0.01349  -0.00737  -0.00440
 Alpha virt. eigenvalues --    0.00065   0.00197   0.00281   0.00345   0.00504

  Beta  occ. eigenvalues --  -38.44418 -38.44110 -38.44069 -38.44055 -38.43997
  Beta  occ. eigenvalues --  -38.43954 -38.43474  -2.20214  -2.19921  -2.19892
  Beta  occ. eigenvalues --   -2.19846  -2.19830  -2.19800  -2.19286  -1.13903
  Beta  occ. eigenvalues --   -1.13882  -1.13825  -1.13641  -1.13609  -1.13584
  Beta  occ. eigenvalues --   -1.13572  -1.13564  -1.13560  -1.13538  -1.13520
  Beta  occ. eigenvalues --   -1.13517  -1.13506  -1.13483  -1.13474  -1.13469
  Beta  occ. eigenvalues --   -1.13447  -1.13413  -1.12979  -1.12940  -1.12901
  Beta  occ. eigenvalues --   -0.17278  -0.13876  -0.10992
  Beta virt. eigenvalues --   -0.06997  -0.06210  -0.05655  -0.04346  -0.03028
  Beta virt. eigenvalues --   -0.02263  -0.01866  -0.01610  -0.01195  -0.00441
  Beta virt. eigenvalues --   -0.00297   0.00226   0.00243   0.00392   0.00484

 Mulliken charges and spin densities:
               1          2
     1  Na   0.519568   0.000251
     2  Na   0.158699   0.142604
     3  Na  -0.091321   0.122504
     4  Na  -0.340677   0.333076
     5  Na   0.130374   0.178408
     6  Na   0.440014  -0.042444
     7  Na  -0.816657   0.265601
 Sum of Mulliken charges =  -0.00000   1.00000

 Dipole moment (field-independent basis, Debye):
    X=             -0.5776    Y=              0.2658    Z=             -0.1472  Tot=              0.6527
 Quadrupole moment (field-independent basis, Debye-Ang):
   XX=            -51.8183   YY=            -72.4661   ZZ=            -70.5661
   XY=             -0.0713   XZ=              1.5972   YZ=              3.2376

 Normal termination of Gaussian 16 at Wed Nov 29 16:17:21 2023.
