 Gaussian 16, Revision B.01,
 Gaussian 16:  ES64L-G16RevB.01 20-Dec-2017

 -------------------------
 #P B3LYP/6-311+g(d) force
 -------------------------

 -----
 DPGEN
 -----
 Symbolic Z-matrix:
 Charge =  0 Multiplicity = 2

                         Standard orientation:
 ---------------------------------------------------------------------
 Center     Atomic      Atomic             Coordinates (Angstroms)
 Number     Number       Type             X           Y           Z
 ---------------------------------------------------------------------
      1         11           0       -2.118931   -2.295644   -0.754718
      2         11           0       -0.060604   -0.698569    1.629700
      3         11           0        3.695238   -1.501107    0.338239
      4         11           0        2.729650    1.661853   -0.206923
      5         11           0       -3.311769    0.436860    0.633889
      6         11           0       -1.006410    2.431104   -0.030824
      7         11           0        0.072825   -0.034497   -1.609363
 ---------------------------------------------------------------------

 SCF Done:  E(UB3LYP) =  -1136.12264834     A.U. after   24 cycles

 The electronic state is 2-A.
 Alpha  occ. eigenvalues --  -38.44840 -38.44632 -38.44554 -38.44380 -38.43389
 Alpha  occ. eigenvalues --  -38.43265 -38.42442  -2.20692  -2.20518  -2.20330
 Alpha  occ. eigenvalues --   -2.20204  -2.19369  -2.19142  -2.18351  -1.14418
 Alpha  occ. eigenvalues --   -1.14340  -1.14297  -1.14189  -1.14174  -1.14145
 Alpha  occ. eigenvalues --   -1.14006  -1.13994  -1.13964  -1.13893  -1.13866
 Alpha  occ. eigenvalues --   -1.13816  -1.13073  -1.13008  -1.12995  -1.12798
 Alpha  occ. eigenvalues --   -1.12794  -1.12773  -1.12049  -1.12005  -1.11992
 Alpha  occ. eigenvalues --   -0.18580  -0.13984  -0.11593  -0.10623
 Alpha virt. eigenvalues --   -0.06923  -0.05608  -0.03990  -0.03254  -0.02665
 Alpha virt. eigenvalues --   -0.02494  -0.02126  -0.01479  -0.00628  -0.00194
 Alpha virt. eigenvalues --   -0.00046   0.00148   0.00535   0.00584   0.00733

  Beta  occ. eigenvalues --  -38.44807 -38.44600 -38.44541 -38.44375 -38.43307
  Beta  occ. eigenvalues --  -38.43239 -38.42438  -2.20631  -2.20460  -2.20307
  Beta  occ. eigenvalues --   -2.20199  -2.19220  -2.19097  -2.18348  -1.14369
  Beta  occ. eigenvalues --   -1.14296  -1.14249  -1.14154  -1.14113  -1.14110
  Beta  occ. eigenvalues --   -1.13993  -1.13972  -1.13950  -1.13881  -1.13864
  Beta  occ. eigenvalues --   -1.13805  -1.12976  -1.12907  -1.12882  -1.12772
  Beta  occ. eigenvalues --   -1.12751  -1.12725  -1.12051  -1.12003  -1.11955
  Beta  occ. eigenvalues --   -0.17935  -0.13706  -0.11245
  Beta virt. eigenvalues --   -0.07013  -0.06639  -0.05494  -0.03705  -0.02886
  Beta virt. eigenvalues --   -0.02464  -0.01832  -0.01513  -0.01178  -0.00527
  Beta virt. eigenvalues --   -0.00042  -0.00004   0.00211   0.00661   0.00696

 Mulliken charges and spin densities:
               1          2
     1  Na  -0.095892   0.094978
     2  Na  -0.388948   0.379630
     3  Na  -0.048830   0.104533
     4  Na   0.114295  -0.043581
     5  Na   0.524395   0.192773
     6  Na  -0.414651   0.015131
     7  Na   0.309631   0.256536
 Sum of Mulliken charges =  -0.00000   1.00000

 Dipole moment (field-independent basis, Debye):
    X=              0.4365    Y=             -0.1874    Z=              0.1466  Tot=              0.4971
 Quadrupole moment (field-independent basis, Debye-Ang):
   XX=            -50.9859   YY=            -70.0212   ZZ=            -73.5693
   XY=              1.0301   XZ=             -0.4402   YZ=              0.6806

 Normal termination of Gaussian 16 at Thu Dec  7 17:47:47 2023.
