 Gaussian 16, Revision B.01,
 Gaussian 16:  ES64L-G16RevB.01 20-Dec-2017

 -------------------------
 #P B3LYP/6-311+g(d) force
 -------------------------

 -----
 DPGEN
 -----
 Symbolic Z-matrix:
 Charge =  0 Multiplicity = 2

                         Standard orientation:
 ---------------------------------------------------------------------
 Center     Atomic      Atomic             Coordinates (Angstroms)
 Number     Number       Type             X           Y           Z
 ---------------------------------------------------------------------
      1         11           0       -1.885527    0.457044    1.733580
      2         11           0       -2.929115   -1.638948   -0.570337
      3         11           0        0.037354   -0.495159   -1.688684
      4         11           0        3.834516   -0.018134   -0.477550
      5         11           0        1.141564   -1.844335    0.936031
      6         11           0       -1.424825    2.295493   -0.883393
      7         11           0        1.226032    1.244039    0.950353
 ---------------------------------------------------------------------

 SCF Done:  E(UB3LYP) =  -1136.12445880     A.U. after   23 cycles

 The electronic state is 2-A.
 Alpha  occ. eigenvalues --  -38.45306 -38.43947 -38.43717 -38.43710 -38.43694
 Alpha  occ. eigenvalues --  -38.42826 -38.42790  -2.21112  -2.19850  -2.19676
 Alpha  occ. eigenvalues --   -2.19643  -2.19514  -2.18796  -2.18724  -1.14791
 Alpha  occ. eigenvalues --   -1.14769  -1.14734  -1.13617  -1.13535  -1.13419
 Alpha  occ. eigenvalues --   -1.13364  -1.13335  -1.13324  -1.13311  -1.13286
 Alpha  occ. eigenvalues --   -1.13267  -1.13177  -1.13158  -1.13135  -1.12521
 Alpha  occ. eigenvalues --   -1.12468  -1.12418  -1.12391  -1.12371  -1.12326
 Alpha  occ. eigenvalues --   -0.19022  -0.13829  -0.11360  -0.11180
 Alpha virt. eigenvalues --   -0.06773  -0.04585  -0.04296  -0.03037  -0.02731
 Alpha virt. eigenvalues --   -0.02582  -0.02345  -0.00875  -0.00621   0.00147
 Alpha virt. eigenvalues --    0.00190   0.00283   0.00440   0.00814   0.00898

  Beta  occ. eigenvalues --  -38.45304 -38.43920 -38.43690 -38.43666 -38.43646
  Beta  occ. eigenvalues --  -38.42803 -38.42763  -2.21109  -2.19802  -2.19560
  Beta  occ. eigenvalues --   -2.19550  -2.19509  -2.18753  -2.18684  -1.14790
  Beta  occ. eigenvalues --   -1.14760  -1.14733  -1.13585  -1.13474  -1.13385
  Beta  occ. eigenvalues --   -1.13294  -1.13266  -1.13255  -1.13229  -1.13216
  Beta  occ. eigenvalues --   -1.13206  -1.13150  -1.13139  -1.13123  -1.12495
  Beta  occ. eigenvalues --   -1.12406  -1.12381  -1.12353  -1.12343  -1.12296
  Beta  occ. eigenvalues --   -0.18229  -0.13656  -0.10988
  Beta virt. eigenvalues --   -0.07305  -0.06629  -0.04561  -0.03729  -0.02848
  Beta virt. eigenvalues --   -0.02331  -0.02012  -0.01588  -0.00775  -0.00279
  Beta virt. eigenvalues --    0.00172   0.00216   0.00298   0.00551   0.00844

 Mulliken charges and spin densities:
               1          2
     1  Na   0.186770   0.301810
     2  Na  -0.071990  -0.113897
     3  Na  -0.148289   0.565489
     4  Na   0.521157  -0.062372
     5  Na  -0.193204   0.089688
     6  Na  -0.117254  -0.094678
     7  Na  -0.177190   0.313960
 Sum of Mulliken charges =  -0.00000   1.00000

 Dipole moment (field-independent basis, Debye):
    X=              1.1334    Y=             -0.1660    Z=             -0.1690  Tot=              1.1579
 Quadrupole moment (field-independent basis, Debye-Ang):
   XX=            -47.3916   YY=            -75.2232   ZZ=            -69.0014
   XY=             -0.7145   XZ=             -2.2452   YZ=             -2.2977

 Normal termination of Gaussian 16 at Tue Dec  5 15:51:04 2023.
