 Gaussian 16, Revision B.01,
 Gaussian 16:  ES64L-G16RevB.01 20-Dec-2017

 -------------------------
 #P B3LYP/6-311+g(d) force
 -------------------------

 -----
 DPGEN
 -----
 Symbolic Z-matrix:
 Charge =  0 Multiplicity = 2

                         Standard orientation:
 ---------------------------------------------------------------------
 Center     Atomic      Atomic             Coordinates (Angstroms)
 Number     Number       Type             X           Y           Z
 ---------------------------------------------------------------------
      1         11           0       -0.108271   -0.221197   -1.591234
      2         11           0        0.627980    2.868002   -0.234654
      3         11           0        1.765033   -2.713202   -0.482688
      4         11           0       -2.740506   -1.939254    0.128095
      5         11           0       -2.780806    1.588859   -0.113992
      6         11           0        3.002240    0.711727    0.116848
      7         11           0        0.234330   -0.294934    2.177625
 ---------------------------------------------------------------------

 SCF Done:  E(UB3LYP) =  -1136.13504121     A.U. after   19 cycles

 The electronic state is 2-A.
 Alpha  occ. eigenvalues --  -38.44374 -38.44073 -38.44052 -38.43904 -38.43725
 Alpha  occ. eigenvalues --  -38.43259 -38.43066  -2.20155  -2.19921  -2.19857
 Alpha  occ. eigenvalues --   -2.19742  -2.19532  -2.19196  -2.18919  -1.13829
 Alpha  occ. eigenvalues --   -1.13811  -1.13800  -1.13602  -1.13590  -1.13556
 Alpha  occ. eigenvalues --   -1.13535  -1.13521  -1.13490  -1.13401  -1.13368
 Alpha  occ. eigenvalues --   -1.13359  -1.13223  -1.13180  -1.13170  -1.12886
 Alpha  occ. eigenvalues --   -1.12837  -1.12820  -1.12597  -1.12574  -1.12563
 Alpha  occ. eigenvalues --   -0.18166  -0.13055  -0.12193  -0.10658
 Alpha virt. eigenvalues --   -0.05930  -0.05470  -0.04624  -0.03213  -0.02785
 Alpha virt. eigenvalues --   -0.02590  -0.01643  -0.01362  -0.00671  -0.00415
 Alpha virt. eigenvalues --   -0.00037   0.00340   0.00732   0.00781   0.00848

  Beta  occ. eigenvalues --  -38.44373 -38.44069 -38.44050 -38.43804 -38.43712
  Beta  occ. eigenvalues --  -38.43202 -38.43063  -2.20155  -2.19915  -2.19856
  Beta  occ. eigenvalues --   -2.19557  -2.19512  -2.19093  -2.18915  -1.13818
  Beta  occ. eigenvalues --   -1.13808  -1.13803  -1.13601  -1.13565  -1.13550
  Beta  occ. eigenvalues --   -1.13524  -1.13519  -1.13490  -1.13278  -1.13243
  Beta  occ. eigenvalues --   -1.13225  -1.13197  -1.13160  -1.13157  -1.12814
  Beta  occ. eigenvalues --   -1.12763  -1.12743  -1.12593  -1.12566  -1.12550
  Beta  occ. eigenvalues --   -0.17467  -0.12874  -0.11949
  Beta virt. eigenvalues --   -0.06770  -0.05883  -0.05384  -0.04579  -0.02486
  Beta virt. eigenvalues --   -0.02079  -0.01582  -0.01500  -0.01261  -0.00728
  Beta virt. eigenvalues --   -0.00448   0.00127   0.00380   0.00761   0.00836

 Mulliken charges and spin densities:
               1          2
     1  Na  -0.027937   0.335352
     2  Na  -0.042309  -0.033750
     3  Na   0.091904  -0.033078
     4  Na   0.061423  -0.048237
     5  Na   0.052015  -0.014946
     6  Na   0.323686   0.100001
     7  Na  -0.458782   0.694658
 Sum of Mulliken charges =  -0.00000   1.00000

 Dipole moment (field-independent basis, Debye):
    X=             -0.2764    Y=             -0.3345    Z=              0.1709  Tot=              0.4663
 Quadrupole moment (field-independent basis, Debye-Ang):
   XX=            -55.7591   YY=            -62.5380   ZZ=            -75.2590
   XY=              0.1911   XZ=             -0.5267   YZ=              0.0564

 Normal termination of Gaussian 16 at Fri Dec  8 05:52:13 2023.
