 Gaussian 16, Revision B.01,
 Gaussian 16:  ES64L-G16RevB.01 20-Dec-2017

 -------------------------
 #P B3LYP/6-311+g(d) force
 -------------------------

 -----
 DPGEN
 -----
 Symbolic Z-matrix:
 Charge =  0 Multiplicity = 2

                         Standard orientation:
 ---------------------------------------------------------------------
 Center     Atomic      Atomic             Coordinates (Angstroms)
 Number     Number       Type             X           Y           Z
 ---------------------------------------------------------------------
      1         11           0        3.318556   -0.204054   -0.126730
      2         11           0       -2.353356    1.784364   -0.434830
      3         11           0       -2.656869   -1.481018    0.076735
      4         11           0        0.167042   -0.062449   -1.872053
      5         11           0        1.052968    2.769952    0.324596
      6         11           0       -0.232029   -0.011124    1.985692
      7         11           0        0.703687   -2.795671    0.046591
 ---------------------------------------------------------------------

 SCF Done:  E(UB3LYP) =  -1136.14025519     A.U. after   18 cycles

 The electronic state is 2-A.
 Alpha  occ. eigenvalues --  -38.44245 -38.43641 -38.43619 -38.43568 -38.43523
 Alpha  occ. eigenvalues --  -38.43393 -38.43332  -2.20031  -2.19523  -2.19499
 Alpha  occ. eigenvalues --   -2.19482  -2.19383  -2.19216  -2.19178  -1.13710
 Alpha  occ. eigenvalues --   -1.13683  -1.13674  -1.13223  -1.13184  -1.13177
 Alpha  occ. eigenvalues --   -1.13161  -1.13153  -1.13145  -1.13134  -1.13124
 Alpha  occ. eigenvalues --   -1.13102  -1.13044  -1.13032  -1.13012  -1.12895
 Alpha  occ. eigenvalues --   -1.12877  -1.12858  -1.12853  -1.12846  -1.12797
 Alpha  occ. eigenvalues --   -0.18534  -0.12883  -0.12386  -0.10926
 Alpha virt. eigenvalues --   -0.05712  -0.04986  -0.04703  -0.03219  -0.03011
 Alpha virt. eigenvalues --   -0.02728  -0.01554  -0.01047  -0.00355  -0.00301
 Alpha virt. eigenvalues --   -0.00030   0.00370   0.00792   0.00889   0.00904

  Beta  occ. eigenvalues --  -38.44245 -38.43637 -38.43531 -38.43512 -38.43493
  Beta  occ. eigenvalues --  -38.43386 -38.43327  -2.20033  -2.19494  -2.19367
  Beta  occ. eigenvalues --   -2.19361  -2.19345  -2.19206  -2.19173  -1.13699
  Beta  occ. eigenvalues --   -1.13686  -1.13676  -1.13197  -1.13150  -1.13139
  Beta  occ. eigenvalues --   -1.13093  -1.13069  -1.13056  -1.13041  -1.13026
  Beta  occ. eigenvalues --   -1.13018  -1.13010  -1.12999  -1.12984  -1.12878
  Beta  occ. eigenvalues --   -1.12858  -1.12851  -1.12843  -1.12829  -1.12792
  Beta  occ. eigenvalues --   -0.17783  -0.12663  -0.12136
  Beta virt. eigenvalues --   -0.07022  -0.05678  -0.04992  -0.04618  -0.02461
  Beta virt. eigenvalues --   -0.02217  -0.01691  -0.01463  -0.00968  -0.00388
  Beta virt. eigenvalues --   -0.00360   0.00100   0.00386   0.00840   0.00891

 Mulliken charges and spin densities:
               1          2
     1  Na   0.005844  -0.121836
     2  Na   0.168090   0.009256
     3  Na   0.223901  -0.051378
     4  Na  -0.194805   0.646903
     5  Na   0.013070  -0.071962
     6  Na  -0.280128   0.727662
     7  Na   0.064028  -0.138646
 Sum of Mulliken charges =  -0.00000   1.00000

 Dipole moment (field-independent basis, Debye):
    X=              0.2331    Y=             -0.0538    Z=              0.0119  Tot=              0.2395
 Quadrupole moment (field-independent basis, Debye-Ang):
   XX=            -56.7498   YY=            -63.8881   ZZ=            -73.2254
   XY=              0.2119   XZ=              0.7650   YZ=             -0.2284

 Normal termination of Gaussian 16 at Tue Dec  5 23:20:57 2023.
