 Gaussian 16, Revision B.01,
 Gaussian 16:  ES64L-G16RevB.01 20-Dec-2017

 -------------------------
 #P B3LYP/6-311+g(d) force
 -------------------------

 -----
 DPGEN
 -----
 Symbolic Z-matrix:
 Charge =  0 Multiplicity = 2

                         Standard orientation:
 ---------------------------------------------------------------------
 Center     Atomic      Atomic             Coordinates (Angstroms)
 Number     Number       Type             X           Y           Z
 ---------------------------------------------------------------------
      1         11           0       -0.368419    1.808239    1.421297
      2         11           0        0.566440    1.683419   -1.303906
      3         11           0        4.283469   -0.026632    0.023650
      4         11           0        1.428801   -1.491771    0.296760
      5         11           0       -1.645474   -1.218843    1.591078
      6         11           0       -1.327719   -1.406260   -1.618038
      7         11           0       -2.937097    0.651847   -0.410841
 ---------------------------------------------------------------------

 SCF Done:  E(UB3LYP) =  -1136.11361343     A.U. after   24 cycles

 The electronic state is 2-A.
 Alpha  occ. eigenvalues --  -38.45598 -38.44934 -38.43593 -38.43540 -38.43512
 Alpha  occ. eigenvalues --  -38.43090 -38.42980  -2.21349  -2.20902  -2.19583
 Alpha  occ. eigenvalues --   -2.19518  -2.19413  -2.18989  -2.18929  -1.15027
 Alpha  occ. eigenvalues --   -1.15015  -1.14983  -1.14651  -1.14597  -1.14479
 Alpha  occ. eigenvalues --   -1.13276  -1.13256  -1.13214  -1.13201  -1.13191
 Alpha  occ. eigenvalues --   -1.13160  -1.13085  -1.13070  -1.12994  -1.12682
 Alpha  occ. eigenvalues --   -1.12670  -1.12603  -1.12592  -1.12568  -1.12532
 Alpha  occ. eigenvalues --   -0.19328  -0.13483  -0.11810  -0.11419
 Alpha virt. eigenvalues --   -0.07368  -0.04178  -0.03629  -0.03315  -0.03077
 Alpha virt. eigenvalues --   -0.02787  -0.02585  -0.00761  -0.00510  -0.00019
 Alpha virt. eigenvalues --    0.00090   0.00135   0.00344   0.00826   0.00995

  Beta  occ. eigenvalues --  -38.45611 -38.44910 -38.43530 -38.43485 -38.43481
  Beta  occ. eigenvalues --  -38.43074 -38.42946  -2.21375  -2.20865  -2.19470
  Beta  occ. eigenvalues --   -2.19412  -2.19364  -2.18963  -2.18871  -1.15045
  Beta  occ. eigenvalues --   -1.15032  -1.15000  -1.14626  -1.14522  -1.14463
  Beta  occ. eigenvalues --   -1.13213  -1.13173  -1.13170  -1.13133  -1.13104
  Beta  occ. eigenvalues --   -1.13079  -1.13030  -1.12989  -1.12954  -1.12666
  Beta  occ. eigenvalues --   -1.12629  -1.12587  -1.12559  -1.12504  -1.12490
  Beta  occ. eigenvalues --   -0.18436  -0.13422  -0.11281
  Beta virt. eigenvalues --   -0.07518  -0.07191  -0.04066  -0.03210  -0.03085
  Beta virt. eigenvalues --   -0.02698  -0.02316  -0.01619  -0.00673  -0.00239
  Beta virt. eigenvalues --   -0.00021   0.00146   0.00290   0.00357   0.00876

 Mulliken charges and spin densities:
               1          2
     1  Na  -0.119343   0.071282
     2  Na  -0.241603   0.201072
     3  Na   0.232300  -0.178903
     4  Na  -0.518425   0.160795
     5  Na   0.000807   0.296801
     6  Na  -0.023372   0.336632
     7  Na   0.669637   0.112321
 Sum of Mulliken charges =  -0.00000   1.00000

 Dipole moment (field-independent basis, Debye):
    X=              0.8215    Y=              0.3702    Z=             -0.0878  Tot=              0.9053
 Quadrupole moment (field-independent basis, Debye-Ang):
   XX=            -47.2161   YY=            -78.0647   ZZ=            -67.3915
   XY=              0.9896   XZ=             -0.1351   YZ=             -0.6313

 Normal termination of Gaussian 16 at Thu Dec  7 01:57:44 2023.
