 Gaussian 16, Revision B.01,
 Gaussian 16:  ES64L-G16RevB.01 20-Dec-2017

 -------------------------
 #P B3LYP/6-311+g(d) force
 -------------------------

 -----
 DPGEN
 -----
 Symbolic Z-matrix:
 Charge =  0 Multiplicity = 2

                         Standard orientation:
 ---------------------------------------------------------------------
 Center     Atomic      Atomic             Coordinates (Angstroms)
 Number     Number       Type             X           Y           Z
 ---------------------------------------------------------------------
      1         11           0       -2.978787   -1.393320    1.308815
      2         11           0       -2.715614    1.882962   -0.700898
      3         11           0        1.004530    2.053467   -0.539570
      4         11           0       -0.191551    0.104743    1.883075
      5         11           0       -0.949191   -1.082985   -1.831954
      6         11           0        1.947892   -2.050968   -0.838845
      7         11           0        3.882722    0.486100    0.719376
 ---------------------------------------------------------------------

 SCF Done:  E(UB3LYP) =  -1136.12392562     A.U. after   23 cycles

 The electronic state is 2-A.
 Alpha  occ. eigenvalues --  -38.44986 -38.44802 -38.44558 -38.44168 -38.43400
 Alpha  occ. eigenvalues --  -38.43314 -38.43115  -2.20768  -2.20662  -2.20385
 Alpha  occ. eigenvalues --   -2.19967  -2.19271  -2.19147  -2.18940  -1.14443
 Alpha  occ. eigenvalues --   -1.14417  -1.14400  -1.14345  -1.14324  -1.14290
 Alpha  occ. eigenvalues --   -1.14052  -1.14014  -1.14003  -1.13644  -1.13608
 Alpha  occ. eigenvalues --   -1.13602  -1.12973  -1.12907  -1.12900  -1.12863
 Alpha  occ. eigenvalues --   -1.12824  -1.12750  -1.12623  -1.12601  -1.12566
 Alpha  occ. eigenvalues --   -0.17987  -0.13691  -0.11574  -0.11156
 Alpha virt. eigenvalues --   -0.06762  -0.05216  -0.04460  -0.03214  -0.02793
 Alpha virt. eigenvalues --   -0.02738  -0.02336  -0.01336  -0.00801  -0.00095
 Alpha virt. eigenvalues --    0.00123   0.00150   0.00303   0.00614   0.00706

  Beta  occ. eigenvalues --  -38.44977 -38.44745 -38.44507 -38.44142 -38.43343
  Beta  occ. eigenvalues --  -38.43311 -38.43105  -2.20751  -2.20558  -2.20294
  Beta  occ. eigenvalues --   -2.19922  -2.19169  -2.19145  -2.18924  -1.14429
  Beta  occ. eigenvalues --   -1.14409  -1.14387  -1.14273  -1.14240  -1.14220
  Beta  occ. eigenvalues --   -1.13974  -1.13955  -1.13944  -1.13600  -1.13576
  Beta  occ. eigenvalues --   -1.13576  -1.12903  -1.12866  -1.12834  -1.12824
  Beta  occ. eigenvalues --   -1.12811  -1.12739  -1.12601  -1.12589  -1.12551
  Beta  occ. eigenvalues --   -0.17322  -0.13413  -0.10842
  Beta virt. eigenvalues --   -0.07722  -0.06567  -0.05168  -0.03936  -0.02957
  Beta virt. eigenvalues --   -0.02365  -0.02125  -0.01819  -0.01149  -0.00505
  Beta virt. eigenvalues --   -0.00085   0.00174   0.00187   0.00439   0.00689

 Mulliken charges and spin densities:
               1          2
     1  Na   0.175131   0.060218
     2  Na   0.062147   0.072078
     3  Na  -0.359636  -0.026752
     4  Na  -0.250563   0.487759
     5  Na   0.051554   0.416909
     6  Na  -0.442540  -0.085379
     7  Na   0.763906   0.075167
 Sum of Mulliken charges =  -0.00000   1.00000

 Dipole moment (field-independent basis, Debye):
    X=             -0.0089    Y=              0.1918    Z=              0.5731  Tot=              0.6044
 Quadrupole moment (field-independent basis, Debye-Ang):
   XX=            -46.9919   YY=            -76.7287   ZZ=            -70.2938
   XY=              0.4801   XZ=              2.5160   YZ=             -3.1260

 Normal termination of Gaussian 16 at Tue Dec  5 23:10:55 2023.
