 Gaussian 16, Revision B.01,
 Gaussian 16:  ES64L-G16RevB.01 20-Dec-2017

 -------------------------
 #P B3LYP/6-311+g(d) force
 -------------------------

 -----
 DPGEN
 -----
 Symbolic Z-matrix:
 Charge =  0 Multiplicity = 2

                         Standard orientation:
 ---------------------------------------------------------------------
 Center     Atomic      Atomic             Coordinates (Angstroms)
 Number     Number       Type             X           Y           Z
 ---------------------------------------------------------------------
      1         11           0        3.173604   -0.237037   -0.370155
      2         11           0        1.076878    2.674223   -0.002951
      3         11           0        0.720955   -2.697768    0.011693
      4         11           0       -2.205768    1.758596    0.056578
      5         11           0        0.283967   -0.173608    1.968763
      6         11           0       -0.215920   -0.002758   -1.520320
      7         11           0       -2.833714   -1.321649   -0.143607
 ---------------------------------------------------------------------

 SCF Done:  E(UB3LYP) =  -1136.13692315     A.U. after   19 cycles

 The electronic state is 2-A.
 Alpha  occ. eigenvalues --  -38.44231 -38.43855 -38.43486 -38.43306 -38.43282
 Alpha  occ. eigenvalues --  -38.43132 -38.43018  -2.20058  -2.19725  -2.19410
 Alpha  occ. eigenvalues --   -2.19240  -2.19170  -2.19070  -2.19002  -1.13730
 Alpha  occ. eigenvalues --   -1.13711  -1.13701  -1.13436  -1.13393  -1.13353
 Alpha  occ. eigenvalues --   -1.13138  -1.13059  -1.13033  -1.12961  -1.12893
 Alpha  occ. eigenvalues --   -1.12874  -1.12851  -1.12803  -1.12777  -1.12755
 Alpha  occ. eigenvalues --   -1.12716  -1.12686  -1.12662  -1.12642  -1.12633
 Alpha  occ. eigenvalues --   -0.19084  -0.13295  -0.12485  -0.10672
 Alpha virt. eigenvalues --   -0.05774  -0.04974  -0.04578  -0.03210  -0.02763
 Alpha virt. eigenvalues --   -0.02363  -0.01674  -0.01021  -0.00279  -0.00164
 Alpha virt. eigenvalues --    0.00008   0.00348   0.00809   0.00909   0.00926

  Beta  occ. eigenvalues --  -38.44222 -38.43852 -38.43480 -38.43274 -38.43210
  Beta  occ. eigenvalues --  -38.43128 -38.42959  -2.20043  -2.19721  -2.19403
  Beta  occ. eigenvalues --   -2.19159  -2.19064  -2.18997  -2.18964  -1.13706
  Beta  occ. eigenvalues --   -1.13698  -1.13692  -1.13434  -1.13379  -1.13342
  Beta  occ. eigenvalues --   -1.13127  -1.13041  -1.13018  -1.12906  -1.12829
  Beta  occ. eigenvalues --   -1.12788  -1.12777  -1.12729  -1.12717  -1.12701
  Beta  occ. eigenvalues --   -1.12659  -1.12640  -1.12630  -1.12615  -1.12586
  Beta  occ. eigenvalues --   -0.18357  -0.13034  -0.12228
  Beta virt. eigenvalues --   -0.06750  -0.05722  -0.04977  -0.04561  -0.02416
  Beta virt. eigenvalues --   -0.01975  -0.01577  -0.01301  -0.00965  -0.00326
  Beta virt. eigenvalues --   -0.00209   0.00145   0.00380   0.00853   0.00908

 Mulliken charges and spin densities:
               1          2
     1  Na   0.096055  -0.020572
     2  Na   0.140239  -0.030697
     3  Na   0.279452  -0.056620
     4  Na   0.290522   0.022328
     5  Na  -0.534526   0.711005
     6  Na  -0.602334   0.400066
     7  Na   0.330593  -0.025510
 Sum of Mulliken charges =  -0.00000   1.00000

 Dipole moment (field-independent basis, Debye):
    X=              0.1914    Y=             -0.1495    Z=              0.1364  Tot=              0.2786
 Quadrupole moment (field-independent basis, Debye-Ang):
   XX=            -54.6141   YY=            -63.3625   ZZ=            -74.7755
   XY=              0.7209   XZ=             -1.1972   YZ=              0.5167

 Normal termination of Gaussian 16 at Wed Dec  6 00:20:45 2023.
