 Gaussian 16, Revision B.01,
 Gaussian 16:  ES64L-G16RevB.01 20-Dec-2017

 -------------------------
 #P B3LYP/6-311+g(d) force
 -------------------------

 -----
 DPGEN
 -----
 Symbolic Z-matrix:
 Charge =  0 Multiplicity = 2

                         Standard orientation:
 ---------------------------------------------------------------------
 Center     Atomic      Atomic             Coordinates (Angstroms)
 Number     Number       Type             X           Y           Z
 ---------------------------------------------------------------------
      1         11           0       -0.341810    0.121230   -1.445688
      2         11           0        2.956448    1.022735    0.145128
      3         11           0       -1.272022   -2.558124   -0.219334
      4         11           0       -0.111765    0.102324    1.633615
      5         11           0        2.490135   -1.773542   -0.073084
      6         11           0       -3.389128    0.256605    0.278394
      7         11           0       -0.331859    2.828772   -0.319030
 ---------------------------------------------------------------------

 SCF Done:  E(UB3LYP) =  -1136.12650364     A.U. after   26 cycles

 The electronic state is 2-A.
 Alpha  occ. eigenvalues --  -38.44990 -38.44301 -38.43865 -38.43310 -38.43262
 Alpha  occ. eigenvalues --  -38.43068 -38.42732  -2.20803  -2.20190  -2.19750
 Alpha  occ. eigenvalues --   -2.19252  -2.19190  -2.18963  -2.18818  -1.14476
 Alpha  occ. eigenvalues --   -1.14450  -1.14439  -1.14001  -1.13836  -1.13803
 Alpha  occ. eigenvalues --   -1.13403  -1.13387  -1.13368  -1.13017  -1.12934
 Alpha  occ. eigenvalues --   -1.12889  -1.12854  -1.12832  -1.12799  -1.12770
 Alpha  occ. eigenvalues --   -1.12607  -1.12563  -1.12493  -1.12401  -1.12391
 Alpha  occ. eigenvalues --   -0.19075  -0.13677  -0.12284  -0.10189
 Alpha virt. eigenvalues --   -0.06457  -0.04973  -0.04435  -0.03215  -0.02443
 Alpha virt. eigenvalues --   -0.02271  -0.01834  -0.01067  -0.00391  -0.00296
 Alpha virt. eigenvalues --    0.00024   0.00308   0.00767   0.00853   0.00892

  Beta  occ. eigenvalues --  -38.44978 -38.44296 -38.43862 -38.43299 -38.43197
  Beta  occ. eigenvalues --  -38.43055 -38.42661  -2.20782  -2.20184  -2.19748
  Beta  occ. eigenvalues --   -2.19175  -2.19134  -2.18943  -2.18689  -1.14442
  Beta  occ. eigenvalues --   -1.14437  -1.14429  -1.14002  -1.13816  -1.13791
  Beta  occ. eigenvalues --   -1.13406  -1.13379  -1.13351  -1.12944  -1.12901
  Beta  occ. eigenvalues --   -1.12833  -1.12794  -1.12785  -1.12754  -1.12729
  Beta  occ. eigenvalues --   -1.12573  -1.12552  -1.12402  -1.12315  -1.12306
  Beta  occ. eigenvalues --   -0.18399  -0.13415  -0.11986
  Beta virt. eigenvalues --   -0.06480  -0.06244  -0.04975  -0.04416  -0.02477
  Beta virt. eigenvalues --   -0.02117  -0.01716  -0.01010  -0.00872  -0.00412
  Beta virt. eigenvalues --   -0.00337   0.00169   0.00353   0.00797   0.00873

 Mulliken charges and spin densities:
               1          2
     1  Na  -0.485012   0.409810
     2  Na   0.313616   0.036923
     3  Na   0.165244  -0.036451
     4  Na  -0.409464   0.652946
     5  Na   0.040111  -0.036485
     6  Na   0.167150   0.025160
     7  Na   0.208355  -0.051903
 Sum of Mulliken charges =  -0.00000   1.00000

 Dipole moment (field-independent basis, Debye):
    X=             -0.4977    Y=              0.0642    Z=              0.1283  Tot=              0.5180
 Quadrupole moment (field-independent basis, Debye-Ang):
   XX=            -50.0442   YY=            -63.7047   ZZ=            -77.3116
   XY=             -0.0224   XZ=             -0.5014   YZ=              0.2461

 Normal termination of Gaussian 16 at Tue Dec  5 11:16:09 2023.
