 Gaussian 16, Revision B.01,
 Gaussian 16:  ES64L-G16RevB.01 20-Dec-2017

 -------------------------
 #P B3LYP/6-311+g(d) force
 -------------------------

 -----
 DPGEN
 -----
 Symbolic Z-matrix:
 Charge =  0 Multiplicity = 2

                         Standard orientation:
 ---------------------------------------------------------------------
 Center     Atomic      Atomic             Coordinates (Angstroms)
 Number     Number       Type             X           Y           Z
 ---------------------------------------------------------------------
      1         11           0        2.421032    0.855053   -0.367161
      2         11           0       -1.570791   -2.577547   -0.119788
      3         11           0       -3.108488    0.525472    0.175476
      4         11           0        2.116306   -2.216037   -0.060918
      5         11           0       -0.288723   -0.061123   -1.413558
      6         11           0       -0.003606    3.019222   -0.437148
      7         11           0        0.434272    0.454962    2.223096
 ---------------------------------------------------------------------

 SCF Done:  E(UB3LYP) =  -1136.13331298     A.U. after   19 cycles

 The electronic state is 2-A.
 Alpha  occ. eigenvalues --  -38.44014 -38.43833 -38.43783 -38.43527 -38.43473
 Alpha  occ. eigenvalues --  -38.43304 -38.42945  -2.19831  -2.19706  -2.19627
 Alpha  occ. eigenvalues --   -2.19394  -2.19335  -2.19291  -2.19016  -1.13518
 Alpha  occ. eigenvalues --   -1.13495  -1.13464  -1.13374  -1.13350  -1.13337
 Alpha  occ. eigenvalues --   -1.13314  -1.13283  -1.13238  -1.13117  -1.13105
 Alpha  occ. eigenvalues --   -1.13053  -1.13031  -1.12997  -1.12986  -1.12971
 Alpha  occ. eigenvalues --   -1.12930  -1.12857  -1.12683  -1.12654  -1.12625
 Alpha  occ. eigenvalues --   -0.18886  -0.13018  -0.12612  -0.10883
 Alpha virt. eigenvalues --   -0.05483  -0.04961  -0.04841  -0.03131  -0.02894
 Alpha virt. eigenvalues --   -0.02670  -0.01316  -0.01221  -0.00344  -0.00118
 Alpha virt. eigenvalues --   -0.00017   0.00347   0.00828   0.00895   0.00922

  Beta  occ. eigenvalues --  -38.44012 -38.43781 -38.43728 -38.43516 -38.43471
  Beta  occ. eigenvalues --  -38.43288 -38.42893  -2.19829  -2.19627  -2.19510
  Beta  occ. eigenvalues --   -2.19378  -2.19333  -2.19268  -2.18924  -1.13514
  Beta  occ. eigenvalues --   -1.13483  -1.13465  -1.13344  -1.13273  -1.13248
  Beta  occ. eigenvalues --   -1.13241  -1.13200  -1.13177  -1.13102  -1.13096
  Beta  occ. eigenvalues --   -1.13037  -1.13005  -1.12985  -1.12967  -1.12961
  Beta  occ. eigenvalues --   -1.12880  -1.12847  -1.12620  -1.12581  -1.12560
  Beta  occ. eigenvalues --   -0.18155  -0.12801  -0.12387
  Beta virt. eigenvalues --   -0.06866  -0.05477  -0.04905  -0.04798  -0.02383
  Beta virt. eigenvalues --   -0.02146  -0.01545  -0.01243  -0.01147  -0.00372
  Beta virt. eigenvalues --   -0.00165   0.00159   0.00386   0.00854   0.00913

 Mulliken charges and spin densities:
               1          2
     1  Na   0.571497   0.147505
     2  Na   0.197197   0.001224
     3  Na   0.041847   0.011913
     4  Na   0.089056   0.010680
     5  Na  -0.415795   0.069403
     6  Na   0.318925   0.029753
     7  Na  -0.802727   0.729522
 Sum of Mulliken charges =  -0.00000   1.00000

 Dipole moment (field-independent basis, Debye):
    X=             -0.4560    Y=             -0.0188    Z=              0.3627  Tot=              0.5830
 Quadrupole moment (field-independent basis, Debye-Ang):
   XX=            -60.4065   YY=            -59.4357   ZZ=            -73.8055
   XY=             -1.3750   XZ=             -1.3922   YZ=             -0.9815

 Normal termination of Gaussian 16 at Thu Dec  7 07:38:11 2023.
