 Gaussian 16, Revision B.01,
 Gaussian 16:  ES64L-G16RevB.01 20-Dec-2017

 -------------------------
 #P B3LYP/6-311+g(d) force
 -------------------------

 -----
 DPGEN
 -----
 Symbolic Z-matrix:
 Charge =  0 Multiplicity = 2

                         Standard orientation:
 ---------------------------------------------------------------------
 Center     Atomic      Atomic             Coordinates (Angstroms)
 Number     Number       Type             X           Y           Z
 ---------------------------------------------------------------------
      1         11           0       -3.067605   -1.966033   -0.993594
      2         11           0       -0.740685   -3.105801    0.503106
      3         11           0       -0.635450    3.247490    0.971178
      4         11           0        3.352153   -0.798024   -1.240573
      5         11           0        2.492582   -1.455774    1.640750
      6         11           0        2.580936    2.479831   -0.837567
      7         11           0       -3.981930    1.598312   -0.043300
 ---------------------------------------------------------------------

 SCF Done:  E(UB3LYP) =  -1136.10393769     A.U. after   23 cycles

 The electronic state is 2-A.
 Alpha  occ. eigenvalues --  -38.45313 -38.45179 -38.44752 -38.44622 -38.44096
 Alpha  occ. eigenvalues --  -38.44001 -38.43649  -2.21127  -2.20921  -2.20470
 Alpha  occ. eigenvalues --   -2.20432  -2.19935  -2.19801  -2.19481  -1.14827
 Alpha  occ. eigenvalues --   -1.14789  -1.14770  -1.14595  -1.14569  -1.14547
 Alpha  occ. eigenvalues --   -1.14165  -1.14149  -1.14141  -1.14103  -1.14096
 Alpha  occ. eigenvalues --   -1.14065  -1.13598  -1.13568  -1.13553  -1.13464
 Alpha  occ. eigenvalues --   -1.13446  -1.13426  -1.13160  -1.13123  -1.13100
 Alpha  occ. eigenvalues --   -0.16008  -0.13877  -0.12881  -0.10357
 Alpha virt. eigenvalues --   -0.07656  -0.05235  -0.04418  -0.03698  -0.03403
 Alpha virt. eigenvalues --   -0.02220  -0.01955  -0.01610  -0.01347  -0.00791
 Alpha virt. eigenvalues --   -0.00729  -0.00270   0.00062   0.00429   0.00541

  Beta  occ. eigenvalues --  -38.45311 -38.45139 -38.44768 -38.44596 -38.44030
  Beta  occ. eigenvalues --  -38.43942 -38.43611  -2.21131  -2.20848  -2.20502
  Beta  occ. eigenvalues --   -2.20391  -2.19813  -2.19691  -2.19414  -1.14825
  Beta  occ. eigenvalues --   -1.14796  -1.14738  -1.14545  -1.14521  -1.14490
  Beta  occ. eigenvalues --   -1.14189  -1.14173  -1.14111  -1.14099  -1.14073
  Beta  occ. eigenvalues --   -1.14013  -1.13521  -1.13485  -1.13465  -1.13388
  Beta  occ. eigenvalues --   -1.13374  -1.13355  -1.13108  -1.13079  -1.13050
  Beta  occ. eigenvalues --   -0.15486  -0.13212  -0.12329
  Beta virt. eigenvalues --   -0.07749  -0.07148  -0.04933  -0.03844  -0.03515
  Beta virt. eigenvalues --   -0.03140  -0.01933  -0.01706  -0.01286  -0.01177
  Beta virt. eigenvalues --   -0.00774  -0.00437   0.00018   0.00191   0.00520

 Mulliken charges and spin densities:
               1          2
     1  Na   0.007939   0.108246
     2  Na  -0.213481   0.096669
     3  Na  -0.164089  -0.107981
     4  Na   0.351223   0.024416
     5  Na  -0.057584   0.386405
     6  Na  -0.151933   0.271037
     7  Na   0.227925   0.221209
 Sum of Mulliken charges =  -0.00000   1.00000

 Dipole moment (field-independent basis, Debye):
    X=              0.3110    Y=             -0.1065    Z=             -0.1525  Tot=              0.3624
 Quadrupole moment (field-independent basis, Debye-Ang):
   XX=            -62.3353   YY=            -73.5614   ZZ=            -67.2000
   XY=             -2.8894   XZ=             -0.0823   YZ=              2.7629

 Normal termination of Gaussian 16 at Sun Dec  3 14:39:23 2023.
