 Gaussian 16, Revision B.01,
 Gaussian 16:  ES64L-G16RevB.01 20-Dec-2017

 -------------------------
 #P B3LYP/6-311+g(d) force
 -------------------------

 -----
 DPGEN
 -----
 Symbolic Z-matrix:
 Charge =  0 Multiplicity = 2

                         Standard orientation:
 ---------------------------------------------------------------------
 Center     Atomic      Atomic             Coordinates (Angstroms)
 Number     Number       Type             X           Y           Z
 ---------------------------------------------------------------------
      1         11           0       -1.467124    1.838485   -0.801078
      2         11           0        3.309590    0.057258    1.640897
      3         11           0       -0.236536    0.078264    1.692715
      4         11           0        1.792310    1.814279   -1.187746
      5         11           0        1.978126   -2.042833   -0.920893
      6         11           0       -4.113527   -0.389837    0.978869
      7         11           0       -1.262838   -1.355616   -1.402764
 ---------------------------------------------------------------------

 SCF Done:  E(UB3LYP) =  -1136.12246395     A.U. after   30 cycles

 The electronic state is 2-A.
 Alpha  occ. eigenvalues --  -38.45081 -38.44965 -38.44418 -38.44410 -38.43885
 Alpha  occ. eigenvalues --  -38.42947 -38.42532  -2.20928  -2.20725  -2.20290
 Alpha  occ. eigenvalues --   -2.20237  -2.19718  -2.18782  -2.18443  -1.14635
 Alpha  occ. eigenvalues --   -1.14592  -1.14533  -1.14398  -1.14393  -1.14339
 Alpha  occ. eigenvalues --   -1.13983  -1.13946  -1.13905  -1.13897  -1.13880
 Alpha  occ. eigenvalues --   -1.13862  -1.13396  -1.13376  -1.13334  -1.12460
 Alpha  occ. eigenvalues --   -1.12450  -1.12425  -1.12144  -1.12134  -1.12025
 Alpha  occ. eigenvalues --   -0.18265  -0.13811  -0.11862  -0.10784
 Alpha virt. eigenvalues --   -0.06806  -0.05322  -0.04560  -0.03403  -0.02737
 Alpha virt. eigenvalues --   -0.02490  -0.02356  -0.01308  -0.00798  -0.00232
 Alpha virt. eigenvalues --    0.00057   0.00238   0.00337   0.00599   0.00647

  Beta  occ. eigenvalues --  -38.45044 -38.44950 -38.44381 -38.44346 -38.43839
  Beta  occ. eigenvalues --  -38.42945 -38.42529  -2.20861  -2.20697  -2.20176
  Beta  occ. eigenvalues --   -2.20168  -2.19639  -2.18780  -2.18438  -1.14580
  Beta  occ. eigenvalues --   -1.14548  -1.14478  -1.14375  -1.14373  -1.14322
  Beta  occ. eigenvalues --   -1.13909  -1.13862  -1.13850  -1.13831  -1.13822
  Beta  occ. eigenvalues --   -1.13797  -1.13333  -1.13323  -1.13266  -1.12451
  Beta  occ. eigenvalues --   -1.12445  -1.12424  -1.12143  -1.12117  -1.12022
  Beta  occ. eigenvalues --   -0.17555  -0.13586  -0.10594
  Beta virt. eigenvalues --   -0.07924  -0.06561  -0.04775  -0.04470  -0.02925
  Beta virt. eigenvalues --   -0.02496  -0.02015  -0.01770  -0.00985  -0.00623
  Beta virt. eigenvalues --   -0.00134   0.00106   0.00333   0.00404   0.00695

 Mulliken charges and spin densities:
               1          2
     1  Na   0.253621  -0.022008
     2  Na   0.898234   0.161414
     3  Na  -1.132654   0.352358
     4  Na  -0.390841   0.128025
     5  Na  -0.103789   0.068093
     6  Na   0.708854   0.048834
     7  Na  -0.233425   0.263283
 Sum of Mulliken charges =  -0.00000   1.00000

 Dipole moment (field-independent basis, Debye):
    X=             -0.4352    Y=             -0.0363    Z=              0.4861  Tot=              0.6535
 Quadrupole moment (field-independent basis, Debye-Ang):
   XX=            -48.8330   YY=            -78.5029   ZZ=            -67.8789
   XY=              0.7335   XZ=             -0.5417   YZ=              4.4426

 Normal termination of Gaussian 16 at Thu Dec  7 09:08:42 2023.
