 Gaussian 16, Revision B.01,
 Gaussian 16:  ES64L-G16RevB.01 20-Dec-2017

 -------------------------
 #P B3LYP/6-311+g(d) force
 -------------------------

 -----
 DPGEN
 -----
 Symbolic Z-matrix:
 Charge =  0 Multiplicity = 2

                         Standard orientation:
 ---------------------------------------------------------------------
 Center     Atomic      Atomic             Coordinates (Angstroms)
 Number     Number       Type             X           Y           Z
 ---------------------------------------------------------------------
      1         11           0        3.041780    0.122132   -0.229802
      2         11           0        0.870071   -2.542799   -0.189080
      3         11           0       -2.591550    1.394178   -0.519796
      4         11           0        0.457403    0.047673    1.968802
      5         11           0       -2.411692   -1.763596    0.468652
      6         11           0        0.422798    2.834362    0.296210
      7         11           0        0.211191   -0.091950   -1.794986
 ---------------------------------------------------------------------

 SCF Done:  E(UB3LYP) =  -1136.13733890     A.U. after   19 cycles

 The electronic state is 2-A.
 Alpha  occ. eigenvalues --  -38.43910 -38.43658 -38.43552 -38.43533 -38.43504
 Alpha  occ. eigenvalues --  -38.43276 -38.43263  -2.19786  -2.19597  -2.19527
 Alpha  occ. eigenvalues --   -2.19406  -2.19348  -2.19191  -2.19136  -1.13488
 Alpha  occ. eigenvalues --   -1.13461  -1.13409  -1.13272  -1.13254  -1.13241
 Alpha  occ. eigenvalues --   -1.13211  -1.13176  -1.13146  -1.13091  -1.13070
 Alpha  occ. eigenvalues --   -1.13051  -1.13012  -1.13003  -1.12977  -1.12868
 Alpha  occ. eigenvalues --   -1.12846  -1.12822  -1.12793  -1.12786  -1.12758
 Alpha  occ. eigenvalues --   -0.19023  -0.13031  -0.12545  -0.11199
 Alpha virt. eigenvalues --   -0.05446  -0.04823  -0.04625  -0.03308  -0.03133
 Alpha virt. eigenvalues --   -0.02808  -0.01383  -0.00924  -0.00215   0.00019
 Alpha virt. eigenvalues --    0.00051   0.00370   0.00880   0.00926   0.00939

  Beta  occ. eigenvalues --  -38.43902 -38.43571 -38.43545 -38.43497 -38.43456
  Beta  occ. eigenvalues --  -38.43270 -38.43253  -2.19775  -2.19437  -2.19393
  Beta  occ. eigenvalues --   -2.19388  -2.19339  -2.19178  -2.19128  -1.13474
  Beta  occ. eigenvalues --   -1.13435  -1.13398  -1.13183  -1.13156  -1.13129
  Beta  occ. eigenvalues --   -1.13108  -1.13095  -1.13079  -1.13059  -1.13041
  Beta  occ. eigenvalues --   -1.13014  -1.12998  -1.12990  -1.12968  -1.12847
  Beta  occ. eigenvalues --   -1.12812  -1.12807  -1.12775  -1.12772  -1.12752
  Beta  occ. eigenvalues --   -0.18273  -0.12779  -0.12268
  Beta virt. eigenvalues --   -0.07264  -0.05420  -0.04776  -0.04576  -0.02550
  Beta virt. eigenvalues --   -0.02314  -0.01751  -0.01309  -0.00850  -0.00173
  Beta virt. eigenvalues --   -0.00030   0.00125   0.00398   0.00905   0.00927

 Mulliken charges and spin densities:
               1          2
     1  Na   0.230362  -0.107110
     2  Na   0.279978   0.002350
     3  Na   0.048968  -0.007805
     4  Na  -0.300812   0.674102
     5  Na  -0.096150   0.006155
     6  Na  -0.004544  -0.074378
     7  Na  -0.157802   0.506685
 Sum of Mulliken charges =  -0.00000   1.00000

 Dipole moment (field-independent basis, Debye):
    X=              0.2414    Y=              0.0555    Z=              0.0980  Tot=              0.2664
 Quadrupole moment (field-independent basis, Debye-Ang):
   XX=            -58.2951   YY=            -64.4774   ZZ=            -71.9153
   XY=              0.4086   XZ=             -0.5068   YZ=             -0.7361

 Normal termination of Gaussian 16 at Tue Dec  5 22:33:10 2023.
