 Gaussian 16, Revision B.01,
 Gaussian 16:  ES64L-G16RevB.01 20-Dec-2017

 -------------------------
 #P B3LYP/6-311+g(d) force
 -------------------------

 -----
 DPGEN
 -----
 Symbolic Z-matrix:
 Charge =  0 Multiplicity = 2

                         Standard orientation:
 ---------------------------------------------------------------------
 Center     Atomic      Atomic             Coordinates (Angstroms)
 Number     Number       Type             X           Y           Z
 ---------------------------------------------------------------------
      1         11           0        3.361098   -2.292072   -0.500278
      2         11           0        0.566501    0.752686    1.902366
      3         11           0        0.531560    3.515025    0.144262
      4         11           0       -2.439918    1.090503   -0.998491
      5         11           0       -4.277689   -1.267658   -0.192919
      6         11           0        2.589257    0.702784   -0.976620
      7         11           0       -0.330809   -2.501268    0.621680
 ---------------------------------------------------------------------

 SCF Done:  E(UB3LYP) =  -1136.12313207     A.U. after   20 cycles

 The electronic state is 2-A.
 Alpha  occ. eigenvalues --  -38.44347 -38.44308 -38.44298 -38.44119 -38.44050
 Alpha  occ. eigenvalues --  -38.43790 -38.43769  -2.20205  -2.20102  -2.20082
 Alpha  occ. eigenvalues --   -2.19974  -2.19849  -2.19610  -2.19582  -1.13876
 Alpha  occ. eigenvalues --   -1.13867  -1.13826  -1.13797  -1.13773  -1.13754
 Alpha  occ. eigenvalues --   -1.13753  -1.13748  -1.13681  -1.13658  -1.13642
 Alpha  occ. eigenvalues --   -1.13607  -1.13504  -1.13495  -1.13473  -1.13281
 Alpha  occ. eigenvalues --   -1.13261  -1.13253  -1.13245  -1.13239  -1.13200
 Alpha  occ. eigenvalues --   -0.17117  -0.13425  -0.12597  -0.10624
 Alpha virt. eigenvalues --   -0.06004  -0.05563  -0.05233  -0.03292  -0.02899
 Alpha virt. eigenvalues --   -0.02196  -0.01806  -0.01569  -0.01165  -0.00974
 Alpha virt. eigenvalues --   -0.00058   0.00200   0.00492   0.00605   0.00683

  Beta  occ. eigenvalues --  -38.44283 -38.44278 -38.44261 -38.44076 -38.44038
  Beta  occ. eigenvalues --  -38.43789 -38.43746  -2.20087  -2.20065  -2.19997
  Beta  occ. eigenvalues --   -2.19897  -2.19828  -2.19609  -2.19543  -1.13800
  Beta  occ. eigenvalues --   -1.13789  -1.13773  -1.13751  -1.13732  -1.13711
  Beta  occ. eigenvalues --   -1.13697  -1.13676  -1.13633  -1.13608  -1.13593
  Beta  occ. eigenvalues --   -1.13534  -1.13492  -1.13470  -1.13461  -1.13270
  Beta  occ. eigenvalues --   -1.13262  -1.13252  -1.13216  -1.13208  -1.13167
  Beta  occ. eigenvalues --   -0.16536  -0.12918  -0.12376
  Beta virt. eigenvalues --   -0.07082  -0.05867  -0.05212  -0.05032  -0.02771
  Beta virt. eigenvalues --   -0.02406  -0.02029  -0.01559  -0.01355  -0.01025
  Beta virt. eigenvalues --   -0.00617   0.00154   0.00314   0.00573   0.00711

 Mulliken charges and spin densities:
               1          2
     1  Na   0.301234  -0.086967
     2  Na  -0.258381   0.249257
     3  Na   0.697741   0.265499
     4  Na  -0.456382   0.077619
     5  Na   0.447715  -0.004768
     6  Na  -0.360000   0.351294
     7  Na  -0.371926   0.148065
 Sum of Mulliken charges =  -0.00000   1.00000

 Dipole moment (field-independent basis, Debye):
    X=             -0.2381    Y=              0.1236    Z=              0.3671  Tot=              0.4547
 Quadrupole moment (field-independent basis, Debye-Ang):
   XX=            -67.4045   YY=            -58.6236   ZZ=            -72.1208
   XY=              2.3828   XZ=             -0.3540   YZ=             -1.1259

 Normal termination of Gaussian 16 at Sun Dec  3 14:17:32 2023.
