 Gaussian 16, Revision B.01,
 Gaussian 16:  ES64L-G16RevB.01 20-Dec-2017

 -------------------------
 #P B3LYP/6-311+g(d) force
 -------------------------

 -----
 DPGEN
 -----
 Symbolic Z-matrix:
 Charge =  0 Multiplicity = 2

                         Standard orientation:
 ---------------------------------------------------------------------
 Center     Atomic      Atomic             Coordinates (Angstroms)
 Number     Number       Type             X           Y           Z
 ---------------------------------------------------------------------
      1         11           0       -3.879390   -0.521674   -0.311234
      2         11           0        1.115081    2.129810   -1.401274
      3         11           0       -1.157095    2.551074    1.161115
      4         11           0        2.264732    0.545489    1.341602
      5         11           0        0.092269   -2.145264    2.120352
      6         11           0       -1.151311   -1.154995   -1.646975
      7         11           0        2.715714   -1.404439   -1.263586
 ---------------------------------------------------------------------

 SCF Done:  E(UB3LYP) =  -1136.12155418     A.U. after   21 cycles

 The electronic state is 2-A.
 Alpha  occ. eigenvalues --  -38.44954 -38.44190 -38.44173 -38.44124 -38.43792
 Alpha  occ. eigenvalues --  -38.43787 -38.43726  -2.20729  -2.20033  -2.19972
 Alpha  occ. eigenvalues --   -2.19933  -2.19623  -2.19611  -2.19496  -1.14393
 Alpha  occ. eigenvalues --   -1.14356  -1.14347  -1.13737  -1.13715  -1.13682
 Alpha  occ. eigenvalues --   -1.13660  -1.13622  -1.13612  -1.13594  -1.13577
 Alpha  occ. eigenvalues --   -1.13560  -1.13302  -1.13289  -1.13271  -1.13269
 Alpha  occ. eigenvalues --   -1.13248  -1.13238  -1.13171  -1.13150  -1.13120
 Alpha  occ. eigenvalues --   -0.17435  -0.12749  -0.11870  -0.11552
 Alpha virt. eigenvalues --   -0.06122  -0.05280  -0.04616  -0.03490  -0.03312
 Alpha virt. eigenvalues --   -0.02952  -0.01656  -0.01035  -0.00708  -0.00355
 Alpha virt. eigenvalues --    0.00066   0.00116   0.00380   0.00481   0.00756

  Beta  occ. eigenvalues --  -38.44872 -38.44193 -38.44150 -38.44100 -38.43774
  Beta  occ. eigenvalues --  -38.43758 -38.43712  -2.20577  -2.19996  -2.19979
  Beta  occ. eigenvalues --   -2.19891  -2.19591  -2.19560  -2.19470  -1.14283
  Beta  occ. eigenvalues --   -1.14253  -1.14243  -1.13708  -1.13682  -1.13674
  Beta  occ. eigenvalues --   -1.13629  -1.13626  -1.13616  -1.13561  -1.13548
  Beta  occ. eigenvalues --   -1.13526  -1.13280  -1.13270  -1.13239  -1.13230
  Beta  occ. eigenvalues --   -1.13214  -1.13200  -1.13147  -1.13132  -1.13103
  Beta  occ. eigenvalues --   -0.16696  -0.12667  -0.11471
  Beta virt. eigenvalues --   -0.07847  -0.05933  -0.05016  -0.04012  -0.03215
  Beta virt. eigenvalues --   -0.02968  -0.02154  -0.01559  -0.00886  -0.00431
  Beta virt. eigenvalues --   -0.00174   0.00101   0.00191   0.00445   0.00600

 Mulliken charges and spin densities:
               1          2
     1  Na   0.287287  -0.019927
     2  Na   0.078217   0.295112
     3  Na  -0.287042   0.043802
     4  Na   0.270549   0.179525
     5  Na  -0.135898   0.383830
     6  Na  -0.530732   0.078752
     7  Na   0.317619   0.038905
 Sum of Mulliken charges =  -0.00000   1.00000

 Dipole moment (field-independent basis, Debye):
    X=             -0.0064    Y=             -0.2617    Z=              0.2900  Tot=              0.3907
 Quadrupole moment (field-independent basis, Debye-Ang):
   XX=            -59.5056   YY=            -72.9652   ZZ=            -65.1095
   XY=             -1.2935   XZ=             -4.6809   YZ=             -1.0434

 Normal termination of Gaussian 16 at Sun Dec  3 16:01:34 2023.
