 Gaussian 16, Revision B.01,
 Gaussian 16:  ES64L-G16RevB.01 20-Dec-2017

 -------------------------
 #P B3LYP/6-311+g(d) force
 -------------------------

 -----
 DPGEN
 -----
 Symbolic Z-matrix:
 Charge =  0 Multiplicity = 2

                         Standard orientation:
 ---------------------------------------------------------------------
 Center     Atomic      Atomic             Coordinates (Angstroms)
 Number     Number       Type             X           Y           Z
 ---------------------------------------------------------------------
      1         11           0       -3.128449    0.451854   -0.237477
      2         11           0       -0.234679    0.429894    2.043336
      3         11           0        2.866040    0.741248   -0.353978
      4         11           0       -0.025781   -0.219381   -1.520651
      5         11           0       -1.826238   -2.396306   -0.055564
      6         11           0        2.348676   -2.125957    0.259930
      7         11           0        0.000432    3.118648   -0.135597
 ---------------------------------------------------------------------

 SCF Done:  E(UB3LYP) =  -1136.13331740     A.U. after   19 cycles

 The electronic state is 2-A.
 Alpha  occ. eigenvalues --  -38.44442 -38.43973 -38.43726 -38.43700 -38.43438
 Alpha  occ. eigenvalues --  -38.43201 -38.43185  -2.20294  -2.19867  -2.19580
 Alpha  occ. eigenvalues --   -2.19569  -2.19316  -2.19175  -2.19017  -1.13979
 Alpha  occ. eigenvalues --   -1.13963  -1.13926  -1.13616  -1.13543  -1.13491
 Alpha  occ. eigenvalues --   -1.13275  -1.13226  -1.13223  -1.13219  -1.13213
 Alpha  occ. eigenvalues --   -1.13201  -1.12989  -1.12942  -1.12937  -1.12860
 Alpha  occ. eigenvalues --   -1.12817  -1.12796  -1.12686  -1.12673  -1.12662
 Alpha  occ. eigenvalues --   -0.18612  -0.13513  -0.12175  -0.10550
 Alpha virt. eigenvalues --   -0.05858  -0.05106  -0.04781  -0.03330  -0.02776
 Alpha virt. eigenvalues --   -0.02352  -0.01693  -0.01146  -0.00444  -0.00387
 Alpha virt. eigenvalues --   -0.00001   0.00356   0.00768   0.00848   0.00884

  Beta  occ. eigenvalues --  -38.44436 -38.43964 -38.43722 -38.43695 -38.43345
  Beta  occ. eigenvalues --  -38.43199 -38.43129  -2.20285  -2.19854  -2.19575
  Beta  occ. eigenvalues --   -2.19564  -2.19143  -2.19075  -2.19015  -1.13976
  Beta  occ. eigenvalues --   -1.13940  -1.13914  -1.13611  -1.13517  -1.13478
  Beta  occ. eigenvalues --   -1.13267  -1.13224  -1.13218  -1.13212  -1.13196
  Beta  occ. eigenvalues --   -1.13182  -1.12876  -1.12822  -1.12813  -1.12783
  Beta  occ. eigenvalues --   -1.12743  -1.12726  -1.12672  -1.12668  -1.12656
  Beta  occ. eigenvalues --   -0.17899  -0.13277  -0.11965
  Beta virt. eigenvalues --   -0.06658  -0.05813  -0.05078  -0.04726  -0.02552
  Beta virt. eigenvalues --   -0.02033  -0.01598  -0.01340  -0.01068  -0.00491
  Beta virt. eigenvalues --   -0.00407   0.00154   0.00390   0.00811   0.00872

 Mulliken charges and spin densities:
               1          2
     1  Na   0.228022  -0.046262
     2  Na  -0.568772   0.771016
     3  Na   0.276240  -0.007426
     4  Na  -0.208043   0.307800
     5  Na   0.191809   0.033754
     6  Na   0.027427   0.043899
     7  Na   0.053317  -0.102782
 Sum of Mulliken charges =  -0.00000   1.00000

 Dipole moment (field-independent basis, Debye):
    X=             -0.3400    Y=             -0.0451    Z=              0.1007  Tot=              0.3575
 Quadrupole moment (field-independent basis, Debye-Ang):
   XX=            -56.0362   YY=            -62.1039   ZZ=            -75.4945
   XY=             -0.6136   XZ=              0.4281   YZ=             -1.8845

 Normal termination of Gaussian 16 at Fri Dec  8 03:59:18 2023.
