 Gaussian 16, Revision B.01,
 Gaussian 16:  ES64L-G16RevB.01 20-Dec-2017

 -------------------------
 #P B3LYP/6-311+g(d) force
 -------------------------

 -----
 DPGEN
 -----
 Symbolic Z-matrix:
 Charge =  0 Multiplicity = 2

                         Standard orientation:
 ---------------------------------------------------------------------
 Center     Atomic      Atomic             Coordinates (Angstroms)
 Number     Number       Type             X           Y           Z
 ---------------------------------------------------------------------
      1         11           0        2.381929    1.807354    0.100879
      2         11           0       -1.094011    1.710598   -1.660717
      3         11           0        1.903683   -1.048872   -1.684022
      4         11           0       -0.344749    1.076222    1.891924
      5         11           0       -3.734310   -0.217861    0.456223
      6         11           0        1.886480   -1.456792    1.524681
      7         11           0       -0.999023   -1.870649   -0.628967
 ---------------------------------------------------------------------

 SCF Done:  E(UB3LYP) =  -1136.13100174     A.U. after   22 cycles

 The electronic state is 2-A.
 Alpha  occ. eigenvalues --  -38.44624 -38.44618 -38.44028 -38.43555 -38.43413
 Alpha  occ. eigenvalues --  -38.43410 -38.42684  -2.20422  -2.20407  -2.19918
 Alpha  occ. eigenvalues --   -2.19425  -2.19316  -2.19264  -2.18569  -1.14100
 Alpha  occ. eigenvalues --   -1.14078  -1.14073  -1.14067  -1.14043  -1.14025
 Alpha  occ. eigenvalues --   -1.13604  -1.13578  -1.13525  -1.13118  -1.13081
 Alpha  occ. eigenvalues --   -1.13046  -1.13000  -1.12993  -1.12948  -1.12918
 Alpha  occ. eigenvalues --   -1.12908  -1.12897  -1.12274  -1.12251  -1.12175
 Alpha  occ. eigenvalues --   -0.18485  -0.13300  -0.11852  -0.11318
 Alpha virt. eigenvalues --   -0.06208  -0.04885  -0.04334  -0.03327  -0.03136
 Alpha virt. eigenvalues --   -0.02964  -0.01842  -0.00731  -0.00559  -0.00054
 Alpha virt. eigenvalues --    0.00231   0.00315   0.00396   0.00705   0.00859

  Beta  occ. eigenvalues --  -38.44623 -38.44563 -38.43981 -38.43510 -38.43410
  Beta  occ. eigenvalues --  -38.43377 -38.42675  -2.20406  -2.20319  -2.19832
  Beta  occ. eigenvalues --   -2.19345  -2.19262  -2.19257  -2.18557  -1.14075
  Beta  occ. eigenvalues --   -1.14067  -1.14040  -1.14027  -1.13994  -1.13956
  Beta  occ. eigenvalues --   -1.13537  -1.13521  -1.13460  -1.13068  -1.13015
  Beta  occ. eigenvalues --   -1.12988  -1.12971  -1.12958  -1.12906  -1.12900
  Beta  occ. eigenvalues --   -1.12889  -1.12872  -1.12261  -1.12220  -1.12172
  Beta  occ. eigenvalues --   -0.17673  -0.13160  -0.11145
  Beta virt. eigenvalues --   -0.07881  -0.05954  -0.04554  -0.03997  -0.03116
  Beta virt. eigenvalues --   -0.02493  -0.02087  -0.01753  -0.00578  -0.00311
  Beta virt. eigenvalues --    0.00059   0.00299   0.00400   0.00471   0.00823

 Mulliken charges and spin densities:
               1          2
     1  Na   0.162184   0.026519
     2  Na  -0.256794   0.171829
     3  Na   0.183048   0.414163
     4  Na  -0.274736   0.387656
     5  Na   0.364816  -0.116686
     6  Na   0.218032  -0.027783
     7  Na  -0.396551   0.144302
 Sum of Mulliken charges =  -0.00000   1.00000

 Dipole moment (field-independent basis, Debye):
    X=             -0.6078    Y=              0.3231    Z=              0.0813  Tot=              0.6931
 Quadrupole moment (field-independent basis, Debye-Ang):
   XX=            -53.7319   YY=            -75.7739   ZZ=            -65.2429
   XY=             -0.5283   XZ=             -1.1702   YZ=             -4.9931

 Normal termination of Gaussian 16 at Thu Dec  7 11:20:35 2023.
