 Gaussian 16, Revision B.01,
 Gaussian 16:  ES64L-G16RevB.01 20-Dec-2017

 -------------------------
 #P B3LYP/6-311+g(d) force
 -------------------------

 -----
 DPGEN
 -----
 Symbolic Z-matrix:
 Charge =  0 Multiplicity = 2

                         Standard orientation:
 ---------------------------------------------------------------------
 Center     Atomic      Atomic             Coordinates (Angstroms)
 Number     Number       Type             X           Y           Z
 ---------------------------------------------------------------------
      1         11           0       -2.180613    1.833741    0.983042
      2         11           0        1.348648    2.515886    0.196427
      3         11           0       -0.107333   -2.707406    0.327794
      4         11           0       -0.052736    0.294848   -1.421747
      5         11           0        2.967319   -0.315371   -1.656130
      6         11           0        1.426143   -0.880296    2.505510
      7         11           0       -3.401428   -0.741402   -0.934895
 ---------------------------------------------------------------------

 SCF Done:  E(UB3LYP) =  -1136.12592233     A.U. after   20 cycles

 The electronic state is 2-A.
 Alpha  occ. eigenvalues --  -38.44665 -38.44454 -38.44018 -38.43963 -38.43349
 Alpha  occ. eigenvalues --  -38.43347 -38.43095  -2.20492  -2.20269  -2.19819
 Alpha  occ. eigenvalues --   -2.19771  -2.19345  -2.19192  -2.18911  -1.14200
 Alpha  occ. eigenvalues --   -1.14114  -1.14098  -1.13928  -1.13898  -1.13888
 Alpha  occ. eigenvalues --   -1.13499  -1.13483  -1.13456  -1.13443  -1.13430
 Alpha  occ. eigenvalues --   -1.13386  -1.13088  -1.13006  -1.12986  -1.12853
 Alpha  occ. eigenvalues --   -1.12848  -1.12800  -1.12605  -1.12584  -1.12536
 Alpha  occ. eigenvalues --   -0.17834  -0.12952  -0.11918  -0.11598
 Alpha virt. eigenvalues --   -0.05706  -0.05192  -0.04318  -0.03509  -0.03064
 Alpha virt. eigenvalues --   -0.03014  -0.01733  -0.01028  -0.00525  -0.00061
 Alpha virt. eigenvalues --    0.00078   0.00304   0.00434   0.00706   0.00818

  Beta  occ. eigenvalues --  -38.44614 -38.44369 -38.44005 -38.43949 -38.43339
  Beta  occ. eigenvalues --  -38.43314 -38.43100  -2.20399  -2.20110  -2.19795
  Beta  occ. eigenvalues --   -2.19747  -2.19283  -2.19180  -2.18923  -1.14124
  Beta  occ. eigenvalues --   -1.14054  -1.14038  -1.13820  -1.13789  -1.13778
  Beta  occ. eigenvalues --   -1.13478  -1.13469  -1.13440  -1.13424  -1.13415
  Beta  occ. eigenvalues --   -1.13364  -1.13050  -1.12976  -1.12923  -1.12836
  Beta  occ. eigenvalues --   -1.12831  -1.12778  -1.12613  -1.12574  -1.12542
  Beta  occ. eigenvalues --   -0.17187  -0.12666  -0.11562
  Beta virt. eigenvalues --   -0.07901  -0.05514  -0.04825  -0.04034  -0.03179
  Beta virt. eigenvalues --   -0.02589  -0.02229  -0.01543  -0.00781  -0.00381
  Beta virt. eigenvalues --    0.00047   0.00178   0.00344   0.00597   0.00827

 Mulliken charges and spin densities:
               1          2
     1  Na  -0.086097   0.147569
     2  Na  -0.360558   0.242297
     3  Na  -0.366231   0.019590
     4  Na   0.086676   0.108651
     5  Na   0.283206   0.008530
     6  Na  -0.150617   0.424020
     7  Na   0.593622   0.049343
 Sum of Mulliken charges =  -0.00000   1.00000

 Dipole moment (field-independent basis, Debye):
    X=              0.2525    Y=              0.0496    Z=              0.1736  Tot=              0.3104
 Quadrupole moment (field-independent basis, Debye-Ang):
   XX=            -55.9404   YY=            -71.7743   ZZ=            -66.8308
   XY=              1.0182   XZ=             -0.7355   YZ=              4.9340

 Normal termination of Gaussian 16 at Mon Dec  4 04:38:35 2023.
