 Gaussian 16, Revision B.01,
 Gaussian 16:  ES64L-G16RevB.01 20-Dec-2017

 -------------------------
 #P B3LYP/6-311+g(d) force
 -------------------------

 -----
 DPGEN
 -----
 Symbolic Z-matrix:
 Charge =  0 Multiplicity = 2

                         Standard orientation:
 ---------------------------------------------------------------------
 Center     Atomic      Atomic             Coordinates (Angstroms)
 Number     Number       Type             X           Y           Z
 ---------------------------------------------------------------------
      1         11           0       -0.054745   -0.110560   -1.552602
      2         11           0       -0.344839    2.950835   -0.048813
      3         11           0        2.180836   -1.999300   -0.076509
      4         11           0       -3.270735    0.496523   -0.078261
      5         11           0        0.290674    0.050698    2.140145
      6         11           0       -1.499798   -2.555044   -0.053144
      7         11           0        2.698607    1.166848   -0.330815
 ---------------------------------------------------------------------

 SCF Done:  E(UB3LYP) =  -1136.13838601     A.U. after   19 cycles

 The electronic state is 2-A.
 Alpha  occ. eigenvalues --  -38.44269 -38.43673 -38.43638 -38.43520 -38.43481
 Alpha  occ. eigenvalues --  -38.43329 -38.43073  -2.20060  -2.19566  -2.19515
 Alpha  occ. eigenvalues --   -2.19368  -2.19364  -2.19159  -2.19083  -1.13737
 Alpha  occ. eigenvalues --   -1.13715  -1.13701  -1.13276  -1.13232  -1.13210
 Alpha  occ. eigenvalues --   -1.13175  -1.13139  -1.13134  -1.13083  -1.13048
 Alpha  occ. eigenvalues --   -1.13026  -1.13016  -1.13002  -1.12977  -1.12851
 Alpha  occ. eigenvalues --   -1.12826  -1.12791  -1.12761  -1.12712  -1.12697
 Alpha  occ. eigenvalues --   -0.18715  -0.13057  -0.12409  -0.10762
 Alpha virt. eigenvalues --   -0.05720  -0.05069  -0.04724  -0.03120  -0.02829
 Alpha virt. eigenvalues --   -0.02626  -0.01553  -0.01091  -0.00416  -0.00336
 Alpha virt. eigenvalues --   -0.00016   0.00350   0.00791   0.00886   0.00900

  Beta  occ. eigenvalues --  -38.44269 -38.43663 -38.43534 -38.43517 -38.43474
  Beta  occ. eigenvalues --  -38.43326 -38.43015  -2.20063  -2.19550  -2.19363
  Beta  occ. eigenvalues --   -2.19357  -2.19324  -2.19157  -2.18979  -1.13726
  Beta  occ. eigenvalues --   -1.13719  -1.13706  -1.13265  -1.13210  -1.13182
  Beta  occ. eigenvalues --   -1.13080  -1.13054  -1.13036  -1.13012  -1.13009
  Beta  occ. eigenvalues --   -1.13001  -1.12995  -1.12979  -1.12970  -1.12843
  Beta  occ. eigenvalues --   -1.12805  -1.12793  -1.12691  -1.12638  -1.12621
  Beta  occ. eigenvalues --   -0.17978  -0.12837  -0.12181
  Beta virt. eigenvalues --   -0.06784  -0.05699  -0.05077  -0.04676  -0.02361
  Beta virt. eigenvalues --   -0.02047  -0.01540  -0.01445  -0.01023  -0.00454
  Beta virt. eigenvalues --   -0.00401   0.00141   0.00383   0.00836   0.00894

 Mulliken charges and spin densities:
               1          2
     1  Na  -0.306446   0.317155
     2  Na   0.056573  -0.066354
     3  Na   0.362317   0.035655
     4  Na   0.012101  -0.072348
     5  Na  -0.634192   0.799512
     6  Na   0.157239  -0.049709
     7  Na   0.352409   0.036089
 Sum of Mulliken charges =  -0.00000   1.00000

 Dipole moment (field-independent basis, Debye):
    X=             -0.2735    Y=              0.0138    Z=              0.1868  Tot=              0.3315
 Quadrupole moment (field-independent basis, Debye-Ang):
   XX=            -56.2051   YY=            -62.5191   ZZ=            -74.5430
   XY=             -0.5153   XZ=             -0.8221   YZ=             -0.3877

 Normal termination of Gaussian 16 at Thu Dec  7 13:03:33 2023.
