 Gaussian 16, Revision B.01,
 Gaussian 16:  ES64L-G16RevB.01 20-Dec-2017

 -------------------------
 #P B3LYP/6-311+g(d) force
 -------------------------

 -----
 DPGEN
 -----
 Symbolic Z-matrix:
 Charge =  0 Multiplicity = 2

                         Standard orientation:
 ---------------------------------------------------------------------
 Center     Atomic      Atomic             Coordinates (Angstroms)
 Number     Number       Type             X           Y           Z
 ---------------------------------------------------------------------
      1         11           0       -0.183321   -1.822304    1.294781
      2         11           0       -2.870974   -2.756379   -0.233557
      3         11           0       -4.596686    0.005274   -0.695777
      4         11           0       -2.020496    2.529804    0.219759
      5         11           0        0.876494    3.015947   -0.180179
      6         11           0        3.615447    0.459712    0.595647
      7         11           0        5.179537   -1.432054   -1.000674
 ---------------------------------------------------------------------

 SCF Done:  E(UB3LYP) =  -1136.10861582     A.U. after   19 cycles

 The electronic state is 2-A.
 Alpha  occ. eigenvalues --  -38.45368 -38.44638 -38.44526 -38.44210 -38.44102
 Alpha  occ. eigenvalues --  -38.44047 -38.43806  -2.21158  -2.20454  -2.20352
 Alpha  occ. eigenvalues --   -2.20026  -2.19926  -2.19861  -2.19630  -1.14813
 Alpha  occ. eigenvalues --   -1.14791  -1.14775  -1.14102  -1.14091  -1.14088
 Alpha  occ. eigenvalues --   -1.14086  -1.13981  -1.13979  -1.13701  -1.13691
 Alpha  occ. eigenvalues --   -1.13677  -1.13621  -1.13587  -1.13577  -1.13561
 Alpha  occ. eigenvalues --   -1.13526  -1.13508  -1.13277  -1.13263  -1.13247
 Alpha  occ. eigenvalues --   -0.16083  -0.14132  -0.12631  -0.11382
 Alpha virt. eigenvalues --   -0.06636  -0.05935  -0.03873  -0.03446  -0.03170
 Alpha virt. eigenvalues --   -0.02968  -0.02132  -0.01581  -0.01217  -0.00846
 Alpha virt. eigenvalues --   -0.00518  -0.00045   0.00213   0.00317   0.00656

  Beta  occ. eigenvalues --  -38.45276 -38.44559 -38.44483 -38.44213 -38.44106
  Beta  occ. eigenvalues --  -38.44050 -38.43798  -2.20988  -2.20304  -2.20271
  Beta  occ. eigenvalues --   -2.20038  -2.19937  -2.19867  -2.19614  -1.14697
  Beta  occ. eigenvalues --   -1.14679  -1.14654  -1.14039  -1.14003  -1.13996
  Beta  occ. eigenvalues --   -1.13983  -1.13926  -1.13924  -1.13706  -1.13698
  Beta  occ. eigenvalues --   -1.13655  -1.13613  -1.13596  -1.13588  -1.13540
  Beta  occ. eigenvalues --   -1.13529  -1.13514  -1.13265  -1.13249  -1.13243
  Beta  occ. eigenvalues --   -0.15450  -0.13657  -0.12264
  Beta virt. eigenvalues --   -0.07989  -0.06290  -0.05422  -0.03696  -0.03179
  Beta virt. eigenvalues --   -0.02774  -0.02536  -0.01959  -0.01481  -0.00972
  Beta virt. eigenvalues --   -0.00651  -0.00147   0.00168   0.00301   0.00467

 Mulliken charges and spin densities:
               1          2
     1  Na  -0.594347   0.496942
     2  Na   0.698453  -0.083479
     3  Na  -0.036427   0.353154
     4  Na  -0.328662   0.102177
     5  Na   0.455343  -0.032672
     6  Na  -0.494274  -0.020516
     7  Na   0.299914   0.184394
 Sum of Mulliken charges =  -0.00000   1.00000

 Dipole moment (field-independent basis, Debye):
    X=              0.0080    Y=             -0.9454    Z=             -0.2811  Tot=              0.9864
 Quadrupole moment (field-independent basis, Debye-Ang):
   XX=            -62.0228   YY=            -68.2351   ZZ=            -69.7234
   XY=             -0.5702   XZ=             -1.3710   YZ=              2.8875

 Normal termination of Gaussian 16 at Mon Dec  4 03:27:34 2023.
