 Gaussian 16, Revision B.01,
 Gaussian 16:  ES64L-G16RevB.01 20-Dec-2017

 -------------------------
 #P B3LYP/6-311+g(d) force
 -------------------------

 -----
 DPGEN
 -----
 Symbolic Z-matrix:
 Charge =  0 Multiplicity = 2

                         Standard orientation:
 ---------------------------------------------------------------------
 Center     Atomic      Atomic             Coordinates (Angstroms)
 Number     Number       Type             X           Y           Z
 ---------------------------------------------------------------------
      1         11           0        2.757632   -1.618644   -0.031100
      2         11           0       -0.829944    2.973279   -0.132824
      3         11           0        0.031024    0.000107   -1.393600
      4         11           0       -3.280222   -0.067828   -0.301901
      5         11           0       -0.849889   -2.787132   -0.253949
      6         11           0        2.634069    1.625626   -0.067675
      7         11           0       -0.462670   -0.125407    2.181049
 ---------------------------------------------------------------------

 SCF Done:  E(UB3LYP) =  -1136.13618188     A.U. after   19 cycles

 The electronic state is 2-A.
 Alpha  occ. eigenvalues --  -38.44493 -38.43845 -38.43825 -38.43528 -38.43521
 Alpha  occ. eigenvalues --  -38.43500 -38.42927  -2.20297  -2.19677  -2.19666
 Alpha  occ. eigenvalues --   -2.19387  -2.19356  -2.19333  -2.18944  -1.13974
 Alpha  occ. eigenvalues --   -1.13951  -1.13933  -1.13408  -1.13349  -1.13336
 Alpha  occ. eigenvalues --   -1.13323  -1.13313  -1.13265  -1.13085  -1.13051
 Alpha  occ. eigenvalues --   -1.13026  -1.13022  -1.13007  -1.12997  -1.12988
 Alpha  occ. eigenvalues --   -1.12968  -1.12963  -1.12634  -1.12587  -1.12562
 Alpha  occ. eigenvalues --   -0.18422  -0.13094  -0.12336  -0.10476
 Alpha virt. eigenvalues --   -0.05946  -0.05174  -0.04801  -0.03065  -0.02674
 Alpha virt. eigenvalues --   -0.02460  -0.01764  -0.01176  -0.00570  -0.00525
 Alpha virt. eigenvalues --   -0.00019   0.00325   0.00756   0.00836   0.00854

  Beta  occ. eigenvalues --  -38.44486 -38.43845 -38.43823 -38.43518 -38.43492
  Beta  occ. eigenvalues --  -38.43420 -38.42879  -2.20286  -2.19678  -2.19666
  Beta  occ. eigenvalues --   -2.19344  -2.19331  -2.19187  -2.18859  -1.13952
  Beta  occ. eigenvalues --   -1.13939  -1.13929  -1.13410  -1.13338  -1.13327
  Beta  occ. eigenvalues --   -1.13320  -1.13305  -1.13269  -1.13071  -1.13018
  Beta  occ. eigenvalues --   -1.12986  -1.12981  -1.12965  -1.12964  -1.12911
  Beta  occ. eigenvalues --   -1.12867  -1.12861  -1.12568  -1.12525  -1.12500
  Beta  occ. eigenvalues --   -0.17729  -0.12886  -0.12126
  Beta virt. eigenvalues --   -0.06514  -0.05908  -0.05188  -0.04745  -0.02332
  Beta virt. eigenvalues --   -0.01941  -0.01676  -0.01347  -0.01110  -0.00606
  Beta virt. eigenvalues --   -0.00580   0.00157   0.00372   0.00796   0.00850

 Mulliken charges and spin densities:
               1          2
     1  Na   0.200882   0.010225
     2  Na   0.126689  -0.028070
     3  Na  -0.463812   0.193643
     4  Na   0.256382  -0.007786
     5  Na   0.316250   0.025805
     6  Na   0.183018  -0.002448
     7  Na  -0.619409   0.808631
 Sum of Mulliken charges =  -0.00000   1.00000

 Dipole moment (field-independent basis, Debye):
    X=             -0.2492    Y=             -0.0154    Z=              0.1232  Tot=              0.2784
 Quadrupole moment (field-independent basis, Debye-Ang):
   XX=            -54.3058   YY=            -61.7419   ZZ=            -76.2907
   XY=             -0.4399   XZ=              1.1686   YZ=              0.2872

 Normal termination of Gaussian 16 at Thu Dec  7 12:03:03 2023.
