 Gaussian 16, Revision B.01,
 Gaussian 16:  ES64L-G16RevB.01 20-Dec-2017

 -------------------------
 #P B3LYP/6-311+g(d) force
 -------------------------

 -----
 DPGEN
 -----
 Symbolic Z-matrix:
 Charge =  0 Multiplicity = 2

                         Standard orientation:
 ---------------------------------------------------------------------
 Center     Atomic      Atomic             Coordinates (Angstroms)
 Number     Number       Type             X           Y           Z
 ---------------------------------------------------------------------
      1         11           0       -2.861266    2.998883   -0.413103
      2         11           0        0.052661    1.435926    0.479944
      3         11           0       -3.033727   -2.670481   -0.357038
      4         11           0        0.602275   -1.775137    0.158349
      5         11           0       -5.127018   -0.350732    0.295553
      6         11           0        3.672545    0.908660   -0.074597
      7         11           0        6.694530   -0.547120   -0.089108
 ---------------------------------------------------------------------

 SCF Done:  E(UB3LYP) =  -1136.10890090     A.U. after   23 cycles

 The electronic state is 2-A.
 Alpha  occ. eigenvalues --  -38.45898 -38.44786 -38.44751 -38.44560 -38.44432
 Alpha  occ. eigenvalues --  -38.43607 -38.43373  -2.21701  -2.20563  -2.20535
 Alpha  occ. eigenvalues --   -2.20331  -2.20212  -2.19400  -2.19199  -1.15370
 Alpha  occ. eigenvalues --   -1.15361  -1.15287  -1.14232  -1.14227  -1.14197
 Alpha  occ. eigenvalues --   -1.14179  -1.14179  -1.14167  -1.13994  -1.13977
 Alpha  occ. eigenvalues --   -1.13963  -1.13906  -1.13891  -1.13834  -1.13068
 Alpha  occ. eigenvalues --   -1.13064  -1.13051  -1.12899  -1.12878  -1.12825
 Alpha  occ. eigenvalues --   -0.16313  -0.13913  -0.12204  -0.11767
 Alpha virt. eigenvalues --   -0.06916  -0.05487  -0.04666  -0.03711  -0.02998
 Alpha virt. eigenvalues --   -0.02602  -0.02143  -0.01499  -0.01232  -0.00899
 Alpha virt. eigenvalues --   -0.00718  -0.00389  -0.00227   0.00158   0.00662

  Beta  occ. eigenvalues --  -38.45814 -38.44767 -38.44685 -38.44519 -38.44436
  Beta  occ. eigenvalues --  -38.43604 -38.43373  -2.21546  -2.20526  -2.20414
  Beta  occ. eigenvalues --   -2.20253  -2.20224  -2.19394  -2.19203  -1.15264
  Beta  occ. eigenvalues --   -1.15257  -1.15172  -1.14208  -1.14205  -1.14166
  Beta  occ. eigenvalues --   -1.14097  -1.14096  -1.14087  -1.13941  -1.13929
  Beta  occ. eigenvalues --   -1.13918  -1.13907  -1.13904  -1.13812  -1.13066
  Beta  occ. eigenvalues --   -1.13063  -1.13031  -1.12894  -1.12883  -1.12816
  Beta  occ. eigenvalues --   -0.15591  -0.13361  -0.11394
  Beta virt. eigenvalues --   -0.09011  -0.06313  -0.04994  -0.04330  -0.03445
  Beta virt. eigenvalues --   -0.02727  -0.02435  -0.01881  -0.01272  -0.00929
  Beta virt. eigenvalues --   -0.00580  -0.00514  -0.00329   0.00005   0.00231

 Mulliken charges and spin densities:
               1          2
     1  Na   0.731942   0.274059
     2  Na  -1.595113  -0.111004
     3  Na   0.241274  -0.086426
     4  Na   0.104327   0.435392
     5  Na  -0.320637   0.143702
     6  Na   0.214907   0.220778
     7  Na   0.623300   0.123499
 Sum of Mulliken charges =  -0.00000   1.00000

 Dipole moment (field-independent basis, Debye):
    X=              0.3460    Y=             -0.3390    Z=             -0.0300  Tot=              0.4853
 Quadrupole moment (field-independent basis, Debye-Ang):
   XX=            -55.5787   YY=            -67.9609   ZZ=            -73.7111
   XY=             -9.4837   XZ=             -0.3197   YZ=             -0.6369

 Normal termination of Gaussian 16 at Sun Dec  3 14:47:16 2023.
