 Gaussian 16, Revision B.01,
 Gaussian 16:  ES64L-G16RevB.01 20-Dec-2017

 -------------------------
 #P B3LYP/6-311+g(d) force
 -------------------------

 -----
 DPGEN
 -----
 Symbolic Z-matrix:
 Charge =  0 Multiplicity = 2

                         Standard orientation:
 ---------------------------------------------------------------------
 Center     Atomic      Atomic             Coordinates (Angstroms)
 Number     Number       Type             X           Y           Z
 ---------------------------------------------------------------------
      1         11           0        2.473156   -1.413011   -0.201716
      2         11           0       -3.136506   -0.763319   -0.460136
      3         11           0       -0.373977   -2.522102    0.201947
      4         11           0       -1.993627    2.435537    0.225637
      5         11           0        0.305809    0.131392    2.116237
      6         11           0        2.576607    1.917572   -0.323964
      7         11           0        0.148537    0.213931   -1.558006
 ---------------------------------------------------------------------

 SCF Done:  E(UB3LYP) =  -1136.13249221     A.U. after   20 cycles

 The electronic state is 2-A.
 Alpha  occ. eigenvalues --  -38.44189 -38.43863 -38.43848 -38.43766 -38.43725
 Alpha  occ. eigenvalues --  -38.43333 -38.42606  -2.20018  -2.19707  -2.19672
 Alpha  occ. eigenvalues --   -2.19663  -2.19647  -2.19339  -2.18553  -1.13688
 Alpha  occ. eigenvalues --   -1.13681  -1.13658  -1.13429  -1.13391  -1.13379
 Alpha  occ. eigenvalues --   -1.13351  -1.13339  -1.13325  -1.13318  -1.13308
 Alpha  occ. eigenvalues --   -1.13287  -1.13284  -1.13276  -1.13265  -1.13027
 Alpha  occ. eigenvalues --   -1.12972  -1.12954  -1.12241  -1.12208  -1.12191
 Alpha  occ. eigenvalues --   -0.18916  -0.13397  -0.12121  -0.10998
 Alpha virt. eigenvalues --   -0.05803  -0.05416  -0.04133  -0.03301  -0.02831
 Alpha virt. eigenvalues --   -0.02694  -0.01677  -0.01115  -0.00412  -0.00085
 Alpha virt. eigenvalues --    0.00053   0.00327   0.00759   0.00831   0.00935

  Beta  occ. eigenvalues --  -38.44181 -38.43856 -38.43845 -38.43715 -38.43662
  Beta  occ. eigenvalues --  -38.43279 -38.42597  -2.20005  -2.19698  -2.19658
  Beta  occ. eigenvalues --   -2.19645  -2.19471  -2.19241  -2.18542  -1.13675
  Beta  occ. eigenvalues --   -1.13665  -1.13652  -1.13416  -1.13381  -1.13369
  Beta  occ. eigenvalues --   -1.13328  -1.13312  -1.13305  -1.13284  -1.13283
  Beta  occ. eigenvalues --   -1.13271  -1.13202  -1.13153  -1.13131  -1.12962
  Beta  occ. eigenvalues --   -1.12901  -1.12878  -1.12238  -1.12199  -1.12149
  Beta  occ. eigenvalues --   -0.18173  -0.13146  -0.11874
  Beta virt. eigenvalues --   -0.07047  -0.05740  -0.05362  -0.04107  -0.02590
  Beta virt. eigenvalues --   -0.02040  -0.01639  -0.01569  -0.01032  -0.00438
  Beta virt. eigenvalues --   -0.00034   0.00126   0.00365   0.00827   0.00852

 Mulliken charges and spin densities:
               1          2
     1  Na   0.411045   0.086606
     2  Na   0.099954   0.007892
     3  Na   0.189248   0.125398
     4  Na  -0.004991  -0.011190
     5  Na  -0.521154   0.614391
     6  Na   0.175010  -0.011069
     7  Na  -0.349111   0.187973
 Sum of Mulliken charges =  -0.00000   1.00000

 Dipole moment (field-independent basis, Debye):
    X=             -0.0796    Y=              0.3950    Z=              0.1430  Tot=              0.4276
 Quadrupole moment (field-independent basis, Debye-Ang):
   XX=            -55.0836   YY=            -65.6158   ZZ=            -73.2124
   XY=              0.6396   XZ=              0.2445   YZ=              0.6363

 Normal termination of Gaussian 16 at Thu Dec  7 09:02:00 2023.
