 Gaussian 16, Revision B.01,
 Gaussian 16:  ES64L-G16RevB.01 20-Dec-2017

 -------------------------
 #P B3LYP/6-311+g(d) force
 -------------------------

 -----
 DPGEN
 -----
 Symbolic Z-matrix:
 Charge =  0 Multiplicity = 2

                         Standard orientation:
 ---------------------------------------------------------------------
 Center     Atomic      Atomic             Coordinates (Angstroms)
 Number     Number       Type             X           Y           Z
 ---------------------------------------------------------------------
      1         11           0       -2.659289    1.205554   -0.435785
      2         11           0        0.390015   -0.085316    1.747071
      3         11           0       -2.149028   -1.781920    0.503299
      4         11           0        1.079648   -2.615206   -0.262044
      5         11           0        2.973281    0.368180   -0.233214
      6         11           0        0.402181    2.837561    0.385223
      7         11           0       -0.036807    0.071147   -1.704550
 ---------------------------------------------------------------------

 SCF Done:  E(UB3LYP) =  -1136.13797639     A.U. after   19 cycles

 The electronic state is 2-A.
 Alpha  occ. eigenvalues --  -38.43822 -38.43505 -38.43383 -38.43364 -38.43309
 Alpha  occ. eigenvalues --  -38.43173 -38.43152  -2.19697  -2.19399  -2.19271
 Alpha  occ. eigenvalues --   -2.19254  -2.19211  -2.19189  -2.19178  -1.13384
 Alpha  occ. eigenvalues --   -1.13377  -1.13318  -1.13139  -1.13086  -1.13033
 Alpha  occ. eigenvalues --   -1.12993  -1.12979  -1.12946  -1.12921  -1.12909
 Alpha  occ. eigenvalues --   -1.12901  -1.12890  -1.12872  -1.12847  -1.12821
 Alpha  occ. eigenvalues --   -1.12819  -1.12798  -1.12788  -1.12779  -1.12771
 Alpha  occ. eigenvalues --   -0.19316  -0.13124  -0.12703  -0.10964
 Alpha virt. eigenvalues --   -0.05357  -0.04791  -0.04722  -0.03226  -0.03016
 Alpha virt. eigenvalues --   -0.02463  -0.01335  -0.01066  -0.00175   0.00025
 Alpha virt. eigenvalues --    0.00108   0.00372   0.00894   0.00943   0.00953

  Beta  occ. eigenvalues --  -38.43815 -38.43496 -38.43374 -38.43351 -38.43300
  Beta  occ. eigenvalues --  -38.43095 -38.43076  -2.19688  -2.19385  -2.19252
  Beta  occ. eigenvalues --   -2.19240  -2.19200  -2.19046  -2.19040  -1.13380
  Beta  occ. eigenvalues --   -1.13349  -1.13308  -1.13121  -1.13065  -1.13015
  Beta  occ. eigenvalues --   -1.12965  -1.12952  -1.12916  -1.12893  -1.12889
  Beta  occ. eigenvalues --   -1.12875  -1.12864  -1.12859  -1.12808  -1.12775
  Beta  occ. eigenvalues --   -1.12730  -1.12705  -1.12692  -1.12686  -1.12682
  Beta  occ. eigenvalues --   -0.18590  -0.12847  -0.12412
  Beta virt. eigenvalues --   -0.07020  -0.05344  -0.04767  -0.04689  -0.02430
  Beta virt. eigenvalues --   -0.02221  -0.01407  -0.01254  -0.00994  -0.00138
  Beta virt. eigenvalues --   -0.00018   0.00166   0.00393   0.00905   0.00938

 Mulliken charges and spin densities:
               1          2
     1  Na   0.125755   0.003280
     2  Na  -0.180897   0.570222
     3  Na   0.094466   0.029012
     4  Na   0.117105  -0.020589
     5  Na   0.044375  -0.086933
     6  Na   0.004784  -0.053058
     7  Na  -0.205588   0.558067
 Sum of Mulliken charges =  -0.00000   1.00000

 Dipole moment (field-independent basis, Debye):
    X=              0.2581    Y=              0.0739    Z=              0.0015  Tot=              0.2685
 Quadrupole moment (field-independent basis, Debye-Ang):
   XX=            -58.1713   YY=            -61.8074   ZZ=            -73.4148
   XY=             -0.0725   XZ=             -0.9849   YZ=              0.2166

 Normal termination of Gaussian 16 at Thu Dec  7 22:16:57 2023.
