 Gaussian 16, Revision B.01,
 Gaussian 16:  ES64L-G16RevB.01 20-Dec-2017

 -------------------------
 #P B3LYP/6-311+g(d) force
 -------------------------

 -----
 DPGEN
 -----
 Symbolic Z-matrix:
 Charge =  0 Multiplicity = 2

                         Standard orientation:
 ---------------------------------------------------------------------
 Center     Atomic      Atomic             Coordinates (Angstroms)
 Number     Number       Type             X           Y           Z
 ---------------------------------------------------------------------
      1         11           0        1.429353   -2.936061    0.309765
      2         11           0       -1.494835   -2.152276   -1.575148
      3         11           0        2.656573    2.606488   -0.396520
      4         11           0        3.672843   -0.319854    0.067990
      5         11           0       -0.966955    2.949942   -0.053407
      6         11           0       -1.119885   -0.829818    1.581732
      7         11           0       -4.177094    0.681580    0.065588
 ---------------------------------------------------------------------

 SCF Done:  E(UB3LYP) =  -1136.11428986     A.U. after   24 cycles

 The electronic state is 2-A.
 Alpha  occ. eigenvalues --  -38.45759 -38.44700 -38.44409 -38.44374 -38.43940
 Alpha  occ. eigenvalues --  -38.43691 -38.43550  -2.21543  -2.20453  -2.20233
 Alpha  occ. eigenvalues --   -2.20156  -2.19759  -2.19518  -2.19356  -1.15237
 Alpha  occ. eigenvalues --   -1.15228  -1.15149  -1.14150  -1.14132  -1.14055
 Alpha  occ. eigenvalues --   -1.13888  -1.13867  -1.13851  -1.13821  -1.13810
 Alpha  occ. eigenvalues --   -1.13771  -1.13450  -1.13437  -1.13389  -1.13221
 Alpha  occ. eigenvalues --   -1.13179  -1.13155  -1.13022  -1.13006  -1.12982
 Alpha  occ. eigenvalues --   -0.16763  -0.13524  -0.12993  -0.09762
 Alpha virt. eigenvalues --   -0.07259  -0.06218  -0.04498  -0.03145  -0.02956
 Alpha virt. eigenvalues --   -0.02548  -0.02032  -0.01659  -0.01274  -0.00897
 Alpha virt. eigenvalues --   -0.00077  -0.00020   0.00317   0.00479   0.00592

  Beta  occ. eigenvalues --  -38.45765 -38.44676 -38.44331 -38.44329 -38.43933
  Beta  occ. eigenvalues --  -38.43661 -38.43543  -2.21555  -2.20413  -2.20088
  Beta  occ. eigenvalues --   -2.20072  -2.19754  -2.19462  -2.19345  -1.15245
  Beta  occ. eigenvalues --   -1.15228  -1.15160  -1.14125  -1.14107  -1.14002
  Beta  occ. eigenvalues --   -1.13788  -1.13768  -1.13759  -1.13755  -1.13752
  Beta  occ. eigenvalues --   -1.13716  -1.13452  -1.13436  -1.13344  -1.13191
  Beta  occ. eigenvalues --   -1.13141  -1.13117  -1.13016  -1.12997  -1.12956
  Beta  occ. eigenvalues --   -0.16423  -0.13109  -0.12399
  Beta virt. eigenvalues --   -0.06993  -0.06503  -0.06127  -0.04189  -0.02740
  Beta virt. eigenvalues --   -0.02627  -0.02204  -0.01681  -0.01497  -0.01108
  Beta virt. eigenvalues --   -0.00757   0.00109   0.00223   0.00521   0.00598

 Mulliken charges and spin densities:
               1          2
     1  Na   0.446220   0.030143
     2  Na  -0.176455   0.393418
     3  Na   0.313371  -0.030611
     4  Na  -0.412242   0.215303
     5  Na  -0.271173   0.169859
     6  Na  -0.192176  -0.009220
     7  Na   0.292456   0.231108
 Sum of Mulliken charges =  -0.00000   1.00000

 Dipole moment (field-independent basis, Debye):
    X=             -1.2810    Y=             -0.5545    Z=             -0.0846  Tot=              1.3984
 Quadrupole moment (field-independent basis, Debye-Ang):
   XX=            -65.6912   YY=            -70.5807   ZZ=            -68.1343
   XY=             -0.3552   XZ=              2.1390   YZ=             -0.9422

 Normal termination of Gaussian 16 at Mon Dec  4 00:39:51 2023.
