 Gaussian 16, Revision B.01,
 Gaussian 16:  ES64L-G16RevB.01 20-Dec-2017

 -------------------------
 #P B3LYP/6-311+g(d) force
 -------------------------

 -----
 DPGEN
 -----
 Symbolic Z-matrix:
 Charge =  0 Multiplicity = 2

                         Standard orientation:
 ---------------------------------------------------------------------
 Center     Atomic      Atomic             Coordinates (Angstroms)
 Number     Number       Type             X           Y           Z
 ---------------------------------------------------------------------
      1         11           0        0.482837   -3.266960   -1.043826
      2         11           0       -1.992284    3.677832   -0.072090
      3         11           0        1.101741    3.069711   -0.459238
      4         11           0        4.140081    0.926070   -0.096392
      5         11           0       -4.081574    0.023732    0.696489
      6         11           0       -3.008184   -2.617209   -0.131103
      7         11           0        3.357383   -1.813176    1.106159
 ---------------------------------------------------------------------

 SCF Done:  E(UB3LYP) =  -1136.10608432     A.U. after   20 cycles

 The electronic state is 2-A.
 Alpha  occ. eigenvalues --  -38.45274 -38.44458 -38.44449 -38.44439 -38.44422
 Alpha  occ. eigenvalues --  -38.44305 -38.44181  -2.21054  -2.20265  -2.20247
 Alpha  occ. eigenvalues --   -2.20238  -2.20234  -2.20092  -2.19997  -1.14748
 Alpha  occ. eigenvalues --   -1.14723  -1.14701  -1.14013  -1.13935  -1.13913
 Alpha  occ. eigenvalues --   -1.13902  -1.13901  -1.13898  -1.13887  -1.13883
 Alpha  occ. eigenvalues --   -1.13880  -1.13873  -1.13872  -1.13851  -1.13748
 Alpha  occ. eigenvalues --   -1.13734  -1.13716  -1.13656  -1.13648  -1.13625
 Alpha  occ. eigenvalues --   -0.15569  -0.14039  -0.13342  -0.10938
 Alpha virt. eigenvalues --   -0.07530  -0.04788  -0.04557  -0.03538  -0.03389
 Alpha virt. eigenvalues --   -0.02464  -0.02099  -0.01933  -0.01319  -0.01016
 Alpha virt. eigenvalues --   -0.00553  -0.00135  -0.00017   0.00359   0.00625

  Beta  occ. eigenvalues --  -38.45279 -38.44449 -38.44378 -38.44376 -38.44355
  Beta  occ. eigenvalues --  -38.44283 -38.44177  -2.21068  -2.20226  -2.20164
  Beta  occ. eigenvalues --   -2.20151  -2.20059  -2.20053  -2.19998  -1.14750
  Beta  occ. eigenvalues --   -1.14736  -1.14688  -1.13941  -1.13914  -1.13906
  Beta  occ. eigenvalues --   -1.13881  -1.13845  -1.13832  -1.13826  -1.13822
  Beta  occ. eigenvalues --   -1.13801  -1.13763  -1.13755  -1.13736  -1.13723
  Beta  occ. eigenvalues --   -1.13710  -1.13680  -1.13664  -1.13651  -1.13572
  Beta  occ. eigenvalues --   -0.15053  -0.13359  -0.12628
  Beta virt. eigenvalues --   -0.07755  -0.07572  -0.04424  -0.04119  -0.03232
  Beta virt. eigenvalues --   -0.03063  -0.02231  -0.01914  -0.01778  -0.01179
  Beta virt. eigenvalues --   -0.00644  -0.00344   0.00120   0.00170   0.00343

 Mulliken charges and spin densities:
               1          2
     1  Na  -0.292091   0.464284
     2  Na   0.613428   0.020226
     3  Na  -0.420411   0.052644
     4  Na   0.055844   0.227298
     5  Na  -0.046020   0.270996
     6  Na   0.207051  -0.023271
     7  Na  -0.117801  -0.012177
 Sum of Mulliken charges =  -0.00000   1.00000

 Dipole moment (field-independent basis, Debye):
    X=              0.6249    Y=              0.0812    Z=              0.2491  Tot=              0.6776
 Quadrupole moment (field-independent basis, Debye-Ang):
   XX=            -62.5345   YY=            -68.4679   ZZ=            -70.7049
   XY=             -4.1587   XZ=             -0.6311   YZ=             -1.1907

 Normal termination of Gaussian 16 at Mon Dec  4 02:35:33 2023.
