 Gaussian 16, Revision B.01,
 Gaussian 16:  ES64L-G16RevB.01 20-Dec-2017

 -------------------------
 #P B3LYP/6-311+g(d) force
 -------------------------

 -----
 DPGEN
 -----
 Symbolic Z-matrix:
 Charge =  0 Multiplicity = 2

                         Standard orientation:
 ---------------------------------------------------------------------
 Center     Atomic      Atomic             Coordinates (Angstroms)
 Number     Number       Type             X           Y           Z
 ---------------------------------------------------------------------
      1         11           0        0.388383   -0.157050    1.943472
      2         11           0       -2.949187    0.557204   -0.331351
      3         11           0       -1.853232   -2.384498    0.341987
      4         11           0       -0.561291    2.749917    0.234140
      5         11           0        2.376006    1.511436   -0.296898
      6         11           0       -0.078224   -0.484215   -1.742808
      7         11           0        2.677546   -1.792794   -0.148541
 ---------------------------------------------------------------------

 SCF Done:  E(UB3LYP) =  -1136.13680422     A.U. after   19 cycles

 The electronic state is 2-A.
 Alpha  occ. eigenvalues --  -38.43960 -38.43944 -38.43709 -38.43686 -38.43512
 Alpha  occ. eigenvalues --  -38.43435 -38.42781  -2.19840  -2.19785  -2.19612
 Alpha  occ. eigenvalues --   -2.19545  -2.19433  -2.19384  -2.18664  -1.13524
 Alpha  occ. eigenvalues --   -1.13507  -1.13492  -1.13463  -1.13452  -1.13433
 Alpha  occ. eigenvalues --   -1.13301  -1.13280  -1.13238  -1.13224  -1.13210
 Alpha  occ. eigenvalues --   -1.13179  -1.13101  -1.13056  -1.13055  -1.13051
 Alpha  occ. eigenvalues --   -1.13014  -1.13003  -1.12332  -1.12328  -1.12311
 Alpha  occ. eigenvalues --   -0.18887  -0.13457  -0.12266  -0.10904
 Alpha virt. eigenvalues --   -0.05675  -0.05325  -0.04347  -0.03463  -0.02831
 Alpha virt. eigenvalues --   -0.02613  -0.01549  -0.01079  -0.00323  -0.00097
 Alpha virt. eigenvalues --    0.00040   0.00365   0.00788   0.00858   0.00916

  Beta  occ. eigenvalues --  -38.43954 -38.43940 -38.43700 -38.43678 -38.43423
  Beta  occ. eigenvalues --  -38.43369 -38.42777  -2.19831  -2.19781  -2.19600
  Beta  occ. eigenvalues --   -2.19534  -2.19269  -2.19262  -2.18660  -1.13516
  Beta  occ. eigenvalues --   -1.13501  -1.13472  -1.13463  -1.13437  -1.13419
  Beta  occ. eigenvalues --   -1.13294  -1.13247  -1.13227  -1.13215  -1.13186
  Beta  occ. eigenvalues --   -1.13164  -1.13000  -1.12969  -1.12942  -1.12932
  Beta  occ. eigenvalues --   -1.12929  -1.12912  -1.12331  -1.12329  -1.12285
  Beta  occ. eigenvalues --   -0.18148  -0.13214  -0.12031
  Beta virt. eigenvalues --   -0.06985  -0.05645  -0.05267  -0.04310  -0.02667
  Beta virt. eigenvalues --   -0.02082  -0.01571  -0.01446  -0.00997  -0.00369
  Beta virt. eigenvalues --   -0.00079   0.00140   0.00395   0.00851   0.00876

 Mulliken charges and spin densities:
               1          2
     1  Na  -0.351808   0.643761
     2  Na   0.119252   0.050415
     3  Na   0.121141  -0.058718
     4  Na  -0.034429  -0.016899
     5  Na   0.128464   0.071339
     6  Na  -0.187295   0.378829
     7  Na   0.204676  -0.068727
 Sum of Mulliken charges =  -0.00000   1.00000

 Dipole moment (field-independent basis, Debye):
    X=              0.1259    Y=             -0.4418    Z=              0.0047  Tot=              0.4594
 Quadrupole moment (field-independent basis, Debye-Ang):
   XX=            -56.4678   YY=            -64.5719   ZZ=            -73.3922
   XY=             -0.6418   XZ=             -0.6659   YZ=             -0.8992

 Normal termination of Gaussian 16 at Fri Dec  8 05:25:37 2023.
