 Gaussian 16, Revision B.01,
 Gaussian 16:  ES64L-G16RevB.01 20-Dec-2017

 -------------------------
 #P B3LYP/6-311+g(d) force
 -------------------------

 -----
 DPGEN
 -----
 Symbolic Z-matrix:
 Charge =  0 Multiplicity = 2

                         Standard orientation:
 ---------------------------------------------------------------------
 Center     Atomic      Atomic             Coordinates (Angstroms)
 Number     Number       Type             X           Y           Z
 ---------------------------------------------------------------------
      1         11           0        1.560172   -2.028839    1.744734
      2         11           0        1.450318    0.810624   -0.924584
      3         11           0       -1.887682    1.185569    0.460463
      4         11           0       -1.127818   -1.942949   -0.414216
      5         11           0       -4.534513   -0.938299   -0.468642
      6         11           0        0.492686    3.941989    0.420497
      7         11           0        4.046837   -1.028095   -0.818252
 ---------------------------------------------------------------------

 SCF Done:  E(UB3LYP) =  -1136.12595558     A.U. after   19 cycles

 The electronic state is 2-A.
 Alpha  occ. eigenvalues --  -38.44373 -38.44186 -38.43925 -38.43853 -38.43823
 Alpha  occ. eigenvalues --  -38.43759 -38.43539  -2.20184  -2.20039  -2.19772
 Alpha  occ. eigenvalues --   -2.19696  -2.19666  -2.19601  -2.19318  -1.13853
 Alpha  occ. eigenvalues --   -1.13847  -1.13800  -1.13754  -1.13724  -1.13629
 Alpha  occ. eigenvalues --   -1.13497  -1.13471  -1.13423  -1.13379  -1.13355
 Alpha  occ. eigenvalues --   -1.13343  -1.13319  -1.13317  -1.13267  -1.13241
 Alpha  occ. eigenvalues --   -1.13225  -1.13191  -1.12989  -1.12989  -1.12943
 Alpha  occ. eigenvalues --   -0.17278  -0.13746  -0.12353  -0.10490
 Alpha virt. eigenvalues --   -0.06571  -0.05332  -0.04357  -0.03561  -0.02722
 Alpha virt. eigenvalues --   -0.02597  -0.01711  -0.01292  -0.00896  -0.00644
 Alpha virt. eigenvalues --   -0.00458  -0.00166   0.00357   0.00561   0.00675

  Beta  occ. eigenvalues --  -38.44326 -38.44169 -38.43921 -38.43805 -38.43802
  Beta  occ. eigenvalues --  -38.43683 -38.43545  -2.20100  -2.20013  -2.19767
  Beta  occ. eigenvalues --   -2.19666  -2.19569  -2.19461  -2.19330  -1.13796
  Beta  occ. eigenvalues --   -1.13777  -1.13743  -1.13740  -1.13703  -1.13586
  Beta  occ. eigenvalues --   -1.13492  -1.13460  -1.13394  -1.13347  -1.13336
  Beta  occ. eigenvalues --   -1.13303  -1.13255  -1.13251  -1.13210  -1.13147
  Beta  occ. eigenvalues --   -1.13133  -1.13109  -1.12998  -1.12996  -1.12949
  Beta  occ. eigenvalues --   -0.16806  -0.13090  -0.12131
  Beta virt. eigenvalues --   -0.06913  -0.06345  -0.05233  -0.03970  -0.03204
  Beta virt. eigenvalues --   -0.02471  -0.02223  -0.01562  -0.01025  -0.00493
  Beta virt. eigenvalues --   -0.00370  -0.00201   0.00034   0.00484   0.00640

 Mulliken charges and spin densities:
               1          2
     1  Na   0.193825   0.174158
     2  Na  -0.672054   0.249615
     3  Na  -0.531803   0.081453
     4  Na  -0.201535  -0.003131
     5  Na   0.485894   0.277832
     6  Na   0.533420  -0.029155
     7  Na   0.192254   0.249228
 Sum of Mulliken charges =  -0.00000   1.00000

 Dipole moment (field-independent basis, Debye):
    X=             -0.1695    Y=             -0.4011    Z=              0.7925  Tot=              0.9043
 Quadrupole moment (field-independent basis, Debye-Ang):
   XX=            -64.2492   YY=            -64.7943   ZZ=            -67.7752
   XY=             -1.0175   XZ=              2.9516   YZ=              2.1843

 Normal termination of Gaussian 16 at Tue Nov 28 22:48:16 2023.
