 Gaussian 16, Revision B.01,
 Gaussian 16:  ES64L-G16RevB.01 20-Dec-2017

 -------------------------
 #P B3LYP/6-311+g(d) force
 -------------------------

 -----
 DPGEN
 -----
 Symbolic Z-matrix:
 Charge =  0 Multiplicity = 2

                         Standard orientation:
 ---------------------------------------------------------------------
 Center     Atomic      Atomic             Coordinates (Angstroms)
 Number     Number       Type             X           Y           Z
 ---------------------------------------------------------------------
      1         11           0        0.098653   -2.327230   -1.455076
      2         11           0        3.606785    1.762265    0.095887
      3         11           0       -0.022378    3.099717   -0.368331
      4         11           0        0.197208   -0.991105    1.885781
      5         11           0       -4.933120   -0.397158    0.397806
      6         11           0       -2.399040    0.660301   -0.563923
      7         11           0        3.451894   -1.806789    0.007856
 ---------------------------------------------------------------------

 SCF Done:  E(UB3LYP) =  -1136.10815169     A.U. after   23 cycles

 The electronic state is 2-A.
 Alpha  occ. eigenvalues --  -38.46929 -38.45169 -38.44243 -38.44044 -38.43703
 Alpha  occ. eigenvalues --  -38.43293 -38.43219  -2.22668  -2.20938  -2.20042
 Alpha  occ. eigenvalues --   -2.19900  -2.19464  -2.19105  -2.19076  -1.16328
 Alpha  occ. eigenvalues --   -1.16319  -1.16296  -1.14616  -1.14585  -1.14565
 Alpha  occ. eigenvalues --   -1.13731  -1.13698  -1.13656  -1.13618  -1.13511
 Alpha  occ. eigenvalues --   -1.13503  -1.13150  -1.13125  -1.13090  -1.12812
 Alpha  occ. eigenvalues --   -1.12778  -1.12749  -1.12744  -1.12716  -1.12694
 Alpha  occ. eigenvalues --   -0.16750  -0.13812  -0.11792  -0.10676
 Alpha virt. eigenvalues --   -0.07401  -0.05588  -0.04627  -0.03180  -0.03080
 Alpha virt. eigenvalues --   -0.02397  -0.01869  -0.01827  -0.01074  -0.00597
 Alpha virt. eigenvalues --   -0.00461  -0.00407   0.00199   0.00386   0.00576

  Beta  occ. eigenvalues --  -38.46912 -38.45155 -38.44209 -38.43942 -38.43684
  Beta  occ. eigenvalues --  -38.43262 -38.43211  -2.22637  -2.20913  -2.19980
  Beta  occ. eigenvalues --   -2.19712  -2.19430  -2.19100  -2.19019  -1.16304
  Beta  occ. eigenvalues --   -1.16298  -1.16277  -1.14598  -1.14567  -1.14551
  Beta  occ. eigenvalues --   -1.13690  -1.13658  -1.13598  -1.13497  -1.13382
  Beta  occ. eigenvalues --   -1.13375  -1.13128  -1.13104  -1.13053  -1.12786
  Beta  occ. eigenvalues --   -1.12754  -1.12729  -1.12707  -1.12674  -1.12658
  Beta  occ. eigenvalues --   -0.16309  -0.12887  -0.11564
  Beta virt. eigenvalues --   -0.07300  -0.07286  -0.05372  -0.04133  -0.02958
  Beta virt. eigenvalues --   -0.02771  -0.02277  -0.01735  -0.01458  -0.00669
  Beta virt. eigenvalues --   -0.00399  -0.00241  -0.00088   0.00290   0.00531

 Mulliken charges and spin densities:
               1          2
     1  Na   0.399552  -0.005424
     2  Na  -0.324028   0.150464
     3  Na   0.562940  -0.010304
     4  Na   0.030683  -0.081713
     5  Na   0.244885   0.331280
     6  Na  -1.023312   0.321031
     7  Na   0.109281   0.294667
 Sum of Mulliken charges =  -0.00000   1.00000

 Dipole moment (field-independent basis, Debye):
    X=              0.3677    Y=             -1.8953    Z=              0.6784  Tot=              2.0464
 Quadrupole moment (field-independent basis, Debye-Ang):
   XX=            -75.8635   YY=            -71.8754   ZZ=            -59.8421
   XY=             -1.0958   XZ=             -1.4229   YZ=              0.7430

 Normal termination of Gaussian 16 at Sun Dec  3 19:11:30 2023.
