 Gaussian 16, Revision B.01,
 Gaussian 16:  ES64L-G16RevB.01 20-Dec-2017

 -------------------------
 #P B3LYP/6-311+g(d) force
 -------------------------

 -----
 DPGEN
 -----
 Symbolic Z-matrix:
 Charge =  0 Multiplicity = 2

                         Standard orientation:
 ---------------------------------------------------------------------
 Center     Atomic      Atomic             Coordinates (Angstroms)
 Number     Number       Type             X           Y           Z
 ---------------------------------------------------------------------
      1         11           0       -2.387595   -2.080215   -0.603652
      2         11           0        0.304732    3.239937   -0.186039
      3         11           0        0.223477    0.097220   -1.592630
      4         11           0        1.627091   -2.368802    0.084666
      5         11           0        0.032596   -0.271439    2.110961
      6         11           0        3.205605    0.329296   -0.108517
      7         11           0       -3.005906    1.054004    0.295210
 ---------------------------------------------------------------------

 SCF Done:  E(UB3LYP) =  -1136.13322238     A.U. after   20 cycles

 The electronic state is 2-A.
 Alpha  occ. eigenvalues --  -38.44475 -38.44350 -38.43846 -38.43655 -38.43444
 Alpha  occ. eigenvalues --  -38.43336 -38.43285  -2.20322  -2.20151  -2.19712
 Alpha  occ. eigenvalues --   -2.19477  -2.19345  -2.19237  -2.19115  -1.14014
 Alpha  occ. eigenvalues --   -1.13982  -1.13956  -1.13828  -1.13818  -1.13787
 Alpha  occ. eigenvalues --   -1.13385  -1.13341  -1.13326  -1.13151  -1.13130
 Alpha  occ. eigenvalues --   -1.13118  -1.13046  -1.13005  -1.12978  -1.12922
 Alpha  occ. eigenvalues --   -1.12873  -1.12865  -1.12790  -1.12768  -1.12755
 Alpha  occ. eigenvalues --   -0.18356  -0.13289  -0.11987  -0.10740
 Alpha virt. eigenvalues --   -0.06012  -0.05102  -0.04783  -0.03365  -0.02693
 Alpha virt. eigenvalues --   -0.02573  -0.01742  -0.01135  -0.00577  -0.00428
 Alpha virt. eigenvalues --   -0.00028   0.00345   0.00754   0.00820   0.00865

  Beta  occ. eigenvalues --  -38.44471 -38.44347 -38.43747 -38.43642 -38.43435
  Beta  occ. eigenvalues --  -38.43339 -38.43228  -2.20317  -2.20148  -2.19529
  Beta  occ. eigenvalues --   -2.19454  -2.19334  -2.19134  -2.19122  -1.14011
  Beta  occ. eigenvalues --   -1.13957  -1.13955  -1.13819  -1.13806  -1.13788
  Beta  occ. eigenvalues --   -1.13264  -1.13212  -1.13197  -1.13127  -1.13110
  Beta  occ. eigenvalues --   -1.13100  -1.13034  -1.12977  -1.12956  -1.12854
  Beta  occ. eigenvalues --   -1.12822  -1.12791  -1.12781  -1.12759  -1.12750
  Beta  occ. eigenvalues --   -0.17629  -0.13081  -0.11769
  Beta virt. eigenvalues --   -0.06840  -0.05948  -0.05040  -0.04712  -0.02610
  Beta virt. eigenvalues --   -0.02009  -0.01652  -0.01544  -0.01038  -0.00589
  Beta virt. eigenvalues --   -0.00467   0.00122   0.00380   0.00815   0.00839

 Mulliken charges and spin densities:
               1          2
     1  Na   0.057657   0.025319
     2  Na  -0.130082  -0.095636
     3  Na  -0.058173   0.414564
     4  Na   0.389450   0.089034
     5  Na  -0.364728   0.649219
     6  Na   0.099507  -0.075253
     7  Na   0.006370  -0.007247
 Sum of Mulliken charges =  -0.00000   1.00000

 Dipole moment (field-independent basis, Debye):
    X=              0.1075    Y=             -0.0134    Z=              0.1889  Tot=              0.2178
 Quadrupole moment (field-independent basis, Debye-Ang):
   XX=            -54.8467   YY=            -64.1041   ZZ=            -74.7691
   XY=             -0.1365   XZ=              0.0451   YZ=              1.4577

 Normal termination of Gaussian 16 at Thu Dec  7 10:31:38 2023.
