 Gaussian 16, Revision B.01,
 Gaussian 16:  ES64L-G16RevB.01 20-Dec-2017

 -------------------------
 #P B3LYP/6-311+g(d) force
 -------------------------

 -----
 DPGEN
 -----
 Symbolic Z-matrix:
 Charge =  0 Multiplicity = 2

                         Standard orientation:
 ---------------------------------------------------------------------
 Center     Atomic      Atomic             Coordinates (Angstroms)
 Number     Number       Type             X           Y           Z
 ---------------------------------------------------------------------
      1         11           0       -1.523600   -2.457574   -0.329492
      2         11           0        2.301408   -2.134570    0.053319
      3         11           0        3.175604    1.218297    0.149876
      4         11           0       -0.017424    2.909736   -0.064982
      5         11           0       -0.253815   -0.365104    1.859113
      6         11           0       -3.658979    0.749057    0.183898
      7         11           0       -0.023193    0.080158   -1.851733
 ---------------------------------------------------------------------

 SCF Done:  E(UB3LYP) =  -1136.13171584     A.U. after   20 cycles

 The electronic state is 2-A.
 Alpha  occ. eigenvalues --  -38.45136 -38.44298 -38.43761 -38.43713 -38.43578
 Alpha  occ. eigenvalues --  -38.43359 -38.43327  -2.20871  -2.20089  -2.19637
 Alpha  occ. eigenvalues --   -2.19529  -2.19430  -2.19235  -2.19170  -1.14548
 Alpha  occ. eigenvalues --   -1.14528  -1.14504  -1.13765  -1.13749  -1.13731
 Alpha  occ. eigenvalues --   -1.13335  -1.13291  -1.13250  -1.13201  -1.13192
 Alpha  occ. eigenvalues --   -1.13165  -1.13128  -1.13099  -1.13034  -1.12928
 Alpha  occ. eigenvalues --   -1.12889  -1.12849  -1.12841  -1.12820  -1.12786
 Alpha  occ. eigenvalues --   -0.18075  -0.12935  -0.12105  -0.10441
 Alpha virt. eigenvalues --   -0.06527  -0.05306  -0.04467  -0.03124  -0.02739
 Alpha virt. eigenvalues --   -0.02414  -0.02210  -0.01302  -0.00540  -0.00479
 Alpha virt. eigenvalues --   -0.00089   0.00272   0.00688   0.00724   0.00796

  Beta  occ. eigenvalues --  -38.45135 -38.44297 -38.43709 -38.43693 -38.43564
  Beta  occ. eigenvalues --  -38.43354 -38.43241  -2.20869  -2.20088  -2.19526
  Beta  occ. eigenvalues --   -2.19510  -2.19410  -2.19164  -2.19077  -1.14535
  Beta  occ. eigenvalues --   -1.14529  -1.14504  -1.13760  -1.13744  -1.13729
  Beta  occ. eigenvalues --   -1.13255  -1.13205  -1.13199  -1.13186  -1.13160
  Beta  occ. eigenvalues --   -1.13140  -1.13102  -1.13057  -1.13025  -1.12876
  Beta  occ. eigenvalues --   -1.12824  -1.12797  -1.12787  -1.12739  -1.12730
  Beta  occ. eigenvalues --   -0.17356  -0.12741  -0.11872
  Beta virt. eigenvalues --   -0.06672  -0.06368  -0.05305  -0.04408  -0.02448
  Beta virt. eigenvalues --   -0.02094  -0.01985  -0.01390  -0.01261  -0.00581
  Beta virt. eigenvalues --   -0.00495   0.00065   0.00302   0.00743   0.00801

 Mulliken charges and spin densities:
               1          2
     1  Na   0.230305  -0.087985
     2  Na   0.173462  -0.053943
     3  Na  -0.035959  -0.056117
     4  Na  -0.059763  -0.159570
     5  Na  -0.268835   0.796502
     6  Na  -0.016211  -0.090678
     7  Na  -0.022999   0.651791
 Sum of Mulliken charges =  -0.00000   1.00000

 Dipole moment (field-independent basis, Debye):
    X=             -0.3719    Y=              0.0405    Z=              0.0744  Tot=              0.3814
 Quadrupole moment (field-independent basis, Debye-Ang):
   XX=            -50.8729   YY=            -65.2995   ZZ=            -75.9153
   XY=             -0.6045   XZ=              0.4247   YZ=              1.1708

 Normal termination of Gaussian 16 at Thu Dec  7 05:52:44 2023.
