 Gaussian 16, Revision B.01,
 Gaussian 16:  ES64L-G16RevB.01 20-Dec-2017

 -------------------------
 #P B3LYP/6-311+g(d) force
 -------------------------

 -----
 DPGEN
 -----
 Symbolic Z-matrix:
 Charge =  0 Multiplicity = 2

                         Standard orientation:
 ---------------------------------------------------------------------
 Center     Atomic      Atomic             Coordinates (Angstroms)
 Number     Number       Type             X           Y           Z
 ---------------------------------------------------------------------
      1         11           0       -2.573264   -2.178763   -0.150740
      2         11           0       -2.671113    1.193922    0.002465
      3         11           0        0.537965    3.173787   -0.170523
      4         11           0       -0.139969    0.278192    2.000136
      5         11           0        1.708476   -2.660007    0.097533
      6         11           0        0.014049    0.046245   -1.730232
      7         11           0        3.123856    0.146623   -0.048639
 ---------------------------------------------------------------------

 SCF Done:  E(UB3LYP) =  -1136.13627506     A.U. after   19 cycles

 The electronic state is 2-A.
 Alpha  occ. eigenvalues --  -38.44065 -38.43905 -38.43900 -38.43807 -38.43581
 Alpha  occ. eigenvalues --  -38.43495 -38.43374  -2.19905  -2.19768  -2.19695
 Alpha  occ. eigenvalues --   -2.19628  -2.19458  -2.19302  -2.19290  -1.13601
 Alpha  occ. eigenvalues --   -1.13572  -1.13545  -1.13469  -1.13452  -1.13405
 Alpha  occ. eigenvalues --   -1.13362  -1.13345  -1.13324  -1.13290  -1.13283
 Alpha  occ. eigenvalues --   -1.13268  -1.13127  -1.13087  -1.13072  -1.12988
 Alpha  occ. eigenvalues --   -1.12971  -1.12957  -1.12949  -1.12926  -1.12898
 Alpha  occ. eigenvalues --   -0.18273  -0.13161  -0.12191  -0.10537
 Alpha virt. eigenvalues --   -0.05506  -0.05425  -0.05068  -0.03242  -0.02729
 Alpha virt. eigenvalues --   -0.02487  -0.01514  -0.01354  -0.00644  -0.00489
 Alpha virt. eigenvalues --   -0.00021   0.00360   0.00771   0.00823   0.00839

  Beta  occ. eigenvalues --  -38.44062 -38.43905 -38.43892 -38.43806 -38.43492
  Beta  occ. eigenvalues --  -38.43490 -38.43305  -2.19902  -2.19758  -2.19697
  Beta  occ. eigenvalues --   -2.19628  -2.19300  -2.19289  -2.19164  -1.13603
  Beta  occ. eigenvalues --   -1.13548  -1.13546  -1.13464  -1.13410  -1.13406
  Beta  occ. eigenvalues --   -1.13349  -1.13346  -1.13326  -1.13285  -1.13271
  Beta  occ. eigenvalues --   -1.13270  -1.13017  -1.12971  -1.12966  -1.12959
  Beta  occ. eigenvalues --   -1.12952  -1.12933  -1.12887  -1.12836  -1.12809
  Beta  occ. eigenvalues --   -0.17543  -0.12951  -0.11993
  Beta virt. eigenvalues --   -0.06646  -0.05479  -0.05397  -0.05003  -0.02441
  Beta virt. eigenvalues --   -0.02033  -0.01453  -0.01413  -0.01276  -0.00697
  Beta virt. eigenvalues --   -0.00540   0.00129   0.00383   0.00815   0.00826

 Mulliken charges and spin densities:
               1          2
     1  Na  -0.071662  -0.105810
     2  Na   0.313219  -0.026637
     3  Na   0.086475  -0.111301
     4  Na  -0.302705   0.746586
     5  Na  -0.059270  -0.090886
     6  Na  -0.103530   0.663807
     7  Na   0.137474  -0.075759
 Sum of Mulliken charges =  -0.00000   1.00000

 Dipole moment (field-independent basis, Debye):
    X=              0.0601    Y=             -0.0642    Z=              0.0450  Tot=              0.0988
 Quadrupole moment (field-independent basis, Debye-Ang):
   XX=            -58.2587   YY=            -59.6186   ZZ=            -75.7020
   XY=              1.0767   XZ=              0.2828   YZ=             -0.5357

 Normal termination of Gaussian 16 at Thu Dec  7 02:06:00 2023.
