 Gaussian 16, Revision B.01,
 Gaussian 16:  ES64L-G16RevB.01 20-Dec-2017

 -------------------------
 #P B3LYP/6-311+g(d) force
 -------------------------

 -----
 DPGEN
 -----
 Symbolic Z-matrix:
 Charge =  0 Multiplicity = 2

                         Standard orientation:
 ---------------------------------------------------------------------
 Center     Atomic      Atomic             Coordinates (Angstroms)
 Number     Number       Type             X           Y           Z
 ---------------------------------------------------------------------
      1         11           0        0.885000   -2.268759    0.531476
      2         11           0        1.996056    2.606045    0.223547
      3         11           0        0.080271    0.884279    2.047584
      4         11           0       -3.437431    1.190601   -1.303379
      5         11           0       -0.431376   -0.662164   -1.924721
      6         11           0        3.313678   -0.641417   -0.938423
      7         11           0       -2.406197   -1.108584    1.363917
 ---------------------------------------------------------------------

 SCF Done:  E(UB3LYP) =  -1136.12314690     A.U. after   23 cycles

 The electronic state is 2-A.
 Alpha  occ. eigenvalues --  -38.45083 -38.44472 -38.44450 -38.44383 -38.43392
 Alpha  occ. eigenvalues --  -38.43251 -38.42767  -2.20870  -2.20287  -2.20277
 Alpha  occ. eigenvalues --   -2.20235  -2.19296  -2.19127  -2.18582  -1.14529
 Alpha  occ. eigenvalues --   -1.14510  -1.14486  -1.13989  -1.13972  -1.13962
 Alpha  occ. eigenvalues --   -1.13932  -1.13930  -1.13899  -1.13884  -1.13879
 Alpha  occ. eigenvalues --   -1.13856  -1.12979  -1.12958  -1.12914  -1.12798
 Alpha  occ. eigenvalues --   -1.12793  -1.12772  -1.12249  -1.12240  -1.12220
 Alpha  occ. eigenvalues --   -0.18015  -0.13426  -0.12136  -0.11189
 Alpha virt. eigenvalues --   -0.06219  -0.05258  -0.04444  -0.03314  -0.03112
 Alpha virt. eigenvalues --   -0.02927  -0.02029  -0.01148  -0.00397  -0.00098
 Alpha virt. eigenvalues --    0.00003   0.00222   0.00412   0.00566   0.00712

  Beta  occ. eigenvalues --  -38.45018 -38.44464 -38.44417 -38.44349 -38.43363
  Beta  occ. eigenvalues --  -38.43217 -38.42764  -2.20750  -2.20264  -2.20226
  Beta  occ. eigenvalues --   -2.20177  -2.19245  -2.19068  -2.18576  -1.14441
  Beta  occ. eigenvalues --   -1.14424  -1.14412  -1.13961  -1.13945  -1.13922
  Beta  occ. eigenvalues --   -1.13915  -1.13888  -1.13882  -1.13843  -1.13832
  Beta  occ. eigenvalues --   -1.13798  -1.12948  -1.12926  -1.12853  -1.12762
  Beta  occ. eigenvalues --   -1.12740  -1.12725  -1.12246  -1.12234  -1.12213
  Beta  occ. eigenvalues --   -0.17255  -0.13018  -0.11153
  Beta virt. eigenvalues --   -0.08221  -0.06026  -0.04779  -0.04046  -0.03058
  Beta virt. eigenvalues --   -0.02611  -0.02302  -0.01852  -0.00791  -0.00369
  Beta virt. eigenvalues --    0.00060   0.00120   0.00288   0.00505   0.00664

 Mulliken charges and spin densities:
               1          2
     1  Na   0.363601   0.410858
     2  Na   0.135857   0.114947
     3  Na  -0.621420  -0.037164
     4  Na   0.133180   0.332008
     5  Na  -0.493330   0.202426
     6  Na  -0.048943  -0.000672
     7  Na   0.531055  -0.022404
 Sum of Mulliken charges =  -0.00000   1.00000

 Dipole moment (field-independent basis, Debye):
    X=             -0.7845    Y=             -0.3565    Z=             -0.7032  Tot=              1.1122
 Quadrupole moment (field-independent basis, Debye-Ang):
   XX=            -54.5817   YY=            -73.1223   ZZ=            -68.6371
   XY=             -2.6147   XZ=             -2.5797   YZ=             -8.2814

 Normal termination of Gaussian 16 at Sun Dec  3 13:48:21 2023.
