 Gaussian 16, Revision B.01,
 Gaussian 16:  ES64L-G16RevB.01 20-Dec-2017

 -------------------------
 #P B3LYP/6-311+g(d) force
 -------------------------

 -----
 DPGEN
 -----
 Symbolic Z-matrix:
 Charge =  0 Multiplicity = 2

                         Standard orientation:
 ---------------------------------------------------------------------
 Center     Atomic      Atomic             Coordinates (Angstroms)
 Number     Number       Type             X           Y           Z
 ---------------------------------------------------------------------
      1         11           0        2.922240    1.616811   -1.062190
      2         11           0       -2.646855    0.057090   -0.022545
      3         11           0       -0.022548    2.918786   -0.272462
      4         11           0        3.053825   -1.891434   -1.855197
      5         11           0       -5.829526   -1.143946   -0.772793
      6         11           0        2.339769   -2.371803    1.608459
      7         11           0        0.183095    0.814496    2.376728
 ---------------------------------------------------------------------

 SCF Done:  E(UB3LYP) =  -1136.11250535     A.U. after   22 cycles

 The electronic state is 2-A.
 Alpha  occ. eigenvalues --  -38.45265 -38.44935 -38.44795 -38.44448 -38.43977
 Alpha  occ. eigenvalues --  -38.43935 -38.43709  -2.21074  -2.20738  -2.20559
 Alpha  occ. eigenvalues --   -2.20217  -2.19764  -2.19740  -2.19473  -1.14734
 Alpha  occ. eigenvalues --   -1.14722  -1.14691  -1.14416  -1.14386  -1.14356
 Alpha  occ. eigenvalues --   -1.14231  -1.14216  -1.14178  -1.13890  -1.13877
 Alpha  occ. eigenvalues --   -1.13850  -1.13437  -1.13423  -1.13405  -1.13396
 Alpha  occ. eigenvalues --   -1.13396  -1.13364  -1.13175  -1.13165  -1.13081
 Alpha  occ. eigenvalues --   -0.16687  -0.13233  -0.12142  -0.11628
 Alpha virt. eigenvalues --   -0.06742  -0.05780  -0.04762  -0.03507  -0.03287
 Alpha virt. eigenvalues --   -0.02524  -0.02050  -0.01282  -0.01013  -0.00920
 Alpha virt. eigenvalues --   -0.00746  -0.00165  -0.00041   0.00243   0.00455

  Beta  occ. eigenvalues --  -38.45197 -38.44883 -38.44753 -38.44442 -38.43938
  Beta  occ. eigenvalues --  -38.43932 -38.43720  -2.20948  -2.20642  -2.20482
  Beta  occ. eigenvalues --   -2.20205  -2.19760  -2.19667  -2.19496  -1.14652
  Beta  occ. eigenvalues --   -1.14639  -1.14592  -1.14347  -1.14323  -1.14287
  Beta  occ. eigenvalues --   -1.14180  -1.14160  -1.14122  -1.13884  -1.13860
  Beta  occ. eigenvalues --   -1.13844  -1.13431  -1.13426  -1.13394  -1.13346
  Beta  occ. eigenvalues --   -1.13346  -1.13317  -1.13190  -1.13183  -1.13081
  Beta  occ. eigenvalues --   -0.16048  -0.12996  -0.11483
  Beta virt. eigenvalues --   -0.08406  -0.06302  -0.05152  -0.04502  -0.03298
  Beta virt. eigenvalues --   -0.02871  -0.02201  -0.01825  -0.01177  -0.00832
  Beta virt. eigenvalues --   -0.00715  -0.00327   0.00035   0.00088   0.00402

 Mulliken charges and spin densities:
               1          2
     1  Na  -0.361158   0.284594
     2  Na  -0.952426   0.008164
     3  Na   1.033440   0.015281
     4  Na   0.400346  -0.005821
     5  Na  -0.870686   0.258550
     6  Na  -0.078245   0.197072
     7  Na   0.828729   0.242161
 Sum of Mulliken charges =  -0.00000   1.00000

 Dipole moment (field-independent basis, Debye):
    X=              1.3180    Y=              0.2594    Z=              0.1904  Tot=              1.3567
 Quadrupole moment (field-independent basis, Debye-Ang):
   XX=            -67.9776   YY=            -67.3863   ZZ=            -64.7274
   XY=              0.7081   XZ=              0.8976   YZ=              0.9119

 Normal termination of Gaussian 16 at Sun Dec  3 22:05:58 2023.
