 Gaussian 16, Revision B.01,
 Gaussian 16:  ES64L-G16RevB.01 20-Dec-2017

 -------------------------
 #P B3LYP/6-311+g(d) force
 -------------------------

 -----
 DPGEN
 -----
 Symbolic Z-matrix:
 Charge =  0 Multiplicity = 2

                         Standard orientation:
 ---------------------------------------------------------------------
 Center     Atomic      Atomic             Coordinates (Angstroms)
 Number     Number       Type             X           Y           Z
 ---------------------------------------------------------------------
      1         11           0        3.267266    0.490704    0.082430
      2         11           0       -2.922066    1.180595    0.091083
      3         11           0        0.269195    3.032273   -0.391796
      4         11           0        0.193267    0.070422   -1.346317
      5         11           0        1.987176   -2.506094   -0.163555
      6         11           0       -2.675613   -2.239994   -0.349535
      7         11           0       -0.119225   -0.027905    2.077690
 ---------------------------------------------------------------------

 SCF Done:  E(UB3LYP) =  -1136.13154025     A.U. after   20 cycles

 The electronic state is 2-A.
 Alpha  occ. eigenvalues --  -38.44653 -38.44332 -38.44016 -38.43919 -38.43493
 Alpha  occ. eigenvalues --  -38.43093 -38.43062  -2.20479  -2.20153  -2.19792
 Alpha  occ. eigenvalues --   -2.19747  -2.19356  -2.19083  -2.18903  -1.14155
 Alpha  occ. eigenvalues --   -1.14140  -1.14119  -1.13833  -1.13823  -1.13783
 Alpha  occ. eigenvalues --   -1.13462  -1.13447  -1.13436  -1.13429  -1.13399
 Alpha  occ. eigenvalues --   -1.13388  -1.13037  -1.12972  -1.12967  -1.12802
 Alpha  occ. eigenvalues --   -1.12768  -1.12701  -1.12566  -1.12544  -1.12530
 Alpha  occ. eigenvalues --   -0.18238  -0.13392  -0.11983  -0.10256
 Alpha virt. eigenvalues --   -0.06038  -0.05692  -0.04644  -0.03214  -0.02450
 Alpha virt. eigenvalues --   -0.02229  -0.01931  -0.01356  -0.00802  -0.00590
 Alpha virt. eigenvalues --   -0.00017   0.00302   0.00704   0.00766   0.00812

  Beta  occ. eigenvalues --  -38.44651 -38.44328 -38.44011 -38.43916 -38.43388
  Beta  occ. eigenvalues --  -38.43054 -38.43048  -2.20477  -2.20150  -2.19784
  Beta  occ. eigenvalues --   -2.19743  -2.19162  -2.19002  -2.18891  -1.14152
  Beta  occ. eigenvalues --   -1.14123  -1.14120  -1.13823  -1.13805  -1.13787
  Beta  occ. eigenvalues --   -1.13446  -1.13442  -1.13431  -1.13423  -1.13389
  Beta  occ. eigenvalues --   -1.13381  -1.12908  -1.12837  -1.12829  -1.12747
  Beta  occ. eigenvalues --   -1.12702  -1.12644  -1.12538  -1.12529  -1.12521
  Beta  occ. eigenvalues --   -0.17552  -0.13204  -0.11754
  Beta virt. eigenvalues --   -0.06381  -0.05965  -0.05652  -0.04601  -0.02478
  Beta virt. eigenvalues --   -0.01837  -0.01790  -0.01305  -0.01161  -0.00839
  Beta virt. eigenvalues --   -0.00601   0.00154   0.00350   0.00764   0.00776

 Mulliken charges and spin densities:
               1          2
     1  Na   0.287303   0.039945
     2  Na   0.292147   0.053540
     3  Na   0.164935   0.012165
     4  Na  -0.360430   0.240251
     5  Na   0.057413  -0.031101
     6  Na  -0.073692  -0.011683
     7  Na  -0.367677   0.696883
 Sum of Mulliken charges =  -0.00000   1.00000

 Dipole moment (field-independent basis, Debye):
    X=              0.2451    Y=             -0.1030    Z=              0.1898  Tot=              0.3267
 Quadrupole moment (field-independent basis, Debye-Ang):
   XX=            -52.7687   YY=            -61.6911   ZZ=            -77.5657
   XY=             -0.1402   XZ=              0.6639   YZ=              0.7071

 Normal termination of Gaussian 16 at Tue Dec  5 18:37:25 2023.
