 Gaussian 16, Revision B.01,
 Gaussian 16:  ES64L-G16RevB.01 20-Dec-2017

 -------------------------
 #P B3LYP/6-311+g(d) force
 -------------------------

 -----
 DPGEN
 -----
 Symbolic Z-matrix:
 Charge =  0 Multiplicity = 2

                         Standard orientation:
 ---------------------------------------------------------------------
 Center     Atomic      Atomic             Coordinates (Angstroms)
 Number     Number       Type             X           Y           Z
 ---------------------------------------------------------------------
      1         11           0       -2.817063    0.979987   -0.327513
      2         11           0        2.782888    1.274234   -0.112506
      3         11           0       -0.369157   -0.226640    2.251328
      4         11           0        0.132953   -0.494945   -1.796429
      5         11           0       -0.243307    2.940877    0.001458
      6         11           0        2.609037   -2.011158    0.090664
      7         11           0       -2.095351   -2.462354   -0.107002
 ---------------------------------------------------------------------

 SCF Done:  E(UB3LYP) =  -1136.13544251     A.U. after   19 cycles

 The electronic state is 2-A.
 Alpha  occ. eigenvalues --  -38.44125 -38.44079 -38.44003 -38.43934 -38.43806
 Alpha  occ. eigenvalues --  -38.43679 -38.42920  -2.19934  -2.19910  -2.19854
 Alpha  occ. eigenvalues --   -2.19768  -2.19620  -2.19572  -2.18762  -1.13614
 Alpha  occ. eigenvalues --   -1.13603  -1.13581  -1.13563  -1.13542  -1.13535
 Alpha  occ. eigenvalues --   -1.13533  -1.13514  -1.13491  -1.13444  -1.13430
 Alpha  occ. eigenvalues --   -1.13398  -1.13306  -1.13278  -1.13265  -1.13244
 Alpha  occ. eigenvalues --   -1.13208  -1.13187  -1.12432  -1.12421  -1.12417
 Alpha  occ. eigenvalues --   -0.18176  -0.13177  -0.12142  -0.10911
 Alpha virt. eigenvalues --   -0.05813  -0.05443  -0.04532  -0.03417  -0.02901
 Alpha virt. eigenvalues --   -0.02869  -0.01513  -0.01208  -0.00579  -0.00292
 Alpha virt. eigenvalues --   -0.00059   0.00365   0.00732   0.00806   0.00860

  Beta  occ. eigenvalues --  -38.44125 -38.43996 -38.43975 -38.43932 -38.43803
  Beta  occ. eigenvalues --  -38.43617 -38.42919  -2.19936  -2.19843  -2.19767
  Beta  occ. eigenvalues --   -2.19718  -2.19618  -2.19460  -2.18762  -1.13617
  Beta  occ. eigenvalues --   -1.13594  -1.13576  -1.13530  -1.13493  -1.13488
  Beta  occ. eigenvalues --   -1.13438  -1.13431  -1.13419  -1.13402  -1.13400
  Beta  occ. eigenvalues --   -1.13397  -1.13292  -1.13268  -1.13257  -1.13173
  Beta  occ. eigenvalues --   -1.13129  -1.13107  -1.12433  -1.12423  -1.12399
  Beta  occ. eigenvalues --   -0.17453  -0.12997  -0.11954
  Beta virt. eigenvalues --   -0.06973  -0.05827  -0.05304  -0.04486  -0.02653
  Beta virt. eigenvalues --   -0.02139  -0.01841  -0.01416  -0.01124  -0.00643
  Beta virt. eigenvalues --   -0.00326   0.00113   0.00405   0.00796   0.00850

 Mulliken charges and spin densities:
               1          2
     1  Na   0.187853   0.060850
     2  Na  -0.002912   0.015007
     3  Na  -0.447384   0.728255
     4  Na   0.016326   0.372678
     5  Na  -0.114130  -0.025823
     6  Na   0.163800  -0.072751
     7  Na   0.196448  -0.078216
 Sum of Mulliken charges =  -0.00000   1.00000

 Dipole moment (field-independent basis, Debye):
    X=              0.1018    Y=             -0.5075    Z=              0.0610  Tot=              0.5212
 Quadrupole moment (field-independent basis, Debye-Ang):
   XX=            -57.9040   YY=            -64.1079   ZZ=            -73.3835
   XY=              0.0684   XZ=              1.0339   YZ=             -0.6779

 Normal termination of Gaussian 16 at Thu Dec  7 12:55:23 2023.
