 Gaussian 16, Revision B.01,
 Gaussian 16:  ES64L-G16RevB.01 20-Dec-2017

 -------------------------
 #P B3LYP/6-311+g(d) force
 -------------------------

 -----
 DPGEN
 -----
 Symbolic Z-matrix:
 Charge =  0 Multiplicity = 2

                         Standard orientation:
 ---------------------------------------------------------------------
 Center     Atomic      Atomic             Coordinates (Angstroms)
 Number     Number       Type             X           Y           Z
 ---------------------------------------------------------------------
      1         11           0        0.174029    0.020415   -1.626177
      2         11           0        1.407175    2.824360   -0.034102
      3         11           0       -0.273473   -0.068768    2.067444
      4         11           0        0.698496   -2.631043   -0.083696
      5         11           0       -2.508857    1.797177   -0.130321
      6         11           0       -2.876144   -1.424793   -0.204717
      7         11           0        3.378774   -0.517348    0.011569
 ---------------------------------------------------------------------

 SCF Done:  E(UB3LYP) =  -1136.13507764     A.U. after   19 cycles

 The electronic state is 2-A.
 Alpha  occ. eigenvalues --  -38.44733 -38.44002 -38.43985 -38.43548 -38.43488
 Alpha  occ. eigenvalues --  -38.43292 -38.43049  -2.20522  -2.19840  -2.19819
 Alpha  occ. eigenvalues --   -2.19424  -2.19277  -2.19249  -2.18938  -1.14197
 Alpha  occ. eigenvalues --   -1.14178  -1.14164  -1.13565  -1.13506  -1.13486
 Alpha  occ. eigenvalues --   -1.13486  -1.13468  -1.13425  -1.13096  -1.13050
 Alpha  occ. eigenvalues --   -1.13038  -1.12974  -1.12966  -1.12943  -1.12913
 Alpha  occ. eigenvalues --   -1.12893  -1.12854  -1.12624  -1.12598  -1.12548
 Alpha  occ. eigenvalues --   -0.18439  -0.13235  -0.12065  -0.10560
 Alpha virt. eigenvalues --   -0.06154  -0.05354  -0.04407  -0.03235  -0.02645
 Alpha virt. eigenvalues --   -0.02497  -0.01931  -0.01194  -0.00564  -0.00341
 Alpha virt. eigenvalues --   -0.00036   0.00326   0.00715   0.00822   0.00882

  Beta  occ. eigenvalues --  -38.44734 -38.43997 -38.43979 -38.43488 -38.43448
  Beta  occ. eigenvalues --  -38.43232 -38.43040  -2.20526  -2.19833  -2.19812
  Beta  occ. eigenvalues --   -2.19279  -2.19240  -2.19140  -2.18926  -1.14184
  Beta  occ. eigenvalues --   -1.14182  -1.14169  -1.13563  -1.13485  -1.13475
  Beta  occ. eigenvalues --   -1.13467  -1.13454  -1.13424  -1.12976  -1.12960
  Beta  occ. eigenvalues --   -1.12936  -1.12919  -1.12915  -1.12906  -1.12894
  Beta  occ. eigenvalues --   -1.12821  -1.12774  -1.12611  -1.12556  -1.12545
  Beta  occ. eigenvalues --   -0.17706  -0.13037  -0.11842
  Beta virt. eigenvalues --   -0.06632  -0.06097  -0.05361  -0.04382  -0.02478
  Beta virt. eigenvalues --   -0.01899  -0.01829  -0.01425  -0.01132  -0.00611
  Beta virt. eigenvalues --   -0.00385   0.00124   0.00357   0.00779   0.00818

 Mulliken charges and spin densities:
               1          2
     1  Na  -0.186100   0.498038
     2  Na  -0.059490  -0.133633
     3  Na  -0.491346   0.799073
     4  Na   0.262113  -0.040087
     5  Na   0.126131  -0.060854
     6  Na   0.274782   0.012284
     7  Na   0.073911  -0.074821
 Sum of Mulliken charges =  -0.00000   1.00000

 Dipole moment (field-independent basis, Debye):
    X=              0.1983    Y=              0.0200    Z=              0.1141  Tot=              0.2296
 Quadrupole moment (field-independent basis, Debye-Ang):
   XX=            -51.9784   YY=            -64.9641   ZZ=            -75.5729
   XY=              0.0958   XZ=              1.1111   YZ=              0.3139

 Normal termination of Gaussian 16 at Thu Dec  7 13:50:08 2023.
