 Gaussian 16, Revision B.01,
 Gaussian 16:  ES64L-G16RevB.01 20-Dec-2017

 -------------------------
 #P B3LYP/6-311+g(d) force
 -------------------------

 -----
 DPGEN
 -----
 Symbolic Z-matrix:
 Charge =  0 Multiplicity = 2

                         Standard orientation:
 ---------------------------------------------------------------------
 Center     Atomic      Atomic             Coordinates (Angstroms)
 Number     Number       Type             X           Y           Z
 ---------------------------------------------------------------------
      1         11           0       -0.782157   -1.082973   -1.485226
      2         11           0       -2.833357    1.952396   -0.192023
      3         11           0       -3.514817   -1.188155    0.009247
      4         11           0       -0.565705   -0.533014    2.135211
      5         11           0        3.889816    0.978298    0.156193
      6         11           0        2.732876   -2.086409   -0.243312
      7         11           0        1.073343    1.959858   -0.380090
 ---------------------------------------------------------------------

 SCF Done:  E(UB3LYP) =  -1136.11010664     A.U. after   36 cycles

 The electronic state is 2-A.
 Alpha  occ. eigenvalues --  -38.45181 -38.45174 -38.44616 -38.44464 -38.44211
 Alpha  occ. eigenvalues --  -38.43700 -38.43425  -2.21045  -2.21011  -2.20470
 Alpha  occ. eigenvalues --   -2.20275  -2.19988  -2.19545  -2.19256  -1.14742
 Alpha  occ. eigenvalues --   -1.14709  -1.14703  -1.14682  -1.14659  -1.14648
 Alpha  occ. eigenvalues --   -1.14157  -1.14137  -1.14075  -1.13948  -1.13930
 Alpha  occ. eigenvalues --   -1.13912  -1.13667  -1.13652  -1.13638  -1.13194
 Alpha  occ. eigenvalues --   -1.13173  -1.13153  -1.12955  -1.12922  -1.12897
 Alpha  occ. eigenvalues --   -0.18054  -0.14540  -0.11009  -0.10524
 Alpha virt. eigenvalues --   -0.07597  -0.06447  -0.03744  -0.03377  -0.03100
 Alpha virt. eigenvalues --   -0.02454  -0.02075  -0.02012  -0.00994  -0.00430
 Alpha virt. eigenvalues --   -0.00208   0.00100   0.00350   0.00463   0.00536

  Beta  occ. eigenvalues --  -38.45167 -38.45166 -38.44585 -38.44446 -38.44219
  Beta  occ. eigenvalues --  -38.43578 -38.43432  -2.21024  -2.20997  -2.20415
  Beta  occ. eigenvalues --   -2.20243  -2.20005  -2.19320  -2.19271  -1.14724
  Beta  occ. eigenvalues --   -1.14697  -1.14695  -1.14646  -1.14639  -1.14635
  Beta  occ. eigenvalues --   -1.14120  -1.14094  -1.14026  -1.13930  -1.13905
  Beta  occ. eigenvalues --   -1.13875  -1.13676  -1.13661  -1.13644  -1.13042
  Beta  occ. eigenvalues --   -1.13023  -1.12993  -1.12967  -1.12926  -1.12897
  Beta  occ. eigenvalues --   -0.17411  -0.14287  -0.10884
  Beta virt. eigenvalues --   -0.07435  -0.06565  -0.06363  -0.03482  -0.03096
  Beta virt. eigenvalues --   -0.02817  -0.02121  -0.01550  -0.01307  -0.00913
  Beta virt. eigenvalues --   -0.00237   0.00015   0.00106   0.00477   0.00555

 Mulliken charges and spin densities:
               1          2
     1  Na  -0.350736   0.116088
     2  Na  -0.122000   0.118825
     3  Na   0.930951   0.251974
     4  Na  -0.480440   0.557071
     5  Na   0.548424  -0.069647
     6  Na  -0.031861   0.023419
     7  Na  -0.494338   0.002271
 Sum of Mulliken charges =  -0.00000   1.00000

 Dipole moment (field-independent basis, Debye):
    X=             -0.1671    Y=             -0.2725    Z=              0.3804  Tot=              0.4969
 Quadrupole moment (field-independent basis, Debye-Ang):
   XX=            -46.1483   YY=            -76.0300   ZZ=            -74.1958
   XY=             -0.0758   XZ=             -0.4786   YZ=             -0.6720

 Normal termination of Gaussian 16 at Thu Dec  7 18:05:01 2023.
