 Gaussian 16, Revision B.01,
 Gaussian 16:  ES64L-G16RevB.01 20-Dec-2017

 -------------------------
 #P B3LYP/6-311+g(d) force
 -------------------------

 -----
 DPGEN
 -----
 Symbolic Z-matrix:
 Charge =  0 Multiplicity = 2

                         Standard orientation:
 ---------------------------------------------------------------------
 Center     Atomic      Atomic             Coordinates (Angstroms)
 Number     Number       Type             X           Y           Z
 ---------------------------------------------------------------------
      1         11           0       -2.870661   -1.102817   -0.007739
      2         11           0        1.693490    2.745285    0.279321
      3         11           0       -0.387162    0.042137   -1.547430
      4         11           0       -2.301294    2.032696   -0.101518
      5         11           0        0.501083   -0.243521    2.089191
      6         11           0        2.848509   -0.517118   -0.860676
      7         11           0        0.516035   -2.956662    0.148850
 ---------------------------------------------------------------------

 SCF Done:  E(UB3LYP) =  -1136.13559465     A.U. after   20 cycles

 The electronic state is 2-A.
 Alpha  occ. eigenvalues --  -38.43905 -38.43871 -38.43852 -38.43697 -38.43607
 Alpha  occ. eigenvalues --  -38.43280 -38.43277  -2.19775  -2.19721  -2.19712
 Alpha  occ. eigenvalues --   -2.19571  -2.19395  -2.19276  -2.19126  -1.13519
 Alpha  occ. eigenvalues --   -1.13460  -1.13420  -1.13412  -1.13404  -1.13370
 Alpha  occ. eigenvalues --   -1.13354  -1.13343  -1.13303  -1.13236  -1.13207
 Alpha  occ. eigenvalues --   -1.13189  -1.13067  -1.13047  -1.13045  -1.12954
 Alpha  occ. eigenvalues --   -1.12910  -1.12902  -1.12802  -1.12783  -1.12763
 Alpha  occ. eigenvalues --   -0.18499  -0.13202  -0.12258  -0.10819
 Alpha virt. eigenvalues --   -0.05328  -0.05290  -0.04853  -0.03332  -0.02898
 Alpha virt. eigenvalues --   -0.02601  -0.01415  -0.01188  -0.00423  -0.00329
 Alpha virt. eigenvalues --   -0.00001   0.00351   0.00815   0.00859   0.00879

  Beta  occ. eigenvalues --  -38.43903 -38.43851 -38.43842 -38.43605 -38.43603
  Beta  occ. eigenvalues --  -38.43271 -38.43227  -2.19773  -2.19712  -2.19669
  Beta  occ. eigenvalues --   -2.19401  -2.19392  -2.19180  -2.19120  -1.13515
  Beta  occ. eigenvalues --   -1.13453  -1.13411  -1.13393  -1.13368  -1.13345
  Beta  occ. eigenvalues --   -1.13327  -1.13310  -1.13303  -1.13125  -1.13090
  Beta  occ. eigenvalues --   -1.13074  -1.13048  -1.13042  -1.13039  -1.12885
  Beta  occ. eigenvalues --   -1.12845  -1.12833  -1.12789  -1.12769  -1.12749
  Beta  occ. eigenvalues --   -0.17804  -0.12944  -0.12041
  Beta virt. eigenvalues --   -0.06919  -0.05331  -0.05197  -0.04772  -0.02616
  Beta virt. eigenvalues --   -0.02168  -0.01581  -0.01304  -0.01097  -0.00424
  Beta virt. eigenvalues --   -0.00345   0.00133   0.00391   0.00849   0.00888

 Mulliken charges and spin densities:
               1          2
     1  Na   0.158413  -0.016069
     2  Na  -0.053675  -0.014855
     3  Na  -0.085472   0.222113
     4  Na   0.099746  -0.029370
     5  Na  -0.505236   0.737631
     6  Na   0.166744   0.085366
     7  Na   0.219479   0.015184
 Sum of Mulliken charges =  -0.00000   1.00000

 Dipole moment (field-independent basis, Debye):
    X=             -0.1778    Y=              0.0334    Z=              0.1519  Tot=              0.2363
 Quadrupole moment (field-independent basis, Debye-Ang):
   XX=            -58.6524   YY=            -61.3755   ZZ=            -73.8954
   XY=              0.1581   XZ=             -1.9362   YZ=              0.7392

 Normal termination of Gaussian 16 at Fri Dec  8 07:01:48 2023.
