 Gaussian 16, Revision B.01,
 Gaussian 16:  ES64L-G16RevB.01 20-Dec-2017

 -------------------------
 #P B3LYP/6-311+g(d) force
 -------------------------

 -----
 DPGEN
 -----
 Symbolic Z-matrix:
 Charge =  0 Multiplicity = 2

                         Standard orientation:
 ---------------------------------------------------------------------
 Center     Atomic      Atomic             Coordinates (Angstroms)
 Number     Number       Type             X           Y           Z
 ---------------------------------------------------------------------
      1         11           0       -0.003466    0.010556    1.505766
      2         11           0        3.120916    0.480703    0.135982
      3         11           0        0.398161   -0.091251   -1.465501
      4         11           0        1.682105   -2.774230   -0.006536
      5         11           0       -2.570019   -2.334522   -0.047601
      6         11           0       -3.104929    1.408158   -0.031062
      7         11           0        0.477232    3.300586   -0.091047
 ---------------------------------------------------------------------

 SCF Done:  E(UB3LYP) =  -1136.12828452     A.U. after   23 cycles

 The electronic state is 2-A.
 Alpha  occ. eigenvalues --  -38.44651 -38.44444 -38.44254 -38.44038 -38.43926
 Alpha  occ. eigenvalues --  -38.42877 -38.42798  -2.20408  -2.20199  -2.20111
 Alpha  occ. eigenvalues --   -2.19865  -2.19709  -2.18866  -2.18762  -1.14091
 Alpha  occ. eigenvalues --   -1.14064  -1.14045  -1.13878  -1.13849  -1.13842
 Alpha  occ. eigenvalues --   -1.13806  -1.13776  -1.13732  -1.13545  -1.13525
 Alpha  occ. eigenvalues --   -1.13499  -1.13384  -1.13366  -1.13354  -1.12702
 Alpha  occ. eigenvalues --   -1.12485  -1.12461  -1.12427  -1.12361  -1.12360
 Alpha  occ. eigenvalues --   -0.18252  -0.12997  -0.12389  -0.09441
 Alpha virt. eigenvalues --   -0.05944  -0.05793  -0.05382  -0.02733  -0.02398
 Alpha virt. eigenvalues --   -0.01840  -0.01677  -0.01486  -0.01082  -0.00966
 Alpha virt. eigenvalues --    0.00049   0.00313   0.00701   0.00733   0.00765

  Beta  occ. eigenvalues --  -38.44651 -38.44444 -38.44243 -38.44032 -38.43923
  Beta  occ. eigenvalues --  -38.42813 -38.42728  -2.20410  -2.20201  -2.20095
  Beta  occ. eigenvalues --   -2.19856  -2.19707  -2.18751  -2.18634  -1.14078
  Beta  occ. eigenvalues --   -1.14066  -1.14049  -1.13866  -1.13852  -1.13846
  Beta  occ. eigenvalues --   -1.13797  -1.13730  -1.13727  -1.13536  -1.13500
  Beta  occ. eigenvalues --   -1.13491  -1.13366  -1.13361  -1.13355  -1.12610
  Beta  occ. eigenvalues --   -1.12403  -1.12376  -1.12331  -1.12269  -1.12264
  Beta  occ. eigenvalues --   -0.17562  -0.12791  -0.12166
  Beta virt. eigenvalues --   -0.05962  -0.05749  -0.05634  -0.05333  -0.02027
  Beta virt. eigenvalues --   -0.01751  -0.01745  -0.01588  -0.01127  -0.01049
  Beta virt. eigenvalues --   -0.00583   0.00211   0.00378   0.00709   0.00752

 Mulliken charges and spin densities:
               1          2
     1  Na  -0.190698   0.641039
     2  Na   0.447070   0.014681
     3  Na  -0.366914   0.756769
     4  Na   0.221899  -0.079594
     5  Na  -0.048668  -0.120093
     6  Na  -0.051319  -0.108145
     7  Na  -0.011370  -0.104655
 Sum of Mulliken charges =  -0.00000   1.00000

 Dipole moment (field-independent basis, Debye):
    X=             -0.1964    Y=             -0.0544    Z=              0.0657  Tot=              0.2141
 Quadrupole moment (field-independent basis, Debye-Ang):
   XX=            -51.9802   YY=            -54.5642   ZZ=            -81.4064
   XY=             -0.3874   XZ=              0.9581   YZ=             -0.2568

 Normal termination of Gaussian 16 at Thu Dec  7 06:42:08 2023.
