 Gaussian 16, Revision B.01,
 Gaussian 16:  ES64L-G16RevB.01 20-Dec-2017

 -------------------------
 #P B3LYP/6-311+g(d) force
 -------------------------

 -----
 DPGEN
 -----
 Symbolic Z-matrix:
 Charge =  0 Multiplicity = 2

                         Standard orientation:
 ---------------------------------------------------------------------
 Center     Atomic      Atomic             Coordinates (Angstroms)
 Number     Number       Type             X           Y           Z
 ---------------------------------------------------------------------
      1         11           0        2.347056   -0.997210    1.702750
      2         11           0       -1.836428    1.707394    0.735302
      3         11           0       -4.986080    0.091889   -0.652883
      4         11           0       -1.868581   -2.076400    0.548490
      5         11           0        0.490390   -0.806671   -1.505409
      6         11           0        1.370808    2.210433    0.136697
      7         11           0        4.482834   -0.129435   -0.964947
 ---------------------------------------------------------------------

 SCF Done:  E(UB3LYP) =  -1136.11191087     A.U. after   33 cycles

 The electronic state is 2-A.
 Alpha  occ. eigenvalues --  -38.46272 -38.45593 -38.44738 -38.44655 -38.43370
 Alpha  occ. eigenvalues --  -38.42998 -38.42150  -2.22036  -2.21411  -2.20536
 Alpha  occ. eigenvalues --   -2.20438  -2.19167  -2.18810  -2.18009  -1.15708
 Alpha  occ. eigenvalues --   -1.15692  -1.15679  -1.15090  -1.15054  -1.15045
 Alpha  occ. eigenvalues --   -1.14200  -1.14176  -1.14147  -1.14086  -1.14075
 Alpha  occ. eigenvalues --   -1.14039  -1.12859  -1.12848  -1.12784  -1.12513
 Alpha  occ. eigenvalues --   -1.12490  -1.12434  -1.11700  -1.11688  -1.11620
 Alpha  occ. eigenvalues --   -0.17384  -0.14083  -0.11008  -0.10712
 Alpha virt. eigenvalues --   -0.07472  -0.05530  -0.04787  -0.03280  -0.02911
 Alpha virt. eigenvalues --   -0.02106  -0.01946  -0.01716  -0.01586  -0.00787
 Alpha virt. eigenvalues --   -0.00355   0.00119   0.00209   0.00427   0.00589

  Beta  occ. eigenvalues --  -38.46271 -38.45568 -38.44673 -38.44552 -38.43363
  Beta  occ. eigenvalues --  -38.43003 -38.42146  -2.22039  -2.21368  -2.20414
  Beta  occ. eigenvalues --   -2.20246  -2.19158  -2.18822  -2.18003  -1.15710
  Beta  occ. eigenvalues --   -1.15697  -1.15656  -1.15048  -1.15024  -1.15015
  Beta  occ. eigenvalues --   -1.14115  -1.14091  -1.14069  -1.13955  -1.13942
  Beta  occ. eigenvalues --   -1.13914  -1.12856  -1.12840  -1.12758  -1.12521
  Beta  occ. eigenvalues --   -1.12492  -1.12431  -1.11697  -1.11679  -1.11615
  Beta  occ. eigenvalues --   -0.16926  -0.13300  -0.10528
  Beta virt. eigenvalues --   -0.07526  -0.07358  -0.04794  -0.04633  -0.03039
  Beta virt. eigenvalues --   -0.02791  -0.01833  -0.01638  -0.01429  -0.01082
  Beta virt. eigenvalues --   -0.00357  -0.00204   0.00213   0.00282   0.00547

 Mulliken charges and spin densities:
               1          2
     1  Na   0.163955   0.097397
     2  Na  -0.226499   0.086171
     3  Na   0.248998   0.522710
     4  Na   0.043637   0.073478
     5  Na  -0.116951  -0.097492
     6  Na  -0.455226  -0.048209
     7  Na   0.342085   0.365943
 Sum of Mulliken charges =  -0.00000   1.00000

 Dipole moment (field-independent basis, Debye):
    X=              1.2792    Y=             -0.8172    Z=             -0.1235  Tot=              1.5230
 Quadrupole moment (field-independent basis, Debye-Ang):
   XX=            -61.5999   YY=            -83.1879   ZZ=            -57.5817
   XY=              0.9717   XZ=              0.6169   YZ=             -2.8617

 Normal termination of Gaussian 16 at Fri Dec  8 18:21:11 2023.
