 Gaussian 16, Revision B.01,
 Gaussian 16:  ES64L-G16RevB.01 20-Dec-2017

 -------------------------
 #P B3LYP/6-311+g(d) force
 -------------------------

 -----
 DPGEN
 -----
 Symbolic Z-matrix:
 Charge =  0 Multiplicity = 2

                         Standard orientation:
 ---------------------------------------------------------------------
 Center     Atomic      Atomic             Coordinates (Angstroms)
 Number     Number       Type             X           Y           Z
 ---------------------------------------------------------------------
      1         11           0        2.235681    1.180883    0.460109
      2         11           0       -0.880336    0.181691    1.861301
      3         11           0       -2.768236   -2.432185    0.052770
      4         11           0        0.760660   -2.089349    0.318315
      5         11           0        4.173930   -0.853010   -1.037062
      6         11           0       -2.870731    0.653959   -1.696061
      7         11           0       -0.650969    3.358012    0.040629
 ---------------------------------------------------------------------

 SCF Done:  E(UB3LYP) =  -1136.12926512     A.U. after   19 cycles

 The electronic state is 2-A.
 Alpha  occ. eigenvalues --  -38.44576 -38.44152 -38.44050 -38.43952 -38.43853
 Alpha  occ. eigenvalues --  -38.43649 -38.43394  -2.20367  -2.20040  -2.19894
 Alpha  occ. eigenvalues --   -2.19757  -2.19675  -2.19513  -2.19177  -1.14033
 Alpha  occ. eigenvalues --   -1.14001  -1.13979  -1.13783  -1.13685  -1.13644
 Alpha  occ. eigenvalues --   -1.13584  -1.13578  -1.13477  -1.13435  -1.13415
 Alpha  occ. eigenvalues --   -1.13390  -1.13365  -1.13321  -1.13295  -1.13208
 Alpha  occ. eigenvalues --   -1.13200  -1.13105  -1.12858  -1.12832  -1.12824
 Alpha  occ. eigenvalues --   -0.17469  -0.13661  -0.12213  -0.10964
 Alpha virt. eigenvalues --   -0.05686  -0.05412  -0.05119  -0.03646  -0.02959
 Alpha virt. eigenvalues --   -0.02213  -0.01730  -0.01202  -0.00837  -0.00552
 Alpha virt. eigenvalues --   -0.00342   0.00270   0.00468   0.00543   0.00566

  Beta  occ. eigenvalues --  -38.44493 -38.44090 -38.44035 -38.43952 -38.43804
  Beta  occ. eigenvalues --  -38.43644 -38.43400  -2.20213  -2.19929  -2.19871
  Beta  occ. eigenvalues --   -2.19759  -2.19583  -2.19507  -2.19188  -1.13929
  Beta  occ. eigenvalues --   -1.13901  -1.13869  -1.13707  -1.13607  -1.13579
  Beta  occ. eigenvalues --   -1.13562  -1.13533  -1.13461  -1.13437  -1.13411
  Beta  occ. eigenvalues --   -1.13373  -1.13306  -1.13258  -1.13238  -1.13200
  Beta  occ. eigenvalues --   -1.13188  -1.13081  -1.12867  -1.12839  -1.12822
  Beta  occ. eigenvalues --   -0.16845  -0.13029  -0.12077
  Beta virt. eigenvalues --   -0.07467  -0.05449  -0.05184  -0.04696  -0.03294
  Beta virt. eigenvalues --   -0.02429  -0.01817  -0.01484  -0.01099  -0.00672
  Beta virt. eigenvalues --   -0.00417   0.00009   0.00357   0.00586   0.00684

 Mulliken charges and spin densities:
               1          2
     1  Na  -0.363567  -0.010730
     2  Na  -0.071784   0.296634
     3  Na   0.319976   0.056675
     4  Na  -0.342184  -0.079811
     5  Na   0.446126   0.301063
     6  Na  -0.142916   0.456063
     7  Na   0.154349  -0.019894
 Sum of Mulliken charges =  -0.00000   1.00000

 Dipole moment (field-independent basis, Debye):
    X=             -0.2189    Y=             -0.4270    Z=             -0.0424  Tot=              0.4817
 Quadrupole moment (field-independent basis, Debye-Ang):
   XX=            -63.8815   YY=            -64.5413   ZZ=            -68.9568
   XY=              1.4755   XZ=             -2.6681   YZ=              0.5174

 Normal termination of Gaussian 16 at Tue Nov 28 20:47:14 2023.
