 Gaussian 16, Revision B.01,
 Gaussian 16:  ES64L-G16RevB.01 20-Dec-2017

 -------------------------
 #P B3LYP/6-311+g(d) force
 -------------------------

 -----
 DPGEN
 -----
 Symbolic Z-matrix:
 Charge =  0 Multiplicity = 2

                         Standard orientation:
 ---------------------------------------------------------------------
 Center     Atomic      Atomic             Coordinates (Angstroms)
 Number     Number       Type             X           Y           Z
 ---------------------------------------------------------------------
      1         11           0       -1.784101   -2.416579   -0.196587
      2         11           0        0.020432    0.099485   -1.603288
      3         11           0        2.183055   -2.131076   -0.270100
      4         11           0        0.581092   -0.350726    2.112624
      5         11           0       -2.987142    0.443530    0.121546
      6         11           0       -0.862328    2.840204    0.033705
      7         11           0        2.848993    1.515161   -0.197901
 ---------------------------------------------------------------------

 SCF Done:  E(UB3LYP) =  -1136.13576946     A.U. after   19 cycles

 The electronic state is 2-A.
 Alpha  occ. eigenvalues --  -38.44336 -38.43974 -38.43748 -38.43660 -38.43521
 Alpha  occ. eigenvalues --  -38.43350 -38.43117  -2.20138  -2.19810  -2.19635
 Alpha  occ. eigenvalues --   -2.19525  -2.19375  -2.19197  -2.19096  -1.13817
 Alpha  occ. eigenvalues --   -1.13797  -1.13772  -1.13491  -1.13490  -1.13432
 Alpha  occ. eigenvalues --   -1.13342  -1.13311  -1.13285  -1.13181  -1.13153
 Alpha  occ. eigenvalues --   -1.13143  -1.13049  -1.13030  -1.13002  -1.12898
 Alpha  occ. eigenvalues --   -1.12856  -1.12829  -1.12775  -1.12724  -1.12717
 Alpha  occ. eigenvalues --   -0.18543  -0.13259  -0.12298  -0.10656
 Alpha virt. eigenvalues --   -0.05834  -0.05374  -0.04516  -0.03331  -0.02782
 Alpha virt. eigenvalues --   -0.02531  -0.01583  -0.01215  -0.00424  -0.00363
 Alpha virt. eigenvalues --   -0.00023   0.00353   0.00782   0.00816   0.00910

  Beta  occ. eigenvalues --  -38.44331 -38.43966 -38.43746 -38.43564 -38.43518
  Beta  occ. eigenvalues --  -38.43348 -38.43055  -2.20131  -2.19800  -2.19633
  Beta  occ. eigenvalues --   -2.19371  -2.19347  -2.19196  -2.18984  -1.13800
  Beta  occ. eigenvalues --   -1.13785  -1.13772  -1.13487  -1.13451  -1.13430
  Beta  occ. eigenvalues --   -1.13345  -1.13311  -1.13263  -1.13065  -1.13043
  Beta  occ. eigenvalues --   -1.13027  -1.13019  -1.13014  -1.12996  -1.12890
  Beta  occ. eigenvalues --   -1.12840  -1.12829  -1.12700  -1.12645  -1.12636
  Beta  occ. eigenvalues --   -0.17836  -0.13036  -0.12081
  Beta virt. eigenvalues --   -0.06745  -0.05832  -0.05285  -0.04500  -0.02537
  Beta virt. eigenvalues --   -0.02039  -0.01499  -0.01469  -0.01145  -0.00476
  Beta virt. eigenvalues --   -0.00408   0.00140   0.00388   0.00812   0.00861

 Mulliken charges and spin densities:
               1          2
     1  Na   0.249761  -0.014677
     2  Na  -0.210143   0.382545
     3  Na   0.278524  -0.076350
     4  Na  -0.608339   0.772788
     5  Na   0.027107   0.020918
     6  Na   0.116584  -0.022736
     7  Na   0.146506  -0.062489
 Sum of Mulliken charges =  -0.00000   1.00000

 Dipole moment (field-independent basis, Debye):
    X=              0.5146    Y=             -0.0339    Z=              0.1005  Tot=              0.5255
 Quadrupole moment (field-independent basis, Debye-Ang):
   XX=            -56.3950   YY=            -62.5023   ZZ=            -74.8706
   XY=              0.5610   XZ=             -1.2947   YZ=              1.0817

 Normal termination of Gaussian 16 at Thu Dec  7 16:49:36 2023.
