 Gaussian 16, Revision B.01,
 Gaussian 16:  ES64L-G16RevB.01 20-Dec-2017

 -------------------------
 #P B3LYP/6-311+g(d) force
 -------------------------

 -----
 DPGEN
 -----
 Symbolic Z-matrix:
 Charge =  0 Multiplicity = 2

                         Standard orientation:
 ---------------------------------------------------------------------
 Center     Atomic      Atomic             Coordinates (Angstroms)
 Number     Number       Type             X           Y           Z
 ---------------------------------------------------------------------
      1         11           0        1.723051   -2.008371   -0.118048
      2         11           0       -0.118430   -0.087366   -1.674770
      3         11           0       -0.003897   -0.276727    1.750425
      4         11           0       -1.541120   -2.048317   -0.112392
      5         11           0       -2.627515    0.806958    0.195641
      6         11           0       -0.170576    2.572551   -0.159709
      7         11           0        2.738487    1.041272    0.118854
 ---------------------------------------------------------------------

 SCF Done:  E(UB3LYP) =  -1136.12451679     A.U. after   19 cycles

 The electronic state is 2-A.
 Alpha  occ. eigenvalues --  -38.43639 -38.43513 -38.43308 -38.43305 -38.43296
 Alpha  occ. eigenvalues --  -38.43292 -38.43110  -2.19535  -2.19506  -2.19440
 Alpha  occ. eigenvalues --   -2.19402  -2.19339  -2.19294  -2.19077  -1.13360
 Alpha  occ. eigenvalues --   -1.13252  -1.13239  -1.13210  -1.13203  -1.13196
 Alpha  occ. eigenvalues --   -1.13184  -1.13161  -1.13091  -1.13076  -1.13057
 Alpha  occ. eigenvalues --   -1.13024  -1.12940  -1.12915  -1.12909  -1.12904
 Alpha  occ. eigenvalues --   -1.12898  -1.12864  -1.12743  -1.12716  -1.12691
 Alpha  occ. eigenvalues --   -0.20298  -0.13466  -0.12939  -0.11266
 Alpha virt. eigenvalues --   -0.05209  -0.04829  -0.04434  -0.03287  -0.02997
 Alpha virt. eigenvalues --   -0.02482  -0.01228  -0.00848   0.00000   0.00236
 Alpha virt. eigenvalues --    0.00322   0.00371   0.00934   0.01013   0.01034

  Beta  occ. eigenvalues --  -38.43636 -38.43503 -38.43297 -38.43282 -38.43221
  Beta  occ. eigenvalues --  -38.43208 -38.43102  -2.19533  -2.19493  -2.19332
  Beta  occ. eigenvalues --   -2.19285  -2.19276  -2.19244  -2.19066  -1.13318
  Beta  occ. eigenvalues --   -1.13234  -1.13218  -1.13204  -1.13193  -1.13167
  Beta  occ. eigenvalues --   -1.13120  -1.13089  -1.13032  -1.13001  -1.12979
  Beta  occ. eigenvalues --   -1.12935  -1.12921  -1.12862  -1.12856  -1.12842
  Beta  occ. eigenvalues --   -1.12832  -1.12820  -1.12725  -1.12690  -1.12672
  Beta  occ. eigenvalues --   -0.19528  -0.13157  -0.12622
  Beta virt. eigenvalues --   -0.07209  -0.05207  -0.04828  -0.04437  -0.02407
  Beta virt. eigenvalues --   -0.02132  -0.01397  -0.01153  -0.00798   0.00118
  Beta virt. eigenvalues --    0.00200   0.00272   0.00381   0.00973   0.01005

 Mulliken charges and spin densities:
               1          2
     1  Na   0.396189  -0.065238
     2  Na  -0.793534   0.550990
     3  Na  -0.786732   0.635022
     4  Na   0.709284  -0.005909
     5  Na   0.259218   0.008248
     6  Na   0.249467  -0.044841
     7  Na  -0.033892  -0.078272
 Sum of Mulliken charges =  -0.00000   1.00000

 Dipole moment (field-independent basis, Debye):
    X=              0.2356    Y=              0.0997    Z=              0.1241  Tot=              0.2843
 Quadrupole moment (field-independent basis, Debye-Ang):
   XX=            -58.0117   YY=            -64.2602   ZZ=            -72.4770
   XY=              0.0967   XZ=             -0.2526   YZ=              0.4649

 Normal termination of Gaussian 16 at Thu Dec  7 22:02:40 2023.
