 Gaussian 16, Revision B.01,
 Gaussian 16:  ES64L-G16RevB.01 20-Dec-2017

 -------------------------
 #P B3LYP/6-311+g(d) force
 -------------------------

 -----
 DPGEN
 -----
 Symbolic Z-matrix:
 Charge =  0 Multiplicity = 2

                         Standard orientation:
 ---------------------------------------------------------------------
 Center     Atomic      Atomic             Coordinates (Angstroms)
 Number     Number       Type             X           Y           Z
 ---------------------------------------------------------------------
      1         11           0        1.348114   -1.258118    0.574233
      2         11           0        4.732816   -1.857310    0.006201
      3         11           0        2.503023    1.025466   -1.384798
      4         11           0       -1.206564    1.792809   -0.970342
      5         11           0       -2.504882   -0.707418    0.644967
      6         11           0        0.450487    2.365661    1.579824
      7         11           0       -5.322993   -1.361089   -0.450085
 ---------------------------------------------------------------------

 SCF Done:  E(UB3LYP) =  -1136.11459647     A.U. after   23 cycles

 The electronic state is 2-A.
 Alpha  occ. eigenvalues --  -38.45044 -38.44867 -38.44639 -38.44329 -38.43900
 Alpha  occ. eigenvalues --  -38.43721 -38.43048  -2.20863  -2.20729  -2.20398
 Alpha  occ. eigenvalues --   -2.20170  -2.19766  -2.19522  -2.18924  -1.14596
 Alpha  occ. eigenvalues --   -1.14517  -1.14503  -1.14408  -1.14388  -1.14317
 Alpha  occ. eigenvalues --   -1.14073  -1.14070  -1.14022  -1.13888  -1.13846
 Alpha  occ. eigenvalues --   -1.13734  -1.13466  -1.13440  -1.13344  -1.13199
 Alpha  occ. eigenvalues --   -1.13168  -1.13160  -1.12626  -1.12595  -1.12538
 Alpha  occ. eigenvalues --   -0.17697  -0.13667  -0.12056  -0.10227
 Alpha virt. eigenvalues --   -0.06911  -0.06375  -0.04228  -0.03086  -0.02745
 Alpha virt. eigenvalues --   -0.02410  -0.02224  -0.01803  -0.01030  -0.00726
 Alpha virt. eigenvalues --   -0.00324   0.00041   0.00286   0.00387   0.00547

  Beta  occ. eigenvalues --  -38.45041 -38.44851 -38.44644 -38.44269 -38.43851
  Beta  occ. eigenvalues --  -38.43694 -38.43036  -2.20861  -2.20700  -2.20407
  Beta  occ. eigenvalues --   -2.20059  -2.19677  -2.19471  -2.18906  -1.14595
  Beta  occ. eigenvalues --   -1.14519  -1.14473  -1.14391  -1.14349  -1.14301
  Beta  occ. eigenvalues --   -1.14080  -1.14069  -1.14028  -1.13813  -1.13770
  Beta  occ. eigenvalues --   -1.13648  -1.13399  -1.13383  -1.13264  -1.13168
  Beta  occ. eigenvalues --   -1.13133  -1.13124  -1.12620  -1.12586  -1.12487
  Beta  occ. eigenvalues --   -0.17025  -0.13498  -0.11805
  Beta virt. eigenvalues --   -0.06661  -0.06604  -0.06188  -0.03658  -0.02834
  Beta virt. eigenvalues --   -0.02628  -0.02160  -0.02100  -0.01224  -0.00793
  Beta virt. eigenvalues --   -0.00402  -0.00170   0.00212   0.00398   0.00497

 Mulliken charges and spin densities:
               1          2
     1  Na  -0.701764   0.453443
     2  Na   1.031384   0.138270
     3  Na  -0.000786   0.314958
     4  Na  -0.200034   0.177294
     5  Na  -0.621917  -0.281440
     6  Na   0.459711   0.108073
     7  Na   0.033407   0.089402
 Sum of Mulliken charges =  -0.00000   1.00000

 Dipole moment (field-independent basis, Debye):
    X=              1.5403    Y=              0.8886    Z=              0.5516  Tot=              1.8619
 Quadrupole moment (field-independent basis, Debye-Ang):
   XX=            -57.4773   YY=            -67.8687   ZZ=            -69.7184
   XY=             -3.6154   XZ=              4.4012   YZ=              4.2148

 Normal termination of Gaussian 16 at Wed Nov 29 01:10:27 2023.
