 Gaussian 16, Revision B.01,
 Gaussian 16:  ES64L-G16RevB.01 20-Dec-2017

 -------------------------
 #P B3LYP/6-311+g(d) force
 -------------------------

 -----
 DPGEN
 -----
 Symbolic Z-matrix:
 Charge =  0 Multiplicity = 2

                         Standard orientation:
 ---------------------------------------------------------------------
 Center     Atomic      Atomic             Coordinates (Angstroms)
 Number     Number       Type             X           Y           Z
 ---------------------------------------------------------------------
      1         11           0        0.783871    3.392080   -0.158692
      2         11           0        2.387905    1.012467   -0.988723
      3         11           0        2.450872   -2.138771   -0.977517
      4         11           0        0.750501   -1.464194    2.366087
      5         11           0       -3.745622    0.101202   -0.997040
      6         11           0       -1.156313    1.000269    1.533575
      7         11           0       -1.471214   -1.903052   -0.777690
 ---------------------------------------------------------------------

 SCF Done:  E(UB3LYP) =  -1136.12311364     A.U. after   19 cycles

 The electronic state is 2-A.
 Alpha  occ. eigenvalues --  -38.44882 -38.44258 -38.44190 -38.44131 -38.43751
 Alpha  occ. eigenvalues --  -38.43633 -38.43156  -2.20719  -2.20088  -2.20032
 Alpha  occ. eigenvalues --   -2.19990  -2.19626  -2.19460  -2.18995  -1.14407
 Alpha  occ. eigenvalues --   -1.14356  -1.14308  -1.13853  -1.13733  -1.13724
 Alpha  occ. eigenvalues --   -1.13700  -1.13698  -1.13678  -1.13643  -1.13596
 Alpha  occ. eigenvalues --   -1.13596  -1.13362  -1.13288  -1.13273  -1.13120
 Alpha  occ. eigenvalues --   -1.13111  -1.13075  -1.12671  -1.12635  -1.12629
 Alpha  occ. eigenvalues --   -0.17587  -0.13320  -0.12239  -0.11898
 Alpha virt. eigenvalues --   -0.05710  -0.05235  -0.04663  -0.03645  -0.03205
 Alpha virt. eigenvalues --   -0.02817  -0.01515  -0.00869  -0.00734  -0.00362
 Alpha virt. eigenvalues --   -0.00103   0.00359   0.00388   0.00551   0.00778

  Beta  occ. eigenvalues --  -38.44787 -38.44228 -38.44175 -38.44084 -38.43727
  Beta  occ. eigenvalues --  -38.43613 -38.43158  -2.20547  -2.20034  -2.20005
  Beta  occ. eigenvalues --   -2.19909  -2.19581  -2.19425  -2.18998  -1.14277
  Beta  occ. eigenvalues --   -1.14243  -1.14186  -1.13816  -1.13701  -1.13693
  Beta  occ. eigenvalues --   -1.13673  -1.13659  -1.13627  -1.13570  -1.13564
  Beta  occ. eigenvalues --   -1.13549  -1.13326  -1.13258  -1.13243  -1.13088
  Beta  occ. eigenvalues --   -1.13087  -1.13053  -1.12669  -1.12637  -1.12630
  Beta  occ. eigenvalues --   -0.16881  -0.12852  -0.12175
  Beta virt. eigenvalues --   -0.07996  -0.05509  -0.04744  -0.04484  -0.03287
  Beta virt. eigenvalues --   -0.02715  -0.02115  -0.01375  -0.00834  -0.00366
  Beta virt. eigenvalues --   -0.00260   0.00037   0.00409   0.00551   0.00751

 Mulliken charges and spin densities:
               1          2
     1  Na   0.347714  -0.051310
     2  Na  -0.527097   0.141718
     3  Na   0.334530   0.091564
     4  Na   0.195043   0.240045
     5  Na   0.481708  -0.005385
     6  Na  -0.211798   0.381726
     7  Na  -0.620100   0.201641
 Sum of Mulliken charges =  -0.00000   1.00000

 Dipole moment (field-independent basis, Debye):
    X=             -0.6065    Y=             -0.4681    Z=              0.1338  Tot=              0.7777
 Quadrupole moment (field-independent basis, Debye-Ang):
   XX=            -63.6503   YY=            -66.4797   ZZ=            -67.6035
   XY=             -4.9870   XZ=              1.6374   YZ=             -0.4984

 Normal termination of Gaussian 16 at Sun Dec  3 21:09:43 2023.
