 Gaussian 16, Revision B.01,
 Gaussian 16:  ES64L-G16RevB.01 20-Dec-2017

 -------------------------
 #P B3LYP/6-311+g(d) force
 -------------------------

 -----
 DPGEN
 -----
 Symbolic Z-matrix:
 Charge =  0 Multiplicity = 2

                         Standard orientation:
 ---------------------------------------------------------------------
 Center     Atomic      Atomic             Coordinates (Angstroms)
 Number     Number       Type             X           Y           Z
 ---------------------------------------------------------------------
      1         11           0        0.662368    1.292347   -1.085399
      2         11           0        0.731133    0.222363    1.609670
      3         11           0        3.136912   -0.137685   -0.046251
      4         11           0        0.503289   -1.571562   -0.712043
      5         11           0       -1.716604   -1.512609    1.002795
      6         11           0       -1.885725   -0.112866   -1.466932
      7         11           0       -1.431374    1.820012    0.698161
 ---------------------------------------------------------------------

 SCF Done:  E(UB3LYP) =  -1136.08393270     A.U. after   19 cycles

 The electronic state is 2-A.
 Alpha  occ. eigenvalues --  -38.44316 -38.44302 -38.44127 -38.43566 -38.43436
 Alpha  occ. eigenvalues --  -38.43117 -38.43041  -2.20460  -2.20372  -2.20284
 Alpha  occ. eigenvalues --   -2.19685  -2.19656  -2.19269  -2.19222  -1.14270
 Alpha  occ. eigenvalues --   -1.14207  -1.14168  -1.14155  -1.14081  -1.14001
 Alpha  occ. eigenvalues --   -1.13965  -1.13899  -1.13856  -1.13446  -1.13442
 Alpha  occ. eigenvalues --   -1.13397  -1.13287  -1.13261  -1.13248  -1.12924
 Alpha  occ. eigenvalues --   -1.12890  -1.12884  -1.12839  -1.12804  -1.12770
 Alpha  occ. eigenvalues --   -0.21491  -0.14132  -0.12762  -0.11985
 Alpha virt. eigenvalues --   -0.05711  -0.04080  -0.03793  -0.03632  -0.02962
 Alpha virt. eigenvalues --   -0.02856  -0.01458  -0.00404  -0.00263   0.00285
 Alpha virt. eigenvalues --    0.00667   0.00903   0.00992   0.01054   0.01064

  Beta  occ. eigenvalues --  -38.44314 -38.44246 -38.44050 -38.43536 -38.43389
  Beta  occ. eigenvalues --  -38.43096 -38.43009  -2.20362  -2.20287  -2.20231
  Beta  occ. eigenvalues --   -2.19606  -2.19604  -2.19219  -2.19189  -1.14208
  Beta  occ. eigenvalues --   -1.14150  -1.14078  -1.14072  -1.14015  -1.13945
  Beta  occ. eigenvalues --   -1.13923  -1.13880  -1.13795  -1.13411  -1.13400
  Beta  occ. eigenvalues --   -1.13334  -1.13230  -1.13196  -1.13175  -1.12897
  Beta  occ. eigenvalues --   -1.12852  -1.12809  -1.12795  -1.12769  -1.12730
  Beta  occ. eigenvalues --   -0.20595  -0.13931  -0.11733
  Beta virt. eigenvalues --   -0.08255  -0.05614  -0.03800  -0.03419  -0.03305
  Beta virt. eigenvalues --   -0.02186  -0.01838  -0.01400  -0.00256  -0.00099
  Beta virt. eigenvalues --    0.00325   0.00737   0.00974   0.01055   0.01082

 Mulliken charges and spin densities:
               1          2
     1  Na  -0.354678   0.315883
     2  Na  -0.221345   0.311495
     3  Na   0.779928  -0.047666
     4  Na  -0.427951   0.262452
     5  Na  -0.029966   0.064848
     6  Na   0.268765   0.056937
     7  Na  -0.014753   0.036051
 Sum of Mulliken charges =  -0.00000   1.00000

 Dipole moment (field-independent basis, Debye):
    X=              0.4042    Y=             -0.0176    Z=              0.1114  Tot=              0.4197
 Quadrupole moment (field-independent basis, Debye-Ang):
   XX=            -54.9583   YY=            -75.9986   ZZ=            -64.9122
   XY=             -0.3101   XZ=             -0.4948   YZ=             -0.4747

 Normal termination of Gaussian 16 at Tue Dec  5 19:07:35 2023.
