 Gaussian 16, Revision B.01,
 Gaussian 16:  ES64L-G16RevB.01 20-Dec-2017

 -------------------------
 #P B3LYP/6-311+g(d) force
 -------------------------

 -----
 DPGEN
 -----
 Symbolic Z-matrix:
 Charge =  0 Multiplicity = 2

                         Standard orientation:
 ---------------------------------------------------------------------
 Center     Atomic      Atomic             Coordinates (Angstroms)
 Number     Number       Type             X           Y           Z
 ---------------------------------------------------------------------
      1         11           0        3.659257    0.379963   -0.576186
      2         11           0        3.625867   -2.410268    0.633304
      3         11           0        1.945131    3.510463   -0.029012
      4         11           0       -0.285571   -3.513940   -0.393676
      5         11           0       -3.432135   -2.344861    0.279457
      6         11           0       -1.410592    3.503897    0.397015
      7         11           0       -4.101957    0.874746   -0.310902
 ---------------------------------------------------------------------

 SCF Done:  E(UB3LYP) =  -1136.10787859     A.U. after   22 cycles

 The electronic state is 2-A.
 Alpha  occ. eigenvalues --  -38.45162 -38.45071 -38.44915 -38.44482 -38.44397
 Alpha  occ. eigenvalues --  -38.44114 -38.43857  -2.20905  -2.20843  -2.20723
 Alpha  occ. eigenvalues --   -2.20268  -2.20211  -2.19915  -2.19657  -1.14594
 Alpha  occ. eigenvalues --   -1.14583  -1.14545  -1.14504  -1.14495  -1.14456
 Alpha  occ. eigenvalues --   -1.14425  -1.14384  -1.14371  -1.13946  -1.13941
 Alpha  occ. eigenvalues --   -1.13924  -1.13868  -1.13854  -1.13839  -1.13567
 Alpha  occ. eigenvalues --   -1.13555  -1.13541  -1.13312  -1.13306  -1.13295
 Alpha  occ. eigenvalues --   -0.15493  -0.14054  -0.13470  -0.10878
 Alpha virt. eigenvalues --   -0.07759  -0.04961  -0.04260  -0.03600  -0.03298
 Alpha virt. eigenvalues --   -0.02671  -0.02381  -0.01939  -0.01580  -0.00455
 Alpha virt. eigenvalues --   -0.00214  -0.00129   0.00068   0.00146   0.00415

  Beta  occ. eigenvalues --  -38.45169 -38.45000 -38.44898 -38.44484 -38.44364
  Beta  occ. eigenvalues --  -38.44047 -38.43812  -2.20922  -2.20714  -2.20697
  Beta  occ. eigenvalues --   -2.20278  -2.20153  -2.19790  -2.19574  -1.14611
  Beta  occ. eigenvalues --   -1.14599  -1.14523  -1.14418  -1.14410  -1.14393
  Beta  occ. eigenvalues --   -1.14371  -1.14357  -1.14340  -1.13959  -1.13953
  Beta  occ. eigenvalues --   -1.13888  -1.13824  -1.13815  -1.13798  -1.13482
  Beta  occ. eigenvalues --   -1.13474  -1.13460  -1.13255  -1.13251  -1.13242
  Beta  occ. eigenvalues --   -0.14958  -0.13383  -0.12746
  Beta virt. eigenvalues --   -0.07834  -0.07714  -0.04567  -0.03734  -0.03413
  Beta virt. eigenvalues --   -0.02887  -0.02455  -0.02172  -0.01819  -0.01429
  Beta virt. eigenvalues --   -0.00167   0.00035   0.00092   0.00183   0.00376

 Mulliken charges and spin densities:
               1          2
     1  Na  -0.377053   0.101681
     2  Na   0.238137   0.095030
     3  Na   0.352354   0.206931
     4  Na  -0.096674   0.339270
     5  Na  -0.073475  -0.048686
     6  Na  -0.015476  -0.005266
     7  Na  -0.027813   0.311040
 Sum of Mulliken charges =  -0.00000   1.00000

 Dipole moment (field-independent basis, Debye):
    X=              0.3883    Y=             -0.4672    Z=              0.0868  Tot=              0.6137
 Quadrupole moment (field-independent basis, Debye-Ang):
   XX=            -64.3975   YY=            -64.7015   ZZ=            -72.0566
   XY=             -1.3972   XZ=             -0.9510   YZ=             -1.3884

 Normal termination of Gaussian 16 at Sun Dec  3 16:32:20 2023.
