 Gaussian 16, Revision B.01,
 Gaussian 16:  ES64L-G16RevB.01 20-Dec-2017

 -------------------------
 #P B3LYP/6-311+g(d) force
 -------------------------

 -----
 DPGEN
 -----
 Symbolic Z-matrix:
 Charge =  0 Multiplicity = 2

                         Standard orientation:
 ---------------------------------------------------------------------
 Center     Atomic      Atomic             Coordinates (Angstroms)
 Number     Number       Type             X           Y           Z
 ---------------------------------------------------------------------
      1         11           0        2.133999    2.470417   -0.170259
      2         11           0       -3.626737    0.011421   -1.056386
      3         11           0       -1.748913    2.836116   -0.128260
      4         11           0       -0.437362    0.360773    1.824749
      5         11           0        1.450062   -1.940595   -0.283055
      6         11           0       -2.091292   -2.940184    0.261516
      7         11           0        4.320243   -0.797949   -0.448305
 ---------------------------------------------------------------------

 SCF Done:  E(UB3LYP) =  -1136.12256632     A.U. after   21 cycles

 The electronic state is 2-A.
 Alpha  occ. eigenvalues --  -38.45329 -38.44526 -38.44077 -38.43997 -38.43951
 Alpha  occ. eigenvalues --  -38.43884 -38.43745  -2.21063  -2.20351  -2.19852
 Alpha  occ. eigenvalues --   -2.19807  -2.19777  -2.19686  -2.19574  -1.14764
 Alpha  occ. eigenvalues --   -1.14729  -1.14677  -1.14032  -1.14015  -1.13947
 Alpha  occ. eigenvalues --   -1.13532  -1.13519  -1.13500  -1.13471  -1.13469
 Alpha  occ. eigenvalues --   -1.13461  -1.13453  -1.13448  -1.13422  -1.13373
 Alpha  occ. eigenvalues --   -1.13357  -1.13306  -1.13215  -1.13210  -1.13182
 Alpha  occ. eigenvalues --   -0.16933  -0.13691  -0.12457  -0.10496
 Alpha virt. eigenvalues --   -0.06728  -0.05669  -0.04691  -0.03378  -0.03033
 Alpha virt. eigenvalues --   -0.02159  -0.01820  -0.01560  -0.01482  -0.00825
 Alpha virt. eigenvalues --   -0.00234   0.00262   0.00407   0.00506   0.00656

  Beta  occ. eigenvalues --  -38.45328 -38.44464 -38.44076 -38.43944 -38.43919
  Beta  occ. eigenvalues --  -38.43877 -38.43698  -2.21063  -2.20238  -2.19853
  Beta  occ. eigenvalues --   -2.19770  -2.19679  -2.19663  -2.19485  -1.14765
  Beta  occ. eigenvalues --   -1.14728  -1.14670  -1.13955  -1.13941  -1.13861
  Beta  occ. eigenvalues --   -1.13535  -1.13514  -1.13486  -1.13470  -1.13451
  Beta  occ. eigenvalues --   -1.13414  -1.13380  -1.13373  -1.13365  -1.13339
  Beta  occ. eigenvalues --   -1.13323  -1.13268  -1.13156  -1.13153  -1.13127
  Beta  occ. eigenvalues --   -0.16366  -0.13013  -0.12280
  Beta virt. eigenvalues --   -0.07083  -0.06629  -0.05396  -0.04365  -0.02914
  Beta virt. eigenvalues --   -0.02414  -0.01887  -0.01793  -0.01433  -0.01084
  Beta virt. eigenvalues --   -0.00719   0.00104   0.00382   0.00466   0.00615

 Mulliken charges and spin densities:
               1          2
     1  Na   0.010556  -0.024410
     2  Na  -0.117573   0.386147
     3  Na   0.085322   0.132715
     4  Na  -0.109728   0.131977
     5  Na  -1.027962   0.107859
     6  Na   0.462734   0.082153
     7  Na   0.696651   0.183560
 Sum of Mulliken charges =  -0.00000   1.00000

 Dipole moment (field-independent basis, Debye):
    X=              0.4587    Y=              0.5015    Z=              0.3136  Tot=              0.7485
 Quadrupole moment (field-independent basis, Debye-Ang):
   XX=            -65.8267   YY=            -63.0369   ZZ=            -71.0490
   XY=              6.1869   XZ=             -1.0240   YZ=             -1.1476

 Normal termination of Gaussian 16 at Mon Dec  4 02:18:39 2023.
