 Gaussian 16, Revision B.01,
 Gaussian 16:  ES64L-G16RevB.01 20-Dec-2017

 -------------------------
 #P B3LYP/6-311+g(d) force
 -------------------------

 -----
 DPGEN
 -----
 Symbolic Z-matrix:
 Charge =  0 Multiplicity = 2

                         Standard orientation:
 ---------------------------------------------------------------------
 Center     Atomic      Atomic             Coordinates (Angstroms)
 Number     Number       Type             X           Y           Z
 ---------------------------------------------------------------------
      1         11           0       -2.774946    1.182300   -0.272117
      2         11           0        0.259292    3.084784    0.052509
      3         11           0        1.553520   -2.468364   -0.703814
      4         11           0        0.357205    0.047525    1.919621
      5         11           0       -2.033105   -2.428405    0.597513
      6         11           0       -0.568804    0.133873   -1.579744
      7         11           0        3.206838    0.448287   -0.013968
 ---------------------------------------------------------------------

 SCF Done:  E(UB3LYP) =  -1136.13352466     A.U. after   19 cycles

 The electronic state is 2-A.
 Alpha  occ. eigenvalues --  -38.44064 -38.43955 -38.43727 -38.43709 -38.43601
 Alpha  occ. eigenvalues --  -38.43518 -38.43408  -2.19957  -2.19764  -2.19549
 Alpha  occ. eigenvalues --   -2.19515  -2.19436  -2.19411  -2.19405  -1.13830
 Alpha  occ. eigenvalues --   -1.13585  -1.13540  -1.13445  -1.13427  -1.13407
 Alpha  occ. eigenvalues --   -1.13232  -1.13225  -1.13186  -1.13175  -1.13169
 Alpha  occ. eigenvalues --   -1.13162  -1.13129  -1.13098  -1.13083  -1.13061
 Alpha  occ. eigenvalues --   -1.13051  -1.13040  -1.13030  -1.13019  -1.12981
 Alpha  occ. eigenvalues --   -0.18445  -0.12978  -0.12481  -0.10650
 Alpha virt. eigenvalues --   -0.05523  -0.05196  -0.04940  -0.03185  -0.03025
 Alpha virt. eigenvalues --   -0.02358  -0.01430  -0.01308  -0.00426  -0.00423
 Alpha virt. eigenvalues --    0.00020   0.00346   0.00830   0.00832   0.00877

  Beta  occ. eigenvalues --  -38.44054 -38.43954 -38.43725 -38.43693 -38.43580
  Beta  occ. eigenvalues --  -38.43437 -38.43351  -2.19943  -2.19766  -2.19548
  Beta  occ. eigenvalues --   -2.19488  -2.19399  -2.19302  -2.19260  -1.13803
  Beta  occ. eigenvalues --   -1.13562  -1.13530  -1.13443  -1.13422  -1.13402
  Beta  occ. eigenvalues --   -1.13227  -1.13215  -1.13169  -1.13156  -1.13147
  Beta  occ. eigenvalues --   -1.13143  -1.13093  -1.13059  -1.13035  -1.13004
  Beta  occ. eigenvalues --   -1.12972  -1.12955  -1.12940  -1.12912  -1.12906
  Beta  occ. eigenvalues --   -0.17768  -0.12694  -0.12235
  Beta virt. eigenvalues --   -0.06852  -0.05500  -0.05092  -0.04842  -0.02457
  Beta virt. eigenvalues --   -0.02319  -0.01416  -0.01311  -0.01208  -0.00450
  Beta virt. eigenvalues --   -0.00410   0.00136   0.00385   0.00825   0.00874

 Mulliken charges and spin densities:
               1          2
     1  Na   0.403605   0.005269
     2  Na  -0.088030  -0.115224
     3  Na   0.028189   0.044663
     4  Na  -0.227342   0.710124
     5  Na  -0.063337   0.075560
     6  Na  -0.020695   0.356774
     7  Na  -0.032390  -0.077166
 Sum of Mulliken charges =  -0.00000   1.00000

 Dipole moment (field-independent basis, Debye):
    X=              0.0542    Y=              0.1646    Z=              0.1753  Tot=              0.2465
 Quadrupole moment (field-independent basis, Debye-Ang):
   XX=            -58.2887   YY=            -60.2149   ZZ=            -74.7211
   XY=              1.0926   XZ=             -1.8984   YZ=              0.1274

 Normal termination of Gaussian 16 at Tue Dec  5 11:04:52 2023.
