 Gaussian 16, Revision B.01,
 Gaussian 16:  ES64L-G16RevB.01 20-Dec-2017

 -------------------------
 #P B3LYP/6-311+g(d) force
 -------------------------

 -----
 DPGEN
 -----
 Symbolic Z-matrix:
 Charge =  0 Multiplicity = 2

                         Standard orientation:
 ---------------------------------------------------------------------
 Center     Atomic      Atomic             Coordinates (Angstroms)
 Number     Number       Type             X           Y           Z
 ---------------------------------------------------------------------
      1         11           0        0.732421    2.836327   -0.365787
      2         11           0        3.530095   -0.079349    0.409245
      3         11           0        1.386083   -2.104491   -0.308487
      4         11           0       -2.403946    1.665917    0.292093
      5         11           0       -2.749068   -1.802293   -0.215143
      6         11           0       -0.422931   -0.377921    1.783677
      7         11           0       -0.072655   -0.138189   -1.595597
 ---------------------------------------------------------------------

 SCF Done:  E(UB3LYP) =  -1136.12520071     A.U. after   20 cycles

 The electronic state is 2-A.
 Alpha  occ. eigenvalues --  -38.44823 -38.44026 -38.43742 -38.43654 -38.43591
 Alpha  occ. eigenvalues --  -38.43255 -38.43053  -2.20633  -2.19866  -2.19631
 Alpha  occ. eigenvalues --   -2.19607  -2.19573  -2.19302  -2.18882  -1.14336
 Alpha  occ. eigenvalues --   -1.14284  -1.14259  -1.13542  -1.13535  -1.13512
 Alpha  occ. eigenvalues --   -1.13493  -1.13373  -1.13322  -1.13293  -1.13248
 Alpha  occ. eigenvalues --   -1.13230  -1.13200  -1.13176  -1.13153  -1.12944
 Alpha  occ. eigenvalues --   -1.12884  -1.12876  -1.12564  -1.12538  -1.12515
 Alpha  occ. eigenvalues --   -0.18953  -0.13534  -0.12146  -0.10624
 Alpha virt. eigenvalues --   -0.06273  -0.05142  -0.04203  -0.03410  -0.02579
 Alpha virt. eigenvalues --   -0.02277  -0.02054  -0.01146  -0.00382  -0.00024
 Alpha virt. eigenvalues --    0.00031   0.00283   0.00730   0.00845   0.00858

  Beta  occ. eigenvalues --  -38.44817 -38.44023 -38.43732 -38.43584 -38.43575
  Beta  occ. eigenvalues --  -38.43173 -38.43048  -2.20621  -2.19863  -2.19616
  Beta  occ. eigenvalues --   -2.19549  -2.19478  -2.19155  -2.18875  -1.14331
  Beta  occ. eigenvalues --   -1.14264  -1.14251  -1.13538  -1.13524  -1.13494
  Beta  occ. eigenvalues --   -1.13446  -1.13340  -1.13272  -1.13240  -1.13231
  Beta  occ. eigenvalues --   -1.13166  -1.13145  -1.13117  -1.13100  -1.12846
  Beta  occ. eigenvalues --   -1.12792  -1.12770  -1.12548  -1.12524  -1.12514
  Beta  occ. eigenvalues --   -0.18242  -0.13269  -0.11890
  Beta virt. eigenvalues --   -0.06773  -0.06132  -0.05118  -0.04190  -0.02653
  Beta virt. eigenvalues --   -0.01943  -0.01868  -0.01261  -0.01088  -0.00384
  Beta virt. eigenvalues --    0.00001   0.00123   0.00313   0.00781   0.00867

 Mulliken charges and spin densities:
               1          2
     1  Na  -0.009303  -0.016736
     2  Na  -0.261574   0.037041
     3  Na   0.679108   0.093383
     4  Na   0.042181  -0.011874
     5  Na   0.226590  -0.064008
     6  Na  -0.419653   0.533738
     7  Na  -0.257350   0.428455
 Sum of Mulliken charges =  -0.00000   1.00000

 Dipole moment (field-independent basis, Debye):
    X=              0.0566    Y=             -0.0363    Z=              0.2553  Tot=              0.2640
 Quadrupole moment (field-independent basis, Debye-Ang):
   XX=            -50.4284   YY=            -66.8734   ZZ=            -75.0634
   XY=              2.5253   XZ=              1.5389   YZ=              0.7518

 Normal termination of Gaussian 16 at Tue Dec  5 15:22:50 2023.
