 Gaussian 16, Revision B.01,
 Gaussian 16:  ES64L-G16RevB.01 20-Dec-2017

 -------------------------
 #P B3LYP/6-311+g(d) force
 -------------------------

 -----
 DPGEN
 -----
 Symbolic Z-matrix:
 Charge =  0 Multiplicity = 2

                         Standard orientation:
 ---------------------------------------------------------------------
 Center     Atomic      Atomic             Coordinates (Angstroms)
 Number     Number       Type             X           Y           Z
 ---------------------------------------------------------------------
      1         11           0       -0.415595    1.619941    0.207883
      2         11           0        2.691723    3.313550    0.023999
      3         11           0        3.081422    0.103453   -0.383613
      4         11           0        0.455860   -1.581558    1.118623
      5         11           0       -3.096794   -0.829097    0.546103
      6         11           0        2.679863   -3.043952   -0.715639
      7         11           0       -5.396480    0.417662   -0.797356
 ---------------------------------------------------------------------

 SCF Done:  E(UB3LYP) =  -1136.12599414     A.U. after   19 cycles

 The electronic state is 2-A.
 Alpha  occ. eigenvalues --  -38.44472 -38.44318 -38.43866 -38.43856 -38.43648
 Alpha  occ. eigenvalues --  -38.43535 -38.43524  -2.20298  -2.20166  -2.19762
 Alpha  occ. eigenvalues --   -2.19758  -2.19505  -2.19402  -2.19344  -1.13999
 Alpha  occ. eigenvalues --   -1.13992  -1.13876  -1.13870  -1.13782  -1.13777
 Alpha  occ. eigenvalues --   -1.13479  -1.13454  -1.13440  -1.13423  -1.13403
 Alpha  occ. eigenvalues --   -1.13367  -1.13158  -1.13147  -1.13124  -1.13082
 Alpha  occ. eigenvalues --   -1.13064  -1.13048  -1.13012  -1.13000  -1.12969
 Alpha  occ. eigenvalues --   -0.17307  -0.14260  -0.12514  -0.11164
 Alpha virt. eigenvalues --   -0.05615  -0.05137  -0.04822  -0.03973  -0.02590
 Alpha virt. eigenvalues --   -0.02286  -0.01844  -0.01584  -0.01272  -0.00558
 Alpha virt. eigenvalues --   -0.00144   0.00072   0.00407   0.00553   0.00630

  Beta  occ. eigenvalues --  -38.44443 -38.44227 -38.43828 -38.43824 -38.43628
  Beta  occ. eigenvalues --  -38.43527 -38.43515  -2.20246  -2.19998  -2.19708
  Beta  occ. eigenvalues --   -2.19689  -2.19469  -2.19398  -2.19328  -1.13963
  Beta  occ. eigenvalues --   -1.13948  -1.13840  -1.13762  -1.13667  -1.13662
  Beta  occ. eigenvalues --   -1.13440  -1.13420  -1.13396  -1.13377  -1.13356
  Beta  occ. eigenvalues --   -1.13299  -1.13127  -1.13118  -1.13101  -1.13075
  Beta  occ. eigenvalues --   -1.13071  -1.12995  -1.12989  -1.12979  -1.12961
  Beta  occ. eigenvalues --   -0.16675  -0.13416  -0.12404
  Beta virt. eigenvalues --   -0.07633  -0.05303  -0.05022  -0.04326  -0.03663
  Beta virt. eigenvalues --   -0.02336  -0.01977  -0.01560  -0.01347  -0.00980
  Beta virt. eigenvalues --   -0.00265   0.00131   0.00206   0.00541   0.00640

 Mulliken charges and spin densities:
               1          2
     1  Na  -0.751878  -0.095637
     2  Na   0.850273   0.105755
     3  Na  -0.868271   0.343848
     4  Na  -0.777370   0.114039
     5  Na   0.142838   0.169906
     6  Na   0.812826   0.032004
     7  Na   0.591583   0.330083
 Sum of Mulliken charges =  -0.00000   1.00000

 Dipole moment (field-independent basis, Debye):
    X=              0.3686    Y=              0.0958    Z=             -0.1886  Tot=              0.4250
 Quadrupole moment (field-independent basis, Debye-Ang):
   XX=            -66.3989   YY=            -61.4689   ZZ=            -69.8567
   XY=             -1.5751   XZ=              0.7750   YZ=              0.0618

 Normal termination of Gaussian 16 at Wed Nov 29 00:16:44 2023.
