 Gaussian 16, Revision B.01,
 Gaussian 16:  ES64L-G16RevB.01 20-Dec-2017

 -------------------------
 #P B3LYP/6-311+g(d) force
 -------------------------

 -----
 DPGEN
 -----
 Symbolic Z-matrix:
 Charge =  0 Multiplicity = 2

                         Standard orientation:
 ---------------------------------------------------------------------
 Center     Atomic      Atomic             Coordinates (Angstroms)
 Number     Number       Type             X           Y           Z
 ---------------------------------------------------------------------
      1         11           0        2.954502    0.777231   -0.217600
      2         11           0        0.233618    2.972675   -0.035252
      3         11           0       -0.326060   -0.272071    1.997262
      4         11           0        1.707004   -2.394541    0.509914
      5         11           0       -1.769215   -2.220681   -0.881756
      6         11           0        0.134182    0.135663   -1.680209
      7         11           0       -2.934030    1.001724    0.307641
 ---------------------------------------------------------------------

 SCF Done:  E(UB3LYP) =  -1136.13858445     A.U. after   18 cycles

 The electronic state is 2-A.
 Alpha  occ. eigenvalues --  -38.43780 -38.43749 -38.43677 -38.43609 -38.43429
 Alpha  occ. eigenvalues --  -38.43375 -38.43309  -2.19655  -2.19610  -2.19528
 Alpha  occ. eigenvalues --   -2.19472  -2.19301  -2.19268  -2.19229  -1.13343
 Alpha  occ. eigenvalues --   -1.13324  -1.13283  -1.13271  -1.13246  -1.13244
 Alpha  occ. eigenvalues --   -1.13241  -1.13208  -1.13188  -1.13159  -1.13104
 Alpha  occ. eigenvalues --   -1.13088  -1.13007  -1.12957  -1.12934  -1.12919
 Alpha  occ. eigenvalues --   -1.12911  -1.12892  -1.12885  -1.12872  -1.12859
 Alpha  occ. eigenvalues --   -0.18675  -0.12876  -0.12505  -0.11140
 Alpha virt. eigenvalues --   -0.05349  -0.04902  -0.04787  -0.03257  -0.03113
 Alpha virt. eigenvalues --   -0.02753  -0.01349  -0.01112  -0.00295  -0.00178
 Alpha virt. eigenvalues --    0.00048   0.00360   0.00848   0.00897   0.00916

  Beta  occ. eigenvalues --  -38.43773 -38.43675 -38.43665 -38.43577 -38.43428
  Beta  occ. eigenvalues --  -38.43363 -38.43243  -2.19601  -2.19526  -2.19500
  Beta  occ. eigenvalues --   -2.19417  -2.19269  -2.19210  -2.19180  -1.13298
  Beta  occ. eigenvalues --   -1.13255  -1.13239  -1.13231  -1.13219  -1.13184
  Beta  occ. eigenvalues --   -1.13174  -1.13161  -1.13157  -1.13151  -1.13058
  Beta  occ. eigenvalues --   -1.13054  -1.12979  -1.12931  -1.12892  -1.12884
  Beta  occ. eigenvalues --   -1.12877  -1.12860  -1.12845  -1.12831  -1.12816
  Beta  occ. eigenvalues --   -0.17964  -0.12612  -0.12234
  Beta virt. eigenvalues --   -0.07215  -0.05322  -0.04859  -0.04699  -0.02530
  Beta virt. eigenvalues --   -0.02372  -0.01713  -0.01261  -0.01003  -0.00250
  Beta virt. eigenvalues --   -0.00207   0.00131   0.00395   0.00879   0.00917

 Mulliken charges and spin densities:
               1          2
     1  Na   0.029289  -0.062308
     2  Na  -0.057845  -0.072532
     3  Na  -0.276924   0.629063
     4  Na   0.124506   0.049336
     5  Na   0.102928   0.069086
     6  Na  -0.006758   0.401742
     7  Na   0.084805  -0.014387
 Sum of Mulliken charges =  -0.00000   1.00000

 Dipole moment (field-independent basis, Debye):
    X=             -0.0954    Y=              0.0624    Z=              0.1759  Tot=              0.2096
 Quadrupole moment (field-independent basis, Debye-Ang):
   XX=            -58.8349   YY=            -62.5411   ZZ=            -72.6744
   XY=             -0.3041   XZ=              0.7362   YZ=              1.0564

 Normal termination of Gaussian 16 at Thu Dec  7 11:31:46 2023.
