 Gaussian 16, Revision B.01,
 Gaussian 16:  ES64L-G16RevB.01 20-Dec-2017

 -------------------------
 #P B3LYP/6-311+g(d) force
 -------------------------

 -----
 DPGEN
 -----
 Symbolic Z-matrix:
 Charge =  0 Multiplicity = 2

                         Standard orientation:
 ---------------------------------------------------------------------
 Center     Atomic      Atomic             Coordinates (Angstroms)
 Number     Number       Type             X           Y           Z
 ---------------------------------------------------------------------
      1         11           0        2.706538   -1.937171   -0.063993
      2         11           0       -3.050799   -0.082340    0.082700
      3         11           0        0.470261   -0.371606    1.914247
      4         11           0       -1.176256   -2.450839   -0.118750
      5         11           0        2.395139    2.128237   -0.309759
      6         11           0       -1.053921    2.652919    0.406565
      7         11           0       -0.290961    0.060801   -1.911011
 ---------------------------------------------------------------------

 SCF Done:  E(UB3LYP) =  -1136.13526214     A.U. after   19 cycles

 The electronic state is 2-A.
 Alpha  occ. eigenvalues --  -38.44097 -38.44087 -38.43716 -38.43604 -38.43541
 Alpha  occ. eigenvalues --  -38.43451 -38.43336  -2.19882  -2.19872  -2.19611
 Alpha  occ. eigenvalues --   -2.19525  -2.19439  -2.19373  -2.19181  -1.13560
 Alpha  occ. eigenvalues --   -1.13556  -1.13540  -1.13528  -1.13521  -1.13513
 Alpha  occ. eigenvalues --   -1.13359  -1.13281  -1.13254  -1.13216  -1.13166
 Alpha  occ. eigenvalues --   -1.13136  -1.13129  -1.13080  -1.13058  -1.13024
 Alpha  occ. eigenvalues --   -1.13015  -1.12968  -1.12852  -1.12846  -1.12815
 Alpha  occ. eigenvalues --   -0.18582  -0.12919  -0.12455  -0.10832
 Alpha virt. eigenvalues --   -0.05680  -0.05391  -0.04486  -0.03284  -0.03023
 Alpha virt. eigenvalues --   -0.02600  -0.01488  -0.01248  -0.00318  -0.00257
 Alpha virt. eigenvalues --   -0.00037   0.00361   0.00770   0.00833   0.00925

  Beta  occ. eigenvalues --  -38.44093 -38.44088 -38.43711 -38.43523 -38.43466
  Beta  occ. eigenvalues --  -38.43440 -38.43325  -2.19879  -2.19875  -2.19606
  Beta  occ. eigenvalues --   -2.19377  -2.19358  -2.19302  -2.19165  -1.13548
  Beta  occ. eigenvalues --   -1.13540  -1.13536  -1.13527  -1.13524  -1.13515
  Beta  occ. eigenvalues --   -1.13355  -1.13273  -1.13223  -1.13138  -1.13067
  Beta  occ. eigenvalues --   -1.13055  -1.13033  -1.12999  -1.12976  -1.12976
  Beta  occ. eigenvalues --   -1.12956  -1.12940  -1.12842  -1.12818  -1.12801
  Beta  occ. eigenvalues --   -0.17827  -0.12702  -0.12227
  Beta virt. eigenvalues --   -0.06949  -0.05668  -0.05284  -0.04446  -0.02516
  Beta virt. eigenvalues --   -0.02269  -0.01614  -0.01370  -0.01177  -0.00357
  Beta virt. eigenvalues --   -0.00290   0.00108   0.00385   0.00827   0.00846

 Mulliken charges and spin densities:
               1          2
     1  Na   0.075122  -0.161898
     2  Na   0.168315   0.041182
     3  Na  -0.338990   0.633787
     4  Na   0.412797  -0.052961
     5  Na  -0.046395  -0.082140
     6  Na   0.089211   0.002493
     7  Na  -0.360061   0.619537
 Sum of Mulliken charges =  -0.00000   1.00000

 Dipole moment (field-independent basis, Debye):
    X=              0.4282    Y=             -0.0046    Z=             -0.0499  Tot=              0.4311
 Quadrupole moment (field-independent basis, Debye-Ang):
   XX=            -56.8527   YY=            -63.8688   ZZ=            -73.4216
   XY=             -0.3072   XZ=             -1.8781   YZ=              0.9127

 Normal termination of Gaussian 16 at Tue Dec  5 21:48:05 2023.
