 Gaussian 16, Revision B.01,
 Gaussian 16:  ES64L-G16RevB.01 20-Dec-2017

 -------------------------
 #P B3LYP/6-311+g(d) force
 -------------------------

 -----
 DPGEN
 -----
 Symbolic Z-matrix:
 Charge =  0 Multiplicity = 2

                         Standard orientation:
 ---------------------------------------------------------------------
 Center     Atomic      Atomic             Coordinates (Angstroms)
 Number     Number       Type             X           Y           Z
 ---------------------------------------------------------------------
      1         11           0       -2.708076    1.199940   -0.238089
      2         11           0       -2.707772   -2.213619    0.858285
      3         11           0        1.979006    0.315109    2.135289
      4         11           0        0.551825    0.912706   -2.048811
      5         11           0       -0.130714    3.161193    0.431353
      6         11           0       -0.209928   -2.162416   -0.672776
      7         11           0        3.225659   -1.212913   -0.465250
 ---------------------------------------------------------------------

 SCF Done:  E(UB3LYP) =  -1136.12730631     A.U. after   19 cycles

 The electronic state is 2-A.
 Alpha  occ. eigenvalues --  -38.44439 -38.44402 -38.44145 -38.44106 -38.43627
 Alpha  occ. eigenvalues --  -38.43570 -38.43393  -2.20251  -2.20210  -2.20008
 Alpha  occ. eigenvalues --   -2.19924  -2.19456  -2.19451  -2.19242  -1.13906
 Alpha  occ. eigenvalues --   -1.13905  -1.13891  -1.13885  -1.13879  -1.13829
 Alpha  occ. eigenvalues --   -1.13695  -1.13659  -1.13607  -1.13589  -1.13587
 Alpha  occ. eigenvalues --   -1.13564  -1.13232  -1.13133  -1.13124  -1.13110
 Alpha  occ. eigenvalues --   -1.13099  -1.13088  -1.12876  -1.12870  -1.12850
 Alpha  occ. eigenvalues --   -0.17669  -0.13156  -0.12546  -0.11140
 Alpha virt. eigenvalues --   -0.05920  -0.05035  -0.04857  -0.03702  -0.03327
 Alpha virt. eigenvalues --   -0.02734  -0.01489  -0.00904  -0.00487  -0.00376
 Alpha virt. eigenvalues --    0.00004   0.00316   0.00455   0.00676   0.00726

  Beta  occ. eigenvalues --  -38.44401 -38.44358 -38.44108 -38.44069 -38.43622
  Beta  occ. eigenvalues --  -38.43556 -38.43381  -2.20209  -2.20099  -2.19932
  Beta  occ. eigenvalues --   -2.19868  -2.19443  -2.19435  -2.19220  -1.13898
  Beta  occ. eigenvalues --   -1.13881  -1.13829  -1.13808  -1.13790  -1.13773
  Beta  occ. eigenvalues --   -1.13600  -1.13597  -1.13584  -1.13566  -1.13550
  Beta  occ. eigenvalues --   -1.13495  -1.13201  -1.13117  -1.13114  -1.13107
  Beta  occ. eigenvalues --   -1.13088  -1.13070  -1.12859  -1.12853  -1.12835
  Beta  occ. eigenvalues --   -0.16999  -0.12880  -0.12372
  Beta virt. eigenvalues --   -0.07397  -0.05820  -0.04701  -0.04591  -0.03169
  Beta virt. eigenvalues --   -0.02709  -0.02030  -0.01451  -0.00857  -0.00455
  Beta virt. eigenvalues --   -0.00132   0.00143   0.00411   0.00634   0.00749

 Mulliken charges and spin densities:
               1          2
     1  Na  -0.302611   0.046102
     2  Na   0.749825   0.011128
     3  Na  -0.411507   0.401309
     4  Na   0.267739   0.172656
     5  Na   0.073428   0.181492
     6  Na  -0.860965   0.107172
     7  Na   0.484091   0.080142
 Sum of Mulliken charges =  -0.00000   1.00000

 Dipole moment (field-independent basis, Debye):
    X=              0.2322    Y=              0.3833    Z=              0.0473  Tot=              0.4506
 Quadrupole moment (field-independent basis, Debye-Ang):
   XX=            -60.9991   YY=            -67.8969   ZZ=            -69.0825
   XY=             -2.5911   XZ=             -2.7255   YZ=              0.2342

 Normal termination of Gaussian 16 at Mon Dec  4 05:26:52 2023.
