 Gaussian 16, Revision B.01,
 Gaussian 16:  ES64L-G16RevB.01 20-Dec-2017

 -------------------------
 #P B3LYP/6-311+g(d) force
 -------------------------

 -----
 DPGEN
 -----
 Symbolic Z-matrix:
 Charge =  0 Multiplicity = 2

                         Standard orientation:
 ---------------------------------------------------------------------
 Center     Atomic      Atomic             Coordinates (Angstroms)
 Number     Number       Type             X           Y           Z
 ---------------------------------------------------------------------
      1         11           0       -1.240009   -0.561083    2.361925
      2         11           0        3.530853   -1.441318   -1.007767
      3         11           0        2.364793    0.656678    1.461215
      4         11           0        0.285705    3.024884   -0.363454
      5         11           0       -2.958872    1.153745   -0.924264
      6         11           0        0.159887   -0.294980   -1.247524
      7         11           0       -2.142357   -2.537927   -0.280131
 ---------------------------------------------------------------------

 SCF Done:  E(UB3LYP) =  -1136.12729764     A.U. after   22 cycles

 The electronic state is 2-A.
 Alpha  occ. eigenvalues --  -38.44569 -38.44532 -38.44059 -38.44042 -38.43677
 Alpha  occ. eigenvalues --  -38.43467 -38.43046  -2.20364  -2.20353  -2.19885
 Alpha  occ. eigenvalues --   -2.19835  -2.19497  -2.19396  -2.18847  -1.14054
 Alpha  occ. eigenvalues --   -1.14022  -1.14011  -1.13991  -1.13971  -1.13964
 Alpha  occ. eigenvalues --   -1.13566  -1.13543  -1.13534  -1.13498  -1.13484
 Alpha  occ. eigenvalues --   -1.13449  -1.13195  -1.13157  -1.13133  -1.13099
 Alpha  occ. eigenvalues --   -1.13047  -1.13014  -1.12532  -1.12510  -1.12479
 Alpha  occ. eigenvalues --   -0.17730  -0.13272  -0.11526  -0.11299
 Alpha virt. eigenvalues --   -0.06114  -0.05270  -0.04803  -0.03306  -0.02844
 Alpha virt. eigenvalues --   -0.02705  -0.01956  -0.01080  -0.00645  -0.00222
 Alpha virt. eigenvalues --   -0.00069   0.00275   0.00426   0.00503   0.00699

  Beta  occ. eigenvalues --  -38.44551 -38.44442 -38.44035 -38.44016 -38.43680
  Beta  occ. eigenvalues --  -38.43433 -38.43048  -2.20331  -2.20187  -2.19841
  Beta  occ. eigenvalues --   -2.19787  -2.19504  -2.19337  -2.18853  -1.14020
  Beta  occ. eigenvalues --   -1.14003  -1.13952  -1.13899  -1.13879  -1.13843
  Beta  occ. eigenvalues --   -1.13536  -1.13511  -1.13493  -1.13458  -1.13450
  Beta  occ. eigenvalues --   -1.13417  -1.13195  -1.13146  -1.13139  -1.13046
  Beta  occ. eigenvalues --   -1.13013  -1.12967  -1.12535  -1.12509  -1.12480
  Beta  occ. eigenvalues --   -0.17065  -0.13057  -0.11310
  Beta virt. eigenvalues --   -0.07518  -0.05938  -0.04925  -0.04377  -0.03035
  Beta virt. eigenvalues --   -0.02244  -0.02034  -0.01766  -0.00996  -0.00347
  Beta virt. eigenvalues --   -0.00171   0.00074   0.00320   0.00526   0.00676

 Mulliken charges and spin densities:
               1          2
     1  Na  -0.360452   0.460195
     2  Na   0.056726   0.194404
     3  Na   0.232392   0.172375
     4  Na  -0.122237   0.046929
     5  Na   0.631553  -0.022225
     6  Na  -0.608000   0.057580
     7  Na   0.170018   0.090741
 Sum of Mulliken charges =  -0.00000   1.00000

 Dipole moment (field-independent basis, Debye):
    X=             -0.4580    Y=             -0.1807    Z=              0.1566  Tot=              0.5167
 Quadrupole moment (field-independent basis, Debye-Ang):
   XX=            -55.9330   YY=            -69.0765   ZZ=            -69.1617
   XY=             -0.0141   XZ=              0.8774   YZ=              2.9784

 Normal termination of Gaussian 16 at Wed Nov 29 16:12:04 2023.
