 Gaussian 16, Revision B.01,
 Gaussian 16:  ES64L-G16RevB.01 20-Dec-2017

 -------------------------
 #P B3LYP/6-311+g(d) force
 -------------------------

 -----
 DPGEN
 -----
 Symbolic Z-matrix:
 Charge =  0 Multiplicity = 2

                         Standard orientation:
 ---------------------------------------------------------------------
 Center     Atomic      Atomic             Coordinates (Angstroms)
 Number     Number       Type             X           Y           Z
 ---------------------------------------------------------------------
      1         11           0       -3.622374   -0.071854   -0.247451
      2         11           0        2.083191    2.804504    0.409070
      3         11           0       -0.003385    0.310249   -0.316916
      4         11           0       -1.773313    3.284602    0.037056
      5         11           0       -2.186789   -2.932523    0.301155
      6         11           0        3.811440   -0.447147   -0.337694
      7         11           0        1.691230   -2.947831    0.154780
 ---------------------------------------------------------------------

 SCF Done:  E(UB3LYP) =  -1136.12660355     A.U. after   24 cycles

 The electronic state is 2-A.
 Alpha  occ. eigenvalues --  -38.44859 -38.44724 -38.44263 -38.43628 -38.43571
 Alpha  occ. eigenvalues --  -38.43515 -38.43465  -2.20654  -2.20537  -2.20122
 Alpha  occ. eigenvalues --   -2.19453  -2.19385  -2.19344  -2.19297  -1.14342
 Alpha  occ. eigenvalues --   -1.14316  -1.14292  -1.14222  -1.14211  -1.14169
 Alpha  occ. eigenvalues --   -1.13862  -1.13773  -1.13748  -1.13114  -1.13107
 Alpha  occ. eigenvalues --   -1.13085  -1.13051  -1.13028  -1.13014  -1.13005
 Alpha  occ. eigenvalues --   -1.12994  -1.12976  -1.12962  -1.12953  -1.12907
 Alpha  occ. eigenvalues --   -0.16971  -0.13865  -0.13232  -0.09640
 Alpha virt. eigenvalues --   -0.06837  -0.05751  -0.04126  -0.03254  -0.02737
 Alpha virt. eigenvalues --   -0.02341  -0.02115  -0.01933  -0.01479  -0.00113
 Alpha virt. eigenvalues --    0.00107   0.00322   0.00434   0.00587   0.00684

  Beta  occ. eigenvalues --  -38.44851 -38.44709 -38.44276 -38.43588 -38.43523
  Beta  occ. eigenvalues --  -38.43470 -38.43407  -2.20646  -2.20518  -2.20144
  Beta  occ. eigenvalues --   -2.19382  -2.19296  -2.19262  -2.19190  -1.14343
  Beta  occ. eigenvalues --   -1.14313  -1.14240  -1.14216  -1.14203  -1.14106
  Beta  occ. eigenvalues --   -1.13875  -1.13797  -1.13766  -1.13067  -1.13055
  Beta  occ. eigenvalues --   -1.13033  -1.12991  -1.12969  -1.12949  -1.12948
  Beta  occ. eigenvalues --   -1.12941  -1.12915  -1.12891  -1.12882  -1.12828
  Beta  occ. eigenvalues --   -0.16712  -0.13077  -0.12642
  Beta virt. eigenvalues --   -0.06905  -0.06417  -0.05469  -0.04012  -0.02793
  Beta virt. eigenvalues --   -0.02219  -0.02022  -0.01942  -0.01648  -0.01257
  Beta virt. eigenvalues --   -0.00011   0.00299   0.00449   0.00558   0.00709

 Mulliken charges and spin densities:
               1          2
     1  Na   1.117008   0.121853
     2  Na   0.647245   0.310593
     3  Na  -3.798574  -0.188251
     4  Na   0.580651   0.254556
     5  Na   0.149343   0.216143
     6  Na   0.801856   0.045473
     7  Na   0.502471   0.239633
 Sum of Mulliken charges =  -0.00000   1.00000

 Dipole moment (field-independent basis, Debye):
    X=              0.0468    Y=              0.0661    Z=              0.0331  Tot=              0.0875
 Quadrupole moment (field-independent basis, Debye-Ang):
   XX=            -59.2245   YY=            -65.3464   ZZ=            -72.3053
   XY=             -1.4408   XZ=             -0.4961   YZ=             -0.1111

 Normal termination of Gaussian 16 at Tue Dec  5 23:56:41 2023.
