 Gaussian 16, Revision B.01,
 Gaussian 16:  ES64L-G16RevB.01 20-Dec-2017

 -------------------------
 #P B3LYP/6-311+g(d) force
 -------------------------

 -----
 DPGEN
 -----
 Symbolic Z-matrix:
 Charge =  0 Multiplicity = 2

                         Standard orientation:
 ---------------------------------------------------------------------
 Center     Atomic      Atomic             Coordinates (Angstroms)
 Number     Number       Type             X           Y           Z
 ---------------------------------------------------------------------
      1         11           0        0.169505    0.379087   -1.735563
      2         11           0        0.739123   -2.614828   -0.117827
      3         11           0        1.435005    2.892800   -0.165341
      4         11           0        3.154080   -0.683793    0.181451
      5         11           0       -0.165759    0.013787    1.981676
      6         11           0       -2.643757   -2.001258   -0.302761
      7         11           0       -2.688196    2.014205    0.158366
 ---------------------------------------------------------------------

 SCF Done:  E(UB3LYP) =  -1136.13312599     A.U. after   19 cycles

 The electronic state is 2-A.
 Alpha  occ. eigenvalues --  -38.44567 -38.44037 -38.44018 -38.43967 -38.43642
 Alpha  occ. eigenvalues --  -38.43363 -38.43099  -2.20324  -2.19853  -2.19835
 Alpha  occ. eigenvalues --   -2.19754  -2.19509  -2.19277  -2.19006  -1.14005
 Alpha  occ. eigenvalues --   -1.13979  -1.13961  -1.13555  -1.13536  -1.13509
 Alpha  occ. eigenvalues --   -1.13495  -1.13482  -1.13459  -1.13425  -1.13418
 Alpha  occ. eigenvalues --   -1.13394  -1.13187  -1.13141  -1.13121  -1.12961
 Alpha  occ. eigenvalues --   -1.12918  -1.12893  -1.12684  -1.12665  -1.12644
 Alpha  occ. eigenvalues --   -0.18200  -0.12697  -0.12482  -0.10516
 Alpha virt. eigenvalues --   -0.06078  -0.05404  -0.04638  -0.03060  -0.02909
 Alpha virt. eigenvalues --   -0.02439  -0.01682  -0.01483  -0.00713  -0.00345
 Alpha virt. eigenvalues --   -0.00031   0.00334   0.00696   0.00806   0.00865

  Beta  occ. eigenvalues --  -38.44564 -38.44031 -38.44014 -38.43962 -38.43556
  Beta  occ. eigenvalues --  -38.43297 -38.43091  -2.20321  -2.19849  -2.19828
  Beta  occ. eigenvalues --   -2.19746  -2.19349  -2.19155  -2.18996  -1.13986
  Beta  occ. eigenvalues --   -1.13978  -1.13962  -1.13555  -1.13522  -1.13490
  Beta  occ. eigenvalues --   -1.13480  -1.13475  -1.13457  -1.13417  -1.13403
  Beta  occ. eigenvalues --   -1.13389  -1.13080  -1.13031  -1.13003  -1.12878
  Beta  occ. eigenvalues --   -1.12829  -1.12806  -1.12679  -1.12647  -1.12616
  Beta  occ. eigenvalues --   -0.17483  -0.12492  -0.12229
  Beta virt. eigenvalues --   -0.06706  -0.06033  -0.05290  -0.04626  -0.02325
  Beta virt. eigenvalues --   -0.02182  -0.01591  -0.01447  -0.01357  -0.00762
  Beta virt. eigenvalues --   -0.00387   0.00111   0.00366   0.00707   0.00860

 Mulliken charges and spin densities:
               1          2
     1  Na  -0.120472   0.582645
     2  Na   0.109767   0.022471
     3  Na   0.099409  -0.146856
     4  Na   0.217287  -0.003330
     5  Na  -0.306736   0.714793
     6  Na   0.022511  -0.042521
     7  Na  -0.021766  -0.127203
 Sum of Mulliken charges =  -0.00000   1.00000

 Dipole moment (field-independent basis, Debye):
    X=             -0.2110    Y=              0.5172    Z=              0.0974  Tot=              0.5670
 Quadrupole moment (field-independent basis, Debye-Ang):
   XX=            -55.4183   YY=            -61.7884   ZZ=            -75.5941
   XY=              0.0750   XZ=              1.1056   YZ=              0.9559

 Normal termination of Gaussian 16 at Fri Dec  8 03:11:01 2023.
