 Gaussian 16, Revision B.01,
 Gaussian 16:  ES64L-G16RevB.01 20-Dec-2017

 -------------------------
 #P B3LYP/6-311+g(d) force
 -------------------------

 -----
 DPGEN
 -----
 Symbolic Z-matrix:
 Charge =  0 Multiplicity = 2

                         Standard orientation:
 ---------------------------------------------------------------------
 Center     Atomic      Atomic             Coordinates (Angstroms)
 Number     Number       Type             X           Y           Z
 ---------------------------------------------------------------------
      1         11           0        0.891442    2.372665    0.346527
      2         11           0        1.834505   -1.202976   -0.772629
      3         11           0        4.730524   -0.203327    0.068547
      4         11           0       -0.257542   -0.496350    1.815802
      5         11           0       -3.613383    1.203565   -0.127340
      6         11           0       -2.797254   -1.968908    0.128130
      7         11           0       -0.788294    0.295331   -1.459037
 ---------------------------------------------------------------------

 SCF Done:  E(UB3LYP) =  -1136.10723744     A.U. after   34 cycles

 The electronic state is 2-A.
 Alpha  occ. eigenvalues --  -38.44861 -38.44795 -38.44514 -38.44483 -38.43843
 Alpha  occ. eigenvalues --  -38.43312 -38.42813  -2.20844  -2.20713  -2.20337
 Alpha  occ. eigenvalues --   -2.20315  -2.19735  -2.19179  -2.18669  -1.14586
 Alpha  occ. eigenvalues --   -1.14528  -1.14448  -1.14375  -1.14353  -1.14319
 Alpha  occ. eigenvalues --   -1.14002  -1.13978  -1.13971  -1.13956  -1.13949
 Alpha  occ. eigenvalues --   -1.13945  -1.13454  -1.13390  -1.13345  -1.12860
 Alpha  occ. eigenvalues --   -1.12850  -1.12818  -1.12349  -1.12338  -1.12284
 Alpha  occ. eigenvalues --   -0.18693  -0.14132  -0.11049  -0.10867
 Alpha virt. eigenvalues --   -0.07976  -0.05022  -0.04054  -0.03429  -0.02964
 Alpha virt. eigenvalues --   -0.02265  -0.02042  -0.01630  -0.00948  -0.00663
 Alpha virt. eigenvalues --   -0.00236   0.00135   0.00327   0.00652   0.00662

  Beta  occ. eigenvalues --  -38.44866 -38.44717 -38.44451 -38.44420 -38.43842
  Beta  occ. eigenvalues --  -38.43313 -38.42801  -2.20859  -2.20573  -2.20220
  Beta  occ. eigenvalues --   -2.20199  -2.19738  -2.19186  -2.18647  -1.14575
  Beta  occ. eigenvalues --   -1.14523  -1.14463  -1.14281  -1.14270  -1.14203
  Beta  occ. eigenvalues --   -1.13917  -1.13905  -1.13896  -1.13876  -1.13869
  Beta  occ. eigenvalues --   -1.13863  -1.13467  -1.13372  -1.13322  -1.12870
  Beta  occ. eigenvalues --   -1.12857  -1.12788  -1.12336  -1.12315  -1.12273
  Beta  occ. eigenvalues --   -0.18134  -0.13518  -0.10702
  Beta virt. eigenvalues --   -0.07621  -0.07499  -0.04756  -0.03653  -0.03049
  Beta virt. eigenvalues --   -0.02777  -0.02018  -0.01674  -0.01181  -0.00739
  Beta virt. eigenvalues --   -0.00416  -0.00033   0.00245   0.00426   0.00686

 Mulliken charges and spin densities:
               1          2
     1  Na  -0.333751   0.089580
     2  Na  -0.264956   0.225995
     3  Na   0.085812   0.180482
     4  Na   0.078782   0.141317
     5  Na   0.110119   0.344048
     6  Na  -0.027527  -0.005412
     7  Na   0.351522   0.023992
 Sum of Mulliken charges =  -0.00000   1.00000

 Dipole moment (field-independent basis, Debye):
    X=             -0.4468    Y=              0.5459    Z=              0.9960  Tot=              1.2205
 Quadrupole moment (field-independent basis, Debye-Ang):
   XX=            -63.3468   YY=            -75.8012   ZZ=            -63.5607
   XY=              3.7871   XZ=              1.0045   YZ=              3.3005

 Normal termination of Gaussian 16 at Tue Dec  5 15:59:59 2023.
