 Gaussian 16, Revision B.01,
 Gaussian 16:  ES64L-G16RevB.01 20-Dec-2017

 -------------------------
 #P B3LYP/6-311+g(d) force
 -------------------------

 -----
 DPGEN
 -----
 Symbolic Z-matrix:
 Charge =  0 Multiplicity = 2

                         Standard orientation:
 ---------------------------------------------------------------------
 Center     Atomic      Atomic             Coordinates (Angstroms)
 Number     Number       Type             X           Y           Z
 ---------------------------------------------------------------------
      1         11           0       -0.001853   -0.000642   -1.694634
      2         11           0        1.231272    1.636515   -0.002434
      3         11           0       -2.199523   -0.653043   -0.001134
      4         11           0       -1.228128    1.636102    0.004766
      5         11           0        0.002947   -0.006941    1.697106
      6         11           0       -0.002663   -1.953552   -0.002834
      7         11           0        2.197947   -0.658440   -0.000834
 ---------------------------------------------------------------------

 SCF Done:  E(UB3LYP) =  -1135.98258868     A.U. after   24 cycles

 The electronic state is 2-A.
 Alpha  occ. eigenvalues --  -38.45481 -38.45470 -38.45194 -38.45183 -38.44932
 Alpha  occ. eigenvalues --  -38.44922 -38.44888  -2.22023  -2.21977  -2.21692
 Alpha  occ. eigenvalues --   -2.21537  -2.21359  -2.21216  -2.21161  -1.16403
 Alpha  occ. eigenvalues --   -1.16138  -1.15968  -1.15933  -1.15914  -1.15844
 Alpha  occ. eigenvalues --   -1.15711  -1.15635  -1.15257  -1.15231  -1.15052
 Alpha  occ. eigenvalues --   -1.15044  -1.14968  -1.14811  -1.14754  -1.14720
 Alpha  occ. eigenvalues --   -1.14700  -1.14601  -1.14572  -1.14499  -1.14306
 Alpha  occ. eigenvalues --   -0.23439  -0.14303  -0.13450  -0.13282
 Alpha virt. eigenvalues --   -0.05407  -0.04030  -0.04030  -0.04019  -0.03563
 Alpha virt. eigenvalues --   -0.02856  -0.00758  -0.00310  -0.00129   0.00269
 Alpha virt. eigenvalues --    0.01038   0.01078   0.01164   0.01337   0.01369

  Beta  occ. eigenvalues --  -38.45374 -38.45363 -38.45171 -38.45160 -38.44915
  Beta  occ. eigenvalues --  -38.44905 -38.44865  -2.21858  -2.21786  -2.21639
  Beta  occ. eigenvalues --   -2.21508  -2.21328  -2.21193  -2.21137  -1.16348
  Beta  occ. eigenvalues --   -1.16099  -1.15903  -1.15855  -1.15793  -1.15723
  Beta  occ. eigenvalues --   -1.15626  -1.15568  -1.15178  -1.15161  -1.15010
  Beta  occ. eigenvalues --   -1.14933  -1.14854  -1.14798  -1.14659  -1.14631
  Beta  occ. eigenvalues --   -1.14593  -1.14588  -1.14563  -1.14490  -1.14298
  Beta  occ. eigenvalues --   -0.22564  -0.13834  -0.13001
  Beta virt. eigenvalues --   -0.08883  -0.05449  -0.03986  -0.03958  -0.02952
  Beta virt. eigenvalues --   -0.02540  -0.01833  -0.00690  -0.00268   0.00017
  Beta virt. eigenvalues --    0.00289   0.01061   0.01079   0.01194   0.01394

 Mulliken charges and spin densities:
               1          2
     1  Na  -0.269780   0.434591
     2  Na   0.190087   0.051052
     3  Na  -0.106123  -0.024388
     4  Na   0.192805   0.052029
     5  Na  -0.264868   0.435902
     6  Na   0.361200   0.074741
     7  Na  -0.103321  -0.023928
 Sum of Mulliken charges =  -0.00000   1.00000

 Dipole moment (field-independent basis, Debye):
    X=              0.0028    Y=             -0.1475    Z=              0.0058  Tot=              0.1476
 Quadrupole moment (field-independent basis, Debye-Ang):
   XX=            -63.8970   YY=            -71.0755   ZZ=            -67.1566
   XY=              0.0037   XZ=             -0.0067   YZ=              0.0105

 Normal termination of Gaussian 16 at Fri Dec  8 18:43:06 2023.
