 Gaussian 16, Revision B.01,
 Gaussian 16:  ES64L-G16RevB.01 20-Dec-2017

 -------------------------
 #P B3LYP/6-311+g(d) force
 -------------------------

 -----
 DPGEN
 -----
 Symbolic Z-matrix:
 Charge =  0 Multiplicity = 2

                         Standard orientation:
 ---------------------------------------------------------------------
 Center     Atomic      Atomic             Coordinates (Angstroms)
 Number     Number       Type             X           Y           Z
 ---------------------------------------------------------------------
      1         11           0       -2.903936   -1.353039   -0.219946
      2         11           0       -2.014545    2.111683   -0.203575
      3         11           0       -0.174500    0.039731   -1.533053
      4         11           0        1.509176    2.557807   -0.126241
      5         11           0       -0.354149   -0.014310    2.325847
      6         11           0        3.338431   -0.558560   -0.057109
      7         11           0        0.599524   -2.783312   -0.185924
 ---------------------------------------------------------------------

 SCF Done:  E(UB3LYP) =  -1136.13598568     A.U. after   19 cycles

 The electronic state is 2-A.
 Alpha  occ. eigenvalues --  -38.44179 -38.44016 -38.43979 -38.43582 -38.43427
 Alpha  occ. eigenvalues --  -38.43389 -38.43191  -2.19964  -2.19843  -2.19818
 Alpha  occ. eigenvalues --   -2.19460  -2.19258  -2.19229  -2.19202  -1.13638
 Alpha  occ. eigenvalues --   -1.13616  -1.13614  -1.13526  -1.13502  -1.13482
 Alpha  occ. eigenvalues --   -1.13463  -1.13443  -1.13435  -1.13210  -1.13114
 Alpha  occ. eigenvalues --   -1.13076  -1.12976  -1.12960  -1.12922  -1.12895
 Alpha  occ. eigenvalues --   -1.12884  -1.12864  -1.12844  -1.12815  -1.12803
 Alpha  occ. eigenvalues --   -0.18443  -0.12896  -0.12375  -0.10877
 Alpha virt. eigenvalues --   -0.05769  -0.05271  -0.04556  -0.03066  -0.02896
 Alpha virt. eigenvalues --   -0.02828  -0.01631  -0.01133  -0.00461  -0.00335
 Alpha virt. eigenvalues --   -0.00054   0.00324   0.00759   0.00867   0.00874

  Beta  occ. eigenvalues --  -38.44181 -38.44011 -38.43865 -38.43574 -38.43424
  Beta  occ. eigenvalues --  -38.43385 -38.43138  -2.19969  -2.19837  -2.19607
  Beta  occ. eigenvalues --   -2.19450  -2.19256  -2.19223  -2.19107  -1.13631
  Beta  occ. eigenvalues --   -1.13623  -1.13619  -1.13515  -1.13484  -1.13478
  Beta  occ. eigenvalues --   -1.13324  -1.13296  -1.13288  -1.13192  -1.13083
  Beta  occ. eigenvalues --   -1.13074  -1.12957  -1.12949  -1.12906  -1.12887
  Beta  occ. eigenvalues --   -1.12873  -1.12843  -1.12805  -1.12754  -1.12737
  Beta  occ. eigenvalues --   -0.17728  -0.12719  -0.12159
  Beta virt. eigenvalues --   -0.06839  -0.05728  -0.05285  -0.04506  -0.02349
  Beta virt. eigenvalues --   -0.02074  -0.01708  -0.01555  -0.01080  -0.00498
  Beta virt. eigenvalues --   -0.00390   0.00127   0.00363   0.00836   0.00860

 Mulliken charges and spin densities:
               1          2
     1  Na   0.312877   0.011387
     2  Na   0.378322   0.051185
     3  Na  -0.232177   0.194208
     4  Na   0.111850  -0.009305
     5  Na  -0.705196   0.802284
     6  Na  -0.009113  -0.029975
     7  Na   0.143437  -0.019784
 Sum of Mulliken charges =  -0.00000   1.00000

 Dipole moment (field-independent basis, Debye):
    X=             -0.0490    Y=             -0.0823    Z=              0.2170  Tot=              0.2372
 Quadrupole moment (field-independent basis, Debye-Ang):
   XX=            -55.2395   YY=            -64.1471   ZZ=            -74.3131
   XY=              0.5787   XZ=              0.5775   YZ=              0.1205

 Normal termination of Gaussian 16 at Sat Dec  9 07:02:12 2023.
