 Gaussian 16, Revision B.01,
 Gaussian 16:  ES64L-G16RevB.01 20-Dec-2017

 -------------------------
 #P B3LYP/6-311+g(d) force
 -------------------------

 -----
 DPGEN
 -----
 Symbolic Z-matrix:
 Charge =  0 Multiplicity = 2

                         Standard orientation:
 ---------------------------------------------------------------------
 Center     Atomic      Atomic             Coordinates (Angstroms)
 Number     Number       Type             X           Y           Z
 ---------------------------------------------------------------------
      1         11           0       -0.063818    0.450059    1.899040
      2         11           0       -3.145341   -1.362698   -0.074038
      3         11           0       -2.199422    1.915033   -0.080496
      4         11           0        3.347355   -0.583714   -0.364132
      5         11           0        1.683722    2.137967   -0.093076
      6         11           0       -0.382772   -0.220859   -1.807070
      7         11           0        0.760278   -2.335788    0.519773
 ---------------------------------------------------------------------

 SCF Done:  E(UB3LYP) =  -1136.13058272     A.U. after   22 cycles

 The electronic state is 2-A.
 Alpha  occ. eigenvalues --  -38.44566 -38.44518 -38.43833 -38.43653 -38.43407
 Alpha  occ. eigenvalues --  -38.43116 -38.42933  -2.20408  -2.20322  -2.19764
 Alpha  occ. eigenvalues --   -2.19535  -2.19376  -2.19009  -2.18828  -1.14084
 Alpha  occ. eigenvalues --   -1.14062  -1.14055  -1.13996  -1.13985  -1.13962
 Alpha  occ. eigenvalues --   -1.13458  -1.13421  -1.13375  -1.13235  -1.13205
 Alpha  occ. eigenvalues --   -1.13146  -1.13059  -1.13020  -1.12988  -1.12687
 Alpha  occ. eigenvalues --   -1.12672  -1.12633  -1.12523  -1.12492  -1.12440
 Alpha  occ. eigenvalues --   -0.18906  -0.13682  -0.11775  -0.10966
 Alpha virt. eigenvalues --   -0.06386  -0.05299  -0.03674  -0.03523  -0.02760
 Alpha virt. eigenvalues --   -0.02557  -0.02109  -0.01161  -0.00226  -0.00071
 Alpha virt. eigenvalues --    0.00050   0.00304   0.00719   0.00784   0.00867

  Beta  occ. eigenvalues --  -38.44560 -38.44518 -38.43770 -38.43646 -38.43315
  Beta  occ. eigenvalues --  -38.43108 -38.42913  -2.20399  -2.20326  -2.19647
  Beta  occ. eigenvalues --   -2.19525  -2.19209  -2.18999  -2.18796  -1.14079
  Beta  occ. eigenvalues --   -1.14055  -1.14038  -1.13992  -1.13983  -1.13961
  Beta  occ. eigenvalues --   -1.13382  -1.13340  -1.13288  -1.13215  -1.13176
  Beta  occ. eigenvalues --   -1.13140  -1.12954  -1.12900  -1.12874  -1.12676
  Beta  occ. eigenvalues --   -1.12642  -1.12621  -1.12501  -1.12438  -1.12424
  Beta  occ. eigenvalues --   -0.18164  -0.13437  -0.11528
  Beta virt. eigenvalues --   -0.07059  -0.06256  -0.05311  -0.03617  -0.02796
  Beta virt. eigenvalues --   -0.02035  -0.01960  -0.01500  -0.01133  -0.00230
  Beta virt. eigenvalues --    0.00028   0.00073   0.00325   0.00776   0.00855

 Mulliken charges and spin densities:
               1          2
     1  Na  -0.312257   0.587573
     2  Na   0.119820  -0.089720
     3  Na   0.252394  -0.113317
     4  Na  -0.100034   0.008168
     5  Na   0.301292  -0.012465
     6  Na  -0.526980   0.607962
     7  Na   0.265764   0.011798
 Sum of Mulliken charges =  -0.00000   1.00000

 Dipole moment (field-independent basis, Debye):
    X=             -0.3085    Y=             -0.1124    Z=             -0.1588  Tot=              0.3647
 Quadrupole moment (field-independent basis, Debye-Ang):
   XX=            -50.0646   YY=            -70.2761   ZZ=            -72.9489
   XY=              0.4277   XZ=             -1.4171   YZ=             -1.1333

 Normal termination of Gaussian 16 at Tue Dec  5 20:49:48 2023.
