 Gaussian 16, Revision B.01,
 Gaussian 16:  ES64L-G16RevB.01 20-Dec-2017

 -------------------------
 #P B3LYP/6-311+g(d) force
 -------------------------

 -----
 DPGEN
 -----
 Symbolic Z-matrix:
 Charge =  0 Multiplicity = 2

                         Standard orientation:
 ---------------------------------------------------------------------
 Center     Atomic      Atomic             Coordinates (Angstroms)
 Number     Number       Type             X           Y           Z
 ---------------------------------------------------------------------
      1         11           0       -0.192377    0.004071    2.057353
      2         11           0        1.520488    2.668352   -0.578713
      3         11           0        0.342112   -0.198185   -1.378083
      4         11           0        0.720782   -2.932210   -0.420885
      5         11           0       -2.487140    2.351376   -0.047353
      6         11           0       -2.775771   -1.666305   -0.155253
      7         11           0        2.871907   -0.227099    0.522934
 ---------------------------------------------------------------------

 SCF Done:  E(UB3LYP) =  -1136.13110046     A.U. after   20 cycles

 The electronic state is 2-A.
 Alpha  occ. eigenvalues --  -38.44272 -38.44249 -38.43689 -38.43631 -38.43621
 Alpha  occ. eigenvalues --  -38.43548 -38.43069  -2.20030  -2.20017  -2.19530
 Alpha  occ. eigenvalues --   -2.19509  -2.19499  -2.19451  -2.19116  -1.13714
 Alpha  occ. eigenvalues --   -1.13701  -1.13691  -1.13668  -1.13666  -1.13654
 Alpha  occ. eigenvalues --   -1.13303  -1.13245  -1.13206  -1.13187  -1.13158
 Alpha  occ. eigenvalues --   -1.13149  -1.13141  -1.13129  -1.13123  -1.13103
 Alpha  occ. eigenvalues --   -1.13087  -1.13060  -1.12789  -1.12741  -1.12716
 Alpha  occ. eigenvalues --   -0.18491  -0.12796  -0.12466  -0.10631
 Alpha virt. eigenvalues --   -0.05839  -0.05207  -0.04807  -0.03096  -0.02828
 Alpha virt. eigenvalues --   -0.02376  -0.01458  -0.01396  -0.00585  -0.00479
 Alpha virt. eigenvalues --    0.00017   0.00329   0.00765   0.00833   0.00894

  Beta  occ. eigenvalues --  -38.44275 -38.44248 -38.43672 -38.43609 -38.43534
  Beta  occ. eigenvalues --  -38.43532 -38.43020  -2.20030  -2.20024  -2.19502
  Beta  occ. eigenvalues --   -2.19481  -2.19426  -2.19330  -2.19029  -1.13703
  Beta  occ. eigenvalues --   -1.13698  -1.13692  -1.13674  -1.13669  -1.13655
  Beta  occ. eigenvalues --   -1.13278  -1.13222  -1.13167  -1.13139  -1.13138
  Beta  occ. eigenvalues --   -1.13108  -1.13094  -1.13075  -1.13053  -1.13043
  Beta  occ. eigenvalues --   -1.13008  -1.12976  -1.12720  -1.12678  -1.12656
  Beta  occ. eigenvalues --   -0.17777  -0.12567  -0.12232
  Beta virt. eigenvalues --   -0.06707  -0.05852  -0.05109  -0.04731  -0.02351
  Beta virt. eigenvalues --   -0.02148  -0.01470  -0.01335  -0.01250  -0.00580
  Beta virt. eigenvalues --   -0.00490   0.00151   0.00377   0.00775   0.00866

 Mulliken charges and spin densities:
               1          2
     1  Na  -0.277167   0.640169
     2  Na  -0.007061  -0.002486
     3  Na  -0.205881   0.241588
     4  Na   0.342983   0.036911
     5  Na  -0.139969  -0.067732
     6  Na  -0.065156  -0.060338
     7  Na   0.352251   0.211889
 Sum of Mulliken charges =  -0.00000   1.00000

 Dipole moment (field-independent basis, Debye):
    X=             -0.3700    Y=              0.0053    Z=              0.2164  Tot=              0.4286
 Quadrupole moment (field-independent basis, Debye-Ang):
   XX=            -57.6203   YY=            -59.3147   ZZ=            -75.3887
   XY=              0.1069   XZ=              1.1533   YZ=             -0.6044

 Normal termination of Gaussian 16 at Fri Dec  8 01:02:38 2023.
