 Gaussian 16, Revision B.01,
 Gaussian 16:  ES64L-G16RevB.01 20-Dec-2017

 -------------------------
 #P B3LYP/6-311+g(d) force
 -------------------------

 -----
 DPGEN
 -----
 Symbolic Z-matrix:
 Charge =  0 Multiplicity = 2

                         Standard orientation:
 ---------------------------------------------------------------------
 Center     Atomic      Atomic             Coordinates (Angstroms)
 Number     Number       Type             X           Y           Z
 ---------------------------------------------------------------------
      1         11           0        1.288713    1.498055   -1.172983
      2         11           0       -0.139794    0.128069    1.964573
      3         11           0       -0.866575   -1.263623   -1.579148
      4         11           0        2.327344   -1.812539   -0.621245
      5         11           0        3.663837    0.700253    1.009892
      6         11           0       -2.793304    1.826299   -0.652344
      7         11           0       -3.480220   -1.076515    1.051256
 ---------------------------------------------------------------------

 SCF Done:  E(UB3LYP) =  -1136.12042194     A.U. after   31 cycles

 The electronic state is 2-A.
 Alpha  occ. eigenvalues --  -38.45140 -38.44835 -38.44625 -38.44338 -38.43897
 Alpha  occ. eigenvalues --  -38.43878 -38.42061  -2.20940  -2.20618  -2.20436
 Alpha  occ. eigenvalues --   -2.20216  -2.19771  -2.19709  -2.17931  -1.14610
 Alpha  occ. eigenvalues --   -1.14582  -1.14570  -1.14320  -1.14305  -1.14208
 Alpha  occ. eigenvalues --   -1.14100  -1.14088  -1.14065  -1.13912  -1.13861
 Alpha  occ. eigenvalues --   -1.13833  -1.13461  -1.13444  -1.13405  -1.13384
 Alpha  occ. eigenvalues --   -1.13347  -1.13329  -1.11632  -1.11605  -1.11553
 Alpha  occ. eigenvalues --   -0.18152  -0.14345  -0.11258  -0.10593
 Alpha virt. eigenvalues --   -0.07012  -0.05911  -0.04663  -0.03132  -0.02717
 Alpha virt. eigenvalues --   -0.02463  -0.02238  -0.01490  -0.00903  -0.00369
 Alpha virt. eigenvalues --    0.00099   0.00136   0.00308   0.00457   0.00532

  Beta  occ. eigenvalues --  -38.45096 -38.44802 -38.44600 -38.44290 -38.43891
  Beta  occ. eigenvalues --  -38.43867 -38.42056  -2.20859  -2.20560  -2.20391
  Beta  occ. eigenvalues --   -2.20126  -2.19736  -2.19715  -2.17925  -1.14550
  Beta  occ. eigenvalues --   -1.14530  -1.14507  -1.14276  -1.14253  -1.14166
  Beta  occ. eigenvalues --   -1.14061  -1.14056  -1.14037  -1.13853  -1.13785
  Beta  occ. eigenvalues --   -1.13773  -1.13448  -1.13403  -1.13397  -1.13373
  Beta  occ. eigenvalues --   -1.13356  -1.13323  -1.11633  -1.11572  -1.11553
  Beta  occ. eigenvalues --   -0.17513  -0.14194  -0.10392
  Beta virt. eigenvalues --   -0.07532  -0.06849  -0.05134  -0.04553  -0.02778
  Beta virt. eigenvalues --   -0.02621  -0.01869  -0.01703  -0.00896  -0.00838
  Beta virt. eigenvalues --   -0.00206   0.00120   0.00269   0.00336   0.00564

 Mulliken charges and spin densities:
               1          2
     1  Na  -0.274274   0.330792
     2  Na  -0.737129   0.358808
     3  Na  -0.465946   0.339827
     4  Na   0.104968  -0.025106
     5  Na   0.652611  -0.092918
     6  Na   0.059888   0.136388
     7  Na   0.659882  -0.047791
 Sum of Mulliken charges =  -0.00000   1.00000

 Dipole moment (field-independent basis, Debye):
    X=             -0.5340    Y=              0.1652    Z=              0.0227  Tot=              0.5595
 Quadrupole moment (field-independent basis, Debye-Ang):
   XX=            -49.4904   YY=            -68.3412   ZZ=            -78.3742
   XY=             -1.2982   XZ=              0.5499   YZ=             -6.0550

 Normal termination of Gaussian 16 at Fri Dec  8 07:25:06 2023.
