 Gaussian 16, Revision B.01,
 Gaussian 16:  ES64L-G16RevB.01 20-Dec-2017

 -------------------------
 #P B3LYP/6-311+g(d) force
 -------------------------

 -----
 DPGEN
 -----
 Symbolic Z-matrix:
 Charge =  0 Multiplicity = 2

                         Standard orientation:
 ---------------------------------------------------------------------
 Center     Atomic      Atomic             Coordinates (Angstroms)
 Number     Number       Type             X           Y           Z
 ---------------------------------------------------------------------
      1         11           0        2.107299    2.322054    0.763718
      2         11           0        0.854535   -0.345836   -1.984322
      3         11           0        2.834468   -1.468912   -0.378988
      4         11           0       -0.087461   -2.553092    1.037896
      5         11           0       -3.212711   -1.185361   -0.606545
      6         11           0       -1.483427    2.535401   -1.031865
      7         11           0       -1.012704    0.695746    2.200105
 ---------------------------------------------------------------------

 SCF Done:  E(UB3LYP) =  -1136.12346991     A.U. after   20 cycles

 The electronic state is 2-A.
 Alpha  occ. eigenvalues --  -38.44412 -38.44360 -38.44320 -38.44231 -38.44183
 Alpha  occ. eigenvalues --  -38.43618 -38.43598  -2.20212  -2.20169  -2.20158
 Alpha  occ. eigenvalues --   -2.19990  -2.19953  -2.19502  -2.19420  -1.14017
 Alpha  occ. eigenvalues --   -1.13849  -1.13844  -1.13837  -1.13815  -1.13811
 Alpha  occ. eigenvalues --   -1.13809  -1.13799  -1.13778  -1.13667  -1.13638
 Alpha  occ. eigenvalues --   -1.13634  -1.13626  -1.13608  -1.13577  -1.13189
 Alpha  occ. eigenvalues --   -1.13146  -1.13104  -1.13103  -1.13076  -1.13030
 Alpha  occ. eigenvalues --   -0.17551  -0.12699  -0.12026  -0.11375
 Alpha virt. eigenvalues --   -0.05889  -0.04999  -0.04916  -0.03556  -0.03438
 Alpha virt. eigenvalues --   -0.02966  -0.01479  -0.01028  -0.00510  -0.00170
 Alpha virt. eigenvalues --   -0.00091   0.00366   0.00493   0.00593   0.00757

  Beta  occ. eigenvalues --  -38.44406 -38.44295 -38.44267 -38.44213 -38.44161
  Beta  occ. eigenvalues --  -38.43616 -38.43577  -2.20148  -2.20115  -2.20050
  Beta  occ. eigenvalues --   -2.19958  -2.19913  -2.19501  -2.19382  -1.13948
  Beta  occ. eigenvalues --   -1.13827  -1.13799  -1.13792  -1.13778  -1.13766
  Beta  occ. eigenvalues --   -1.13746  -1.13729  -1.13693  -1.13635  -1.13616
  Beta  occ. eigenvalues --   -1.13606  -1.13596  -1.13585  -1.13545  -1.13173
  Beta  occ. eigenvalues --   -1.13137  -1.13103  -1.13071  -1.13045  -1.13008
  Beta  occ. eigenvalues --   -0.16855  -0.12473  -0.11835
  Beta virt. eigenvalues --   -0.07656  -0.05707  -0.04806  -0.04538  -0.03144
  Beta virt. eigenvalues --   -0.02857  -0.02117  -0.01350  -0.00951  -0.00389
  Beta virt. eigenvalues --   -0.00113   0.00031   0.00441   0.00617   0.00719

 Mulliken charges and spin densities:
               1          2
     1  Na  -0.296078  -0.032669
     2  Na  -0.231009   0.290168
     3  Na   0.672122   0.149917
     4  Na  -0.391883  -0.013728
     5  Na   0.035220   0.038556
     6  Na   0.026845   0.071564
     7  Na   0.184784   0.496194
 Sum of Mulliken charges =  -0.00000   1.00000

 Dipole moment (field-independent basis, Debye):
    X=             -0.2011    Y=              0.2280    Z=              0.0348  Tot=              0.3060
 Quadrupole moment (field-independent basis, Debye-Ang):
   XX=            -60.5874   YY=            -67.5510   ZZ=            -68.6720
   XY=              0.2279   XZ=              3.6354   YZ=             -0.7470

 Normal termination of Gaussian 16 at Sun Dec  3 21:56:47 2023.
