 Gaussian 16, Revision B.01,
 Gaussian 16:  ES64L-G16RevB.01 20-Dec-2017

 -------------------------
 #P B3LYP/6-311+g(d) force
 -------------------------

 -----
 DPGEN
 -----
 Symbolic Z-matrix:
 Charge =  0 Multiplicity = 2

                         Standard orientation:
 ---------------------------------------------------------------------
 Center     Atomic      Atomic             Coordinates (Angstroms)
 Number     Number       Type             X           Y           Z
 ---------------------------------------------------------------------
      1         11           0       -2.933840    0.918211   -0.765998
      2         11           0        5.457287   -0.608094    0.225944
      3         11           0        0.183790    2.280731   -0.833177
      4         11           0       -1.333007    1.073388    1.971127
      5         11           0       -3.904123   -1.977549    0.235683
      6         11           0        2.800887   -0.375533   -0.001777
      7         11           0       -0.270994   -1.311154   -0.831802
 ---------------------------------------------------------------------

 SCF Done:  E(UB3LYP) =  -1136.10951623     A.U. after   22 cycles

 The electronic state is 2-A.
 Alpha  occ. eigenvalues --  -38.45672 -38.44787 -38.44136 -38.43934 -38.43821
 Alpha  occ. eigenvalues --  -38.43355 -38.43103  -2.21525  -2.20722  -2.20031
 Alpha  occ. eigenvalues --   -2.19817  -2.19677  -2.19166  -2.19031  -1.15199
 Alpha  occ. eigenvalues --   -1.15180  -1.15121  -1.14419  -1.14403  -1.14323
 Alpha  occ. eigenvalues --   -1.13723  -1.13692  -1.13678  -1.13618  -1.13409
 Alpha  occ. eigenvalues --   -1.13407  -1.13371  -1.13330  -1.13313  -1.12849
 Alpha  occ. eigenvalues --   -1.12821  -1.12805  -1.12695  -1.12658  -1.12640
 Alpha  occ. eigenvalues --   -0.18345  -0.14091  -0.11797  -0.10869
 Alpha virt. eigenvalues --   -0.07473  -0.05211  -0.04028  -0.03356  -0.03044
 Alpha virt. eigenvalues --   -0.02508  -0.01834  -0.01643  -0.00938  -0.00766
 Alpha virt. eigenvalues --   -0.00627   0.00125   0.00258   0.00558   0.00633

  Beta  occ. eigenvalues --  -38.45610 -38.44775 -38.44051 -38.43870 -38.43829
  Beta  occ. eigenvalues --  -38.43357 -38.43095  -2.21411  -2.20704  -2.19876
  Beta  occ. eigenvalues --   -2.19700  -2.19693  -2.19172  -2.19027  -1.15119
  Beta  occ. eigenvalues --   -1.15092  -1.15043  -1.14398  -1.14374  -1.14315
  Beta  occ. eigenvalues --   -1.13626  -1.13610  -1.13579  -1.13500  -1.13389
  Beta  occ. eigenvalues --   -1.13341  -1.13328  -1.13326  -1.13299  -1.12852
  Beta  occ. eigenvalues --   -1.12821  -1.12806  -1.12675  -1.12657  -1.12597
  Beta  occ. eigenvalues --   -0.17699  -0.13486  -0.11522
  Beta virt. eigenvalues --   -0.07362  -0.07185  -0.05147  -0.03534  -0.03007
  Beta virt. eigenvalues --   -0.02766  -0.02111  -0.01651  -0.01326  -0.00615
  Beta virt. eigenvalues --   -0.00520  -0.00379   0.00281   0.00361   0.00611

 Mulliken charges and spin densities:
               1          2
     1  Na   0.363120   0.355634
     2  Na   0.185008   0.239954
     3  Na   0.193512  -0.003933
     4  Na  -0.017349   0.222833
     5  Na   0.209462  -0.117149
     6  Na  -0.644311   0.168162
     7  Na  -0.289442   0.134499
 Sum of Mulliken charges =  -0.00000   1.00000

 Dipole moment (field-independent basis, Debye):
    X=             -1.3584    Y=              0.8798    Z=              0.2270  Tot=              1.6342
 Quadrupole moment (field-independent basis, Debye-Ang):
   XX=            -69.0051   YY=            -70.8922   ZZ=            -64.5476
   XY=              1.4627   XZ=              0.8305   YZ=             -5.3538

 Normal termination of Gaussian 16 at Thu Dec  7 08:50:02 2023.
