 Gaussian 16, Revision B.01,
 Gaussian 16:  ES64L-G16RevB.01 20-Dec-2017

 -------------------------
 #P B3LYP/6-311+g(d) force
 -------------------------

 -----
 DPGEN
 -----
 Symbolic Z-matrix:
 Charge =  0 Multiplicity = 2

                         Standard orientation:
 ---------------------------------------------------------------------
 Center     Atomic      Atomic             Coordinates (Angstroms)
 Number     Number       Type             X           Y           Z
 ---------------------------------------------------------------------
      1         11           0       -2.166727    0.905708   -1.591205
      2         11           0       -3.997106   -1.958470   -0.701679
      3         11           0        1.052688    3.544706   -0.145070
      4         11           0        2.997768    0.547816    0.391757
      5         11           0       -3.339891    0.609744    1.727025
      6         11           0        5.648712   -1.696785   -0.247019
      7         11           0       -0.195443   -1.952719    0.566191
 ---------------------------------------------------------------------

 SCF Done:  E(UB3LYP) =  -1136.09703859     A.U. after   32 cycles

 The electronic state is 2-A.
 Alpha  occ. eigenvalues --  -38.46081 -38.45960 -38.45857 -38.44818 -38.43700
 Alpha  occ. eigenvalues --  -38.43597 -38.43297  -2.21877  -2.21714  -2.21636
 Alpha  occ. eigenvalues --   -2.20581  -2.19481  -2.19341  -2.19066  -1.15538
 Alpha  occ. eigenvalues --   -1.15521  -1.15492  -1.15406  -1.15401  -1.15357
 Alpha  occ. eigenvalues --   -1.15318  -1.15281  -1.15263  -1.14266  -1.14238
 Alpha  occ. eigenvalues --   -1.14170  -1.13126  -1.13124  -1.13096  -1.13016
 Alpha  occ. eigenvalues --   -1.13005  -1.12975  -1.12771  -1.12755  -1.12687
 Alpha  occ. eigenvalues --   -0.17033  -0.13432  -0.11203  -0.10544
 Alpha virt. eigenvalues --   -0.07836  -0.06711  -0.04672  -0.03299  -0.02760
 Alpha virt. eigenvalues --   -0.02444  -0.02189  -0.01928  -0.01493  -0.00939
 Alpha virt. eigenvalues --   -0.00737  -0.00457  -0.00147   0.00193   0.00302

  Beta  occ. eigenvalues --  -38.46011 -38.45985 -38.45859 -38.44750 -38.43615
  Beta  occ. eigenvalues --  -38.43590 -38.43305  -2.21764  -2.21747  -2.21644
  Beta  occ. eigenvalues --   -2.20455  -2.19329  -2.19321  -2.19085  -1.15461
  Beta  occ. eigenvalues --   -1.15437  -1.15424  -1.15415  -1.15408  -1.15382
  Beta  occ. eigenvalues --   -1.15335  -1.15272  -1.15257  -1.14179  -1.14151
  Beta  occ. eigenvalues --   -1.14086  -1.13018  -1.13014  -1.13008  -1.12997
  Beta  occ. eigenvalues --   -1.12992  -1.12969  -1.12787  -1.12767  -1.12674
  Beta  occ. eigenvalues --   -0.16552  -0.13010  -0.10705
  Beta virt. eigenvalues --   -0.07540  -0.07029  -0.06699  -0.04305  -0.03140
  Beta virt. eigenvalues --   -0.02607  -0.02063  -0.01963  -0.01765  -0.01138
  Beta virt. eigenvalues --   -0.00577  -0.00457  -0.00165  -0.00014   0.00234

 Mulliken charges and spin densities:
               1          2
     1  Na  -0.110650  -0.094124
     2  Na   0.343644   0.118976
     3  Na   0.193618   0.029827
     4  Na  -0.424221   0.072237
     5  Na   0.291434   0.346745
     6  Na   0.036694   0.324162
     7  Na  -0.330518   0.202177
 Sum of Mulliken charges =  -0.00000   1.00000

 Dipole moment (field-independent basis, Debye):
    X=             -3.8865    Y=             -0.9982    Z=             -0.1687  Tot=              4.0162
 Quadrupole moment (field-independent basis, Debye-Ang):
   XX=            -66.4796   YY=            -72.9606   ZZ=            -63.4931
   XY=              7.2191   XZ=              2.0402   YZ=              2.5350

 Normal termination of Gaussian 16 at Sun Dec  3 15:51:10 2023.
