 Gaussian 16, Revision B.01,
 Gaussian 16:  ES64L-G16RevB.01 20-Dec-2017

 -------------------------
 #P B3LYP/6-311+g(d) force
 -------------------------

 -----
 DPGEN
 -----
 Symbolic Z-matrix:
 Charge =  0 Multiplicity = 2

                         Standard orientation:
 ---------------------------------------------------------------------
 Center     Atomic      Atomic             Coordinates (Angstroms)
 Number     Number       Type             X           Y           Z
 ---------------------------------------------------------------------
      1         11           0       -4.071523   -1.035887   -0.526439
      2         11           0        0.401277    2.586245    1.265860
      3         11           0        2.701878    2.359842   -0.786945
      4         11           0        4.283620   -1.012263   -0.740643
      5         11           0       -3.678471    2.251867   -0.231629
      6         11           0       -1.703745   -3.084989    0.082858
      7         11           0        2.066963   -2.064815    0.936938
 ---------------------------------------------------------------------

 SCF Done:  E(UB3LYP) =  -1136.10483653     A.U. after   19 cycles

 The electronic state is 2-A.
 Alpha  occ. eigenvalues --  -38.44930 -38.44788 -38.44621 -38.44377 -38.44297
 Alpha  occ. eigenvalues --  -38.44204 -38.43887  -2.20722  -2.20591  -2.20414
 Alpha  occ. eigenvalues --   -2.20186  -2.20146  -2.19999  -2.19694  -1.14451
 Alpha  occ. eigenvalues --   -1.14379  -1.14375  -1.14288  -1.14254  -1.14221
 Alpha  occ. eigenvalues --   -1.14066  -1.14062  -1.14037  -1.13869  -1.13858
 Alpha  occ. eigenvalues --   -1.13837  -1.13798  -1.13778  -1.13763  -1.13658
 Alpha  occ. eigenvalues --   -1.13652  -1.13632  -1.13341  -1.13337  -1.13322
 Alpha  occ. eigenvalues --   -0.15896  -0.14298  -0.12771  -0.10839
 Alpha virt. eigenvalues --   -0.07467  -0.04841  -0.04472  -0.03676  -0.03408
 Alpha virt. eigenvalues --   -0.02440  -0.02143  -0.01793  -0.01144  -0.00913
 Alpha virt. eigenvalues --   -0.00590  -0.00107   0.00162   0.00432   0.00589

  Beta  occ. eigenvalues --  -38.44936 -38.44774 -38.44538 -38.44374 -38.44247
  Beta  occ. eigenvalues --  -38.44180 -38.43823  -2.20739  -2.20568  -2.20262
  Beta  occ. eigenvalues --   -2.20189  -2.20052  -2.19958  -2.19575  -1.14441
  Beta  occ. eigenvalues --   -1.14395  -1.14375  -1.14260  -1.14241  -1.14200
  Beta  occ. eigenvalues --   -1.13967  -1.13960  -1.13932  -1.13867  -1.13864
  Beta  occ. eigenvalues --   -1.13795  -1.13739  -1.13713  -1.13701  -1.13629
  Beta  occ. eigenvalues --   -1.13625  -1.13598  -1.13263  -1.13259  -1.13243
  Beta  occ. eigenvalues --   -0.15465  -0.13512  -0.12055
  Beta virt. eigenvalues --   -0.07704  -0.07494  -0.04487  -0.04003  -0.03450
  Beta virt. eigenvalues --   -0.03150  -0.02118  -0.01954  -0.01492  -0.00953
  Beta virt. eigenvalues --   -0.00691  -0.00337   0.00156   0.00190   0.00467

 Mulliken charges and spin densities:
               1          2
     1  Na   0.160677   0.041512
     2  Na  -0.272544   0.074527
     3  Na   0.054331   0.042753
     4  Na   0.494911   0.220265
     5  Na  -0.067544   0.386135
     6  Na  -0.001762   0.264042
     7  Na  -0.368070  -0.029233
 Sum of Mulliken charges =  -0.00000   1.00000

 Dipole moment (field-independent basis, Debye):
    X=              0.8703    Y=              0.5000    Z=             -0.2606  Tot=              1.0369
 Quadrupole moment (field-independent basis, Debye-Ang):
   XX=            -63.2422   YY=            -72.7622   ZZ=            -67.2249
   XY=              2.0056   XZ=             -3.7825   YZ=             -1.7542

 Normal termination of Gaussian 16 at Sun Dec  3 23:58:06 2023.
