 Gaussian 16, Revision B.01,
 Gaussian 16:  ES64L-G16RevB.01 20-Dec-2017

 -------------------------
 #P B3LYP/6-311+g(d) force
 -------------------------

 -----
 DPGEN
 -----
 Symbolic Z-matrix:
 Charge =  0 Multiplicity = 2

                         Standard orientation:
 ---------------------------------------------------------------------
 Center     Atomic      Atomic             Coordinates (Angstroms)
 Number     Number       Type             X           Y           Z
 ---------------------------------------------------------------------
      1         11           0       -0.696105   -2.537541   -0.296465
      2         11           0        0.829057    0.033122   -1.540317
      3         11           0        2.559808   -1.766053    0.155917
      4         11           0        2.273051    2.063129    0.177553
      5         11           0       -0.956271    2.607403   -0.064889
      6         11           0       -0.792709   -0.311964    2.165945
      7         11           0       -3.216832   -0.088096   -0.597746
 ---------------------------------------------------------------------

 SCF Done:  E(UB3LYP) =  -1136.13391533     A.U. after   20 cycles

 The electronic state is 2-A.
 Alpha  occ. eigenvalues --  -38.44006 -38.43929 -38.43754 -38.43697 -38.43422
 Alpha  occ. eigenvalues --  -38.43346 -38.43284  -2.19819  -2.19792  -2.19623
 Alpha  occ. eigenvalues --   -2.19563  -2.19304  -2.19281  -2.19250  -1.13532
 Alpha  occ. eigenvalues --   -1.13481  -1.13478  -1.13466  -1.13438  -1.13424
 Alpha  occ. eigenvalues --   -1.13370  -1.13272  -1.13253  -1.13230  -1.13202
 Alpha  occ. eigenvalues --   -1.13174  -1.13012  -1.12980  -1.12952  -1.12949
 Alpha  occ. eigenvalues --   -1.12918  -1.12909  -1.12904  -1.12884  -1.12855
 Alpha  occ. eigenvalues --   -0.18657  -0.13037  -0.12714  -0.10705
 Alpha virt. eigenvalues --   -0.05543  -0.05293  -0.04656  -0.03392  -0.02990
 Alpha virt. eigenvalues --   -0.02467  -0.01451  -0.01070  -0.00279  -0.00228
 Alpha virt. eigenvalues --   -0.00051   0.00342   0.00817   0.00862   0.00913

  Beta  occ. eigenvalues --  -38.43992 -38.43927 -38.43752 -38.43603 -38.43416
  Beta  occ. eigenvalues --  -38.43335 -38.43238  -2.19795  -2.19792  -2.19621
  Beta  occ. eigenvalues --   -2.19389  -2.19274  -2.19234  -2.19220  -1.13525
  Beta  occ. eigenvalues --   -1.13463  -1.13454  -1.13445  -1.13427  -1.13421
  Beta  occ. eigenvalues --   -1.13362  -1.13263  -1.13250  -1.13118  -1.13080
  Beta  occ. eigenvalues --   -1.13052  -1.12979  -1.12966  -1.12921  -1.12906
  Beta  occ. eigenvalues --   -1.12893  -1.12879  -1.12859  -1.12850  -1.12831
  Beta  occ. eigenvalues --   -0.17963  -0.12829  -0.12493
  Beta virt. eigenvalues --   -0.06827  -0.05436  -0.05261  -0.04575  -0.02671
  Beta virt. eigenvalues --   -0.02231  -0.01482  -0.01333  -0.01005  -0.00315
  Beta virt. eigenvalues --   -0.00247   0.00135   0.00392   0.00872   0.00906

 Mulliken charges and spin densities:
               1          2
     1  Na   0.267630   0.064210
     2  Na  -0.020278   0.320489
     3  Na   0.203624  -0.032266
     4  Na   0.130190  -0.031517
     5  Na   0.075886  -0.010320
     6  Na  -0.680432   0.642341
     7  Na   0.023381   0.047064
 Sum of Mulliken charges =  -0.00000   1.00000

 Dipole moment (field-independent basis, Debye):
    X=              0.0970    Y=             -0.0102    Z=              0.2176  Tot=              0.2385
 Quadrupole moment (field-independent basis, Debye-Ang):
   XX=            -56.7575   YY=            -64.2804   ZZ=            -73.3755
   XY=             -0.5240   XZ=              3.2384   YZ=              0.5068

 Normal termination of Gaussian 16 at Fri Dec  8 01:52:28 2023.
