 Gaussian 16, Revision B.01,
 Gaussian 16:  ES64L-G16RevB.01 20-Dec-2017

 -------------------------
 #P B3LYP/6-311+g(d) force
 -------------------------

 -----
 DPGEN
 -----
 Symbolic Z-matrix:
 Charge =  0 Multiplicity = 2

                         Standard orientation:
 ---------------------------------------------------------------------
 Center     Atomic      Atomic             Coordinates (Angstroms)
 Number     Number       Type             X           Y           Z
 ---------------------------------------------------------------------
      1         11           0       -0.604946    2.736283    0.563938
      2         11           0        0.341043   -0.190411    1.865563
      3         11           0       -3.140620    0.400636   -0.483987
      4         11           0       -0.029814   -0.103750   -1.791840
      5         11           0        2.268487   -1.824387   -0.143361
      6         11           0       -1.440748   -2.413552    0.374673
      7         11           0        2.606597    1.395180   -0.384986
 ---------------------------------------------------------------------

 SCF Done:  E(UB3LYP) =  -1136.13822914     A.U. after   19 cycles

 The electronic state is 2-A.
 Alpha  occ. eigenvalues --  -38.43969 -38.43691 -38.43527 -38.43524 -38.43433
 Alpha  occ. eigenvalues --  -38.43288 -38.43091  -2.19802  -2.19574  -2.19492
 Alpha  occ. eigenvalues --   -2.19429  -2.19410  -2.19165  -2.18938  -1.13484
 Alpha  occ. eigenvalues --   -1.13457  -1.13441  -1.13293  -1.13251  -1.13212
 Alpha  occ. eigenvalues --   -1.13187  -1.13145  -1.13139  -1.13111  -1.13082
 Alpha  occ. eigenvalues --   -1.13063  -1.13049  -1.13037  -1.13007  -1.12842
 Alpha  occ. eigenvalues --   -1.12823  -1.12782  -1.12625  -1.12591  -1.12566
 Alpha  occ. eigenvalues --   -0.19010  -0.13246  -0.12301  -0.11141
 Alpha virt. eigenvalues --   -0.05508  -0.05050  -0.04379  -0.03384  -0.02980
 Alpha virt. eigenvalues --   -0.02702  -0.01481  -0.00976  -0.00252   0.00002
 Alpha virt. eigenvalues --    0.00056   0.00370   0.00823   0.00912   0.00934

  Beta  occ. eigenvalues --  -38.43961 -38.43682 -38.43516 -38.43456 -38.43346
  Beta  occ. eigenvalues --  -38.43279 -38.43079  -2.19789  -2.19561  -2.19419
  Beta  occ. eigenvalues --   -2.19362  -2.19253  -2.19153  -2.18918  -1.13463
  Beta  occ. eigenvalues --   -1.13449  -1.13432  -1.13275  -1.13233  -1.13187
  Beta  occ. eigenvalues --   -1.13139  -1.13096  -1.13067  -1.13032  -1.13026
  Beta  occ. eigenvalues --   -1.12997  -1.12982  -1.12937  -1.12915  -1.12818
  Beta  occ. eigenvalues --   -1.12800  -1.12767  -1.12602  -1.12570  -1.12554
  Beta  occ. eigenvalues --   -0.18273  -0.12966  -0.12023
  Beta virt. eigenvalues --   -0.07221  -0.05427  -0.05062  -0.04322  -0.02622
  Beta virt. eigenvalues --   -0.02206  -0.01651  -0.01368  -0.00924  -0.00214
  Beta virt. eigenvalues --   -0.00031   0.00127   0.00396   0.00884   0.00914

 Mulliken charges and spin densities:
               1          2
     1  Na  -0.046851  -0.012864
     2  Na  -0.098155   0.622347
     3  Na  -0.008883  -0.001578
     4  Na  -0.217849   0.528003
     5  Na   0.182919  -0.076875
     6  Na   0.065923  -0.066482
     7  Na   0.122894   0.007449
 Sum of Mulliken charges =  -0.00000   1.00000

 Dipole moment (field-independent basis, Debye):
    X=             -0.0111    Y=             -0.0485    Z=             -0.1127  Tot=              0.1232
 Quadrupole moment (field-independent basis, Debye-Ang):
   XX=            -56.6082   YY=            -65.1302   ZZ=            -72.3574
   XY=             -0.1446   XZ=             -0.4316   YZ=             -0.0656

 Normal termination of Gaussian 16 at Thu Dec  7 17:12:10 2023.
