 Gaussian 16, Revision B.01,
 Gaussian 16:  ES64L-G16RevB.01 20-Dec-2017

 -------------------------
 #P B3LYP/6-311+g(d) force
 -------------------------

 -----
 DPGEN
 -----
 Symbolic Z-matrix:
 Charge =  0 Multiplicity = 2

                         Standard orientation:
 ---------------------------------------------------------------------
 Center     Atomic      Atomic             Coordinates (Angstroms)
 Number     Number       Type             X           Y           Z
 ---------------------------------------------------------------------
      1         11           0        0.043336    0.214775    1.773056
      2         11           0       -2.964312   -0.425092   -0.672980
      3         11           0        2.039513    2.070403   -0.516805
      4         11           0        0.487697   -0.335718   -1.354562
      5         11           0       -0.868999   -2.810328    0.277035
      6         11           0       -1.488474    2.667268    0.348181
      7         11           0        2.751239   -1.381309    0.146076
 ---------------------------------------------------------------------

 SCF Done:  E(UB3LYP) =  -1136.13264698     A.U. after   19 cycles

 The electronic state is 2-A.
 Alpha  occ. eigenvalues --  -38.44011 -38.43774 -38.43695 -38.43519 -38.43504
 Alpha  occ. eigenvalues --  -38.43064 -38.43010  -2.19899  -2.19664  -2.19541
 Alpha  occ. eigenvalues --   -2.19391  -2.19345  -2.19114  -2.19048  -1.13665
 Alpha  occ. eigenvalues --   -1.13550  -1.13504  -1.13420  -1.13311  -1.13264
 Alpha  occ. eigenvalues --   -1.13220  -1.13210  -1.13182  -1.13081  -1.13060
 Alpha  occ. eigenvalues --   -1.13049  -1.13010  -1.12994  -1.12979  -1.12839
 Alpha  occ. eigenvalues --   -1.12739  -1.12722  -1.12695  -1.12659  -1.12653
 Alpha  occ. eigenvalues --   -0.19048  -0.13151  -0.12702  -0.10510
 Alpha virt. eigenvalues --   -0.05458  -0.05118  -0.04861  -0.03087  -0.02870
 Alpha virt. eigenvalues --   -0.02075  -0.01460  -0.01254  -0.00375  -0.00171
 Alpha virt. eigenvalues --    0.00072   0.00346   0.00854   0.00881   0.00900

  Beta  occ. eigenvalues --  -38.44005 -38.43756 -38.43677 -38.43513 -38.43497
  Beta  occ. eigenvalues --  -38.42980 -38.42959  -2.19892  -2.19636  -2.19510
  Beta  occ. eigenvalues --   -2.19385  -2.19336  -2.19024  -2.18894  -1.13658
  Beta  occ. eigenvalues --   -1.13533  -1.13488  -1.13392  -1.13277  -1.13243
  Beta  occ. eigenvalues --   -1.13200  -1.13184  -1.13156  -1.13076  -1.13040
  Beta  occ. eigenvalues --   -1.13028  -1.12993  -1.12977  -1.12976  -1.12761
  Beta  occ. eigenvalues --   -1.12677  -1.12652  -1.12601  -1.12556  -1.12536
  Beta  occ. eigenvalues --   -0.18358  -0.12836  -0.12444
  Beta virt. eigenvalues --   -0.06667  -0.05435  -0.05012  -0.04821  -0.02349
  Beta virt. eigenvalues --   -0.02127  -0.01379  -0.01178  -0.01107  -0.00337
  Beta virt. eigenvalues --   -0.00200   0.00178   0.00392   0.00858   0.00902

 Mulliken charges and spin densities:
               1          2
     1  Na  -0.178767   0.593602
     2  Na  -0.079933   0.062059
     3  Na   0.106853  -0.003090
     4  Na  -0.301054   0.199547
     5  Na   0.171129   0.091714
     6  Na   0.064579   0.018453
     7  Na   0.217191   0.037715
 Sum of Mulliken charges =  -0.00000   1.00000

 Dipole moment (field-independent basis, Debye):
    X=              0.1712    Y=             -0.0438    Z=              0.1735  Tot=              0.2476
 Quadrupole moment (field-independent basis, Debye-Ang):
   XX=            -57.1497   YY=            -59.5239   ZZ=            -75.3320
   XY=             -0.8084   XZ=              1.2362   YZ=             -1.5678

 Normal termination of Gaussian 16 at Thu Dec  7 23:09:36 2023.
