 Gaussian 16, Revision B.01,
 Gaussian 16:  ES64L-G16RevB.01 20-Dec-2017

 -------------------------
 #P B3LYP/6-311+g(d) force
 -------------------------

 -----
 DPGEN
 -----
 Symbolic Z-matrix:
 Charge =  0 Multiplicity = 2

                         Standard orientation:
 ---------------------------------------------------------------------
 Center     Atomic      Atomic             Coordinates (Angstroms)
 Number     Number       Type             X           Y           Z
 ---------------------------------------------------------------------
      1         11           0       -3.317873    0.507772   -1.609334
      2         11           0        3.474792   -1.036360    0.225377
      3         11           0        0.349350   -1.452349    1.867106
      4         11           0       -2.695785    0.714063    2.280901
      5         11           0        0.254759    0.771701   -0.790422
      6         11           0       -0.304296   -2.521431   -1.570476
      7         11           0        2.239054    3.016604   -0.403152
 ---------------------------------------------------------------------

 SCF Done:  E(UB3LYP) =  -1136.11468201     A.U. after   24 cycles

 The electronic state is 2-A.
 Alpha  occ. eigenvalues --  -38.45404 -38.44973 -38.44820 -38.44538 -38.43959
 Alpha  occ. eigenvalues --  -38.42814 -38.42694  -2.21151  -2.20746  -2.20567
 Alpha  occ. eigenvalues --   -2.20337  -2.19794  -2.18753  -2.18498  -1.14848
 Alpha  occ. eigenvalues --   -1.14798  -1.14769  -1.14402  -1.14392  -1.14355
 Alpha  occ. eigenvalues --   -1.14241  -1.14220  -1.14203  -1.14025  -1.13986
 Alpha  occ. eigenvalues --   -1.13933  -1.13493  -1.13451  -1.13399  -1.12490
 Alpha  occ. eigenvalues --   -1.12458  -1.12375  -1.12154  -1.12151  -1.12117
 Alpha  occ. eigenvalues --   -0.17310  -0.12833  -0.11791  -0.11143
 Alpha virt. eigenvalues --   -0.06669  -0.05412  -0.04550  -0.03185  -0.03011
 Alpha virt. eigenvalues --   -0.02551  -0.02227  -0.01173  -0.00888  -0.00215
 Alpha virt. eigenvalues --   -0.00053   0.00077   0.00192   0.00551   0.00633

  Beta  occ. eigenvalues --  -38.45402 -38.44894 -38.44807 -38.44483 -38.43922
  Beta  occ. eigenvalues --  -38.42799 -38.42703  -2.21148  -2.20600  -2.20543
  Beta  occ. eigenvalues --   -2.20235  -2.19726  -2.18727  -2.18515  -1.14841
  Beta  occ. eigenvalues --   -1.14797  -1.14769  -1.14302  -1.14285  -1.14257
  Beta  occ. eigenvalues --   -1.14223  -1.14193  -1.14189  -1.13950  -1.13921
  Beta  occ. eigenvalues --   -1.13857  -1.13450  -1.13406  -1.13333  -1.12471
  Beta  occ. eigenvalues --   -1.12428  -1.12362  -1.12161  -1.12160  -1.12127
  Beta  occ. eigenvalues --   -0.16643  -0.12524  -0.11092
  Beta virt. eigenvalues --   -0.07884  -0.06534  -0.04746  -0.04279  -0.02958
  Beta virt. eigenvalues --   -0.02323  -0.02186  -0.02087  -0.00824  -0.00629
  Beta virt. eigenvalues --   -0.00173   0.00037   0.00152   0.00255   0.00705

 Mulliken charges and spin densities:
               1          2
     1  Na   0.599309  -0.048897
     2  Na   0.360081  -0.004514
     3  Na   0.210163   0.267436
     4  Na  -0.144120   0.331216
     5  Na  -1.639394   0.422345
     6  Na   0.076969   0.088519
     7  Na   0.536992  -0.056105
 Sum of Mulliken charges =  -0.00000   1.00000

 Dipole moment (field-independent basis, Debye):
    X=             -0.2127    Y=             -1.1965    Z=              0.1774  Tot=              1.2282
 Quadrupole moment (field-independent basis, Debye-Ang):
   XX=            -53.2468   YY=            -72.4700   ZZ=            -66.5161
   XY=             -5.1986   XZ=              2.0410   YZ=              4.4206

 Normal termination of Gaussian 16 at Mon Dec  4 00:26:04 2023.
