 Gaussian 16, Revision B.01,
 Gaussian 16:  ES64L-G16RevB.01 20-Dec-2017

 -------------------------
 #P B3LYP/6-311+g(d) force
 -------------------------

 -----
 DPGEN
 -----
 Symbolic Z-matrix:
 Charge =  0 Multiplicity = 2

                         Standard orientation:
 ---------------------------------------------------------------------
 Center     Atomic      Atomic             Coordinates (Angstroms)
 Number     Number       Type             X           Y           Z
 ---------------------------------------------------------------------
      1         11           0        0.061019    0.049113   -1.788060
      2         11           0       -1.086213   -2.721180   -0.122773
      3         11           0        2.091911    2.018029   -0.266551
      4         11           0        3.503717   -1.070939    0.002571
      5         11           0       -1.475721    2.621950    0.615022
      6         11           0       -3.262731   -0.172536   -0.340995
      7         11           0        0.168018   -0.724438    1.900787
 ---------------------------------------------------------------------

 SCF Done:  E(UB3LYP) =  -1136.13074516     A.U. after   21 cycles

 The electronic state is 2-A.
 Alpha  occ. eigenvalues --  -38.44932 -38.44618 -38.43738 -38.43730 -38.43611
 Alpha  occ. eigenvalues --  -38.43236 -38.43050  -2.20700  -2.20442  -2.19637
 Alpha  occ. eigenvalues --   -2.19587  -2.19493  -2.19115  -2.18864  -1.14375
 Alpha  occ. eigenvalues --   -1.14359  -1.14339  -1.14114  -1.14098  -1.14088
 Alpha  occ. eigenvalues --   -1.13371  -1.13313  -1.13255  -1.13247  -1.13222
 Alpha  occ. eigenvalues --   -1.13200  -1.13195  -1.13137  -1.13097  -1.12790
 Alpha  occ. eigenvalues --   -1.12773  -1.12742  -1.12530  -1.12525  -1.12509
 Alpha  occ. eigenvalues --   -0.18246  -0.13370  -0.11986  -0.10623
 Alpha virt. eigenvalues --   -0.06509  -0.05144  -0.04332  -0.03391  -0.02914
 Alpha virt. eigenvalues --   -0.02386  -0.02142  -0.01129  -0.00487  -0.00275
 Alpha virt. eigenvalues --   -0.00051   0.00297   0.00642   0.00730   0.00799

  Beta  occ. eigenvalues --  -38.44936 -38.44611 -38.43731 -38.43660 -38.43531
  Beta  occ. eigenvalues --  -38.43230 -38.43036  -2.20708  -2.20432  -2.19578
  Beta  occ. eigenvalues --   -2.19510  -2.19344  -2.19108  -2.18839  -1.14380
  Beta  occ. eigenvalues --   -1.14354  -1.14346  -1.14098  -1.14090  -1.14076
  Beta  occ. eigenvalues --   -1.13324  -1.13235  -1.13222  -1.13198  -1.13173
  Beta  occ. eigenvalues --   -1.13146  -1.13099  -1.13033  -1.12990  -1.12782
  Beta  occ. eigenvalues --   -1.12751  -1.12723  -1.12514  -1.12501  -1.12489
  Beta  occ. eigenvalues --   -0.17536  -0.13156  -0.11740
  Beta virt. eigenvalues --   -0.06810  -0.06451  -0.05099  -0.04224  -0.02656
  Beta virt. eigenvalues --   -0.02206  -0.02029  -0.01413  -0.01055  -0.00530
  Beta virt. eigenvalues --   -0.00260   0.00090   0.00324   0.00778   0.00788

 Mulliken charges and spin densities:
               1          2
     1  Na   0.088478   0.385222
     2  Na   0.147029  -0.099527
     3  Na   0.043004   0.059165
     4  Na   0.026831  -0.113590
     5  Na  -0.189508   0.041125
     6  Na   0.119031   0.050781
     7  Na  -0.234865   0.676824
 Sum of Mulliken charges =  -0.00000   1.00000

 Dipole moment (field-independent basis, Debye):
    X=              0.4137    Y=             -0.3705    Z=             -0.1032  Tot=              0.5649
 Quadrupole moment (field-independent basis, Debye-Ang):
   XX=            -51.4465   YY=            -67.0473   ZZ=            -74.7908
   XY=             -0.8596   XZ=              0.3303   YZ=              1.6286

 Normal termination of Gaussian 16 at Tue Dec  5 12:31:27 2023.
