 Gaussian 16, Revision B.01,
 Gaussian 16:  ES64L-G16RevB.01 20-Dec-2017

 -------------------------
 #P B3LYP/6-311+g(d) force
 -------------------------

 -----
 DPGEN
 -----
 Symbolic Z-matrix:
 Charge =  0 Multiplicity = 2

                         Standard orientation:
 ---------------------------------------------------------------------
 Center     Atomic      Atomic             Coordinates (Angstroms)
 Number     Number       Type             X           Y           Z
 ---------------------------------------------------------------------
      1         11           0        1.284318   -2.640294    0.158640
      2         11           0       -2.314562    1.782683   -0.206606
      3         11           0        0.205933   -0.250074   -1.691433
      4         11           0       -3.030273   -1.500303   -0.205791
      5         11           0        0.851638    2.604039    0.226292
      6         11           0        3.166746    0.241771   -0.260736
      7         11           0       -0.163799   -0.237821    1.979635
 ---------------------------------------------------------------------

 SCF Done:  E(UB3LYP) =  -1136.13635842     A.U. after   19 cycles

 The electronic state is 2-A.
 Alpha  occ. eigenvalues --  -38.44291 -38.44274 -38.43618 -38.43474 -38.43454
 Alpha  occ. eigenvalues --  -38.43431 -38.42756  -2.20129  -2.20085  -2.19487
 Alpha  occ. eigenvalues --   -2.19391  -2.19382  -2.19319  -2.18649  -1.13811
 Alpha  occ. eigenvalues --   -1.13786  -1.13767  -1.13754  -1.13751  -1.13724
 Alpha  occ. eigenvalues --   -1.13172  -1.13153  -1.13127  -1.13119  -1.13063
 Alpha  occ. eigenvalues --   -1.13050  -1.13031  -1.13005  -1.12998  -1.12961
 Alpha  occ. eigenvalues --   -1.12952  -1.12935  -1.12325  -1.12307  -1.12295
 Alpha  occ. eigenvalues --   -0.18743  -0.13320  -0.12213  -0.10774
 Alpha virt. eigenvalues --   -0.06031  -0.05174  -0.04310  -0.03306  -0.02823
 Alpha virt. eigenvalues --   -0.02524  -0.01820  -0.01060  -0.00441  -0.00139
 Alpha virt. eigenvalues --   -0.00010   0.00335   0.00777   0.00836   0.00917

  Beta  occ. eigenvalues --  -38.44289 -38.44267 -38.43613 -38.43446 -38.43379
  Beta  occ. eigenvalues --  -38.43369 -38.42749  -2.20119  -2.20083  -2.19480
  Beta  occ. eigenvalues --   -2.19309  -2.19276  -2.19208  -2.18640  -1.13798
  Beta  occ. eigenvalues --   -1.13768  -1.13759  -1.13753  -1.13736  -1.13723
  Beta  occ. eigenvalues --   -1.13166  -1.13134  -1.13117  -1.13068  -1.12988
  Beta  occ. eigenvalues --   -1.12978  -1.12941  -1.12925  -1.12917  -1.12903
  Beta  occ. eigenvalues --   -1.12875  -1.12866  -1.12321  -1.12299  -1.12266
  Beta  occ. eigenvalues --   -0.18013  -0.13075  -0.11967
  Beta virt. eigenvalues --   -0.06872  -0.05978  -0.05151  -0.04286  -0.02540
  Beta virt. eigenvalues --   -0.02039  -0.01722  -0.01473  -0.00995  -0.00488
  Beta virt. eigenvalues --   -0.00156   0.00119   0.00369   0.00821   0.00863

 Mulliken charges and spin densities:
               1          2
     1  Na   0.142641  -0.116771
     2  Na   0.058717   0.010115
     3  Na  -0.283049   0.469704
     4  Na   0.092876  -0.088320
     5  Na   0.086284   0.016203
     6  Na   0.284165   0.036845
     7  Na  -0.381635   0.672223
 Sum of Mulliken charges =  -0.00000   1.00000

 Dipole moment (field-independent basis, Debye):
    X=             -0.0583    Y=             -0.3660    Z=              0.0102  Tot=              0.3708
 Quadrupole moment (field-independent basis, Debye-Ang):
   XX=            -54.1333   YY=            -65.1247   ZZ=            -74.1955
   XY=              0.7347   XZ=              0.5000   YZ=             -0.0272

 Normal termination of Gaussian 16 at Thu Dec  7 16:27:35 2023.
