 Gaussian 16, Revision B.01,
 Gaussian 16:  ES64L-G16RevB.01 20-Dec-2017

 -------------------------
 #P B3LYP/6-311+g(d) force
 -------------------------

 -----
 DPGEN
 -----
 Symbolic Z-matrix:
 Charge =  0 Multiplicity = 2

                         Standard orientation:
 ---------------------------------------------------------------------
 Center     Atomic      Atomic             Coordinates (Angstroms)
 Number     Number       Type             X           Y           Z
 ---------------------------------------------------------------------
      1         11           0        0.785083   -0.412638    1.929024
      2         11           0       -2.946060   -0.511481    0.867528
      3         11           0       -0.985399   -2.864467   -0.528788
      4         11           0       -1.887843    2.768436   -0.315866
      5         11           0       -0.233461   -0.020863   -1.814749
      6         11           0        3.042374   -1.347033   -0.238048
      7         11           0        2.225307    2.388047    0.100899
 ---------------------------------------------------------------------

 SCF Done:  E(UB3LYP) =  -1136.13179658     A.U. after   19 cycles

 The electronic state is 2-A.
 Alpha  occ. eigenvalues --  -38.44471 -38.44443 -38.43886 -38.43861 -38.43627
 Alpha  occ. eigenvalues --  -38.43529 -38.43493  -2.20241  -2.20233  -2.19723
 Alpha  occ. eigenvalues --   -2.19709  -2.19401  -2.19387  -2.19373  -1.13936
 Alpha  occ. eigenvalues --   -1.13924  -1.13904  -1.13893  -1.13873  -1.13853
 Alpha  occ. eigenvalues --   -1.13392  -1.13380  -1.13371  -1.13369  -1.13350
 Alpha  occ. eigenvalues --   -1.13330  -1.13130  -1.13086  -1.13065  -1.13050
 Alpha  occ. eigenvalues --   -1.13042  -1.13018  -1.13009  -1.12999  -1.12976
 Alpha  occ. eigenvalues --   -0.17892  -0.12999  -0.12072  -0.10691
 Alpha virt. eigenvalues --   -0.05975  -0.05428  -0.04707  -0.03468  -0.02854
 Alpha virt. eigenvalues --   -0.02568  -0.01592  -0.01302  -0.00688  -0.00461
 Alpha virt. eigenvalues --   -0.00036   0.00369   0.00695   0.00744   0.00779

  Beta  occ. eigenvalues --  -38.44471 -38.44442 -38.43862 -38.43794 -38.43627
  Beta  occ. eigenvalues --  -38.43517 -38.43418  -2.20241  -2.20234  -2.19665
  Beta  occ. eigenvalues --   -2.19598  -2.19403  -2.19355  -2.19250  -1.13928
  Beta  occ. eigenvalues --   -1.13914  -1.13903  -1.13889  -1.13870  -1.13854
  Beta  occ. eigenvalues --   -1.13346  -1.13337  -1.13317  -1.13305  -1.13286
  Beta  occ. eigenvalues --   -1.13239  -1.13083  -1.13075  -1.13061  -1.13045
  Beta  occ. eigenvalues --   -1.12999  -1.12989  -1.12959  -1.12917  -1.12889
  Beta  occ. eigenvalues --   -0.17187  -0.12790  -0.11863
  Beta virt. eigenvalues --   -0.06893  -0.05998  -0.05202  -0.04609  -0.02770
  Beta virt. eigenvalues --   -0.02202  -0.01619  -0.01512  -0.01230  -0.00633
  Beta virt. eigenvalues --   -0.00472   0.00098   0.00405   0.00722   0.00807

 Mulliken charges and spin densities:
               1          2
     1  Na   0.044395   0.522457
     2  Na  -0.131473   0.177715
     3  Na   0.143424   0.012108
     4  Na  -0.090846  -0.052854
     5  Na   0.119952   0.566176
     6  Na   0.076062  -0.110489
     7  Na  -0.161514  -0.115113
 Sum of Mulliken charges =  -0.00000   1.00000

 Dipole moment (field-independent basis, Debye):
    X=              0.6767    Y=             -0.0372    Z=              0.0923  Tot=              0.6839
 Quadrupole moment (field-independent basis, Debye-Ang):
   XX=            -57.6105   YY=            -62.2411   ZZ=            -74.1119
   XY=              0.1209   XZ=             -2.5178   YZ=              0.9850

 Normal termination of Gaussian 16 at Tue Dec  5 16:27:30 2023.
