 Gaussian 16, Revision B.01,
 Gaussian 16:  ES64L-G16RevB.01 20-Dec-2017

 -------------------------
 #P B3LYP/6-311+g(d) force
 -------------------------

 -----
 DPGEN
 -----
 Symbolic Z-matrix:
 Charge =  0 Multiplicity = 2

                         Standard orientation:
 ---------------------------------------------------------------------
 Center     Atomic      Atomic             Coordinates (Angstroms)
 Number     Number       Type             X           Y           Z
 ---------------------------------------------------------------------
      1         11           0        1.830561   -2.367081    0.146825
      2         11           0       -3.666104    1.039273    0.634338
      3         11           0        5.318519   -0.521475   -0.107162
      4         11           0       -1.000340   -1.214141    0.066706
      5         11           0       -4.881126   -1.397259   -0.473440
      6         11           0       -0.370499    3.016318   -0.357570
      7         11           0        2.768990    1.444366    0.090303
 ---------------------------------------------------------------------

 SCF Done:  E(UB3LYP) =  -1136.11673384     A.U. after   24 cycles

 The electronic state is 2-A.
 Alpha  occ. eigenvalues --  -38.44844 -38.44747 -38.44562 -38.44554 -38.44381
 Alpha  occ. eigenvalues --  -38.44177 -38.42225  -2.20702  -2.20605  -2.20393
 Alpha  occ. eigenvalues --   -2.20378  -2.20220  -2.19993  -2.18003  -1.14441
 Alpha  occ. eigenvalues --   -1.14376  -1.14344  -1.14292  -1.14287  -1.14221
 Alpha  occ. eigenvalues --   -1.14055  -1.14036  -1.14031  -1.14023  -1.13995
 Alpha  occ. eigenvalues --   -1.13985  -1.13894  -1.13876  -1.13811  -1.13690
 Alpha  occ. eigenvalues --   -1.13666  -1.13601  -1.11679  -1.11663  -1.11653
 Alpha  occ. eigenvalues --   -0.16761  -0.14724  -0.12176  -0.11272
 Alpha virt. eigenvalues --   -0.06246  -0.05180  -0.04574  -0.03740  -0.03096
 Alpha virt. eigenvalues --   -0.02673  -0.01929  -0.01442  -0.01033  -0.00760
 Alpha virt. eigenvalues --   -0.00397   0.00036   0.00349   0.00482   0.00715

  Beta  occ. eigenvalues --  -38.44827 -38.44673 -38.44529 -38.44497 -38.44321
  Beta  occ. eigenvalues --  -38.44159 -38.42228  -2.20673  -2.20476  -2.20347
  Beta  occ. eigenvalues --   -2.20258  -2.20118  -2.19962  -2.18008  -1.14413
  Beta  occ. eigenvalues --   -1.14355  -1.14317  -1.14207  -1.14166  -1.14135
  Beta  occ. eigenvalues --   -1.14001  -1.13995  -1.13971  -1.13963  -1.13942
  Beta  occ. eigenvalues --   -1.13912  -1.13813  -1.13810  -1.13718  -1.13672
  Beta  occ. eigenvalues --   -1.13642  -1.13565  -1.11683  -1.11668  -1.11656
  Beta  occ. eigenvalues --   -0.16042  -0.14146  -0.11152
  Beta virt. eigenvalues --   -0.08153  -0.06153  -0.04793  -0.04346  -0.03503
  Beta virt. eigenvalues --   -0.02740  -0.02136  -0.01533  -0.01244  -0.00954
  Beta virt. eigenvalues --   -0.00291  -0.00199   0.00152   0.00469   0.00513

 Mulliken charges and spin densities:
               1          2
     1  Na  -0.211618  -0.329385
     2  Na   0.134296   0.178037
     3  Na   1.008038   0.202134
     4  Na  -1.043782   0.513677
     5  Na   1.081212   0.238367
     6  Na  -0.073671   0.015994
     7  Na  -0.894475   0.181176
 Sum of Mulliken charges =  -0.00000   1.00000

 Dipole moment (field-independent basis, Debye):
    X=             -0.5027    Y=             -1.3149    Z=             -0.0722  Tot=              1.4096
 Quadrupole moment (field-independent basis, Debye-Ang):
   XX=            -49.3114   YY=            -70.7657   ZZ=            -71.9409
   XY=             -1.6761   XZ=              0.4743   YZ=              2.1341

 Normal termination of Gaussian 16 at Mon Dec  4 02:11:34 2023.
