 Gaussian 16, Revision B.01,
 Gaussian 16:  ES64L-G16RevB.01 20-Dec-2017

 -------------------------
 #P B3LYP/6-311+g(d) force
 -------------------------

 -----
 DPGEN
 -----
 Symbolic Z-matrix:
 Charge =  0 Multiplicity = 2

                         Standard orientation:
 ---------------------------------------------------------------------
 Center     Atomic      Atomic             Coordinates (Angstroms)
 Number     Number       Type             X           Y           Z
 ---------------------------------------------------------------------
      1         11           0       -2.774820   -1.501872   -0.877117
      2         11           0       -3.490826    2.049414    0.540869
      3         11           0       -1.081086   -0.620124    2.018471
      4         11           0        3.542186   -0.816066    1.029788
      5         11           0        0.516268   -2.346021   -0.955002
      6         11           0       -0.034385    1.289695   -1.286746
      7         11           0        3.322663    1.944974   -0.470264
 ---------------------------------------------------------------------

 SCF Done:  E(UB3LYP) =  -1136.11850360     A.U. after   20 cycles

 The electronic state is 2-A.
 Alpha  occ. eigenvalues --  -38.45118 -38.44967 -38.44639 -38.44161 -38.44109
 Alpha  occ. eigenvalues --  -38.43804 -38.43008  -2.20919  -2.20790  -2.20441
 Alpha  occ. eigenvalues --   -2.19980  -2.19919  -2.19562  -2.18837  -1.14606
 Alpha  occ. eigenvalues --   -1.14580  -1.14514  -1.14473  -1.14446  -1.14404
 Alpha  occ. eigenvalues --   -1.14113  -1.14102  -1.14071  -1.13670  -1.13631
 Alpha  occ. eigenvalues --   -1.13609  -1.13579  -1.13575  -1.13550  -1.13243
 Alpha  occ. eigenvalues --   -1.13228  -1.13201  -1.12520  -1.12494  -1.12476
 Alpha  occ. eigenvalues --   -0.17475  -0.13844  -0.11367  -0.10711
 Alpha virt. eigenvalues --   -0.06829  -0.06146  -0.04425  -0.03246  -0.02883
 Alpha virt. eigenvalues --   -0.02524  -0.02273  -0.01567  -0.00868  -0.00595
 Alpha virt. eigenvalues --   -0.00162   0.00139   0.00265   0.00275   0.00601

  Beta  occ. eigenvalues --  -38.45061 -38.44956 -38.44605 -38.44107 -38.44095
  Beta  occ. eigenvalues --  -38.43810 -38.42994  -2.20812  -2.20771  -2.20376
  Beta  occ. eigenvalues --   -2.19919  -2.19858  -2.19575  -2.18815  -1.14533
  Beta  occ. eigenvalues --   -1.14514  -1.14442  -1.14435  -1.14430  -1.14389
  Beta  occ. eigenvalues --   -1.14074  -1.14054  -1.14028  -1.13592  -1.13579
  Beta  occ. eigenvalues --   -1.13572  -1.13564  -1.13538  -1.13493  -1.13253
  Beta  occ. eigenvalues --   -1.13229  -1.13208  -1.12503  -1.12472  -1.12449
  Beta  occ. eigenvalues --   -0.16836  -0.13615  -0.11139
  Beta virt. eigenvalues --   -0.07201  -0.06445  -0.05931  -0.04041  -0.02981
  Beta virt. eigenvalues --   -0.02329  -0.02240  -0.01767  -0.01251  -0.00793
  Beta virt. eigenvalues --   -0.00399  -0.00072   0.00196   0.00395   0.00436

 Mulliken charges and spin densities:
               1          2
     1  Na   0.525652   0.030527
     2  Na   0.200283  -0.081980
     3  Na  -0.253215   0.379750
     4  Na  -0.088943   0.304649
     5  Na   0.048431   0.045263
     6  Na  -0.685519   0.452339
     7  Na   0.253313  -0.130548
 Sum of Mulliken charges =  -0.00000   1.00000

 Dipole moment (field-independent basis, Debye):
    X=             -0.3270    Y=             -0.4124    Z=              0.1170  Tot=              0.5391
 Quadrupole moment (field-independent basis, Debye-Ang):
   XX=            -54.5020   YY=            -71.5813   ZZ=            -71.3081
   XY=              1.7370   XZ=              2.8524   YZ=              0.2304

 Normal termination of Gaussian 16 at Sun Dec  3 20:25:03 2023.
