 Gaussian 16, Revision B.01,
 Gaussian 16:  ES64L-G16RevB.01 20-Dec-2017

 -------------------------
 #P B3LYP/6-311+g(d) force
 -------------------------

 -----
 DPGEN
 -----
 Symbolic Z-matrix:
 Charge =  0 Multiplicity = 2

                         Standard orientation:
 ---------------------------------------------------------------------
 Center     Atomic      Atomic             Coordinates (Angstroms)
 Number     Number       Type             X           Y           Z
 ---------------------------------------------------------------------
      1         11           0        3.120508   -1.044472    0.073011
      2         11           0       -3.100584   -0.555907   -0.185889
      3         11           0       -0.603159   -0.081487    1.978756
      4         11           0        1.973007    2.342826    0.130326
      5         11           0       -1.433461    2.616656   -0.349886
      6         11           0       -0.220198   -3.057067   -0.134416
      7         11           0        0.263887   -0.220547   -1.511901
 ---------------------------------------------------------------------

 SCF Done:  E(UB3LYP) =  -1136.13807561     A.U. after   19 cycles

 The electronic state is 2-A.
 Alpha  occ. eigenvalues --  -38.44172 -38.44097 -38.43824 -38.43655 -38.43485
 Alpha  occ. eigenvalues --  -38.43299 -38.42919  -2.19972  -2.19930  -2.19654
 Alpha  occ. eigenvalues --   -2.19482  -2.19331  -2.19193  -2.18902  -1.13653
 Alpha  occ. eigenvalues --   -1.13632  -1.13612  -1.13609  -1.13594  -1.13564
 Alpha  occ. eigenvalues --   -1.13360  -1.13317  -1.13271  -1.13162  -1.13148
 Alpha  occ. eigenvalues --   -1.13126  -1.13007  -1.12993  -1.12964  -1.12862
 Alpha  occ. eigenvalues --   -1.12819  -1.12808  -1.12592  -1.12541  -1.12524
 Alpha  occ. eigenvalues --   -0.18454  -0.12917  -0.12614  -0.10310
 Alpha virt. eigenvalues --   -0.05817  -0.05202  -0.05007  -0.03021  -0.02821
 Alpha virt. eigenvalues --   -0.02218  -0.01589  -0.01267  -0.00644  -0.00515
 Alpha virt. eigenvalues --    0.00009   0.00349   0.00807   0.00811   0.00870

  Beta  occ. eigenvalues --  -38.44172 -38.44091 -38.43818 -38.43652 -38.43475
  Beta  occ. eigenvalues --  -38.43208 -38.42862  -2.19974  -2.19923  -2.19646
  Beta  occ. eigenvalues --   -2.19480  -2.19317  -2.19025  -2.18800  -1.13648
  Beta  occ. eigenvalues --   -1.13626  -1.13612  -1.13601  -1.13567  -1.13563
  Beta  occ. eigenvalues --   -1.13349  -1.13292  -1.13269  -1.13158  -1.13132
  Beta  occ. eigenvalues --   -1.13125  -1.12994  -1.12962  -1.12958  -1.12750
  Beta  occ. eigenvalues --   -1.12700  -1.12689  -1.12517  -1.12465  -1.12448
  Beta  occ. eigenvalues --   -0.17755  -0.12709  -0.12378
  Beta virt. eigenvalues --   -0.06445  -0.05790  -0.05193  -0.04927  -0.02282
  Beta virt. eigenvalues --   -0.02076  -0.01510  -0.01205  -0.01174  -0.00693
  Beta virt. eigenvalues --   -0.00555   0.00163   0.00385   0.00805   0.00845

 Mulliken charges and spin densities:
               1          2
     1  Na   0.053594  -0.066657
     2  Na   0.317619  -0.037469
     3  Na  -0.473071   0.815137
     4  Na   0.010234  -0.035526
     5  Na   0.094759  -0.003635
     6  Na   0.114661  -0.130448
     7  Na  -0.117796   0.458599
 Sum of Mulliken charges =  -0.00000   1.00000

 Dipole moment (field-independent basis, Debye):
    X=              0.0387    Y=             -0.2525    Z=              0.0880  Tot=              0.2702
 Quadrupole moment (field-independent basis, Debye-Ang):
   XX=            -55.5320   YY=            -59.9542   ZZ=            -76.5845
   XY=             -0.0798   XZ=              2.1028   YZ=             -0.2723

 Normal termination of Gaussian 16 at Wed Nov 29 15:48:18 2023.
