 Gaussian 16, Revision B.01,
 Gaussian 16:  ES64L-G16RevB.01 20-Dec-2017

 -------------------------
 #P B3LYP/6-311+g(d) force
 -------------------------

 -----
 DPGEN
 -----
 Symbolic Z-matrix:
 Charge =  0 Multiplicity = 2

                         Standard orientation:
 ---------------------------------------------------------------------
 Center     Atomic      Atomic             Coordinates (Angstroms)
 Number     Number       Type             X           Y           Z
 ---------------------------------------------------------------------
      1         11           0       -0.137636    0.215091    2.002962
      2         11           0       -0.437632   -2.595127    0.750085
      3         11           0        2.330813    2.053058    0.155167
      4         11           0       -0.145341   -0.102155   -1.652955
      5         11           0       -3.070198   -0.488394   -0.495904
      6         11           0        2.584360   -1.718671   -0.640189
      7         11           0       -1.124366    2.636198   -0.119166
 ---------------------------------------------------------------------

 SCF Done:  E(UB3LYP) =  -1136.13733051     A.U. after   19 cycles

 The electronic state is 2-A.
 Alpha  occ. eigenvalues --  -38.43785 -38.43753 -38.43660 -38.43544 -38.43497
 Alpha  occ. eigenvalues --  -38.43315 -38.43279  -2.19721  -2.19565  -2.19510
 Alpha  occ. eigenvalues --   -2.19373  -2.19369  -2.19276  -2.19219  -1.13417
 Alpha  occ. eigenvalues --   -1.13372  -1.13333  -1.13244  -1.13231  -1.13225
 Alpha  occ. eigenvalues --   -1.13201  -1.13154  -1.13145  -1.13082  -1.13068
 Alpha  occ. eigenvalues --   -1.13046  -1.13028  -1.13009  -1.12971  -1.12948
 Alpha  occ. eigenvalues --   -1.12915  -1.12902  -1.12882  -1.12850  -1.12822
 Alpha  occ. eigenvalues --   -0.18798  -0.12702  -0.12636  -0.11211
 Alpha virt. eigenvalues --   -0.05301  -0.04983  -0.04627  -0.03259  -0.03107
 Alpha virt. eigenvalues --   -0.02780  -0.01393  -0.01103  -0.00263  -0.00070
 Alpha virt. eigenvalues --    0.00090   0.00353   0.00834   0.00892   0.00928

  Beta  occ. eigenvalues --  -38.43753 -38.43691 -38.43649 -38.43531 -38.43492
  Beta  occ. eigenvalues --  -38.43292 -38.43215  -2.19566  -2.19551  -2.19494
  Beta  occ. eigenvalues --   -2.19363  -2.19351  -2.19180  -2.19160  -1.13302
  Beta  occ. eigenvalues --   -1.13259  -1.13241  -1.13231  -1.13205  -1.13203
  Beta  occ. eigenvalues --   -1.13193  -1.13141  -1.13126  -1.13064  -1.13046
  Beta  occ. eigenvalues --   -1.13025  -1.13007  -1.12996  -1.12965  -1.12890
  Beta  occ. eigenvalues --   -1.12861  -1.12833  -1.12804  -1.12799  -1.12794
  Beta  occ. eigenvalues --   -0.18071  -0.12443  -0.12354
  Beta virt. eigenvalues --   -0.07269  -0.05304  -0.04898  -0.04557  -0.02472
  Beta virt. eigenvalues --   -0.02406  -0.01731  -0.01298  -0.01036  -0.00181
  Beta virt. eigenvalues --   -0.00091   0.00144   0.00383   0.00858   0.00928

 Mulliken charges and spin densities:
               1          2
     1  Na  -0.093161   0.478669
     2  Na   0.218404   0.149370
     3  Na  -0.085465  -0.041404
     4  Na  -0.190776   0.515973
     5  Na   0.142576  -0.023033
     6  Na  -0.049013  -0.013768
     7  Na   0.057434  -0.065807
 Sum of Mulliken charges =  -0.00000   1.00000

 Dipole moment (field-independent basis, Debye):
    X=             -0.0085    Y=              0.2157    Z=              0.0680  Tot=              0.2264
 Quadrupole moment (field-independent basis, Debye-Ang):
   XX=            -58.5665   YY=            -62.9195   ZZ=            -72.3506
   XY=              0.3529   XZ=             -0.0545   YZ=             -0.2669

 Normal termination of Gaussian 16 at Thu Dec  7 08:02:37 2023.
