 Gaussian 16, Revision B.01,
 Gaussian 16:  ES64L-G16RevB.01 20-Dec-2017

 -------------------------
 #P B3LYP/6-311+g(d) force
 -------------------------

 -----
 DPGEN
 -----
 Symbolic Z-matrix:
 Charge =  0 Multiplicity = 2

                         Standard orientation:
 ---------------------------------------------------------------------
 Center     Atomic      Atomic             Coordinates (Angstroms)
 Number     Number       Type             X           Y           Z
 ---------------------------------------------------------------------
      1         11           0       -0.039421   -0.468572    1.578214
      2         11           0        2.454459    2.481905    0.008253
      3         11           0       -1.644993   -2.769099   -0.557704
      4         11           0        3.002241   -1.993453    0.366561
      5         11           0        1.246565   -0.220780   -1.370320
      6         11           0       -3.692247    0.196690    0.127215
      7         11           0       -1.326604    2.773309   -0.152219
 ---------------------------------------------------------------------

 SCF Done:  E(UB3LYP) =  -1136.12142157     A.U. after   25 cycles

 The electronic state is 2-A.
 Alpha  occ. eigenvalues --  -38.44637 -38.44622 -38.44248 -38.43918 -38.43882
 Alpha  occ. eigenvalues --  -38.43742 -38.43544  -2.20449  -2.20411  -2.20045
 Alpha  occ. eigenvalues --   -2.19795  -2.19664  -2.19545  -2.19489  -1.14158
 Alpha  occ. eigenvalues --   -1.14093  -1.14085  -1.14074  -1.14067  -1.14051
 Alpha  occ. eigenvalues --   -1.13726  -1.13703  -1.13675  -1.13531  -1.13444
 Alpha  occ. eigenvalues --   -1.13388  -1.13352  -1.13334  -1.13289  -1.13210
 Alpha  occ. eigenvalues --   -1.13196  -1.13177  -1.13169  -1.13152  -1.13083
 Alpha  occ. eigenvalues --   -0.17785  -0.13361  -0.12400  -0.09561
 Alpha virt. eigenvalues --   -0.06681  -0.05935  -0.04934  -0.02968  -0.02481
 Alpha virt. eigenvalues --   -0.02235  -0.01881  -0.01556  -0.01229  -0.00680
 Alpha virt. eigenvalues --   -0.00061   0.00220   0.00512   0.00567   0.00710

  Beta  occ. eigenvalues --  -38.44636 -38.44601 -38.44235 -38.43878 -38.43867
  Beta  occ. eigenvalues --  -38.43699 -38.43512  -2.20412  -2.20410  -2.20024
  Beta  occ. eigenvalues --   -2.19702  -2.19659  -2.19466  -2.19431  -1.14131
  Beta  occ. eigenvalues --   -1.14096  -1.14059  -1.14054  -1.14043  -1.14041
  Beta  occ. eigenvalues --   -1.13706  -1.13680  -1.13664  -1.13465  -1.13382
  Beta  occ. eigenvalues --   -1.13347  -1.13332  -1.13309  -1.13276  -1.13147
  Beta  occ. eigenvalues --   -1.13143  -1.13135  -1.13117  -1.13104  -1.13037
  Beta  occ. eigenvalues --   -0.17275  -0.13068  -0.12056
  Beta virt. eigenvalues --   -0.06598  -0.06084  -0.05734  -0.04726  -0.02462
  Beta virt. eigenvalues --   -0.02106  -0.01901  -0.01700  -0.01199  -0.00885
  Beta virt. eigenvalues --   -0.00585   0.00135   0.00300   0.00611   0.00704

 Mulliken charges and spin densities:
               1          2
     1  Na   0.103116   0.371243
     2  Na   0.053802   0.082046
     3  Na  -0.232455   0.267726
     4  Na   0.045102   0.030362
     5  Na   0.204966   0.239469
     6  Na   0.105108  -0.020787
     7  Na  -0.279639   0.029941
 Sum of Mulliken charges =  -0.00000   1.00000

 Dipole moment (field-independent basis, Debye):
    X=              0.2848    Y=              0.0599    Z=              0.2492  Tot=              0.3831
 Quadrupole moment (field-independent basis, Debye-Ang):
   XX=            -52.3878   YY=            -64.5442   ZZ=            -76.7673
   XY=             -1.8783   XZ=              1.3642   YZ=              0.5435

 Normal termination of Gaussian 16 at Thu Dec  7 11:32:35 2023.
