 Gaussian 16, Revision B.01,
 Gaussian 16:  ES64L-G16RevB.01 20-Dec-2017

 -------------------------
 #P B3LYP/6-311+g(d) force
 -------------------------

 -----
 DPGEN
 -----
 Symbolic Z-matrix:
 Charge =  0 Multiplicity = 2

                         Standard orientation:
 ---------------------------------------------------------------------
 Center     Atomic      Atomic             Coordinates (Angstroms)
 Number     Number       Type             X           Y           Z
 ---------------------------------------------------------------------
      1         11           0        3.316034    0.033981   -0.881580
      2         11           0        0.357023    2.232091   -0.420923
      3         11           0       -0.031035   -2.115914    0.975587
      4         11           0        1.579817    0.261966    2.629845
      5         11           0        0.493063   -1.084497   -2.271783
      6         11           0       -3.168233   -1.380256    0.016018
      7         11           0       -2.546669    2.052629   -0.047164
 ---------------------------------------------------------------------

 SCF Done:  E(UB3LYP) =  -1136.12193709     A.U. after   22 cycles

 The electronic state is 2-A.
 Alpha  occ. eigenvalues --  -38.45405 -38.45097 -38.44806 -38.44013 -38.43220
 Alpha  occ. eigenvalues --  -38.43037 -38.42846  -2.21228  -2.20933  -2.20605
 Alpha  occ. eigenvalues --   -2.19804  -2.19076  -2.18880  -2.18713  -1.14890
 Alpha  occ. eigenvalues --   -1.14850  -1.14828  -1.14597  -1.14580  -1.14547
 Alpha  occ. eigenvalues --   -1.14278  -1.14257  -1.14240  -1.13486  -1.13459
 Alpha  occ. eigenvalues --   -1.13448  -1.12765  -1.12746  -1.12702  -1.12684
 Alpha  occ. eigenvalues --   -1.12529  -1.12509  -1.12379  -1.12372  -1.12298
 Alpha  occ. eigenvalues --   -0.17865  -0.12997  -0.12430  -0.11566
 Alpha virt. eigenvalues --   -0.06181  -0.04858  -0.04657  -0.03609  -0.03356
 Alpha virt. eigenvalues --   -0.03074  -0.01826  -0.00738  -0.00595  -0.00118
 Alpha virt. eigenvalues --    0.00141   0.00220   0.00282   0.00627   0.00811

  Beta  occ. eigenvalues --  -38.45294 -38.45023 -38.44792 -38.44017 -38.43199
  Beta  occ. eigenvalues --  -38.43042 -38.42842  -2.21023  -2.20798  -2.20585
  Beta  occ. eigenvalues --   -2.19811  -2.19043  -2.18890  -2.18707  -1.14745
  Beta  occ. eigenvalues --   -1.14710  -1.14689  -1.14512  -1.14487  -1.14443
  Beta  occ. eigenvalues --   -1.14247  -1.14242  -1.14222  -1.13488  -1.13463
  Beta  occ. eigenvalues --   -1.13456  -1.12739  -1.12706  -1.12690  -1.12675
  Beta  occ. eigenvalues --   -1.12533  -1.12516  -1.12371  -1.12354  -1.12301
  Beta  occ. eigenvalues --   -0.17080  -0.12807  -0.11459
  Beta virt. eigenvalues --   -0.08283  -0.06067  -0.04677  -0.03853  -0.03326
  Beta virt. eigenvalues --   -0.02803  -0.02373  -0.01767  -0.00612  -0.00310
  Beta virt. eigenvalues --    0.00050   0.00162   0.00333   0.00363   0.00797

 Mulliken charges and spin densities:
               1          2
     1  Na   0.530271   0.002271
     2  Na  -0.169367   0.105394
     3  Na   0.062139   0.008920
     4  Na  -0.062682   0.487240
     5  Na  -0.263824   0.528945
     6  Na   0.052879   0.003906
     7  Na  -0.149417  -0.136676
 Sum of Mulliken charges =  -0.00000   1.00000

 Dipole moment (field-independent basis, Debye):
    X=              1.0492    Y=             -0.5340    Z=             -0.0199  Tot=              1.1775
 Quadrupole moment (field-independent basis, Debye-Ang):
   XX=            -55.9841   YY=            -78.3512   ZZ=            -63.1988
   XY=              2.0552   XZ=              0.6470   YZ=              2.6513

 Normal termination of Gaussian 16 at Sun Dec  3 13:30:14 2023.
