 Gaussian 16, Revision B.01,
 Gaussian 16:  ES64L-G16RevB.01 20-Dec-2017

 -------------------------
 #P B3LYP/6-311+g(d) force
 -------------------------

 -----
 DPGEN
 -----
 Symbolic Z-matrix:
 Charge =  0 Multiplicity = 2

                         Standard orientation:
 ---------------------------------------------------------------------
 Center     Atomic      Atomic             Coordinates (Angstroms)
 Number     Number       Type             X           Y           Z
 ---------------------------------------------------------------------
      1         11           0        3.113691   -1.388597   -0.503305
      2         11           0        0.059859   -2.630458    0.699771
      3         11           0       -2.286838    1.498311    1.030578
      4         11           0        1.875583    2.698340   -0.724209
      5         11           0       -0.182473    0.229751   -1.279962
      6         11           0        0.592245    0.424073    1.984923
      7         11           0       -3.172067   -0.831419   -1.207796
 ---------------------------------------------------------------------

 SCF Done:  E(UB3LYP) =  -1136.12927281     A.U. after   20 cycles

 The electronic state is 2-A.
 Alpha  occ. eigenvalues --  -38.44627 -38.44088 -38.43783 -38.43760 -38.43346
 Alpha  occ. eigenvalues --  -38.43246 -38.43071  -2.20403  -2.19958  -2.19690
 Alpha  occ. eigenvalues --   -2.19632  -2.19151  -2.19090  -2.19083  -1.14089
 Alpha  occ. eigenvalues --   -1.14047  -1.14036  -1.13670  -1.13615  -1.13581
 Alpha  occ. eigenvalues --   -1.13387  -1.13327  -1.13308  -1.13296  -1.13265
 Alpha  occ. eigenvalues --   -1.13256  -1.12864  -1.12809  -1.12796  -1.12785
 Alpha  occ. eigenvalues --   -1.12775  -1.12756  -1.12705  -1.12698  -1.12688
 Alpha  occ. eigenvalues --   -0.18382  -0.13102  -0.11780  -0.11298
 Alpha virt. eigenvalues --   -0.05919  -0.05025  -0.04257  -0.03349  -0.03001
 Alpha virt. eigenvalues --   -0.02518  -0.01839  -0.01101  -0.00587   0.00049
 Alpha virt. eigenvalues --    0.00153   0.00309   0.00562   0.00744   0.00797

  Beta  occ. eigenvalues --  -38.44622 -38.44061 -38.43752 -38.43676 -38.43333
  Beta  occ. eigenvalues --  -38.43234 -38.43033  -2.20396  -2.19911  -2.19576
  Beta  occ. eigenvalues --   -2.19540  -2.19128  -2.19070  -2.19015  -1.14079
  Beta  occ. eigenvalues --   -1.14044  -1.14028  -1.13625  -1.13564  -1.13552
  Beta  occ. eigenvalues --   -1.13292  -1.13278  -1.13231  -1.13218  -1.13190
  Beta  occ. eigenvalues --   -1.13188  -1.12837  -1.12784  -1.12778  -1.12764
  Beta  occ. eigenvalues --   -1.12731  -1.12719  -1.12689  -1.12663  -1.12641
  Beta  occ. eigenvalues --   -0.17661  -0.12829  -0.11530
  Beta virt. eigenvalues --   -0.07425  -0.05797  -0.04811  -0.04050  -0.02921
  Beta virt. eigenvalues --   -0.02321  -0.01721  -0.01649  -0.01008  -0.00363
  Beta virt. eigenvalues --    0.00130   0.00165   0.00360   0.00674   0.00798

 Mulliken charges and spin densities:
               1          2
     1  Na   0.078486  -0.034673
     2  Na  -0.158427   0.052553
     3  Na  -0.068513   0.059367
     4  Na  -0.094638   0.047717
     5  Na  -0.575514   0.384799
     6  Na   0.451810   0.411558
     7  Na   0.366796   0.078678
 Sum of Mulliken charges =  -0.00000   1.00000

 Dipole moment (field-independent basis, Debye):
    X=              0.2418    Y=             -0.1587    Z=              0.1159  Tot=              0.3115
 Quadrupole moment (field-independent basis, Debye-Ang):
   XX=            -54.2517   YY=            -67.8158   ZZ=            -70.3188
   XY=             -0.2453   XZ=             -1.3853   YZ=              1.2094

 Normal termination of Gaussian 16 at Sun Dec  3 23:47:10 2023.
