 Gaussian 16, Revision B.01,
 Gaussian 16:  ES64L-G16RevB.01 20-Dec-2017

 -------------------------
 #P B3LYP/6-311+g(d) force
 -------------------------

 -----
 DPGEN
 -----
 Symbolic Z-matrix:
 Charge =  0 Multiplicity = 2

                         Standard orientation:
 ---------------------------------------------------------------------
 Center     Atomic      Atomic             Coordinates (Angstroms)
 Number     Number       Type             X           Y           Z
 ---------------------------------------------------------------------
      1         11           0       -1.735155    2.590966   -0.493113
      2         11           0        3.198853   -1.610179   -0.042891
      3         11           0        3.275350    1.795971   -0.043949
      4         11           0        0.641706   -0.197188   -0.293723
      5         11           0       -2.231287   -0.624575   -1.989537
      6         11           0       -1.392982   -2.577613    0.561120
      7         11           0       -1.756485    0.622618    2.302093
 ---------------------------------------------------------------------

 SCF Done:  E(UB3LYP) =  -1136.12206332     A.U. after   24 cycles

 The electronic state is 2-A.
 Alpha  occ. eigenvalues --  -38.44844 -38.44838 -38.43998 -38.43993 -38.43036
 Alpha  occ. eigenvalues --  -38.43007 -38.42959  -2.20681  -2.20631  -2.19869
 Alpha  occ. eigenvalues --   -2.19836  -2.19003  -2.18865  -2.18855  -1.14425
 Alpha  occ. eigenvalues --   -1.14332  -1.14311  -1.14299  -1.14294  -1.14226
 Alpha  occ. eigenvalues --   -1.13545  -1.13504  -1.13497  -1.13476  -1.13465
 Alpha  occ. eigenvalues --   -1.13448  -1.12715  -1.12682  -1.12660  -1.12522
 Alpha  occ. eigenvalues --   -1.12519  -1.12517  -1.12513  -1.12507  -1.12498
 Alpha  occ. eigenvalues --   -0.17841  -0.13826  -0.11414  -0.11057
 Alpha virt. eigenvalues --   -0.06093  -0.05475  -0.04073  -0.03206  -0.02984
 Alpha virt. eigenvalues --   -0.02644  -0.01872  -0.01218  -0.00516  -0.00357
 Alpha virt. eigenvalues --   -0.00112   0.00311   0.00619   0.00684   0.00718

  Beta  occ. eigenvalues --  -38.44847 -38.44841 -38.43920 -38.43900 -38.43029
  Beta  occ. eigenvalues --  -38.42995 -38.42949  -2.20687  -2.20638  -2.19725
  Beta  occ. eigenvalues --   -2.19664  -2.18988  -2.18846  -2.18844  -1.14429
  Beta  occ. eigenvalues --   -1.14334  -1.14315  -1.14303  -1.14298  -1.14232
  Beta  occ. eigenvalues --   -1.13444  -1.13411  -1.13379  -1.13371  -1.13354
  Beta  occ. eigenvalues --   -1.13322  -1.12683  -1.12670  -1.12649  -1.12512
  Beta  occ. eigenvalues --   -1.12511  -1.12509  -1.12500  -1.12478  -1.12465
  Beta  occ. eigenvalues --   -0.17222  -0.13561  -0.11260
  Beta virt. eigenvalues --   -0.07036  -0.06081  -0.05223  -0.03851  -0.02840
  Beta virt. eigenvalues --   -0.02329  -0.01918  -0.01606  -0.01232  -0.00337
  Beta virt. eigenvalues --   -0.00124  -0.00006   0.00363   0.00673   0.00740

 Mulliken charges and spin densities:
               1          2
     1  Na   1.151711   0.234846
     2  Na  -0.335782  -0.403769
     3  Na   0.082098  -0.121012
     4  Na  -2.297460   0.602879
     5  Na   0.889755   0.209197
     6  Na   0.795651   0.234475
     7  Na  -0.285972   0.243383
 Sum of Mulliken charges =  -0.00000   1.00000

 Dipole moment (field-independent basis, Debye):
    X=              1.4120    Y=             -0.0211    Z=              0.0826  Tot=              1.4146
 Quadrupole moment (field-independent basis, Debye-Ang):
   XX=            -55.3970   YY=            -65.5009   ZZ=            -70.5949
   XY=              1.3240   XZ=              1.1763   YZ=             -1.0787

 Normal termination of Gaussian 16 at Fri Dec  8 02:38:37 2023.
