 Gaussian 16, Revision B.01,
 Gaussian 16:  ES64L-G16RevB.01 20-Dec-2017

 -------------------------
 #P B3LYP/6-311+g(d) force
 -------------------------

 -----
 DPGEN
 -----
 Symbolic Z-matrix:
 Charge =  0 Multiplicity = 2

                         Standard orientation:
 ---------------------------------------------------------------------
 Center     Atomic      Atomic             Coordinates (Angstroms)
 Number     Number       Type             X           Y           Z
 ---------------------------------------------------------------------
      1         11           0       -2.176709    2.859330   -0.300036
      2         11           0       -3.994849   -0.141675   -2.062384
      3         11           0       -4.323693   -2.467986   -0.098267
      4         11           0       -1.648666   -0.746334    2.463986
      5         11           0        0.817749    1.497172    1.077883
      6         11           0        4.403830    0.215116   -0.535343
      7         11           0        6.922337   -1.215623   -0.545837
 ---------------------------------------------------------------------

 SCF Done:  E(UB3LYP) =  -1136.10634107     A.U. after   19 cycles

 The electronic state is 2-A.
 Alpha  occ. eigenvalues --  -38.45445 -38.45125 -38.44445 -38.44244 -38.44160
 Alpha  occ. eigenvalues --  -38.44031 -38.44016  -2.21213  -2.20903  -2.20257
 Alpha  occ. eigenvalues --   -2.20049  -2.19929  -2.19848  -2.19818  -1.14882
 Alpha  occ. eigenvalues --   -1.14849  -1.14817  -1.14569  -1.14546  -1.14512
 Alpha  occ. eigenvalues --   -1.14016  -1.13896  -1.13896  -1.13759  -1.13712
 Alpha  occ. eigenvalues --   -1.13692  -1.13612  -1.13600  -1.13571  -1.13494
 Alpha  occ. eigenvalues --   -1.13493  -1.13476  -1.13471  -1.13457  -1.13451
 Alpha  occ. eigenvalues --   -0.15904  -0.13658  -0.12242  -0.11666
 Alpha virt. eigenvalues --   -0.07157  -0.05393  -0.04607  -0.03608  -0.03074
 Alpha virt. eigenvalues --   -0.02615  -0.02467  -0.01890  -0.01300  -0.00958
 Alpha virt. eigenvalues --   -0.00443  -0.00252  -0.00098   0.00162   0.00375

  Beta  occ. eigenvalues --  -38.45355 -38.45048 -38.44449 -38.44224 -38.44169
  Beta  occ. eigenvalues --  -38.44030 -38.44009  -2.21046  -2.20759  -2.20263
  Beta  occ. eigenvalues --   -2.20011  -2.19948  -2.19845  -2.19804  -1.14768
  Beta  occ. eigenvalues --   -1.14738  -1.14697  -1.14470  -1.14449  -1.14410
  Beta  occ. eigenvalues --   -1.14020  -1.13901  -1.13901  -1.13736  -1.13687
  Beta  occ. eigenvalues --   -1.13659  -1.13627  -1.13595  -1.13585  -1.13492
  Beta  occ. eigenvalues --   -1.13491  -1.13473  -1.13467  -1.13446  -1.13433
  Beta  occ. eigenvalues --   -0.15119  -0.13623  -0.12232
  Beta virt. eigenvalues --   -0.07781  -0.06868  -0.04685  -0.04216  -0.03387
  Beta virt. eigenvalues --   -0.02591  -0.02445  -0.02372  -0.01827  -0.00952
  Beta virt. eigenvalues --   -0.00754  -0.00179  -0.00125   0.00138   0.00395

 Mulliken charges and spin densities:
               1          2
     1  Na   0.232608   0.409653
     2  Na  -0.126546   0.085808
     3  Na   0.196172   0.024898
     4  Na   0.169913   0.472176
     5  Na  -0.829844   0.070674
     6  Na  -0.588907  -0.051334
     7  Na   0.946604  -0.011876
 Sum of Mulliken charges =  -0.00000   1.00000

 Dipole moment (field-independent basis, Debye):
    X=              0.0405    Y=             -0.1682    Z=              0.2982  Tot=              0.3448
 Quadrupole moment (field-independent basis, Debye-Ang):
   XX=            -61.3414   YY=            -66.1476   ZZ=            -69.7770
   XY=             -4.9904   XZ=             -1.5896   YZ=             -2.0260

 Normal termination of Gaussian 16 at Mon Dec  4 04:01:01 2023.
