 Gaussian 16, Revision B.01,
 Gaussian 16:  ES64L-G16RevB.01 20-Dec-2017

 -------------------------
 #P B3LYP/6-311+g(d) force
 -------------------------

 -----
 DPGEN
 -----
 Symbolic Z-matrix:
 Charge =  0 Multiplicity = 2

                         Standard orientation:
 ---------------------------------------------------------------------
 Center     Atomic      Atomic             Coordinates (Angstroms)
 Number     Number       Type             X           Y           Z
 ---------------------------------------------------------------------
      1         11           0       -3.561724   -1.768953   -0.282664
      2         11           0        1.555778   -0.262929    1.789073
      3         11           0        3.892362   -1.130464   -0.479500
      4         11           0       -2.295234    1.885317   -1.062468
      5         11           0       -1.314812    0.673641    2.207248
      6         11           0       -0.186025   -1.226050   -1.282115
      7         11           0        1.909656    1.829437   -0.889575
 ---------------------------------------------------------------------

 SCF Done:  E(UB3LYP) =  -1136.11826955     A.U. after   27 cycles

 The electronic state is 2-A.
 Alpha  occ. eigenvalues --  -38.45239 -38.45124 -38.44615 -38.44383 -38.44064
 Alpha  occ. eigenvalues --  -38.43150 -38.42572  -2.21022  -2.20946  -2.20416
 Alpha  occ. eigenvalues --   -2.20180  -2.19840  -2.19083  -2.18427  -1.14696
 Alpha  occ. eigenvalues --   -1.14670  -1.14636  -1.14627  -1.14603  -1.14547
 Alpha  occ. eigenvalues --   -1.14098  -1.14075  -1.14041  -1.13898  -1.13873
 Alpha  occ. eigenvalues --   -1.13774  -1.13509  -1.13497  -1.13463  -1.12790
 Alpha  occ. eigenvalues --   -1.12737  -1.12710  -1.12121  -1.12064  -1.12054
 Alpha  occ. eigenvalues --   -0.17914  -0.13900  -0.11401  -0.10765
 Alpha virt. eigenvalues --   -0.06696  -0.06021  -0.04582  -0.03269  -0.02658
 Alpha virt. eigenvalues --   -0.02491  -0.02231  -0.01616  -0.00790  -0.00517
 Alpha virt. eigenvalues --    0.00075   0.00142   0.00315   0.00438   0.00565

  Beta  occ. eigenvalues --  -38.45191 -38.45070 -38.44611 -38.44378 -38.44041
  Beta  occ. eigenvalues --  -38.43115 -38.42554  -2.20933  -2.20846  -2.20409
  Beta  occ. eigenvalues --   -2.20175  -2.19798  -2.19019  -2.18398  -1.14629
  Beta  occ. eigenvalues --   -1.14615  -1.14566  -1.14558  -1.14534  -1.14468
  Beta  occ. eigenvalues --   -1.14085  -1.14072  -1.14037  -1.13879  -1.13859
  Beta  occ. eigenvalues --   -1.13774  -1.13475  -1.13469  -1.13437  -1.12745
  Beta  occ. eigenvalues --   -1.12690  -1.12661  -1.12091  -1.12040  -1.12035
  Beta  occ. eigenvalues --   -0.17278  -0.13697  -0.10517
  Beta virt. eigenvalues --   -0.07650  -0.06529  -0.05470  -0.04314  -0.02847
  Beta virt. eigenvalues --   -0.02493  -0.02041  -0.01768  -0.01190  -0.00521
  Beta virt. eigenvalues --   -0.00291   0.00110   0.00227   0.00352   0.00530

 Mulliken charges and spin densities:
               1          2
     1  Na   0.267998  -0.042840
     2  Na  -0.121790   0.024492
     3  Na   0.884861   0.036937
     4  Na   0.140681   0.241226
     5  Na  -0.355806   0.204520
     6  Na  -0.709215   0.261848
     7  Na  -0.106729   0.273816
 Sum of Mulliken charges =  -0.00000   1.00000

 Dipole moment (field-independent basis, Debye):
    X=              0.4958    Y=              0.5083    Z=             -0.5671  Tot=              0.9088
 Quadrupole moment (field-independent basis, Debye-Ang):
   XX=            -49.5060   YY=            -68.5272   ZZ=            -77.4362
   XY=             -3.1765   XZ=             -2.2348   YZ=             -6.5788

 Normal termination of Gaussian 16 at Thu Dec  7 20:25:16 2023.
