 Gaussian 16, Revision B.01,
 Gaussian 16:  ES64L-G16RevB.01 20-Dec-2017

 -------------------------
 #P B3LYP/6-311+g(d) force
 -------------------------

 -----
 DPGEN
 -----
 Symbolic Z-matrix:
 Charge =  0 Multiplicity = 2

                         Standard orientation:
 ---------------------------------------------------------------------
 Center     Atomic      Atomic             Coordinates (Angstroms)
 Number     Number       Type             X           Y           Z
 ---------------------------------------------------------------------
      1         11           0        0.464938    3.543931    0.583560
      2         11           0       -1.761442    1.229650   -1.225272
      3         11           0       -3.392122   -1.272207    0.677207
      4         11           0        2.747861   -1.984993    0.654518
      5         11           0       -0.159336   -2.089277   -1.200803
      6         11           0        2.004000    0.665288   -1.138077
      7         11           0        0.096100   -0.092391    1.648867
 ---------------------------------------------------------------------

 SCF Done:  E(UB3LYP) =  -1136.13714781     A.U. after   20 cycles

 The electronic state is 2-A.
 Alpha  occ. eigenvalues --  -38.43798 -38.43725 -38.43700 -38.43700 -38.43620
 Alpha  occ. eigenvalues --  -38.43487 -38.43483  -2.19587  -2.19577  -2.19567
 Alpha  occ. eigenvalues --   -2.19561  -2.19513  -2.19399  -2.19269  -1.13306
 Alpha  occ. eigenvalues --   -1.13271  -1.13263  -1.13256  -1.13252  -1.13251
 Alpha  occ. eigenvalues --   -1.13240  -1.13228  -1.13224  -1.13211  -1.13198
 Alpha  occ. eigenvalues --   -1.13177  -1.13158  -1.13147  -1.13096  -1.13089
 Alpha  occ. eigenvalues --   -1.13020  -1.13015  -1.12937  -1.12935  -1.12899
 Alpha  occ. eigenvalues --   -0.18311  -0.12906  -0.12265  -0.10633
 Alpha virt. eigenvalues --   -0.05542  -0.05162  -0.04989  -0.03211  -0.02916
 Alpha virt. eigenvalues --   -0.02314  -0.01569  -0.01364  -0.00673  -0.00148
 Alpha virt. eigenvalues --    0.00258   0.00328   0.00666   0.00749   0.00801

  Beta  occ. eigenvalues --  -38.43791 -38.43701 -38.43690 -38.43664 -38.43591
  Beta  occ. eigenvalues --  -38.43480 -38.43421  -2.19574  -2.19545  -2.19525
  Beta  occ. eigenvalues --   -2.19514  -2.19464  -2.19279  -2.19264  -1.13272
  Beta  occ. eigenvalues --   -1.13253  -1.13245  -1.13232  -1.13231  -1.13216
  Beta  occ. eigenvalues --   -1.13211  -1.13191  -1.13185  -1.13180  -1.13163
  Beta  occ. eigenvalues --   -1.13136  -1.13123  -1.13107  -1.13067  -1.13005
  Beta  occ. eigenvalues --   -1.12938  -1.12934  -1.12929  -1.12918  -1.12896
  Beta  occ. eigenvalues --   -0.17556  -0.12717  -0.12109
  Beta virt. eigenvalues --   -0.06776  -0.05390  -0.05058  -0.04824  -0.02644
  Beta virt. eigenvalues --   -0.02394  -0.01515  -0.01399  -0.01264  -0.00268
  Beta virt. eigenvalues --   -0.00191   0.00304   0.00380   0.00732   0.00774

 Mulliken charges and spin densities:
               1          2
     1  Na   0.132681  -0.140979
     2  Na  -0.079712   0.152374
     3  Na   0.130271  -0.109692
     4  Na   0.512050  -0.084707
     5  Na  -0.159020   0.193430
     6  Na  -0.064230   0.239542
     7  Na  -0.472042   0.750032
 Sum of Mulliken charges =  -0.00000   1.00000

 Dipole moment (field-independent basis, Debye):
    X=              0.0421    Y=             -0.2446    Z=             -0.0181  Tot=              0.2489
 Quadrupole moment (field-independent basis, Debye-Ang):
   XX=            -58.5922   YY=            -61.4048   ZZ=            -71.8978
   XY=             -0.9438   XZ=             -0.1259   YZ=             -0.1297

 Normal termination of Gaussian 16 at Tue Dec  5 16:53:51 2023.
