 Gaussian 16, Revision B.01,
 Gaussian 16:  ES64L-G16RevB.01 20-Dec-2017

 -------------------------
 #P B3LYP/6-311+g(d) force
 -------------------------

 -----
 DPGEN
 -----
 Symbolic Z-matrix:
 Charge =  0 Multiplicity = 2

                         Standard orientation:
 ---------------------------------------------------------------------
 Center     Atomic      Atomic             Coordinates (Angstroms)
 Number     Number       Type             X           Y           Z
 ---------------------------------------------------------------------
      1         11           0        2.401831   -0.525610   -0.838153
      2         11           0        3.424906   -3.016876    0.729945
      3         11           0       -2.413611    0.248993   -1.044763
      4         11           0        2.869019    3.409455    0.996985
      5         11           0       -5.547431   -0.228017    1.095709
      6         11           0       -0.641527   -2.114849   -0.222282
      7         11           0       -0.093186    2.226904   -0.717442
 ---------------------------------------------------------------------

 SCF Done:  E(UB3LYP) =  -1136.11192445     A.U. after   21 cycles

 The electronic state is 2-A.
 Alpha  occ. eigenvalues --  -38.45178 -38.44876 -38.44341 -38.44252 -38.44224
 Alpha  occ. eigenvalues --  -38.43889 -38.43594  -2.20993  -2.20663  -2.20140
 Alpha  occ. eigenvalues --   -2.20091  -2.19978  -2.19725  -2.19485  -1.14681
 Alpha  occ. eigenvalues --   -1.14671  -1.14612  -1.14294  -1.14294  -1.14262
 Alpha  occ. eigenvalues --   -1.13881  -1.13799  -1.13783  -1.13768  -1.13754
 Alpha  occ. eigenvalues --   -1.13658  -1.13645  -1.13635  -1.13595  -1.13426
 Alpha  occ. eigenvalues --   -1.13404  -1.13385  -1.13170  -1.13135  -1.13099
 Alpha  occ. eigenvalues --   -0.16880  -0.13600  -0.12374  -0.11114
 Alpha virt. eigenvalues --   -0.06615  -0.05730  -0.04438  -0.03811  -0.02677
 Alpha virt. eigenvalues --   -0.02376  -0.02097  -0.01529  -0.01143  -0.00839
 Alpha virt. eigenvalues --   -0.00526  -0.00347  -0.00055   0.00332   0.00585

  Beta  occ. eigenvalues --  -38.45167 -38.44736 -38.44325 -38.44253 -38.44193
  Beta  occ. eigenvalues --  -38.43886 -38.43588  -2.20975  -2.20403  -2.20109
  Beta  occ. eigenvalues --   -2.20094  -2.19920  -2.19721  -2.19481  -1.14660
  Beta  occ. eigenvalues --   -1.14654  -1.14612  -1.14118  -1.14117  -1.14089
  Beta  occ. eigenvalues --   -1.13866  -1.13788  -1.13769  -1.13748  -1.13746
  Beta  occ. eigenvalues --   -1.13657  -1.13606  -1.13595  -1.13560  -1.13421
  Beta  occ. eigenvalues --   -1.13393  -1.13381  -1.13172  -1.13137  -1.13054
  Beta  occ. eigenvalues --   -0.16523  -0.12932  -0.12063
  Beta virt. eigenvalues --   -0.07445  -0.06419  -0.05371  -0.04209  -0.03613
  Beta virt. eigenvalues --   -0.02520  -0.02010  -0.01576  -0.01297  -0.00831
  Beta virt. eigenvalues --   -0.00640  -0.00164  -0.00070   0.00167   0.00507

 Mulliken charges and spin densities:
               1          2
     1  Na  -0.545816   0.008849
     2  Na   0.393434   0.101215
     3  Na  -0.183669  -0.039022
     4  Na   0.415268   0.228715
     5  Na  -0.014225   0.731886
     6  Na   0.015366   0.004666
     7  Na  -0.080358  -0.036309
 Sum of Mulliken charges =  -0.00000   1.00000

 Dipole moment (field-independent basis, Debye):
    X=              0.8137    Y=             -0.9598    Z=              0.5555  Tot=              1.3755
 Quadrupole moment (field-independent basis, Debye-Ang):
   XX=            -66.8617   YY=            -64.5044   ZZ=            -68.6746
   XY=             -1.5289   XZ=              3.5554   YZ=             -1.7275

 Normal termination of Gaussian 16 at Wed Nov 29 04:05:55 2023.
