 Gaussian 16, Revision B.01,
 Gaussian 16:  ES64L-G16RevB.01 20-Dec-2017

 -------------------------
 #P B3LYP/6-311+g(d) force
 -------------------------

 -----
 DPGEN
 -----
 Symbolic Z-matrix:
 Charge =  0 Multiplicity = 2

                         Standard orientation:
 ---------------------------------------------------------------------
 Center     Atomic      Atomic             Coordinates (Angstroms)
 Number     Number       Type             X           Y           Z
 ---------------------------------------------------------------------
      1         11           0        0.167381   -0.400672    2.202133
      2         11           0        0.192183    0.066448   -1.602222
      3         11           0        2.004318    2.228689    0.069309
      4         11           0        3.102739   -1.059622   -0.025881
      5         11           0       -3.067845   -0.527065    0.381385
      6         11           0       -1.770535    2.569642   -0.356273
      7         11           0       -0.628241   -2.877421   -0.668450
 ---------------------------------------------------------------------

 SCF Done:  E(UB3LYP) =  -1136.13627309     A.U. after   19 cycles

 The electronic state is 2-A.
 Alpha  occ. eigenvalues --  -38.44289 -38.44056 -38.44030 -38.43756 -38.43388
 Alpha  occ. eigenvalues --  -38.43326 -38.43193  -2.20098  -2.19895  -2.19850
 Alpha  occ. eigenvalues --   -2.19593  -2.19226  -2.19166  -2.19144  -1.13773
 Alpha  occ. eigenvalues --   -1.13758  -1.13740  -1.13556  -1.13530  -1.13526
 Alpha  occ. eigenvalues --   -1.13512  -1.13503  -1.13490  -1.13292  -1.13261
 Alpha  occ. eigenvalues --   -1.13211  -1.12966  -1.12873  -1.12858  -1.12850
 Alpha  occ. eigenvalues --   -1.12829  -1.12802  -1.12787  -1.12783  -1.12759
 Alpha  occ. eigenvalues --   -0.18289  -0.13038  -0.12172  -0.10898
 Alpha virt. eigenvalues --   -0.05787  -0.05259  -0.04585  -0.03333  -0.02870
 Alpha virt. eigenvalues --   -0.02713  -0.01617  -0.01116  -0.00509  -0.00332
 Alpha virt. eigenvalues --   -0.00031   0.00362   0.00768   0.00836   0.00862

  Beta  occ. eigenvalues --  -38.44288 -38.44025 -38.43959 -38.43752 -38.43371
  Beta  occ. eigenvalues --  -38.43325 -38.43132  -2.20098  -2.19843  -2.19715
  Beta  occ. eigenvalues --   -2.19589  -2.19197  -2.19142  -2.19056  -1.13766
  Beta  occ. eigenvalues --   -1.13751  -1.13738  -1.13513  -1.13496  -1.13493
  Beta  occ. eigenvalues --   -1.13432  -1.13403  -1.13378  -1.13285  -1.13245
  Beta  occ. eigenvalues --   -1.13209  -1.12927  -1.12842  -1.12835  -1.12828
  Beta  occ. eigenvalues --   -1.12795  -1.12784  -1.12762  -1.12714  -1.12691
  Beta  occ. eigenvalues --   -0.17578  -0.12854  -0.11922
  Beta virt. eigenvalues --   -0.06983  -0.05709  -0.05230  -0.04501  -0.02575
  Beta virt. eigenvalues --   -0.02165  -0.01682  -0.01515  -0.01040  -0.00519
  Beta virt. eigenvalues --   -0.00366   0.00117   0.00388   0.00815   0.00855

 Mulliken charges and spin densities:
               1          2
     1  Na  -0.429704   0.672402
     2  Na   0.050657   0.308715
     3  Na   0.055426   0.014323
     4  Na   0.154531  -0.044189
     5  Na   0.074967   0.086034
     6  Na  -0.004137  -0.035006
     7  Na   0.098260  -0.002279
 Sum of Mulliken charges =  -0.00000   1.00000

 Dipole moment (field-independent basis, Debye):
    X=              0.3531    Y=             -0.1510    Z=              0.2859  Tot=              0.4787
 Quadrupole moment (field-independent basis, Debye-Ang):
   XX=            -56.0739   YY=            -63.8935   ZZ=            -73.8506
   XY=             -0.2834   XZ=             -0.2506   YZ=              0.8513

 Normal termination of Gaussian 16 at Thu Dec  7 05:26:43 2023.
