 Gaussian 16, Revision B.01,
 Gaussian 16:  ES64L-G16RevB.01 20-Dec-2017

 -------------------------
 #P B3LYP/6-311+g(d) force
 -------------------------

 -----
 DPGEN
 -----
 Symbolic Z-matrix:
 Charge =  0 Multiplicity = 2

                         Standard orientation:
 ---------------------------------------------------------------------
 Center     Atomic      Atomic             Coordinates (Angstroms)
 Number     Number       Type             X           Y           Z
 ---------------------------------------------------------------------
      1         11           0        3.001387    0.250648   -0.171325
      2         11           0       -2.604791    1.432041    0.531137
      3         11           0       -2.262073   -2.126724   -0.531578
      4         11           0        0.679032    2.975860   -0.604325
      5         11           0       -0.311973   -0.176516   -1.647279
      6         11           0        1.471742   -2.661383    0.364722
      7         11           0        0.026675    0.306072    2.058648
 ---------------------------------------------------------------------

 SCF Done:  E(UB3LYP) =  -1136.13728675     A.U. after   19 cycles

 The electronic state is 2-A.
 Alpha  occ. eigenvalues --  -38.43898 -38.43789 -38.43643 -38.43622 -38.43594
 Alpha  occ. eigenvalues --  -38.43563 -38.43328  -2.19785  -2.19635  -2.19493
 Alpha  occ. eigenvalues --   -2.19461  -2.19421  -2.19387  -2.19303  -1.13474
 Alpha  occ. eigenvalues --   -1.13427  -1.13409  -1.13303  -1.13297  -1.13281
 Alpha  occ. eigenvalues --   -1.13254  -1.13159  -1.13135  -1.13131  -1.13119
 Alpha  occ. eigenvalues --   -1.13106  -1.13092  -1.13072  -1.13070  -1.13041
 Alpha  occ. eigenvalues --   -1.13033  -1.13015  -1.12964  -1.12915  -1.12908
 Alpha  occ. eigenvalues --   -0.18486  -0.12828  -0.12514  -0.11059
 Alpha virt. eigenvalues --   -0.05230  -0.05079  -0.04933  -0.03280  -0.03094
 Alpha virt. eigenvalues --   -0.02686  -0.01281  -0.01247  -0.00417  -0.00218
 Alpha virt. eigenvalues --    0.00001   0.00350   0.00861   0.00867   0.00889

  Beta  occ. eigenvalues --  -38.43808 -38.43773 -38.43631 -38.43619 -38.43588
  Beta  occ. eigenvalues --  -38.43548 -38.43268  -2.19621  -2.19609  -2.19473
  Beta  occ. eigenvalues --   -2.19460  -2.19413  -2.19361  -2.19194  -1.13380
  Beta  occ. eigenvalues --   -1.13316  -1.13299  -1.13269  -1.13253  -1.13244
  Beta  occ. eigenvalues --   -1.13230  -1.13159  -1.13124  -1.13110  -1.13107
  Beta  occ. eigenvalues --   -1.13095  -1.13075  -1.13063  -1.13043  -1.13032
  Beta  occ. eigenvalues --   -1.13018  -1.12994  -1.12891  -1.12844  -1.12831
  Beta  occ. eigenvalues --   -0.17787  -0.12569  -0.12225
  Beta virt. eigenvalues --   -0.07190  -0.05151  -0.05067  -0.04822  -0.02515
  Beta virt. eigenvalues --   -0.02398  -0.01691  -0.01177  -0.01136  -0.00397
  Beta virt. eigenvalues --   -0.00254   0.00116   0.00388   0.00872   0.00887

 Mulliken charges and spin densities:
               1          2
     1  Na  -0.014410  -0.047222
     2  Na   0.147330   0.052601
     3  Na   0.157183  -0.021352
     4  Na   0.046185  -0.007597
     5  Na  -0.109333   0.429384
     6  Na   0.002481   0.016276
     7  Na  -0.229436   0.577910
 Sum of Mulliken charges =  -0.00000   1.00000

 Dipole moment (field-independent basis, Debye):
    X=             -0.0607    Y=              0.0533    Z=              0.2094  Tot=              0.2244
 Quadrupole moment (field-independent basis, Debye-Ang):
   XX=            -60.2850   YY=            -60.9706   ZZ=            -72.9736
   XY=             -0.0425   XZ=             -0.7105   YZ=             -1.3172

 Normal termination of Gaussian 16 at Thu Dec  7 15:35:53 2023.
