 Gaussian 16, Revision B.01,
 Gaussian 16:  ES64L-G16RevB.01 20-Dec-2017

 -------------------------
 #P B3LYP/6-311+g(d) force
 -------------------------

 -----
 DPGEN
 -----
 Symbolic Z-matrix:
 Charge =  0 Multiplicity = 2

                         Standard orientation:
 ---------------------------------------------------------------------
 Center     Atomic      Atomic             Coordinates (Angstroms)
 Number     Number       Type             X           Y           Z
 ---------------------------------------------------------------------
      1         11           0        1.473253    1.130585   -0.976598
      2         11           0       -0.464730   -0.692365    1.835814
      3         11           0       -1.804760   -0.148853   -1.550768
      4         11           0       -4.162011   -1.258992    0.497584
      5         11           0       -1.103749    2.840483    0.179593
      6         11           0        2.327465   -1.866276   -1.214342
      7         11           0        3.734531   -0.004582    1.228717
 ---------------------------------------------------------------------

 SCF Done:  E(UB3LYP) =  -1136.11967587     A.U. after   24 cycles

 The electronic state is 2-A.
 Alpha  occ. eigenvalues --  -38.45399 -38.44922 -38.44338 -38.43883 -38.43780
 Alpha  occ. eigenvalues --  -38.42930 -38.42859  -2.21171  -2.20737  -2.20195
 Alpha  occ. eigenvalues --   -2.19751  -2.19554  -2.18890  -2.18689  -1.14869
 Alpha  occ. eigenvalues --   -1.14827  -1.14764  -1.14416  -1.14379  -1.14370
 Alpha  occ. eigenvalues --   -1.13891  -1.13842  -1.13800  -1.13451  -1.13419
 Alpha  occ. eigenvalues --   -1.13368  -1.13228  -1.13221  -1.13182  -1.12603
 Alpha  occ. eigenvalues --   -1.12567  -1.12511  -1.12351  -1.12343  -1.12319
 Alpha  occ. eigenvalues --   -0.17945  -0.13854  -0.11076  -0.10932
 Alpha virt. eigenvalues --   -0.07007  -0.05198  -0.04862  -0.03045  -0.02904
 Alpha virt. eigenvalues --   -0.02367  -0.02249  -0.01393  -0.01044  -0.00226
 Alpha virt. eigenvalues --    0.00035   0.00069   0.00217   0.00524   0.00650

  Beta  occ. eigenvalues --  -38.45344 -38.44900 -38.44292 -38.43854 -38.43792
  Beta  occ. eigenvalues --  -38.42907 -38.42853  -2.21071  -2.20694  -2.20111
  Beta  occ. eigenvalues --   -2.19698  -2.19578  -2.18854  -2.18679  -1.14796
  Beta  occ. eigenvalues --   -1.14757  -1.14687  -1.14387  -1.14345  -1.14338
  Beta  occ. eigenvalues --   -1.13829  -1.13786  -1.13733  -1.13414  -1.13376
  Beta  occ. eigenvalues --   -1.13339  -1.13240  -1.13233  -1.13194  -1.12569
  Beta  occ. eigenvalues --   -1.12504  -1.12498  -1.12342  -1.12329  -1.12313
  Beta  occ. eigenvalues --   -0.17203  -0.13767  -0.10966
  Beta virt. eigenvalues --   -0.07190  -0.06659  -0.04803  -0.04538  -0.02845
  Beta virt. eigenvalues --   -0.02565  -0.01944  -0.01613  -0.01189  -0.00715
  Beta virt. eigenvalues --   -0.00153   0.00114   0.00184   0.00331   0.00635

 Mulliken charges and spin densities:
               1          2
     1  Na  -0.032767   0.637974
     2  Na  -0.473546   0.432467
     3  Na  -0.183474   0.045373
     4  Na   0.277443  -0.081005
     5  Na   0.011028  -0.097074
     6  Na   0.201725   0.114022
     7  Na   0.199590  -0.051757
 Sum of Mulliken charges =  -0.00000   1.00000

 Dipole moment (field-independent basis, Debye):
    X=              0.7057    Y=             -0.1032    Z=              0.6261  Tot=              0.9490
 Quadrupole moment (field-independent basis, Debye-Ang):
   XX=            -55.0621   YY=            -72.1114   ZZ=            -69.3436
   XY=             -2.4010   XZ=              1.8490   YZ=              2.6180

 Normal termination of Gaussian 16 at Thu Dec  7 17:04:57 2023.
