 Gaussian 16, Revision B.01,
 Gaussian 16:  ES64L-G16RevB.01 20-Dec-2017

 -------------------------
 #P B3LYP/6-311+g(d) force
 -------------------------

 -----
 DPGEN
 -----
 Symbolic Z-matrix:
 Charge =  0 Multiplicity = 2

                         Standard orientation:
 ---------------------------------------------------------------------
 Center     Atomic      Atomic             Coordinates (Angstroms)
 Number     Number       Type             X           Y           Z
 ---------------------------------------------------------------------
      1         11           0        1.496989    2.239126    0.590301
      2         11           0       -3.274612    1.659683   -0.856328
      3         11           0       -1.525356    0.256141    1.545385
      4         11           0       -2.497473   -2.297075   -0.190178
      5         11           0        0.172703   -0.259503   -1.560498
      6         11           0        4.364334   -0.386686   -0.687372
      7         11           0        1.263416   -1.211685    1.158690
 ---------------------------------------------------------------------

 SCF Done:  E(UB3LYP) =  -1136.11574422     A.U. after   30 cycles

 The electronic state is 2-A.
 Alpha  occ. eigenvalues --  -38.45398 -38.45233 -38.43860 -38.43644 -38.43498
 Alpha  occ. eigenvalues --  -38.43485 -38.43479  -2.21260  -2.21000  -2.19656
 Alpha  occ. eigenvalues --   -2.19461  -2.19453  -2.19424  -2.19320  -1.15012
 Alpha  occ. eigenvalues --   -1.14898  -1.14864  -1.14666  -1.14651  -1.14603
 Alpha  occ. eigenvalues --   -1.13348  -1.13304  -1.13287  -1.13229  -1.13147
 Alpha  occ. eigenvalues --   -1.13140  -1.13135  -1.13122  -1.13089  -1.13067
 Alpha  occ. eigenvalues --   -1.13047  -1.12996  -1.12983  -1.12960  -1.12938
 Alpha  occ. eigenvalues --   -0.18400  -0.13845  -0.10962  -0.10795
 Alpha virt. eigenvalues --   -0.07226  -0.05429  -0.04384  -0.02997  -0.02841
 Alpha virt. eigenvalues --   -0.02276  -0.02098  -0.01286  -0.01182  -0.00406
 Alpha virt. eigenvalues --   -0.00019   0.00094   0.00323   0.00517   0.00636

  Beta  occ. eigenvalues --  -38.45389 -38.45177 -38.43838 -38.43625 -38.43494
  Beta  occ. eigenvalues --  -38.43444 -38.43439  -2.21244  -2.20894  -2.19613
  Beta  occ. eigenvalues --   -2.19427  -2.19388  -2.19355  -2.19312  -1.14987
  Beta  occ. eigenvalues --   -1.14889  -1.14853  -1.14591  -1.14577  -1.14534
  Beta  occ. eigenvalues --   -1.13323  -1.13271  -1.13254  -1.13169  -1.13125
  Beta  occ. eigenvalues --   -1.13100  -1.13088  -1.13077  -1.13046  -1.13034
  Beta  occ. eigenvalues --   -1.12982  -1.12970  -1.12946  -1.12935  -1.12923
  Beta  occ. eigenvalues --   -0.17738  -0.13420  -0.10640
  Beta virt. eigenvalues --   -0.07329  -0.06815  -0.05326  -0.03907  -0.02723
  Beta virt. eigenvalues --   -0.02639  -0.01781  -0.01487  -0.01245  -0.00754
  Beta virt. eigenvalues --   -0.00237   0.00062   0.00148   0.00431   0.00588

 Mulliken charges and spin densities:
               1          2
     1  Na  -0.210180   0.011417
     2  Na  -0.123672   0.226080
     3  Na   0.421557  -0.130097
     4  Na  -0.013461   0.140316
     5  Na  -0.319449   0.308925
     6  Na   0.123282   0.346572
     7  Na   0.121923   0.096787
 Sum of Mulliken charges =  -0.00000   1.00000

 Dipole moment (field-independent basis, Debye):
    X=              0.8479    Y=             -0.0697    Z=             -0.2537  Tot=              0.8878
 Quadrupole moment (field-independent basis, Debye-Ang):
   XX=            -51.8508   YY=            -74.9857   ZZ=            -67.7525
   XY=              2.5083   XZ=              0.0478   YZ=             -0.3263

 Normal termination of Gaussian 16 at Thu Dec  7 12:46:13 2023.
