 Gaussian 16, Revision B.01,
 Gaussian 16:  ES64L-G16RevB.01 20-Dec-2017

 -------------------------
 #P B3LYP/6-311+g(d) force
 -------------------------

 -----
 DPGEN
 -----
 Symbolic Z-matrix:
 Charge =  0 Multiplicity = 2

                         Standard orientation:
 ---------------------------------------------------------------------
 Center     Atomic      Atomic             Coordinates (Angstroms)
 Number     Number       Type             X           Y           Z
 ---------------------------------------------------------------------
      1         11           0        0.271127    2.474545   -0.509611
      2         11           0       -5.976923   -0.162782   -0.317609
      3         11           0       -2.567782    1.098288    1.077050
      4         11           0       -2.847159   -1.916414   -0.093377
      5         11           0        0.527136   -0.832486    0.089862
      6         11           0        3.837903   -0.214325   -0.807550
      7         11           0        6.755698   -0.446827    0.561236
 ---------------------------------------------------------------------

 SCF Done:  E(UB3LYP) =  -1136.11671687     A.U. after   22 cycles

 The electronic state is 2-A.
 Alpha  occ. eigenvalues --  -38.45039 -38.44579 -38.44225 -38.44215 -38.44187
 Alpha  occ. eigenvalues --  -38.43783 -38.43675  -2.20871  -2.20348  -2.20072
 Alpha  occ. eigenvalues --   -2.20043  -2.19947  -2.19652  -2.19482  -1.14579
 Alpha  occ. eigenvalues --   -1.14563  -1.14458  -1.14016  -1.14012  -1.13962
 Alpha  occ. eigenvalues --   -1.13764  -1.13742  -1.13703  -1.13686  -1.13681
 Alpha  occ. eigenvalues --   -1.13660  -1.13613  -1.13611  -1.13608  -1.13332
 Alpha  occ. eigenvalues --   -1.13311  -1.13280  -1.13161  -1.13150  -1.13093
 Alpha  occ. eigenvalues --   -0.17070  -0.13847  -0.11943  -0.10993
 Alpha virt. eigenvalues --   -0.07311  -0.05423  -0.04075  -0.03890  -0.02988
 Alpha virt. eigenvalues --   -0.02399  -0.02008  -0.01869  -0.01225  -0.00710
 Alpha virt. eigenvalues --   -0.00312  -0.00058   0.00008   0.00298   0.00564

  Beta  occ. eigenvalues --  -38.45012 -38.44553 -38.44201 -38.44177 -38.44163
  Beta  occ. eigenvalues --  -38.43741 -38.43670  -2.20825  -2.20298  -2.19979
  Beta  occ. eigenvalues --   -2.19973  -2.19954  -2.19577  -2.19471  -1.14538
  Beta  occ. eigenvalues --   -1.14520  -1.14422  -1.13982  -1.13975  -1.13932
  Beta  occ. eigenvalues --   -1.13705  -1.13683  -1.13643  -1.13630  -1.13630
  Beta  occ. eigenvalues --   -1.13629  -1.13625  -1.13611  -1.13564  -1.13286
  Beta  occ. eigenvalues --   -1.13257  -1.13208  -1.13148  -1.13141  -1.13096
  Beta  occ. eigenvalues --   -0.16330  -0.13791  -0.11712
  Beta virt. eigenvalues --   -0.07252  -0.07038  -0.04927  -0.03890  -0.03620
  Beta virt. eigenvalues --   -0.02407  -0.02226  -0.01876  -0.01560  -0.00871
  Beta virt. eigenvalues --   -0.00595  -0.00202   0.00145   0.00285   0.00418

 Mulliken charges and spin densities:
               1          2
     1  Na   0.152920   0.245676
     2  Na   0.222563   0.155670
     3  Na  -0.047986   0.219795
     4  Na  -0.021602   0.009834
     5  Na  -0.564525   0.453047
     6  Na   0.057602  -0.007315
     7  Na   0.201028  -0.076706
 Sum of Mulliken charges =  -0.00000   1.00000

 Dipole moment (field-independent basis, Debye):
    X=             -1.2908    Y=              0.4340    Z=              0.0213  Tot=              1.3619
 Quadrupole moment (field-independent basis, Debye-Ang):
   XX=            -55.2246   YY=            -70.4207   ZZ=            -68.9063
   XY=              1.2977   XZ=              4.5790   YZ=             -0.3758

 Normal termination of Gaussian 16 at Wed Nov 29 03:38:10 2023.
