 Gaussian 16, Revision B.01,
 Gaussian 16:  ES64L-G16RevB.01 20-Dec-2017

 -------------------------
 #P B3LYP/6-311+g(d) force
 -------------------------

 -----
 DPGEN
 -----
 Symbolic Z-matrix:
 Charge =  0 Multiplicity = 2

                         Standard orientation:
 ---------------------------------------------------------------------
 Center     Atomic      Atomic             Coordinates (Angstroms)
 Number     Number       Type             X           Y           Z
 ---------------------------------------------------------------------
      1         11           0       -0.625094    3.112146   -0.039977
      2         11           0       -0.088575   -0.229547    1.952026
      3         11           0       -1.178284   -2.644220    0.032414
      4         11           0        2.412304   -1.749956   -0.346093
      5         11           0        2.442779    1.241474    0.385317
      6         11           0       -3.380670    0.030170   -0.239063
      7         11           0        0.417540    0.239932   -1.744623
 ---------------------------------------------------------------------

 SCF Done:  E(UB3LYP) =  -1136.13369266     A.U. after   19 cycles

 The electronic state is 2-A.
 Alpha  occ. eigenvalues --  -38.44486 -38.43622 -38.43570 -38.43521 -38.43494
 Alpha  occ. eigenvalues --  -38.43466 -38.43444  -2.20255  -2.19571  -2.19488
 Alpha  occ. eigenvalues --   -2.19415  -2.19403  -2.19319  -2.19314  -1.13934
 Alpha  occ. eigenvalues --   -1.13905  -1.13898  -1.13352  -1.13255  -1.13229
 Alpha  occ. eigenvalues --   -1.13171  -1.13144  -1.13124  -1.13097  -1.13068
 Alpha  occ. eigenvalues --   -1.13035  -1.13031  -1.13017  -1.13006  -1.12987
 Alpha  occ. eigenvalues --   -1.12983  -1.12976  -1.12963  -1.12959  -1.12933
 Alpha  occ. eigenvalues --   -0.18747  -0.13051  -0.12364  -0.10844
 Alpha virt. eigenvalues --   -0.05848  -0.04937  -0.04761  -0.03301  -0.02848
 Alpha virt. eigenvalues --   -0.02562  -0.01521  -0.01118  -0.00390  -0.00306
 Alpha virt. eigenvalues --   -0.00004   0.00354   0.00786   0.00873   0.00918

  Beta  occ. eigenvalues --  -38.44486 -38.43607 -38.43522 -38.43482 -38.43481
  Beta  occ. eigenvalues --  -38.43461 -38.43375  -2.20255  -2.19548  -2.19388
  Beta  occ. eigenvalues --   -2.19326  -2.19320  -2.19309  -2.19287  -1.13925
  Beta  occ. eigenvalues --   -1.13906  -1.13899  -1.13331  -1.13218  -1.13190
  Beta  occ. eigenvalues --   -1.13104  -1.13074  -1.13026  -1.13018  -1.13004
  Beta  occ. eigenvalues --   -1.13002  -1.12983  -1.12976  -1.12971  -1.12966
  Beta  occ. eigenvalues --   -1.12962  -1.12942  -1.12937  -1.12932  -1.12899
  Beta  occ. eigenvalues --   -0.17986  -0.12832  -0.12133
  Beta virt. eigenvalues --   -0.06898  -0.05801  -0.04912  -0.04712  -0.02517
  Beta virt. eigenvalues --   -0.02120  -0.01544  -0.01415  -0.01051  -0.00412
  Beta virt. eigenvalues --   -0.00338   0.00128   0.00387   0.00815   0.00890

 Mulliken charges and spin densities:
               1          2
     1  Na  -0.156735  -0.153228
     2  Na  -0.188237   0.609497
     3  Na   0.065165  -0.084293
     4  Na   0.357132   0.033306
     5  Na   0.361441   0.071173
     6  Na  -0.160401  -0.107716
     7  Na  -0.278365   0.631261
 Sum of Mulliken charges =  -0.00000   1.00000

 Dipole moment (field-independent basis, Debye):
    X=             -0.4344    Y=              0.0125    Z=              0.0359  Tot=              0.4361
 Quadrupole moment (field-independent basis, Debye-Ang):
   XX=            -57.3460   YY=            -62.6466   ZZ=            -73.8709
   XY=             -1.4003   XZ=              1.1197   YZ=              1.1290

 Normal termination of Gaussian 16 at Thu Dec  7 04:22:55 2023.
