 Gaussian 16, Revision B.01,
 Gaussian 16:  ES64L-G16RevB.01 20-Dec-2017

 -------------------------
 #P B3LYP/6-311+g(d) force
 -------------------------

 -----
 DPGEN
 -----
 Symbolic Z-matrix:
 Charge =  0 Multiplicity = 2

                         Standard orientation:
 ---------------------------------------------------------------------
 Center     Atomic      Atomic             Coordinates (Angstroms)
 Number     Number       Type             X           Y           Z
 ---------------------------------------------------------------------
      1         11           0       -2.565313    1.572467   -0.710037
      2         11           0       -2.508551   -1.893095   -0.184959
      3         11           0       -0.804888    0.288163    2.266456
      4         11           0        1.167979   -2.350443    0.291995
      5         11           0        3.461446   -0.025336   -0.076875
      6         11           0        0.891158    2.790475    0.060259
      7         11           0        0.358170   -0.382231   -1.646838
 ---------------------------------------------------------------------

 SCF Done:  E(UB3LYP) =  -1136.13348846     A.U. after   19 cycles

 The electronic state is 2-A.
 Alpha  occ. eigenvalues --  -38.44364 -38.43962 -38.43914 -38.43731 -38.43658
 Alpha  occ. eigenvalues --  -38.43387 -38.43303  -2.20178  -2.19785  -2.19757
 Alpha  occ. eigenvalues --   -2.19624  -2.19558  -2.19295  -2.19102  -1.13853
 Alpha  occ. eigenvalues --   -1.13842  -1.13815  -1.13464  -1.13451  -1.13441
 Alpha  occ. eigenvalues --   -1.13419  -1.13411  -1.13385  -1.13371  -1.13268
 Alpha  occ. eigenvalues --   -1.13244  -1.13219  -1.13206  -1.13193  -1.12962
 Alpha  occ. eigenvalues --   -1.12939  -1.12883  -1.12780  -1.12776  -1.12732
 Alpha  occ. eigenvalues --   -0.18334  -0.13211  -0.12056  -0.10920
 Alpha virt. eigenvalues --   -0.05912  -0.05260  -0.04362  -0.03452  -0.02885
 Alpha virt. eigenvalues --   -0.02732  -0.01752  -0.01061  -0.00426  -0.00145
 Alpha virt. eigenvalues --   -0.00097   0.00333   0.00691   0.00857   0.00881

  Beta  occ. eigenvalues --  -38.44366 -38.43945 -38.43814 -38.43727 -38.43607
  Beta  occ. eigenvalues --  -38.43379 -38.43302  -2.20182  -2.19756  -2.19572
  Beta  occ. eigenvalues --   -2.19553  -2.19532  -2.19282  -2.19101  -1.13853
  Beta  occ. eigenvalues --   -1.13839  -1.13820  -1.13436  -1.13422  -1.13396
  Beta  occ. eigenvalues --   -1.13384  -1.13287  -1.13264  -1.13240  -1.13221
  Beta  occ. eigenvalues --   -1.13208  -1.13204  -1.13190  -1.13142  -1.12944
  Beta  occ. eigenvalues --   -1.12909  -1.12875  -1.12777  -1.12759  -1.12735
  Beta  occ. eigenvalues --   -0.17632  -0.13004  -0.11865
  Beta virt. eigenvalues --   -0.06973  -0.05828  -0.05260  -0.04235  -0.02768
  Beta virt. eigenvalues --   -0.02131  -0.01704  -0.01670  -0.01007  -0.00425
  Beta virt. eigenvalues --   -0.00178   0.00090   0.00377   0.00803   0.00866

 Mulliken charges and spin densities:
               1          2
     1  Na   0.131197   0.039527
     2  Na   0.289212   0.046991
     3  Na  -0.587948   0.661728
     4  Na   0.216138   0.098014
     5  Na   0.132495  -0.048639
     6  Na  -0.050878  -0.045896
     7  Na  -0.130215   0.248276
 Sum of Mulliken charges =  -0.00000   1.00000

 Dipole moment (field-independent basis, Debye):
    X=              0.1312    Y=              0.0133    Z=              0.0837  Tot=              0.1562
 Quadrupole moment (field-independent basis, Debye-Ang):
   XX=            -54.1398   YY=            -67.3754   ZZ=            -72.6656
   XY=              0.9292   XZ=              1.7620   YZ=             -1.2073

 Normal termination of Gaussian 16 at Thu Dec  7 15:40:29 2023.
