 Gaussian 16, Revision B.01,
 Gaussian 16:  ES64L-G16RevB.01 20-Dec-2017

 -------------------------
 #P B3LYP/6-311+g(d) force
 -------------------------

 -----
 DPGEN
 -----
 Symbolic Z-matrix:
 Charge =  0 Multiplicity = 2

                         Standard orientation:
 ---------------------------------------------------------------------
 Center     Atomic      Atomic             Coordinates (Angstroms)
 Number     Number       Type             X           Y           Z
 ---------------------------------------------------------------------
      1         11           0       -2.610681   -2.037492   -0.040741
      2         11           0        1.946190   -2.636747    0.039212
      3         11           0        2.895129    0.628206   -0.150655
      4         11           0       -2.740747    1.511070   -0.183966
      5         11           0       -0.149970   -0.078001    1.966030
      6         11           0       -0.040303   -0.396018   -1.600775
      7         11           0        0.700381    3.008981   -0.029104
 ---------------------------------------------------------------------

 SCF Done:  E(UB3LYP) =  -1136.13703713     A.U. after   20 cycles

 The electronic state is 2-A.
 Alpha  occ. eigenvalues --  -38.44279 -38.44227 -38.43848 -38.43778 -38.43349
 Alpha  occ. eigenvalues --  -38.43234 -38.43173  -2.20082  -2.20037  -2.19663
 Alpha  occ. eigenvalues --   -2.19651  -2.19230  -2.19114  -2.19065  -1.13759
 Alpha  occ. eigenvalues --   -1.13743  -1.13730  -1.13715  -1.13699  -1.13659
 Alpha  occ. eigenvalues --   -1.13355  -1.13339  -1.13332  -1.13316  -1.13309
 Alpha  occ. eigenvalues --   -1.13264  -1.12912  -1.12850  -1.12848  -1.12802
 Alpha  occ. eigenvalues --   -1.12752  -1.12736  -1.12733  -1.12723  -1.12708
 Alpha  occ. eigenvalues --   -0.18372  -0.13186  -0.12281  -0.10349
 Alpha virt. eigenvalues --   -0.05886  -0.05459  -0.04787  -0.03164  -0.02665
 Alpha virt. eigenvalues --   -0.02317  -0.01639  -0.01410  -0.00661  -0.00477
 Alpha virt. eigenvalues --    0.00004   0.00346   0.00761   0.00769   0.00857

  Beta  occ. eigenvalues --  -38.44276 -38.44222 -38.43846 -38.43772 -38.43255
  Beta  occ. eigenvalues --  -38.43232 -38.43114  -2.20080  -2.20030  -2.19663
  Beta  occ. eigenvalues --   -2.19644  -2.19065  -2.19054  -2.19005  -1.13751
  Beta  occ. eigenvalues --   -1.13735  -1.13723  -1.13700  -1.13684  -1.13659
  Beta  occ. eigenvalues --   -1.13356  -1.13334  -1.13322  -1.13303  -1.13283
  Beta  occ. eigenvalues --   -1.13265  -1.12798  -1.12741  -1.12726  -1.12725
  Beta  occ. eigenvalues --   -1.12721  -1.12710  -1.12700  -1.12667  -1.12656
  Beta  occ. eigenvalues --   -0.17658  -0.12963  -0.12081
  Beta virt. eigenvalues --   -0.06464  -0.05899  -0.05371  -0.04777  -0.02376
  Beta virt. eigenvalues --   -0.01955  -0.01549  -0.01366  -0.01237  -0.00720
  Beta virt. eigenvalues --   -0.00517   0.00154   0.00379   0.00760   0.00836

 Mulliken charges and spin densities:
               1          2
     1  Na   0.139832  -0.111041
     2  Na   0.200920  -0.085099
     3  Na   0.190095   0.033044
     4  Na   0.086096  -0.023352
     5  Na  -0.399379   0.778151
     6  Na  -0.161205   0.454468
     7  Na  -0.056358  -0.046171
 Sum of Mulliken charges =  -0.00000   1.00000

 Dipole moment (field-independent basis, Debye):
    X=             -0.4162    Y=             -0.3765    Z=              0.0479  Tot=              0.5633
 Quadrupole moment (field-independent basis, Debye-Ang):
   XX=            -55.9080   YY=            -59.8070   ZZ=            -76.7239
   XY=             -0.4026   XZ=              0.2722   YZ=             -0.7648

 Normal termination of Gaussian 16 at Thu Dec  7 11:23:48 2023.
