 Gaussian 16, Revision B.01,
 Gaussian 16:  ES64L-G16RevB.01 20-Dec-2017

 -------------------------
 #P B3LYP/6-311+g(d) force
 -------------------------

 -----
 DPGEN
 -----
 Symbolic Z-matrix:
 Charge =  0 Multiplicity = 2

                         Standard orientation:
 ---------------------------------------------------------------------
 Center     Atomic      Atomic             Coordinates (Angstroms)
 Number     Number       Type             X           Y           Z
 ---------------------------------------------------------------------
      1         11           0       -2.386494   -1.861075    0.038978
      2         11           0       -0.196652   -0.329547   -1.663941
      3         11           0        0.535927    0.055694    1.967664
      4         11           0        3.095937    0.635936   -0.084460
      5         11           0       -3.071769    1.333456    0.215846
      6         11           0        0.575158    3.034741   -0.369204
      7         11           0        1.447893   -2.869205   -0.104884
 ---------------------------------------------------------------------

 SCF Done:  E(UB3LYP) =  -1136.13546075     A.U. after   19 cycles

 The electronic state is 2-A.
 Alpha  occ. eigenvalues --  -38.44273 -38.44098 -38.43913 -38.43662 -38.43599
 Alpha  occ. eigenvalues --  -38.43539 -38.43224  -2.20100  -2.19894  -2.19766
 Alpha  occ. eigenvalues --   -2.19470  -2.19415  -2.19402  -2.19159  -1.13789
 Alpha  occ. eigenvalues --   -1.13764  -1.13729  -1.13583  -1.13560  -1.13538
 Alpha  occ. eigenvalues --   -1.13472  -1.13421  -1.13375  -1.13152  -1.13135
 Alpha  occ. eigenvalues --   -1.13110  -1.13087  -1.13077  -1.13063  -1.13047
 Alpha  occ. eigenvalues --   -1.13041  -1.13026  -1.12842  -1.12798  -1.12770
 Alpha  occ. eigenvalues --   -0.18214  -0.13141  -0.12267  -0.10383
 Alpha virt. eigenvalues --   -0.05758  -0.05437  -0.04947  -0.03228  -0.02755
 Alpha virt. eigenvalues --   -0.02324  -0.01590  -0.01329  -0.00678  -0.00563
 Alpha virt. eigenvalues --   -0.00011   0.00354   0.00761   0.00824   0.00833

  Beta  occ. eigenvalues --  -38.44268 -38.44095 -38.43908 -38.43659 -38.43590
  Beta  occ. eigenvalues --  -38.43454 -38.43159  -2.20096  -2.19892  -2.19761
  Beta  occ. eigenvalues --   -2.19468  -2.19389  -2.19257  -2.19039  -1.13777
  Beta  occ. eigenvalues --   -1.13744  -1.13729  -1.13583  -1.13545  -1.13538
  Beta  occ. eigenvalues --   -1.13461  -1.13403  -1.13375  -1.13141  -1.13123
  Beta  occ. eigenvalues --   -1.13105  -1.13061  -1.13044  -1.13036  -1.12977
  Beta  occ. eigenvalues --   -1.12933  -1.12918  -1.12759  -1.12712  -1.12683
  Beta  occ. eigenvalues --   -0.17515  -0.12923  -0.12043
  Beta virt. eigenvalues --   -0.06571  -0.05673  -0.05444  -0.04853  -0.02460
  Beta virt. eigenvalues --   -0.02056  -0.01494  -0.01330  -0.01251  -0.00720
  Beta virt. eigenvalues --   -0.00603   0.00140   0.00385   0.00798   0.00826

 Mulliken charges and spin densities:
               1          2
     1  Na   0.176129  -0.083919
     2  Na   0.006381   0.603430
     3  Na  -0.314707   0.777508
     4  Na   0.237599  -0.067902
     5  Na  -0.090285  -0.026782
     6  Na  -0.087895  -0.045794
     7  Na   0.072779  -0.156542
 Sum of Mulliken charges =  -0.00000   1.00000

 Dipole moment (field-independent basis, Debye):
    X=              0.0891    Y=             -0.0245    Z=              0.0676  Tot=              0.1145
 Quadrupole moment (field-independent basis, Debye-Ang):
   XX=            -56.0590   YY=            -60.8315   ZZ=            -76.1600
   XY=             -1.0814   XZ=             -1.6230   YZ=             -0.7242

 Normal termination of Gaussian 16 at Thu Dec  7 23:40:13 2023.
