 Gaussian 16, Revision B.01,
 Gaussian 16:  ES64L-G16RevB.01 20-Dec-2017

 -------------------------
 #P B3LYP/6-311+g(d) force
 -------------------------

 -----
 DPGEN
 -----
 Symbolic Z-matrix:
 Charge =  0 Multiplicity = 2

                         Standard orientation:
 ---------------------------------------------------------------------
 Center     Atomic      Atomic             Coordinates (Angstroms)
 Number     Number       Type             X           Y           Z
 ---------------------------------------------------------------------
      1         11           0       -0.081349   -0.369639    2.462890
      2         11           0       -3.435303   -0.120004    0.507664
      3         11           0        1.607632    2.731211    0.830753
      4         11           0       -1.054002    1.856519   -1.278811
      5         11           0        2.327472   -0.180528   -1.808432
      6         11           0       -1.540043   -1.632791   -1.351992
      7         11           0        2.175592   -2.284768    0.637927
 ---------------------------------------------------------------------

 SCF Done:  E(UB3LYP) =  -1136.12546961     A.U. after   21 cycles

 The electronic state is 2-A.
 Alpha  occ. eigenvalues --  -38.44932 -38.44527 -38.44397 -38.44225 -38.43564
 Alpha  occ. eigenvalues --  -38.43361 -38.43231  -2.20744  -2.20336  -2.20242
 Alpha  occ. eigenvalues --   -2.20064  -2.19390  -2.19142  -2.19043  -1.14388
 Alpha  occ. eigenvalues --   -1.14377  -1.14369  -1.14010  -1.13998  -1.13965
 Alpha  occ. eigenvalues --   -1.13948  -1.13919  -1.13868  -1.13714  -1.13708
 Alpha  occ. eigenvalues --   -1.13688  -1.13089  -1.13068  -1.12999  -1.12812
 Alpha  occ. eigenvalues --   -1.12798  -1.12779  -1.12719  -1.12712  -1.12689
 Alpha  occ. eigenvalues --   -0.17690  -0.13098  -0.11966  -0.11506
 Alpha virt. eigenvalues --   -0.05689  -0.05116  -0.04929  -0.03629  -0.03341
 Alpha virt. eigenvalues --   -0.03288  -0.01449  -0.00849  -0.00608  -0.00108
 Alpha virt. eigenvalues --    0.00185   0.00272   0.00440   0.00556   0.00754

  Beta  occ. eigenvalues --  -38.44830 -38.44486 -38.44372 -38.44225 -38.43551
  Beta  occ. eigenvalues --  -38.43351 -38.43233  -2.20555  -2.20259  -2.20197
  Beta  occ. eigenvalues --   -2.20066  -2.19369  -2.19124  -2.19051  -1.14264
  Beta  occ. eigenvalues --   -1.14245  -1.14233  -1.13956  -1.13944  -1.13941
  Beta  occ. eigenvalues --   -1.13895  -1.13880  -1.13838  -1.13713  -1.13701
  Beta  occ. eigenvalues --   -1.13679  -1.13068  -1.13046  -1.12986  -1.12790
  Beta  occ. eigenvalues --   -1.12788  -1.12766  -1.12723  -1.12703  -1.12689
  Beta  occ. eigenvalues --   -0.16923  -0.12920  -0.11380
  Beta virt. eigenvalues --   -0.08094  -0.05359  -0.05016  -0.04315  -0.03120
  Beta virt. eigenvalues --   -0.02889  -0.02612  -0.01343  -0.00701  -0.00393
  Beta virt. eigenvalues --    0.00038   0.00294   0.00378   0.00516   0.00648

 Mulliken charges and spin densities:
               1          2
     1  Na  -0.332596   0.782080
     2  Na   0.549570  -0.094637
     3  Na   0.038078  -0.188098
     4  Na  -0.263267   0.207579
     5  Na   0.067811   0.332951
     6  Na  -0.215306   0.127352
     7  Na   0.155709  -0.167226
 Sum of Mulliken charges =  -0.00000   1.00000

 Dipole moment (field-independent basis, Debye):
    X=             -0.6042    Y=             -0.1878    Z=             -0.0011  Tot=              0.6327
 Quadrupole moment (field-independent basis, Debye-Ang):
   XX=            -60.8539   YY=            -73.7686   ZZ=            -64.0248
   XY=              0.2188   XZ=             -2.0858   YZ=              1.8751

 Normal termination of Gaussian 16 at Sun Dec  3 21:24:27 2023.
