 Gaussian 16, Revision B.01,
 Gaussian 16:  ES64L-G16RevB.01 20-Dec-2017

 -------------------------
 #P B3LYP/6-311+g(d) force
 -------------------------

 -----
 DPGEN
 -----
 Symbolic Z-matrix:
 Charge =  0 Multiplicity = 2

                         Standard orientation:
 ---------------------------------------------------------------------
 Center     Atomic      Atomic             Coordinates (Angstroms)
 Number     Number       Type             X           Y           Z
 ---------------------------------------------------------------------
      1         11           0       -3.055204   -0.875450   -0.481850
      2         11           0       -0.460845   -2.575538    0.746989
      3         11           0       -0.063911   -0.289682   -1.667132
      4         11           0        2.049750    2.166213    0.090465
      5         11           0       -1.594633    2.771693   -0.077772
      6         11           0        0.142675    0.116260    2.002833
      7         11           0        2.982168   -1.313496   -0.613532
 ---------------------------------------------------------------------

 SCF Done:  E(UB3LYP) =  -1136.13545091     A.U. after   19 cycles

 The electronic state is 2-A.
 Alpha  occ. eigenvalues --  -38.43864 -38.43807 -38.43780 -38.43764 -38.43661
 Alpha  occ. eigenvalues --  -38.43436 -38.43329  -2.19733  -2.19703  -2.19607
 Alpha  occ. eigenvalues --   -2.19576  -2.19445  -2.19390  -2.19246  -1.13449
 Alpha  occ. eigenvalues --   -1.13400  -1.13387  -1.13359  -1.13338  -1.13335
 Alpha  occ. eigenvalues --   -1.13288  -1.13276  -1.13262  -1.13235  -1.13217
 Alpha  occ. eigenvalues --   -1.13204  -1.13129  -1.13106  -1.13082  -1.13080
 Alpha  occ. eigenvalues --   -1.13026  -1.13005  -1.12938  -1.12881  -1.12846
 Alpha  occ. eigenvalues --   -0.18526  -0.12886  -0.12324  -0.11106
 Alpha virt. eigenvalues --   -0.05422  -0.05258  -0.04589  -0.03260  -0.03011
 Alpha virt. eigenvalues --   -0.02717  -0.01537  -0.01172  -0.00317  -0.00270
 Alpha virt. eigenvalues --    0.00039   0.00333   0.00778   0.00840   0.00903

  Beta  occ. eigenvalues --  -38.43854 -38.43777 -38.43749 -38.43712 -38.43663
  Beta  occ. eigenvalues --  -38.43378 -38.43302  -2.19687  -2.19603  -2.19561
  Beta  occ. eigenvalues --   -2.19549  -2.19451  -2.19283  -2.19202  -1.13382
  Beta  occ. eigenvalues --   -1.13340  -1.13329  -1.13326  -1.13314  -1.13271
  Beta  occ. eigenvalues --   -1.13236  -1.13229  -1.13220  -1.13215  -1.13196
  Beta  occ. eigenvalues --   -1.13193  -1.13125  -1.13109  -1.13081  -1.13014
  Beta  occ. eigenvalues --   -1.12956  -1.12922  -1.12891  -1.12827  -1.12822
  Beta  occ. eigenvalues --   -0.17807  -0.12620  -0.12074
  Beta virt. eigenvalues --   -0.07183  -0.05407  -0.05159  -0.04509  -0.02535
  Beta virt. eigenvalues --   -0.02316  -0.01694  -0.01393  -0.01127  -0.00298
  Beta virt. eigenvalues --   -0.00238   0.00121   0.00377   0.00831   0.00873

 Mulliken charges and spin densities:
               1          2
     1  Na   0.016789  -0.040060
     2  Na   0.303899   0.126839
     3  Na  -0.168680   0.580505
     4  Na   0.007226  -0.063557
     5  Na  -0.173387  -0.085811
     6  Na  -0.011798   0.472436
     7  Na   0.025951   0.009648
 Sum of Mulliken charges =  -0.00000   1.00000

 Dipole moment (field-independent basis, Debye):
    X=              0.0064    Y=              0.1224    Z=             -0.0275  Tot=              0.1256
 Quadrupole moment (field-independent basis, Debye-Ang):
   XX=            -57.2590   YY=            -63.5140   ZZ=            -73.0114
   XY=             -0.2194   XZ=             -0.0722   YZ=             -0.3824

 Normal termination of Gaussian 16 at Thu Dec  7 04:11:53 2023.
