 Gaussian 16, Revision B.01,
 Gaussian 16:  ES64L-G16RevB.01 20-Dec-2017

 -------------------------
 #P B3LYP/6-311+g(d) force
 -------------------------

 -----
 DPGEN
 -----
 Symbolic Z-matrix:
 Charge =  0 Multiplicity = 2

                         Standard orientation:
 ---------------------------------------------------------------------
 Center     Atomic      Atomic             Coordinates (Angstroms)
 Number     Number       Type             X           Y           Z
 ---------------------------------------------------------------------
      1         11           0        2.834548    0.722318    0.989208
      2         11           0        3.978698   -2.453824    0.124878
      3         11           0       -2.641862   -1.024728   -0.227208
      4         11           0        1.543304    3.428273   -0.022006
      5         11           0       -5.656212   -0.534419    0.718210
      6         11           0        0.891745   -1.865415   -0.710671
      7         11           0       -0.950220    1.727795   -0.872411
 ---------------------------------------------------------------------

 SCF Done:  E(UB3LYP) =  -1136.12435707     A.U. after   20 cycles

 The electronic state is 2-A.
 Alpha  occ. eigenvalues --  -38.44516 -38.44483 -38.44329 -38.44180 -38.44109
 Alpha  occ. eigenvalues --  -38.43373 -38.43082  -2.20360  -2.20324  -2.20152
 Alpha  occ. eigenvalues --   -2.19999  -2.19951  -2.19234  -2.18943  -1.14050
 Alpha  occ. eigenvalues --   -1.14036  -1.14003  -1.13982  -1.13978  -1.13973
 Alpha  occ. eigenvalues --   -1.13790  -1.13777  -1.13772  -1.13687  -1.13658
 Alpha  occ. eigenvalues --   -1.13645  -1.13635  -1.13626  -1.13523  -1.12905
 Alpha  occ. eigenvalues --   -1.12887  -1.12874  -1.12631  -1.12613  -1.12602
 Alpha  occ. eigenvalues --   -0.17003  -0.14042  -0.12823  -0.11114
 Alpha virt. eigenvalues --   -0.06197  -0.05292  -0.04433  -0.04011  -0.02501
 Alpha virt. eigenvalues --   -0.02336  -0.01931  -0.01740  -0.01070  -0.00833
 Alpha virt. eigenvalues --   -0.00166   0.00155   0.00170   0.00390   0.00731

  Beta  occ. eigenvalues --  -38.44486 -38.44466 -38.44221 -38.44173 -38.44071
  Beta  occ. eigenvalues --  -38.43368 -38.43074  -2.20306  -2.20293  -2.19986
  Beta  occ. eigenvalues --   -2.19951  -2.19883  -2.19225  -2.18941  -1.14013
  Beta  occ. eigenvalues --   -1.13998  -1.13986  -1.13963  -1.13944  -1.13936
  Beta  occ. eigenvalues --   -1.13671  -1.13657  -1.13648  -1.13640  -1.13637
  Beta  occ. eigenvalues --   -1.13629  -1.13594  -1.13584  -1.13466  -1.12889
  Beta  occ. eigenvalues --   -1.12884  -1.12869  -1.12639  -1.12622  -1.12522
  Beta  occ. eigenvalues --   -0.16469  -0.13359  -0.12567
  Beta virt. eigenvalues --   -0.07594  -0.05963  -0.04883  -0.04047  -0.03781
  Beta virt. eigenvalues --   -0.02273  -0.02151  -0.01685  -0.01209  -0.00910
  Beta virt. eigenvalues --   -0.00509   0.00121   0.00257   0.00373   0.00512

 Mulliken charges and spin densities:
               1          2
     1  Na  -0.669231   0.247700
     2  Na   1.615647   0.050403
     3  Na  -1.304902   0.570150
     4  Na   0.740790   0.052212
     5  Na  -0.372625   0.401988
     6  Na   0.499944  -0.283498
     7  Na  -0.509623  -0.038956
 Sum of Mulliken charges =  -0.00000   1.00000

 Dipole moment (field-independent basis, Debye):
    X=              1.1885    Y=             -0.0178    Z=             -0.0342  Tot=              1.1892
 Quadrupole moment (field-independent basis, Debye-Ang):
   XX=            -61.1214   YY=            -64.3089   ZZ=            -70.7645
   XY=             -6.3315   XZ=              0.3949   YZ=             -0.5428

 Normal termination of Gaussian 16 at Tue Nov 28 19:09:43 2023.
