 Gaussian 16, Revision B.01,
 Gaussian 16:  ES64L-G16RevB.01 20-Dec-2017

 -------------------------
 #P B3LYP/6-311+g(d) force
 -------------------------

 -----
 DPGEN
 -----
 Symbolic Z-matrix:
 Charge =  0 Multiplicity = 2

                         Standard orientation:
 ---------------------------------------------------------------------
 Center     Atomic      Atomic             Coordinates (Angstroms)
 Number     Number       Type             X           Y           Z
 ---------------------------------------------------------------------
      1         11           0        0.117255    0.148394    1.688221
      2         11           0        2.654038    0.234097   -0.240302
      3         11           0        0.586918    2.609099   -0.010565
      4         11           0       -2.295947    1.490340   -0.125749
      5         11           0       -2.124416   -1.639666   -0.059949
      6         11           0        0.163487   -0.438836   -1.570738
      7         11           0        0.898665   -2.403428    0.319080
 ---------------------------------------------------------------------

 SCF Done:  E(UB3LYP) =  -1136.11924970     A.U. after   18 cycles

 The electronic state is 2-A.
 Alpha  occ. eigenvalues --  -38.43473 -38.43413 -38.43412 -38.43391 -38.43378
 Alpha  occ. eigenvalues --  -38.43286 -38.43166  -2.19536  -2.19475  -2.19423
 Alpha  occ. eigenvalues --   -2.19374  -2.19369  -2.19356  -2.19305  -1.13500
 Alpha  occ. eigenvalues --   -1.13350  -1.13262  -1.13231  -1.13166  -1.13154
 Alpha  occ. eigenvalues --   -1.13138  -1.13087  -1.13052  -1.13044  -1.13029
 Alpha  occ. eigenvalues --   -1.13006  -1.12991  -1.12974  -1.12963  -1.12944
 Alpha  occ. eigenvalues --   -1.12938  -1.12928  -1.12902  -1.12872  -1.12864
 Alpha  occ. eigenvalues --   -0.20496  -0.13332  -0.13316  -0.11198
 Alpha virt. eigenvalues --   -0.04903  -0.04821  -0.04811  -0.03145  -0.03098
 Alpha virt. eigenvalues --   -0.02306  -0.01035  -0.00957   0.00020   0.00274
 Alpha virt. eigenvalues --    0.00350   0.00358   0.01008   0.01026   0.01048

  Beta  occ. eigenvalues --  -38.43456 -38.43407 -38.43400 -38.43384 -38.43369
  Beta  occ. eigenvalues --  -38.43210 -38.43080  -2.19506  -2.19411  -2.19365
  Beta  occ. eigenvalues --   -2.19363  -2.19349  -2.19332  -2.19151  -1.13458
  Beta  occ. eigenvalues --   -1.13300  -1.13200  -1.13186  -1.13152  -1.13146
  Beta  occ. eigenvalues --   -1.13104  -1.13062  -1.13020  -1.13007  -1.12977
  Beta  occ. eigenvalues --   -1.12968  -1.12962  -1.12949  -1.12944  -1.12902
  Beta  occ. eigenvalues --   -1.12886  -1.12861  -1.12848  -1.12772  -1.12768
  Beta  occ. eigenvalues --   -0.19735  -0.13014  -0.13003
  Beta virt. eigenvalues --   -0.07124  -0.04912  -0.04807  -0.04801  -0.02274
  Beta virt. eigenvalues --   -0.02232  -0.01238  -0.00967  -0.00890   0.00140
  Beta virt. eigenvalues --    0.00230   0.00300   0.00385   0.01028   0.01030

 Mulliken charges and spin densities:
               1          2
     1  Na  -0.669994   0.560974
     2  Na   0.448973  -0.011020
     3  Na   0.215131  -0.025924
     4  Na   0.021173  -0.058466
     5  Na   0.266274  -0.020162
     6  Na  -0.837696   0.531072
     7  Na   0.556139   0.023526
 Sum of Mulliken charges =  -0.00000   1.00000

 Dipole moment (field-independent basis, Debye):
    X=             -0.0889    Y=              0.1229    Z=              0.0683  Tot=              0.1664
 Quadrupole moment (field-independent basis, Debye-Ang):
   XX=            -60.3867   YY=            -61.3869   ZZ=            -73.0243
   XY=              0.1782   XZ=              0.0918   YZ=             -1.1911

 Normal termination of Gaussian 16 at Thu Dec  7 03:29:08 2023.
