 Gaussian 16, Revision B.01,
 Gaussian 16:  ES64L-G16RevB.01 20-Dec-2017

 -------------------------
 #P B3LYP/6-311+g(d) force
 -------------------------

 -----
 DPGEN
 -----
 Symbolic Z-matrix:
 Charge =  0 Multiplicity = 2

                         Standard orientation:
 ---------------------------------------------------------------------
 Center     Atomic      Atomic             Coordinates (Angstroms)
 Number     Number       Type             X           Y           Z
 ---------------------------------------------------------------------
      1         11           0        1.152766   -1.430553    2.000359
      2         11           0        1.518971    2.572076   -0.240678
      3         11           0        0.729103   -0.403834   -1.582812
      4         11           0       -1.046969    1.582253    1.105194
      5         11           0       -2.121563   -2.104256   -0.429436
      6         11           0        3.855862   -0.711589   -0.506793
      7         11           0       -4.088171    0.495902   -0.345833
 ---------------------------------------------------------------------

 SCF Done:  E(UB3LYP) =  -1136.11876427     A.U. after   23 cycles

 The electronic state is 2-A.
 Alpha  occ. eigenvalues --  -38.45258 -38.45031 -38.44540 -38.44007 -38.43911
 Alpha  occ. eigenvalues --  -38.42982 -38.42747  -2.21051  -2.20824  -2.20416
 Alpha  occ. eigenvalues --   -2.19828  -2.19722  -2.18841  -2.18629  -1.14714
 Alpha  occ. eigenvalues --   -1.14704  -1.14691  -1.14499  -1.14467  -1.14463
 Alpha  occ. eigenvalues --   -1.14100  -1.14070  -1.14053  -1.13479  -1.13463
 Alpha  occ. eigenvalues --   -1.13444  -1.13417  -1.13379  -1.13361  -1.12574
 Alpha  occ. eigenvalues --   -1.12510  -1.12467  -1.12300  -1.12279  -1.12245
 Alpha  occ. eigenvalues --   -0.17839  -0.13846  -0.11374  -0.10878
 Alpha virt. eigenvalues --   -0.07421  -0.05064  -0.04074  -0.03396  -0.03204
 Alpha virt. eigenvalues --   -0.02527  -0.02307  -0.01144  -0.00812  -0.00456
 Alpha virt. eigenvalues --   -0.00188   0.00163   0.00254   0.00692   0.00749

  Beta  occ. eigenvalues --  -38.45243 -38.45006 -38.44517 -38.43911 -38.43910
  Beta  occ. eigenvalues --  -38.42976 -38.42724  -2.21023  -2.20779  -2.20375
  Beta  occ. eigenvalues --   -2.19726  -2.19648  -2.18833  -2.18589  -1.14695
  Beta  occ. eigenvalues --   -1.14683  -1.14673  -1.14461  -1.14441  -1.14424
  Beta  occ. eigenvalues --   -1.14060  -1.14036  -1.14025  -1.13422  -1.13381
  Beta  occ. eigenvalues --   -1.13355  -1.13346  -1.13340  -1.13318  -1.12564
  Beta  occ. eigenvalues --   -1.12492  -1.12463  -1.12276  -1.12232  -1.12222
  Beta  occ. eigenvalues --   -0.17233  -0.13474  -0.11199
  Beta virt. eigenvalues --   -0.07344  -0.07014  -0.05001  -0.03587  -0.03163
  Beta virt. eigenvalues --   -0.02792  -0.02086  -0.01533  -0.01098  -0.00452
  Beta virt. eigenvalues --   -0.00397  -0.00098   0.00168   0.00412   0.00758

 Mulliken charges and spin densities:
               1          2
     1  Na  -0.227689   0.426662
     2  Na   0.049220  -0.089023
     3  Na  -0.241266   0.213052
     4  Na  -0.155377   0.166695
     5  Na   0.129449   0.071687
     6  Na   0.306521   0.126246
     7  Na   0.139142   0.084682
 Sum of Mulliken charges =  -0.00000   1.00000

 Dipole moment (field-independent basis, Debye):
    X=             -0.0142    Y=             -0.1836    Z=             -0.1206  Tot=              0.2201
 Quadrupole moment (field-independent basis, Debye-Ang):
   XX=            -47.4922   YY=            -74.9547   ZZ=            -71.6559
   XY=             -1.4506   XZ=              1.3707   YZ=             -1.2434

 Normal termination of Gaussian 16 at Sun Dec  3 17:36:13 2023.
