 Gaussian 16, Revision B.01,
 Gaussian 16:  ES64L-G16RevB.01 20-Dec-2017

 -------------------------
 #P B3LYP/6-311+g(d) force
 -------------------------

 -----
 DPGEN
 -----
 Symbolic Z-matrix:
 Charge =  0 Multiplicity = 2

                         Standard orientation:
 ---------------------------------------------------------------------
 Center     Atomic      Atomic             Coordinates (Angstroms)
 Number     Number       Type             X           Y           Z
 ---------------------------------------------------------------------
      1         11           0       -1.833840    1.561688    1.235765
      2         11           0        2.328679    2.468975   -0.084986
      3         11           0        2.819315   -1.934265   -0.931003
      4         11           0        0.318374    0.509750   -1.488459
      5         11           0        0.953314   -0.470250    1.968146
      6         11           0       -1.385317   -2.193826    0.797634
      7         11           0       -3.200525    0.057929   -1.497096
 ---------------------------------------------------------------------

 SCF Done:  E(UB3LYP) =  -1136.12737706     A.U. after   22 cycles

 The electronic state is 2-A.
 Alpha  occ. eigenvalues --  -38.44574 -38.44410 -38.44058 -38.43548 -38.43488
 Alpha  occ. eigenvalues --  -38.43450 -38.43277  -2.20347  -2.20247  -2.19890
 Alpha  occ. eigenvalues --   -2.19455  -2.19291  -2.19287  -2.19206  -1.14027
 Alpha  occ. eigenvalues --   -1.13985  -1.13968  -1.13933  -1.13905  -1.13870
 Alpha  occ. eigenvalues --   -1.13556  -1.13531  -1.13516  -1.13194  -1.13095
 Alpha  occ. eigenvalues --   -1.13076  -1.13029  -1.12960  -1.12950  -1.12949
 Alpha  occ. eigenvalues --   -1.12925  -1.12893  -1.12889  -1.12836  -1.12817
 Alpha  occ. eigenvalues --   -0.18197  -0.13173  -0.11592  -0.11282
 Alpha virt. eigenvalues --   -0.05869  -0.05330  -0.04560  -0.03123  -0.02928
 Alpha virt. eigenvalues --   -0.02778  -0.01740  -0.01146  -0.00765   0.00076
 Alpha virt. eigenvalues --    0.00212   0.00323   0.00386   0.00508   0.00751

  Beta  occ. eigenvalues --  -38.44537 -38.44380 -38.44020 -38.43493 -38.43491
  Beta  occ. eigenvalues --  -38.43442 -38.43243  -2.20280  -2.20195  -2.19820
  Beta  occ. eigenvalues --   -2.19357  -2.19297  -2.19277  -2.19147  -1.13973
  Beta  occ. eigenvalues --   -1.13940  -1.13925  -1.13895  -1.13847  -1.13837
  Beta  occ. eigenvalues --   -1.13499  -1.13484  -1.13474  -1.13136  -1.13035
  Beta  occ. eigenvalues --   -1.13019  -1.12990  -1.12950  -1.12943  -1.12923
  Beta  occ. eigenvalues --   -1.12915  -1.12890  -1.12848  -1.12791  -1.12777
  Beta  occ. eigenvalues --   -0.17445  -0.12876  -0.11129
  Beta virt. eigenvalues --   -0.07758  -0.05617  -0.05097  -0.04110  -0.03002
  Beta virt. eigenvalues --   -0.02319  -0.01977  -0.01564  -0.00989  -0.00485
  Beta virt. eigenvalues --    0.00172   0.00263   0.00351   0.00475   0.00662

 Mulliken charges and spin densities:
               1          2
     1  Na   0.018010   0.115771
     2  Na   0.176269   0.008252
     3  Na   0.109426   0.007818
     4  Na  -0.589511   0.430596
     5  Na   0.218055   0.327438
     6  Na  -0.164287   0.048848
     7  Na   0.232038   0.061277
 Sum of Mulliken charges =  -0.00000   1.00000

 Dipole moment (field-independent basis, Debye):
    X=             -0.1001    Y=             -0.1004    Z=             -0.0176  Tot=              0.1429
 Quadrupole moment (field-independent basis, Debye-Ang):
   XX=            -55.4824   YY=            -70.1915   ZZ=            -67.7810
   XY=             -0.7158   XZ=              0.5010   YZ=              5.3497

 Normal termination of Gaussian 16 at Wed Nov 29 16:32:39 2023.
