 Gaussian 16, Revision B.01,
 Gaussian 16:  ES64L-G16RevB.01 20-Dec-2017

 -------------------------
 #P B3LYP/6-311+g(d) force
 -------------------------

 -----
 DPGEN
 -----
 Symbolic Z-matrix:
 Charge =  0 Multiplicity = 2

                         Standard orientation:
 ---------------------------------------------------------------------
 Center     Atomic      Atomic             Coordinates (Angstroms)
 Number     Number       Type             X           Y           Z
 ---------------------------------------------------------------------
      1         11           0        0.542186   -1.110397   -1.321413
      2         11           0       -2.278573    1.375884   -1.206349
      3         11           0       -2.850714   -2.158914   -0.069228
      4         11           0        1.002259    2.415676   -0.342609
      5         11           0       -1.910698    0.560212    1.667578
      6         11           0        1.567047   -0.205106    1.565633
      7         11           0        3.928493   -0.877354   -0.293612
 ---------------------------------------------------------------------

 SCF Done:  E(UB3LYP) =  -1136.12358410     A.U. after   22 cycles

 The electronic state is 2-A.
 Alpha  occ. eigenvalues --  -38.44973 -38.44191 -38.44173 -38.43902 -38.43866
 Alpha  occ. eigenvalues --  -38.43336 -38.42957  -2.20795  -2.20071  -2.20044
 Alpha  occ. eigenvalues --   -2.19823  -2.19815  -2.19144  -2.18801  -1.14494
 Alpha  occ. eigenvalues --   -1.14436  -1.14432  -1.13839  -1.13791  -1.13734
 Alpha  occ. eigenvalues --   -1.13692  -1.13653  -1.13640  -1.13517  -1.13487
 Alpha  occ. eigenvalues --   -1.13461  -1.13458  -1.13429  -1.13397  -1.12816
 Alpha  occ. eigenvalues --   -1.12804  -1.12790  -1.12488  -1.12474  -1.12419
 Alpha  occ. eigenvalues --   -0.18513  -0.14112  -0.11207  -0.10978
 Alpha virt. eigenvalues --   -0.06691  -0.05216  -0.04606  -0.03182  -0.02564
 Alpha virt. eigenvalues --   -0.02466  -0.02301  -0.01056  -0.00698  -0.00190
 Alpha virt. eigenvalues --    0.00181   0.00248   0.00343   0.00641   0.00762

  Beta  occ. eigenvalues --  -38.44972 -38.44162 -38.44133 -38.43849 -38.43816
  Beta  occ. eigenvalues --  -38.43337 -38.42948  -2.20794  -2.20020  -2.19972
  Beta  occ. eigenvalues --   -2.19733  -2.19720  -2.19148  -2.18789  -1.14488
  Beta  occ. eigenvalues --   -1.14437  -1.14427  -1.13798  -1.13737  -1.13687
  Beta  occ. eigenvalues --   -1.13634  -1.13618  -1.13590  -1.13453  -1.13413
  Beta  occ. eigenvalues --   -1.13399  -1.13397  -1.13352  -1.13330  -1.12809
  Beta  occ. eigenvalues --   -1.12807  -1.12790  -1.12483  -1.12437  -1.12415
  Beta  occ. eigenvalues --   -0.17802  -0.13970  -0.11002
  Beta virt. eigenvalues --   -0.07059  -0.06528  -0.05182  -0.03895  -0.03078
  Beta virt. eigenvalues --   -0.02401  -0.01841  -0.01530  -0.00934  -0.00269
  Beta virt. eigenvalues --   -0.00190   0.00215   0.00288   0.00478   0.00714

 Mulliken charges and spin densities:
               1          2
     1  Na  -0.494013   0.409903
     2  Na   0.031940   0.245107
     3  Na  -0.041142  -0.121868
     4  Na  -0.313164   0.030960
     5  Na   0.301488   0.318022
     6  Na  -0.146347   0.141313
     7  Na   0.661238  -0.023437
 Sum of Mulliken charges =  -0.00000   1.00000

 Dipole moment (field-independent basis, Debye):
    X=              1.0060    Y=              0.1012    Z=             -0.3433  Tot=              1.0678
 Quadrupole moment (field-independent basis, Debye-Ang):
   XX=            -49.2787   YY=            -73.4156   ZZ=            -70.7994
   XY=             -1.0541   XZ=             -0.5918   YZ=             -0.5486

 Normal termination of Gaussian 16 at Thu Dec  7 19:25:40 2023.
