 Gaussian 16, Revision B.01,
 Gaussian 16:  ES64L-G16RevB.01 20-Dec-2017

 -------------------------
 #P B3LYP/6-311+g(d) force
 -------------------------

 -----
 DPGEN
 -----
 Symbolic Z-matrix:
 Charge =  0 Multiplicity = 2

                         Standard orientation:
 ---------------------------------------------------------------------
 Center     Atomic      Atomic             Coordinates (Angstroms)
 Number     Number       Type             X           Y           Z
 ---------------------------------------------------------------------
      1         11           0       -0.306903   -0.055173   -1.693252
      2         11           0       -1.602005    1.829699    0.229753
      3         11           0        0.334675    0.071300    1.873550
      4         11           0        2.449106   -0.637121   -0.231138
      5         11           0        1.314192    1.997783   -0.270086
      6         11           0        0.273997   -2.218615    0.134072
      7         11           0       -2.463063   -0.987873   -0.042899
 ---------------------------------------------------------------------

 SCF Done:  E(UB3LYP) =  -1136.09633856     A.U. after   19 cycles

 The electronic state is 2-A.
 Alpha  occ. eigenvalues --  -38.43989 -38.43828 -38.43818 -38.43625 -38.43391
 Alpha  occ. eigenvalues --  -38.43338 -38.43299  -2.20137  -2.20070  -2.19926
 Alpha  occ. eigenvalues --   -2.19660  -2.19537  -2.19415  -2.19386  -1.13990
 Alpha  occ. eigenvalues --   -1.13867  -1.13830  -1.13812  -1.13768  -1.13755
 Alpha  occ. eigenvalues --   -1.13733  -1.13591  -1.13498  -1.13374  -1.13345
 Alpha  occ. eigenvalues --   -1.13277  -1.13188  -1.13144  -1.13136  -1.13054
 Alpha  occ. eigenvalues --   -1.13041  -1.13023  -1.13022  -1.13002  -1.12898
 Alpha  occ. eigenvalues --   -0.21335  -0.13710  -0.13035  -0.12130
 Alpha virt. eigenvalues --   -0.05050  -0.04457  -0.04163  -0.03611  -0.03258
 Alpha virt. eigenvalues --   -0.02882  -0.00976  -0.00574  -0.00083   0.00370
 Alpha virt. eigenvalues --    0.00709   0.00782   0.01026   0.01131   0.01159

  Beta  occ. eigenvalues --  -38.43893 -38.43804 -38.43742 -38.43618 -38.43374
  Beta  occ. eigenvalues --  -38.43326 -38.43284  -2.19965  -2.19919  -2.19904
  Beta  occ. eigenvalues --   -2.19652  -2.19515  -2.19398  -2.19366  -1.13929
  Beta  occ. eigenvalues --   -1.13787  -1.13752  -1.13713  -1.13671  -1.13655
  Beta  occ. eigenvalues --   -1.13644  -1.13542  -1.13430  -1.13369  -1.13324
  Beta  occ. eigenvalues --   -1.13228  -1.13175  -1.13129  -1.13059  -1.13046
  Beta  occ. eigenvalues --   -1.13018  -1.13010  -1.12980  -1.12942  -1.12891
  Beta  occ. eigenvalues --   -0.20504  -0.13367  -0.12680
  Beta virt. eigenvalues --   -0.07945  -0.05061  -0.04444  -0.04158  -0.02690
  Beta virt. eigenvalues --   -0.02338  -0.01758  -0.00904  -0.00530   0.00067
  Beta virt. eigenvalues --    0.00398   0.00676   0.00744   0.01076   0.01132

 Mulliken charges and spin densities:
               1          2
     1  Na  -0.337889   0.347390
     2  Na   0.155711   0.059232
     3  Na  -0.448480   0.473175
     4  Na   0.096380  -0.009789
     5  Na   0.168465   0.025828
     6  Na   0.288354   0.100913
     7  Na   0.077459   0.003251
 Sum of Mulliken charges =  -0.00000   1.00000

 Dipole moment (field-independent basis, Debye):
    X=             -0.1324    Y=              0.1059    Z=              0.1950  Tot=              0.2584
 Quadrupole moment (field-independent basis, Debye-Ang):
   XX=            -61.1076   YY=            -67.7538   ZZ=            -68.7779
   XY=              0.3396   XZ=             -1.2011   YZ=             -0.1155

 Normal termination of Gaussian 16 at Sat Dec  9 05:24:03 2023.
