 Gaussian 16, Revision B.01,
 Gaussian 16:  ES64L-G16RevB.01 20-Dec-2017

 -------------------------
 #P B3LYP/6-311+g(d) force
 -------------------------

 -----
 DPGEN
 -----
 Symbolic Z-matrix:
 Charge =  0 Multiplicity = 2

                         Standard orientation:
 ---------------------------------------------------------------------
 Center     Atomic      Atomic             Coordinates (Angstroms)
 Number     Number       Type             X           Y           Z
 ---------------------------------------------------------------------
      1         11           0       -0.646012    1.858536    1.729169
      2         11           0       -0.470124   -2.197957    0.819602
      3         11           0        1.759700    2.092515   -0.825631
      4         11           0        1.710185   -1.518752   -1.724562
      5         11           0        2.098253   -0.854322    1.592517
      6         11           0       -0.660108    1.030069   -1.108059
      7         11           0       -3.791894   -0.410089   -0.483036
 ---------------------------------------------------------------------

 SCF Done:  E(UB3LYP) =  -1136.12087309     A.U. after   22 cycles

 The electronic state is 2-A.
 Alpha  occ. eigenvalues --  -38.44409 -38.44096 -38.44009 -38.43914 -38.43528
 Alpha  occ. eigenvalues --  -38.43340 -38.43253  -2.20281  -2.19965  -2.19909
 Alpha  occ. eigenvalues --   -2.19677  -2.19477  -2.19309  -2.19220  -1.14020
 Alpha  occ. eigenvalues --   -1.13917  -1.13869  -1.13654  -1.13639  -1.13619
 Alpha  occ. eigenvalues --   -1.13585  -1.13527  -1.13525  -1.13513  -1.13355
 Alpha  occ. eigenvalues --   -1.13334  -1.13305  -1.13092  -1.13060  -1.12967
 Alpha  occ. eigenvalues --   -1.12924  -1.12911  -1.12887  -1.12811  -1.12772
 Alpha  occ. eigenvalues --   -0.18801  -0.12615  -0.12223  -0.11805
 Alpha virt. eigenvalues --   -0.05663  -0.04728  -0.04060  -0.03783  -0.03183
 Alpha virt. eigenvalues --   -0.02914  -0.01505  -0.00777  -0.00629   0.00218
 Alpha virt. eigenvalues --    0.00322   0.00398   0.00507   0.00795   0.00904

  Beta  occ. eigenvalues --  -38.44358 -38.44048 -38.43963 -38.43910 -38.43516
  Beta  occ. eigenvalues --  -38.43328 -38.43224  -2.20188  -2.19877  -2.19828
  Beta  occ. eigenvalues --   -2.19670  -2.19458  -2.19261  -2.19200  -1.13963
  Beta  occ. eigenvalues --   -1.13838  -1.13807  -1.13599  -1.13574  -1.13559
  Beta  occ. eigenvalues --   -1.13517  -1.13502  -1.13473  -1.13444  -1.13346
  Beta  occ. eigenvalues --   -1.13329  -1.13302  -1.13074  -1.13024  -1.12921
  Beta  occ. eigenvalues --   -1.12900  -1.12870  -1.12855  -1.12803  -1.12747
  Beta  occ. eigenvalues --   -0.17984  -0.12459  -0.11954
  Beta virt. eigenvalues --   -0.07841  -0.05478  -0.04352  -0.03908  -0.03453
  Beta virt. eigenvalues --   -0.02468  -0.02088  -0.01388  -0.00688  -0.00309
  Beta virt. eigenvalues --    0.00311   0.00360   0.00411   0.00609   0.00881

 Mulliken charges and spin densities:
               1          2
     1  Na  -0.350923   0.352988
     2  Na  -0.129814   0.073237
     3  Na   0.917167  -0.107459
     4  Na  -0.300904   0.152927
     5  Na   0.194056   0.364325
     6  Na  -0.523190   0.235396
     7  Na   0.193609  -0.071413
 Sum of Mulliken charges =  -0.00000   1.00000

 Dipole moment (field-independent basis, Debye):
    X=              0.3259    Y=             -0.0981    Z=              0.3154  Tot=              0.4640
 Quadrupole moment (field-independent basis, Debye-Ang):
   XX=            -59.3498   YY=            -70.8553   ZZ=            -64.4885
   XY=              0.7769   XZ=             -0.9102   YZ=              3.3544

 Normal termination of Gaussian 16 at Thu Dec  7 09:12:48 2023.
