 Gaussian 16, Revision B.01,
 Gaussian 16:  ES64L-G16RevB.01 20-Dec-2017

 -------------------------
 #P B3LYP/6-311+g(d) force
 -------------------------

 -----
 DPGEN
 -----
 Symbolic Z-matrix:
 Charge =  0 Multiplicity = 2

                         Standard orientation:
 ---------------------------------------------------------------------
 Center     Atomic      Atomic             Coordinates (Angstroms)
 Number     Number       Type             X           Y           Z
 ---------------------------------------------------------------------
      1         11           0        0.231513   -2.957673   -0.445880
      2         11           0       -2.824388   -2.984020    0.283499
      3         11           0       -3.278452    0.613889    0.779598
      4         11           0       -0.305478    0.722871   -0.837051
      5         11           0        2.835467    0.551658   -1.580955
      6         11           0       -1.549312    4.176612    0.173942
      7         11           0        4.890651   -0.123337    1.626848
 ---------------------------------------------------------------------

 SCF Done:  E(UB3LYP) =  -1136.11264924     A.U. after   21 cycles

 The electronic state is 2-A.
 Alpha  occ. eigenvalues --  -38.45332 -38.44902 -38.44664 -38.44293 -38.43931
 Alpha  occ. eigenvalues --  -38.43766 -38.43661  -2.21057  -2.20694  -2.20453
 Alpha  occ. eigenvalues --   -2.20077  -2.19746  -2.19543  -2.19529  -1.14738
 Alpha  occ. eigenvalues --   -1.14725  -1.14674  -1.14369  -1.14366  -1.14324
 Alpha  occ. eigenvalues --   -1.14153  -1.14136  -1.14035  -1.13713  -1.13711
 Alpha  occ. eigenvalues --   -1.13674  -1.13414  -1.13408  -1.13384  -1.13290
 Alpha  occ. eigenvalues --   -1.13228  -1.13206  -1.13192  -1.13177  -1.13112
 Alpha  occ. eigenvalues --   -0.16426  -0.13212  -0.12613  -0.10651
 Alpha virt. eigenvalues --   -0.07106  -0.05499  -0.04566  -0.03802  -0.02614
 Alpha virt. eigenvalues --   -0.02249  -0.01906  -0.01746  -0.01395  -0.01052
 Alpha virt. eigenvalues --   -0.00368   0.00068   0.00110   0.00257   0.00490

  Beta  occ. eigenvalues --  -38.45336 -38.44890 -38.44637 -38.44160 -38.43924
  Beta  occ. eigenvalues --  -38.43777 -38.43631  -2.21064  -2.20673  -2.20402
  Beta  occ. eigenvalues --   -2.19829  -2.19734  -2.19570  -2.19475  -1.14743
  Beta  occ. eigenvalues --   -1.14728  -1.14679  -1.14354  -1.14354  -1.14307
  Beta  occ. eigenvalues --   -1.14120  -1.14102  -1.13994  -1.13544  -1.13542
  Beta  occ. eigenvalues --   -1.13510  -1.13405  -1.13398  -1.13372  -1.13283
  Beta  occ. eigenvalues --   -1.13222  -1.13204  -1.13187  -1.13147  -1.13069
  Beta  occ. eigenvalues --   -0.16064  -0.12665  -0.12382
  Beta virt. eigenvalues --   -0.07122  -0.06687  -0.05259  -0.04186  -0.03571
  Beta virt. eigenvalues --   -0.02524  -0.01939  -0.01773  -0.01271  -0.01121
  Beta virt. eigenvalues --   -0.00889   0.00093   0.00163   0.00321   0.00499

 Mulliken charges and spin densities:
               1          2
     1  Na   0.347928   0.000742
     2  Na  -0.142961   0.030164
     3  Na   1.074136   0.283154
     4  Na  -1.892866   0.084407
     5  Na  -0.118496  -0.125719
     6  Na   0.646604  -0.000566
     7  Na   0.085654   0.727819
 Sum of Mulliken charges =  -0.00000   1.00000

 Dipole moment (field-independent basis, Debye):
    X=             -1.4318    Y=              0.5355    Z=              0.0414  Tot=              1.5292
 Quadrupole moment (field-independent basis, Debye-Ang):
   XX=            -73.2407   YY=            -53.4183   ZZ=            -71.7910
   XY=             -1.2125   XZ=             -3.5932   YZ=              0.0342

 Normal termination of Gaussian 16 at Tue Nov 28 19:37:28 2023.
