 Gaussian 16, Revision B.01,
 Gaussian 16:  ES64L-G16RevB.01 20-Dec-2017

 -------------------------
 #P B3LYP/6-311+g(d) force
 -------------------------

 -----
 DPGEN
 -----
 Symbolic Z-matrix:
 Charge =  0 Multiplicity = 2

                         Standard orientation:
 ---------------------------------------------------------------------
 Center     Atomic      Atomic             Coordinates (Angstroms)
 Number     Number       Type             X           Y           Z
 ---------------------------------------------------------------------
      1         11           0        2.699600   -2.328177   -0.132284
      2         11           0        1.371864    0.291939   -1.563224
      3         11           0        0.954218    0.030625    2.189436
      4         11           0       -0.814824   -2.226522   -0.288928
      5         11           0       -1.728627    1.526920   -0.492534
      6         11           0        1.590006    3.125430    0.087690
      7         11           0       -4.072237   -0.420216    0.199845
 ---------------------------------------------------------------------

 SCF Done:  E(UB3LYP) =  -1136.13241161     A.U. after   19 cycles

 The electronic state is 2-A.
 Alpha  occ. eigenvalues --  -38.44199 -38.44154 -38.44067 -38.43815 -38.43667
 Alpha  occ. eigenvalues --  -38.43556 -38.43230  -2.20019  -2.19960  -2.19896
 Alpha  occ. eigenvalues --   -2.19655  -2.19529  -2.19370  -2.19167  -1.13732
 Alpha  occ. eigenvalues --   -1.13714  -1.13662  -1.13621  -1.13613  -1.13585
 Alpha  occ. eigenvalues --   -1.13584  -1.13547  -1.13520  -1.13316  -1.13290
 Alpha  occ. eigenvalues --   -1.13258  -1.13236  -1.13210  -1.13126  -1.13061
 Alpha  occ. eigenvalues --   -1.13022  -1.13010  -1.12863  -1.12819  -1.12755
 Alpha  occ. eigenvalues --   -0.18044  -0.13161  -0.12434  -0.10609
 Alpha virt. eigenvalues --   -0.06215  -0.05279  -0.04612  -0.03044  -0.02907
 Alpha virt. eigenvalues --   -0.02606  -0.02001  -0.01544  -0.00447  -0.00261
 Alpha virt. eigenvalues --   -0.00089   0.00201   0.00674   0.00756   0.00838

  Beta  occ. eigenvalues --  -38.44191 -38.44158 -38.44063 -38.43709 -38.43659
  Beta  occ. eigenvalues --  -38.43556 -38.43174  -2.20008  -2.19968  -2.19891
  Beta  occ. eigenvalues --   -2.19515  -2.19459  -2.19373  -2.19066  -1.13726
  Beta  occ. eigenvalues --   -1.13682  -1.13668  -1.13620  -1.13615  -1.13588
  Beta  occ. eigenvalues --   -1.13579  -1.13523  -1.13517  -1.13224  -1.13188
  Beta  occ. eigenvalues --   -1.13179  -1.13158  -1.13122  -1.13117  -1.13060
  Beta  occ. eigenvalues --   -1.13014  -1.13006  -1.12793  -1.12747  -1.12680
  Beta  occ. eigenvalues --   -0.17356  -0.13030  -0.12244
  Beta virt. eigenvalues --   -0.06618  -0.06064  -0.05253  -0.04536  -0.02464
  Beta virt. eigenvalues --   -0.02216  -0.01967  -0.01568  -0.01478  -0.00414
  Beta virt. eigenvalues --   -0.00177   0.00115   0.00266   0.00754   0.00842

 Mulliken charges and spin densities:
               1          2
     1  Na   0.479981   0.131508
     2  Na   0.182775   0.186150
     3  Na  -0.419626   0.649293
     4  Na  -0.290569   0.053621
     5  Na  -0.534259   0.030631
     6  Na   0.207931  -0.002253
     7  Na   0.373768  -0.048950
 Sum of Mulliken charges =  -0.00000   1.00000

 Dipole moment (field-independent basis, Debye):
    X=             -0.0711    Y=             -0.3667    Z=              0.1686  Tot=              0.4098
 Quadrupole moment (field-independent basis, Debye-Ang):
   XX=            -54.7766   YY=            -62.7756   ZZ=            -75.4702
   XY=              0.3634   XZ=             -0.9973   YZ=              0.3897

 Normal termination of Gaussian 16 at Fri Dec  8 04:51:41 2023.
