 Gaussian 16, Revision B.01,
 Gaussian 16:  ES64L-G16RevB.01 20-Dec-2017

 -------------------------
 #P B3LYP/6-311+g(d) force
 -------------------------

 -----
 DPGEN
 -----
 Symbolic Z-matrix:
 Charge =  0 Multiplicity = 2

                         Standard orientation:
 ---------------------------------------------------------------------
 Center     Atomic      Atomic             Coordinates (Angstroms)
 Number     Number       Type             X           Y           Z
 ---------------------------------------------------------------------
      1         11           0        3.103608    2.125032    1.116177
      2         11           0       -1.488343   -1.736298    0.493776
      3         11           0       -2.743511    1.975978   -0.623354
      4         11           0        3.863903   -1.412898   -0.329453
      5         11           0        0.851488    3.317615   -0.613908
      6         11           0       -4.954210   -0.745517    0.408878
      7         11           0        1.367065   -3.523913   -0.452115
 ---------------------------------------------------------------------

 SCF Done:  E(UB3LYP) =  -1136.11299484     A.U. after   23 cycles

 The electronic state is 2-A.
 Alpha  occ. eigenvalues --  -38.45434 -38.45355 -38.45034 -38.44069 -38.44046
 Alpha  occ. eigenvalues --  -38.43694 -38.43512  -2.21197  -2.21115  -2.20799
 Alpha  occ. eigenvalues --   -2.19878  -2.19848  -2.19500  -2.19330  -1.14897
 Alpha  occ. eigenvalues --   -1.14887  -1.14809  -1.14797  -1.14790  -1.14716
 Alpha  occ. eigenvalues --   -1.14481  -1.14464  -1.14432  -1.13554  -1.13535
 Alpha  occ. eigenvalues --   -1.13530  -1.13512  -1.13484  -1.13482  -1.13168
 Alpha  occ. eigenvalues --   -1.13162  -1.13128  -1.12988  -1.12984  -1.12982
 Alpha  occ. eigenvalues --   -0.15872  -0.13872  -0.13132  -0.10429
 Alpha virt. eigenvalues --   -0.07474  -0.05406  -0.04224  -0.03695  -0.03056
 Alpha virt. eigenvalues --   -0.02702  -0.02109  -0.01636  -0.01282  -0.00732
 Alpha virt. eigenvalues --   -0.00438  -0.00256   0.00140   0.00468   0.00536

  Beta  occ. eigenvalues --  -38.45411 -38.45321 -38.45023 -38.44035 -38.44005
  Beta  occ. eigenvalues --  -38.43684 -38.43492  -2.21160  -2.21057  -2.20778
  Beta  occ. eigenvalues --   -2.19827  -2.19757  -2.19483  -2.19293  -1.14875
  Beta  occ. eigenvalues --   -1.14862  -1.14774  -1.14757  -1.14741  -1.14643
  Beta  occ. eigenvalues --   -1.14468  -1.14451  -1.14409  -1.13550  -1.13497
  Beta  occ. eigenvalues --   -1.13458  -1.13450  -1.13446  -1.13408  -1.13160
  Beta  occ. eigenvalues --   -1.13151  -1.13100  -1.12967  -1.12962  -1.12947
  Beta  occ. eigenvalues --   -0.15373  -0.13467  -0.12821
  Beta virt. eigenvalues --   -0.07265  -0.07019  -0.04909  -0.03927  -0.03431
  Beta virt. eigenvalues --   -0.02668  -0.02493  -0.01873  -0.01446  -0.01146
  Beta virt. eigenvalues --   -0.00435  -0.00146  -0.00059   0.00330   0.00558

 Mulliken charges and spin densities:
               1          2
     1  Na   0.016132   0.113633
     2  Na  -1.136658   0.204038
     3  Na   0.171890   0.221509
     4  Na  -0.323746   0.118621
     5  Na  -0.356882  -0.033268
     6  Na   0.682161   0.390066
     7  Na   0.947102  -0.014600
 Sum of Mulliken charges =  -0.00000   1.00000

 Dipole moment (field-independent basis, Debye):
    X=             -0.7349    Y=             -0.3798    Z=             -0.0499  Tot=              0.8287
 Quadrupole moment (field-independent basis, Debye-Ang):
   XX=            -60.9484   YY=            -68.3713   ZZ=            -70.5977
   XY=             -3.2491   XZ=             -0.1144   YZ=             -0.3690

 Normal termination of Gaussian 16 at Mon Dec  4 02:45:07 2023.
