 Gaussian 16, Revision B.01,
 Gaussian 16:  ES64L-G16RevB.01 20-Dec-2017

 -------------------------
 #P B3LYP/6-311+g(d) force
 -------------------------

 -----
 DPGEN
 -----
 Symbolic Z-matrix:
 Charge =  0 Multiplicity = 2

                         Standard orientation:
 ---------------------------------------------------------------------
 Center     Atomic      Atomic             Coordinates (Angstroms)
 Number     Number       Type             X           Y           Z
 ---------------------------------------------------------------------
      1         11           0       -1.761611   -2.726168    0.624304
      2         11           0       -0.836276    3.149562    0.174444
      3         11           0        2.504903    1.584751   -0.104716
      4         11           0        3.950717   -1.469188   -0.490667
      5         11           0       -3.490545    0.162880   -0.745154
      6         11           0       -0.418129   -0.576560   -1.743579
      7         11           0        0.050941   -0.125277    2.285368
 ---------------------------------------------------------------------

 SCF Done:  E(UB3LYP) =  -1136.12225429     A.U. after   22 cycles

 The electronic state is 2-A.
 Alpha  occ. eigenvalues --  -38.44958 -38.44953 -38.44669 -38.44108 -38.43857
 Alpha  occ. eigenvalues --  -38.43730 -38.42934  -2.20775  -2.20759  -2.20480
 Alpha  occ. eigenvalues --   -2.19868  -2.19677  -2.19539  -2.18704  -1.14480
 Alpha  occ. eigenvalues --   -1.14457  -1.14422  -1.14413  -1.14380  -1.14358
 Alpha  occ. eigenvalues --   -1.14135  -1.14122  -1.14084  -1.13533  -1.13531
 Alpha  occ. eigenvalues --   -1.13504  -1.13349  -1.13341  -1.13305  -1.13237
 Alpha  occ. eigenvalues --   -1.13223  -1.13144  -1.12385  -1.12362  -1.12355
 Alpha  occ. eigenvalues --   -0.17382  -0.13265  -0.11546  -0.11118
 Alpha virt. eigenvalues --   -0.06485  -0.05270  -0.04813  -0.03390  -0.03008
 Alpha virt. eigenvalues --   -0.02639  -0.02204  -0.01318  -0.00858  -0.00409
 Alpha virt. eigenvalues --   -0.00191   0.00144   0.00523   0.00597   0.00717

  Beta  occ. eigenvalues --  -38.44929 -38.44919 -38.44565 -38.44096 -38.43837
  Beta  occ. eigenvalues --  -38.43728 -38.42940  -2.20713  -2.20707  -2.20288
  Beta  occ. eigenvalues --   -2.19847  -2.19643  -2.19538  -2.18716  -1.14436
  Beta  occ. eigenvalues --   -1.14405  -1.14380  -1.14373  -1.14345  -1.14318
  Beta  occ. eigenvalues --   -1.14008  -1.13994  -1.13937  -1.13520  -1.13514
  Beta  occ. eigenvalues --   -1.13491  -1.13330  -1.13310  -1.13267  -1.13231
  Beta  occ. eigenvalues --   -1.13222  -1.13138  -1.12392  -1.12371  -1.12357
  Beta  occ. eigenvalues --   -0.16701  -0.13011  -0.11265
  Beta virt. eigenvalues --   -0.07410  -0.06242  -0.05075  -0.04638  -0.02890
  Beta virt. eigenvalues --   -0.02349  -0.02015  -0.01870  -0.01289  -0.00738
  Beta virt. eigenvalues --   -0.00354  -0.00072   0.00226   0.00600   0.00750

 Mulliken charges and spin densities:
               1          2
     1  Na  -0.147028   0.131263
     2  Na  -0.276339  -0.030063
     3  Na  -0.090341   0.040150
     4  Na   0.040500   0.061383
     5  Na   0.238967   0.103418
     6  Na   0.150447   0.233923
     7  Na   0.083794   0.459927
 Sum of Mulliken charges =  -0.00000   1.00000

 Dipole moment (field-independent basis, Debye):
    X=             -0.8535    Y=             -0.6326    Z=             -0.0074  Tot=              1.0624
 Quadrupole moment (field-independent basis, Debye-Ang):
   XX=            -57.9992   YY=            -67.8464   ZZ=            -71.5039
   XY=             -0.8493   XZ=              0.2130   YZ=             -0.5764

 Normal termination of Gaussian 16 at Sun Dec  3 20:47:41 2023.
