 Gaussian 16, Revision B.01,
 Gaussian 16:  ES64L-G16RevB.01 20-Dec-2017

 -------------------------
 #P B3LYP/6-311+g(d) force
 -------------------------

 -----
 DPGEN
 -----
 Symbolic Z-matrix:
 Charge =  0 Multiplicity = 2

                         Standard orientation:
 ---------------------------------------------------------------------
 Center     Atomic      Atomic             Coordinates (Angstroms)
 Number     Number       Type             X           Y           Z
 ---------------------------------------------------------------------
      1         11           0       -1.982979    2.796440   -0.178352
      2         11           0        2.053083   -2.130605   -0.915154
      3         11           0        3.307093    0.160411    1.060640
      4         11           0        1.396725    2.979301   -0.747455
      5         11           0       -3.703651   -0.944292    0.532109
      6         11           0       -0.253413   -1.076830    2.192001
      7         11           0       -0.816858   -1.784427   -1.943790
 ---------------------------------------------------------------------

 SCF Done:  E(UB3LYP) =  -1136.11662395     A.U. after   20 cycles

 The electronic state is 2-A.
 Alpha  occ. eigenvalues --  -38.45305 -38.44669 -38.44439 -38.44438 -38.44136
 Alpha  occ. eigenvalues --  -38.43982 -38.43617  -2.21069  -2.20416  -2.20266
 Alpha  occ. eigenvalues --   -2.20237  -2.19882  -2.19842  -2.19377  -1.14742
 Alpha  occ. eigenvalues --   -1.14721  -1.14671  -1.14087  -1.14074  -1.14058
 Alpha  occ. eigenvalues --   -1.13980  -1.13919  -1.13909  -1.13889  -1.13874
 Alpha  occ. eigenvalues --   -1.13868  -1.13566  -1.13552  -1.13518  -1.13511
 Alpha  occ. eigenvalues --   -1.13488  -1.13466  -1.13055  -1.13041  -1.13012
 Alpha  occ. eigenvalues --   -0.16843  -0.12947  -0.12364  -0.11274
 Alpha virt. eigenvalues --   -0.06504  -0.05794  -0.04561  -0.03703  -0.03261
 Alpha virt. eigenvalues --   -0.02548  -0.02053  -0.01113  -0.00923  -0.00519
 Alpha virt. eigenvalues --   -0.00300   0.00044   0.00285   0.00339   0.00709

  Beta  occ. eigenvalues --  -38.45232 -38.44663 -38.44421 -38.44364 -38.44132
  Beta  occ. eigenvalues --  -38.43954 -38.43612  -2.20933  -2.20407  -2.20203
  Beta  occ. eigenvalues --   -2.20133  -2.19875  -2.19797  -2.19369  -1.14651
  Beta  occ. eigenvalues --   -1.14631  -1.14567  -1.14074  -1.14068  -1.14053
  Beta  occ. eigenvalues --   -1.13901  -1.13883  -1.13863  -1.13847  -1.13821
  Beta  occ. eigenvalues --   -1.13769  -1.13560  -1.13548  -1.13504  -1.13477
  Beta  occ. eigenvalues --   -1.13464  -1.13410  -1.13048  -1.13037  -1.13005
  Beta  occ. eigenvalues --   -0.16167  -0.12818  -0.11906
  Beta virt. eigenvalues --   -0.07617  -0.06210  -0.05791  -0.04017  -0.03400
  Beta virt. eigenvalues --   -0.02604  -0.02030  -0.01817  -0.01091  -0.00873
  Beta virt. eigenvalues --   -0.00262  -0.00218   0.00249   0.00345   0.00491

 Mulliken charges and spin densities:
               1          2
     1  Na  -0.067340   0.021769
     2  Na   0.201892   0.046717
     3  Na   0.196324   0.188209
     4  Na  -0.133765  -0.017502
     5  Na   0.254680   0.053674
     6  Na  -0.314806   0.366917
     7  Na  -0.136986   0.340216
 Sum of Mulliken charges =  -0.00000   1.00000

 Dipole moment (field-independent basis, Debye):
    X=             -0.3219    Y=             -0.6180    Z=              0.4292  Tot=              0.8184
 Quadrupole moment (field-independent basis, Debye-Ang):
   XX=            -54.7974   YY=            -74.8668   ZZ=            -70.0788
   XY=              0.7041   XZ=              0.7480   YZ=              0.0926

 Normal termination of Gaussian 16 at Sun Dec  3 18:17:32 2023.
