 Gaussian 16, Revision B.01,
 Gaussian 16:  ES64L-G16RevB.01 20-Dec-2017

 -------------------------
 #P B3LYP/6-311+g(d) force
 -------------------------

 -----
 DPGEN
 -----
 Symbolic Z-matrix:
 Charge =  0 Multiplicity = 2

                         Standard orientation:
 ---------------------------------------------------------------------
 Center     Atomic      Atomic             Coordinates (Angstroms)
 Number     Number       Type             X           Y           Z
 ---------------------------------------------------------------------
      1         11           0       -0.663013    2.790239    0.047326
      2         11           0        2.761049    1.497445    0.010754
      3         11           0        2.494740   -2.067504   -0.635003
      4         11           0       -0.176756   -0.012299   -1.437845
      5         11           0       -1.597413   -2.172993    0.540539
      6         11           0        0.822644   -0.162872    1.694307
      7         11           0       -3.641251    0.127985   -0.220078
 ---------------------------------------------------------------------

 SCF Done:  E(UB3LYP) =  -1136.12969576     A.U. after   22 cycles

 The electronic state is 2-A.
 Alpha  occ. eigenvalues --  -38.44864 -38.44404 -38.43692 -38.43404 -38.43231
 Alpha  occ. eigenvalues --  -38.43210 -38.43013  -2.20666  -2.20272  -2.19528
 Alpha  occ. eigenvalues --   -2.19294  -2.19229  -2.19043  -2.19006  -1.14346
 Alpha  occ. eigenvalues --   -1.14331  -1.14296  -1.13995  -1.13927  -1.13879
 Alpha  occ. eigenvalues --   -1.13197  -1.13183  -1.13168  -1.13029  -1.12961
 Alpha  occ. eigenvalues --   -1.12951  -1.12919  -1.12879  -1.12829  -1.12718
 Alpha  occ. eigenvalues --   -1.12713  -1.12677  -1.12659  -1.12654  -1.12588
 Alpha  occ. eigenvalues --   -0.18723  -0.13620  -0.12069  -0.10267
 Alpha virt. eigenvalues --   -0.06455  -0.05301  -0.04320  -0.03204  -0.02516
 Alpha virt. eigenvalues --   -0.02161  -0.01915  -0.01296  -0.00595  -0.00178
 Alpha virt. eigenvalues --   -0.00019   0.00268   0.00698   0.00760   0.00851

  Beta  occ. eigenvalues --  -38.44865 -38.44394 -38.43668 -38.43386 -38.43209
  Beta  occ. eigenvalues --  -38.43181 -38.42936  -2.20670  -2.20259  -2.19486
  Beta  occ. eigenvalues --   -2.19264  -2.19138  -2.19044  -2.18866  -1.14349
  Beta  occ. eigenvalues --   -1.14326  -1.14298  -1.13977  -1.13904  -1.13868
  Beta  occ. eigenvalues --   -1.13161  -1.13152  -1.13132  -1.12998  -1.12910
  Beta  occ. eigenvalues --   -1.12904  -1.12890  -1.12828  -1.12763  -1.12704
  Beta  occ. eigenvalues --   -1.12696  -1.12652  -1.12584  -1.12554  -1.12490
  Beta  occ. eigenvalues --   -0.18052  -0.13401  -0.11789
  Beta virt. eigenvalues --   -0.06453  -0.06342  -0.05228  -0.04239  -0.02568
  Beta virt. eigenvalues --   -0.02081  -0.01819  -0.01218  -0.00981  -0.00557
  Beta virt. eigenvalues --   -0.00165   0.00135   0.00329   0.00777   0.00813

 Mulliken charges and spin densities:
               1          2
     1  Na  -0.224537  -0.117918
     2  Na   0.281343   0.078609
     3  Na  -0.054578   0.103202
     4  Na  -0.221305   0.515898
     5  Na   0.178541  -0.003239
     6  Na   0.067061   0.476531
     7  Na  -0.026527  -0.053083
 Sum of Mulliken charges =  -0.00000   1.00000

 Dipole moment (field-independent basis, Debye):
    X=             -0.2361    Y=              0.1925    Z=             -0.0118  Tot=              0.3048
 Quadrupole moment (field-independent basis, Debye-Ang):
   XX=            -48.7117   YY=            -65.6904   ZZ=            -76.5396
   XY=             -0.4502   XZ=             -0.9882   YZ=              0.5203

 Normal termination of Gaussian 16 at Tue Nov 28 20:09:53 2023.
