 Gaussian 16, Revision B.01,
 Gaussian 16:  ES64L-G16RevB.01 20-Dec-2017

 -------------------------
 #P B3LYP/6-311+g(d) force
 -------------------------

 -----
 DPGEN
 -----
 Symbolic Z-matrix:
 Charge =  0 Multiplicity = 2

                         Standard orientation:
 ---------------------------------------------------------------------
 Center     Atomic      Atomic             Coordinates (Angstroms)
 Number     Number       Type             X           Y           Z
 ---------------------------------------------------------------------
      1         11           0        0.813512    1.780742    0.091240
      2         11           0        4.094813    0.936614   -0.829530
      3         11           0       -0.103709   -1.437118   -1.260960
      4         11           0        2.546029   -1.571412    0.791874
      5         11           0       -2.918550    2.043062    0.070302
      6         11           0       -3.402046   -1.149308   -1.075913
      7         11           0       -1.030049   -0.602579    2.212987
 ---------------------------------------------------------------------

 SCF Done:  E(UB3LYP) =  -1136.12025882     A.U. after   27 cycles

 The electronic state is 2-A.
 Alpha  occ. eigenvalues --  -38.44677 -38.44442 -38.44327 -38.44316 -38.43857
 Alpha  occ. eigenvalues --  -38.43802 -38.43665  -2.20503  -2.20279  -2.20152
 Alpha  occ. eigenvalues --   -2.20138  -2.19676  -2.19657  -2.19461  -1.14177
 Alpha  occ. eigenvalues --   -1.14140  -1.14106  -1.13947  -1.13914  -1.13908
 Alpha  occ. eigenvalues --   -1.13845  -1.13830  -1.13820  -1.13791  -1.13778
 Alpha  occ. eigenvalues --   -1.13738  -1.13408  -1.13366  -1.13339  -1.13301
 Alpha  occ. eigenvalues --   -1.13296  -1.13269  -1.13136  -1.13121  -1.13105
 Alpha  occ. eigenvalues --   -0.17927  -0.14211  -0.11232  -0.10967
 Alpha virt. eigenvalues --   -0.06958  -0.05813  -0.04455  -0.03151  -0.02838
 Alpha virt. eigenvalues --   -0.02495  -0.02336  -0.01481  -0.01063  -0.00438
 Alpha virt. eigenvalues --   -0.00008   0.00188   0.00339   0.00498   0.00579

  Beta  occ. eigenvalues --  -38.44595 -38.44381 -38.44312 -38.44296 -38.43854
  Beta  occ. eigenvalues --  -38.43791 -38.43660  -2.20352  -2.20167  -2.20147
  Beta  occ. eigenvalues --   -2.20080  -2.19673  -2.19640  -2.19454  -1.14066
  Beta  occ. eigenvalues --   -1.14040  -1.13996  -1.13865  -1.13842  -1.13839
  Beta  occ. eigenvalues --   -1.13831  -1.13820  -1.13794  -1.13752  -1.13742
  Beta  occ. eigenvalues --   -1.13709  -1.13409  -1.13348  -1.13330  -1.13290
  Beta  occ. eigenvalues --   -1.13267  -1.13260  -1.13131  -1.13115  -1.13088
  Beta  occ. eigenvalues --   -0.17329  -0.13750  -0.10773
  Beta virt. eigenvalues --   -0.07565  -0.06681  -0.05641  -0.03904  -0.02959
  Beta virt. eigenvalues --   -0.02628  -0.01931  -0.01682  -0.01423  -0.00602
  Beta virt. eigenvalues --   -0.00345   0.00052   0.00211   0.00473   0.00582

 Mulliken charges and spin densities:
               1          2
     1  Na  -0.795955  -0.056734
     2  Na   0.485291   0.164706
     3  Na  -0.324959   0.104601
     4  Na   0.516946   0.132407
     5  Na  -0.030603   0.058483
     6  Na   0.148233   0.213261
     7  Na   0.001046   0.383275
 Sum of Mulliken charges =  -0.00000   1.00000

 Dipole moment (field-independent basis, Debye):
    X=              0.2402    Y=             -0.6830    Z=              0.5448  Tot=              0.9061
 Quadrupole moment (field-independent basis, Debye-Ang):
   XX=            -51.8551   YY=            -77.5425   ZZ=            -67.5926
   XY=             -1.4467   XZ=             -1.5618   YZ=             -2.8644

 Normal termination of Gaussian 16 at Thu Dec  7 14:51:00 2023.
