 Gaussian 16, Revision B.01,
 Gaussian 16:  ES64L-G16RevB.01 20-Dec-2017

 -------------------------
 #P B3LYP/6-311+g(d) force
 -------------------------

 -----
 DPGEN
 -----
 Symbolic Z-matrix:
 Charge =  0 Multiplicity = 2

                         Standard orientation:
 ---------------------------------------------------------------------
 Center     Atomic      Atomic             Coordinates (Angstroms)
 Number     Number       Type             X           Y           Z
 ---------------------------------------------------------------------
      1         11           0        0.749096    0.043815   -1.305576
      2         11           0        1.900061    2.856922    0.052414
      3         11           0       -0.273376   -2.803890   -0.990811
      4         11           0       -0.279793    0.155652    1.846703
      5         11           0       -1.549561    2.156454   -0.785956
      6         11           0        2.976576   -1.743083    0.626944
      7         11           0       -3.523004   -0.665869    0.556283
 ---------------------------------------------------------------------

 SCF Done:  E(UB3LYP) =  -1136.12905461     A.U. after   20 cycles

 The electronic state is 2-A.
 Alpha  occ. eigenvalues --  -38.44298 -38.43930 -38.43896 -38.43853 -38.43807
 Alpha  occ. eigenvalues --  -38.43797 -38.42859  -2.20081  -2.19734  -2.19731
 Alpha  occ. eigenvalues --   -2.19717  -2.19673  -2.19584  -2.18894  -1.13756
 Alpha  occ. eigenvalues --   -1.13735  -1.13712  -1.13469  -1.13450  -1.13416
 Alpha  occ. eigenvalues --   -1.13403  -1.13387  -1.13377  -1.13369  -1.13363
 Alpha  occ. eigenvalues --   -1.13326  -1.13304  -1.13302  -1.13283  -1.13249
 Alpha  occ. eigenvalues --   -1.13241  -1.13214  -1.12588  -1.12541  -1.12511
 Alpha  occ. eigenvalues --   -0.18166  -0.12730  -0.12338  -0.10530
 Alpha virt. eigenvalues --   -0.05762  -0.05547  -0.04586  -0.03096  -0.02837
 Alpha virt. eigenvalues --   -0.02261  -0.01757  -0.01557  -0.00588  -0.00212
 Alpha virt. eigenvalues --    0.00033   0.00298   0.00660   0.00728   0.00789

  Beta  occ. eigenvalues --  -38.44285 -38.43934 -38.43860 -38.43834 -38.43802
  Beta  occ. eigenvalues --  -38.43727 -38.42810  -2.20058  -2.19742  -2.19686
  Beta  occ. eigenvalues --   -2.19668  -2.19576  -2.19545  -2.18809  -1.13740
  Beta  occ. eigenvalues --   -1.13713  -1.13694  -1.13428  -1.13419  -1.13413
  Beta  occ. eigenvalues --   -1.13390  -1.13373  -1.13349  -1.13317  -1.13292
  Beta  occ. eigenvalues --   -1.13287  -1.13283  -1.13247  -1.13233  -1.13221
  Beta  occ. eigenvalues --   -1.13215  -1.13163  -1.12535  -1.12454  -1.12448
  Beta  occ. eigenvalues --   -0.17483  -0.12474  -0.12110
  Beta virt. eigenvalues --   -0.06785  -0.05532  -0.05483  -0.04490  -0.02500
  Beta virt. eigenvalues --   -0.02262  -0.01587  -0.01502  -0.01338  -0.00426
  Beta virt. eigenvalues --   -0.00198   0.00132   0.00346   0.00730   0.00801

 Mulliken charges and spin densities:
               1          2
     1  Na   0.473277   0.183853
     2  Na  -0.038691   0.036543
     3  Na  -0.063495  -0.024689
     4  Na  -0.271345   0.656238
     5  Na  -0.016799  -0.018151
     6  Na  -0.126024   0.151052
     7  Na   0.043078   0.015154
 Sum of Mulliken charges =  -0.00000   1.00000

 Dipole moment (field-independent basis, Debye):
    X=              0.3169    Y=              0.0635    Z=              0.2764  Tot=              0.4253
 Quadrupole moment (field-independent basis, Debye-Ang):
   XX=            -55.9905   YY=            -60.4879   ZZ=            -74.6944
   XY=              1.2583   XZ=              2.9654   YZ=             -0.3356

 Normal termination of Gaussian 16 at Fri Dec  8 07:10:19 2023.
