 Gaussian 16, Revision B.01,
 Gaussian 16:  ES64L-G16RevB.01 20-Dec-2017

 -------------------------
 #P B3LYP/6-311+g(d) force
 -------------------------

 -----
 DPGEN
 -----
 Symbolic Z-matrix:
 Charge =  0 Multiplicity = 2

                         Standard orientation:
 ---------------------------------------------------------------------
 Center     Atomic      Atomic             Coordinates (Angstroms)
 Number     Number       Type             X           Y           Z
 ---------------------------------------------------------------------
      1         11           0       -3.427437   -0.603678   -0.924790
      2         11           0        0.039955    0.604658   -1.462984
      3         11           0       -1.696874    2.645491    0.445137
      4         11           0        1.311562    0.022422    1.785612
      5         11           0        1.768448   -2.152623   -0.530268
      6         11           0        3.834392    0.923028   -0.441752
      7         11           0       -1.830046   -1.439297    1.129045
 ---------------------------------------------------------------------

 SCF Done:  E(UB3LYP) =  -1136.11460550     A.U. after   34 cycles

 The electronic state is 2-A.
 Alpha  occ. eigenvalues --  -38.45573 -38.44902 -38.44012 -38.44009 -38.43593
 Alpha  occ. eigenvalues --  -38.43529 -38.43104  -2.21355  -2.20774  -2.19905
 Alpha  occ. eigenvalues --   -2.19865  -2.19517  -2.19437  -2.18901  -1.15031
 Alpha  occ. eigenvalues --   -1.15002  -1.14974  -1.14596  -1.14403  -1.14349
 Alpha  occ. eigenvalues --   -1.13632  -1.13597  -1.13553  -1.13538  -1.13513
 Alpha  occ. eigenvalues --   -1.13460  -1.13205  -1.13155  -1.13135  -1.13127
 Alpha  occ. eigenvalues --   -1.13069  -1.13042  -1.12579  -1.12562  -1.12541
 Alpha  occ. eigenvalues --   -0.18404  -0.14126  -0.10993  -0.10735
 Alpha virt. eigenvalues --   -0.07298  -0.05145  -0.04568  -0.03051  -0.02895
 Alpha virt. eigenvalues --   -0.02423  -0.02151  -0.01066  -0.00855  -0.00422
 Alpha virt. eigenvalues --    0.00088   0.00110   0.00279   0.00630   0.00744

  Beta  occ. eigenvalues --  -38.45546 -38.44888 -38.43993 -38.43986 -38.43521
  Beta  occ. eigenvalues --  -38.43516 -38.43107  -2.21305  -2.20746  -2.19871
  Beta  occ. eigenvalues --   -2.19826  -2.19428  -2.19377  -2.18907  -1.14988
  Beta  occ. eigenvalues --   -1.14968  -1.14941  -1.14587  -1.14374  -1.14334
  Beta  occ. eigenvalues --   -1.13607  -1.13558  -1.13519  -1.13501  -1.13488
  Beta  occ. eigenvalues --   -1.13423  -1.13120  -1.13109  -1.13065  -1.13037
  Beta  occ. eigenvalues --   -1.13027  -1.13015  -1.12588  -1.12558  -1.12540
  Beta  occ. eigenvalues --   -0.17671  -0.13918  -0.10815
  Beta virt. eigenvalues --   -0.07193  -0.06881  -0.05012  -0.03974  -0.02915
  Beta virt. eigenvalues --   -0.02702  -0.01804  -0.01404  -0.00981  -0.00546
  Beta virt. eigenvalues --   -0.00266   0.00096   0.00165   0.00405   0.00717

 Mulliken charges and spin densities:
               1          2
     1  Na   0.336446   0.015105
     2  Na  -0.116895   0.099985
     3  Na  -0.387111   0.078457
     4  Na   0.111535   0.349597
     5  Na  -0.052243   0.236452
     6  Na   0.124191   0.216453
     7  Na  -0.015923   0.003952
 Sum of Mulliken charges =  -0.00000   1.00000

 Dipole moment (field-independent basis, Debye):
    X=              1.1529    Y=              0.1199    Z=             -0.2854  Tot=              1.1937
 Quadrupole moment (field-independent basis, Debye-Ang):
   XX=            -47.7003   YY=            -74.7041   ZZ=            -70.6098
   XY=              0.8560   XZ=              0.2490   YZ=              2.5053

 Normal termination of Gaussian 16 at Tue Dec  5 20:23:25 2023.
