 Gaussian 16, Revision B.01,
 Gaussian 16:  ES64L-G16RevB.01 20-Dec-2017

 -------------------------
 #P B3LYP/6-311+g(d) force
 -------------------------

 -----
 DPGEN
 -----
 Symbolic Z-matrix:
 Charge =  0 Multiplicity = 2

                         Standard orientation:
 ---------------------------------------------------------------------
 Center     Atomic      Atomic             Coordinates (Angstroms)
 Number     Number       Type             X           Y           Z
 ---------------------------------------------------------------------
      1         11           0        0.145587   -0.957416    2.056251
      2         11           0        0.165122    3.074699    0.043100
      3         11           0        2.802862    0.962875    0.235266
      4         11           0        2.563833   -2.017096   -0.620308
      5         11           0       -2.786120   -2.026544   -0.002002
      6         11           0       -2.746243    1.307885   -0.142448
      7         11           0       -0.145042   -0.344403   -1.569859
 ---------------------------------------------------------------------

 SCF Done:  E(UB3LYP) =  -1136.13254099     A.U. after   20 cycles

 The electronic state is 2-A.
 Alpha  occ. eigenvalues --  -38.44170 -38.44168 -38.44148 -38.43920 -38.43862
 Alpha  occ. eigenvalues --  -38.43580 -38.42816  -2.20040  -2.20015  -2.19965
 Alpha  occ. eigenvalues --   -2.19786  -2.19699  -2.19506  -2.18641  -1.13740
 Alpha  occ. eigenvalues --   -1.13708  -1.13705  -1.13698  -1.13687  -1.13676
 Alpha  occ. eigenvalues --   -1.13632  -1.13614  -1.13586  -1.13456  -1.13431
 Alpha  occ. eigenvalues --   -1.13415  -1.13362  -1.13334  -1.13308  -1.13193
 Alpha  occ. eigenvalues --   -1.13144  -1.13128  -1.12310  -1.12303  -1.12296
 Alpha  occ. eigenvalues --   -0.18292  -0.13677  -0.12095  -0.10594
 Alpha virt. eigenvalues --   -0.05957  -0.05760  -0.04518  -0.03460  -0.02723
 Alpha virt. eigenvalues --   -0.02354  -0.01838  -0.01289  -0.00674  -0.00283
 Alpha virt. eigenvalues --   -0.00041   0.00315   0.00659   0.00774   0.00821

  Beta  occ. eigenvalues --  -38.44164 -38.44163 -38.44149 -38.43901 -38.43768
  Beta  occ. eigenvalues --  -38.43524 -38.42817  -2.20031  -2.20010  -2.19970
  Beta  occ. eigenvalues --   -2.19756  -2.19525  -2.19405  -2.18644  -1.13732
  Beta  occ. eigenvalues --   -1.13704  -1.13700  -1.13680  -1.13669  -1.13668
  Beta  occ. eigenvalues --   -1.13630  -1.13603  -1.13589  -1.13426  -1.13414
  Beta  occ. eigenvalues --   -1.13377  -1.13246  -1.13215  -1.13185  -1.13118
  Beta  occ. eigenvalues --   -1.13072  -1.13054  -1.12314  -1.12305  -1.12287
  Beta  occ. eigenvalues --   -0.17621  -0.13464  -0.11892
  Beta virt. eigenvalues --   -0.06732  -0.05842  -0.05711  -0.04386  -0.02748
  Beta virt. eigenvalues --   -0.02017  -0.01735  -0.01448  -0.01164  -0.00729
  Beta virt. eigenvalues --   -0.00256   0.00149   0.00366   0.00759   0.00776

 Mulliken charges and spin densities:
               1          2
     1  Na  -0.433438   0.534891
     2  Na  -0.281386  -0.014700
     3  Na   0.104885   0.129371
     4  Na   0.417681   0.148878
     5  Na   0.195314   0.044244
     6  Na   0.051749   0.044956
     7  Na  -0.054806   0.112361
 Sum of Mulliken charges =  -0.00000   1.00000

 Dipole moment (field-independent basis, Debye):
    X=             -0.2348    Y=             -0.5969    Z=              0.0745  Tot=              0.6458
 Quadrupole moment (field-independent basis, Debye-Ang):
   XX=            -54.2088   YY=            -65.2955   ZZ=            -75.2429
   XY=              0.3410   XZ=             -0.1436   YZ=              1.2250

 Normal termination of Gaussian 16 at Fri Dec  8 02:30:20 2023.
