 Gaussian 16, Revision B.01,
 Gaussian 16:  ES64L-G16RevB.01 20-Dec-2017

 -------------------------
 #P B3LYP/6-311+g(d) force
 -------------------------

 -----
 DPGEN
 -----
 Symbolic Z-matrix:
 Charge =  0 Multiplicity = 2

                         Standard orientation:
 ---------------------------------------------------------------------
 Center     Atomic      Atomic             Coordinates (Angstroms)
 Number     Number       Type             X           Y           Z
 ---------------------------------------------------------------------
      1         11           0        0.191568    1.602946    0.364994
      2         11           0        3.695535    1.796508   -0.075838
      3         11           0       -2.841649    1.987379   -0.606935
      4         11           0       -4.669776   -0.677389    1.062614
      5         11           0        1.039781   -2.011752   -0.401450
      6         11           0        4.705324   -1.185360    0.459558
      7         11           0       -2.120783   -1.512333   -0.802941
 ---------------------------------------------------------------------

 SCF Done:  E(UB3LYP) =  -1136.11451066     A.U. after   26 cycles

 The electronic state is 2-A.
 Alpha  occ. eigenvalues --  -38.45000 -38.44976 -38.44725 -38.44403 -38.43657
 Alpha  occ. eigenvalues --  -38.43582 -38.43218  -2.20827  -2.20773  -2.20525
 Alpha  occ. eigenvalues --   -2.20238  -2.19533  -2.19403  -2.19055  -1.14475
 Alpha  occ. eigenvalues --   -1.14465  -1.14459  -1.14442  -1.14434  -1.14399
 Alpha  occ. eigenvalues --   -1.14199  -1.14178  -1.14160  -1.13919  -1.13912
 Alpha  occ. eigenvalues --   -1.13856  -1.13237  -1.13217  -1.13171  -1.13074
 Alpha  occ. eigenvalues --   -1.13064  -1.13008  -1.12732  -1.12711  -1.12697
 Alpha  occ. eigenvalues --   -0.17173  -0.14762  -0.11697  -0.11254
 Alpha virt. eigenvalues --   -0.06745  -0.05609  -0.04335  -0.03277  -0.03079
 Alpha virt. eigenvalues --   -0.03044  -0.01918  -0.01407  -0.01093  -0.00534
 Alpha virt. eigenvalues --   -0.00055   0.00028   0.00179   0.00356   0.00619

  Beta  occ. eigenvalues --  -38.44948 -38.44913 -38.44722 -38.44375 -38.43629
  Beta  occ. eigenvalues --  -38.43536 -38.43196  -2.20722  -2.20665  -2.20521
  Beta  occ. eigenvalues --   -2.20189  -2.19491  -2.19324  -2.19017  -1.14417
  Beta  occ. eigenvalues --   -1.14400  -1.14369  -1.14366  -1.14353  -1.14330
  Beta  occ. eigenvalues --   -1.14197  -1.14179  -1.14144  -1.13882  -1.13879
  Beta  occ. eigenvalues --   -1.13805  -1.13196  -1.13160  -1.13134  -1.13024
  Beta  occ. eigenvalues --   -1.13006  -1.12940  -1.12705  -1.12679  -1.12672
  Beta  occ. eigenvalues --   -0.16384  -0.14176  -0.10883
  Beta virt. eigenvalues --   -0.08071  -0.06796  -0.05175  -0.03982  -0.03006
  Beta virt. eigenvalues --   -0.02831  -0.02569  -0.01388  -0.01114  -0.00989
  Beta virt. eigenvalues --   -0.00149   0.00080   0.00115   0.00139   0.00437

 Mulliken charges and spin densities:
               1          2
     1  Na  -1.274296  -0.173211
     2  Na   0.431660   0.203477
     3  Na   0.716768   0.212025
     4  Na   0.704735   0.449543
     5  Na  -0.193079   0.092680
     6  Na  -0.070264   0.256067
     7  Na  -0.315524  -0.040583
 Sum of Mulliken charges =  -0.00000   1.00000

 Dipole moment (field-independent basis, Debye):
    X=              0.0628    Y=              0.1386    Z=              0.4000  Tot=              0.4280
 Quadrupole moment (field-independent basis, Debye-Ang):
   XX=            -49.5940   YY=            -75.0662   ZZ=            -68.7155
   XY=             -2.9079   XZ=             -0.6838   YZ=             -3.0731

 Normal termination of Gaussian 16 at Sun Dec  3 22:34:18 2023.
