 Gaussian 16, Revision B.01,
 Gaussian 16:  ES64L-G16RevB.01 20-Dec-2017

 -------------------------
 #P B3LYP/6-311+g(d) force
 -------------------------

 -----
 DPGEN
 -----
 Symbolic Z-matrix:
 Charge =  0 Multiplicity = 2

                         Standard orientation:
 ---------------------------------------------------------------------
 Center     Atomic      Atomic             Coordinates (Angstroms)
 Number     Number       Type             X           Y           Z
 ---------------------------------------------------------------------
      1         11           0        0.088295   -0.361953   -1.816344
      2         11           0       -1.062865   -2.575784    0.216702
      3         11           0        2.464246   -1.930848   -0.093686
      4         11           0       -0.257532   -0.082751    1.835564
      5         11           0        2.594328    1.841969    0.169528
      6         11           0       -3.362814    0.450464   -0.175885
      7         11           0       -0.463658    2.658905   -0.135878
 ---------------------------------------------------------------------

 SCF Done:  E(UB3LYP) =  -1136.13670642     A.U. after   19 cycles

 The electronic state is 2-A.
 Alpha  occ. eigenvalues --  -38.44207 -38.43885 -38.43712 -38.43578 -38.43376
 Alpha  occ. eigenvalues --  -38.43357 -38.43205  -2.19995  -2.19711  -2.19540
 Alpha  occ. eigenvalues --   -2.19477  -2.19322  -2.19299  -2.19091  -1.13667
 Alpha  occ. eigenvalues --   -1.13654  -1.13637  -1.13400  -1.13371  -1.13348
 Alpha  occ. eigenvalues --   -1.13239  -1.13230  -1.13202  -1.13180  -1.13175
 Alpha  occ. eigenvalues --   -1.13066  -1.12998  -1.12965  -1.12952  -1.12931
 Alpha  occ. eigenvalues --   -1.12917  -1.12908  -1.12768  -1.12757  -1.12709
 Alpha  occ. eigenvalues --   -0.18688  -0.12785  -0.12689  -0.10661
 Alpha virt. eigenvalues --   -0.05762  -0.05224  -0.04594  -0.03028  -0.02990
 Alpha virt. eigenvalues --   -0.02449  -0.01734  -0.01163  -0.00363  -0.00200
 Alpha virt. eigenvalues --   -0.00018   0.00337   0.00784   0.00847   0.00912

  Beta  occ. eigenvalues --  -38.44205 -38.43881 -38.43711 -38.43564 -38.43294
  Beta  occ. eigenvalues --  -38.43280 -38.43198  -2.19995  -2.19707  -2.19540
  Beta  occ. eigenvalues --   -2.19458  -2.19172  -2.19158  -2.19082  -1.13658
  Beta  occ. eigenvalues --   -1.13646  -1.13639  -1.13388  -1.13355  -1.13349
  Beta  occ. eigenvalues --   -1.13233  -1.13211  -1.13188  -1.13179  -1.13123
  Beta  occ. eigenvalues --   -1.13059  -1.12905  -1.12869  -1.12854  -1.12835
  Beta  occ. eigenvalues --   -1.12812  -1.12804  -1.12756  -1.12724  -1.12703
  Beta  occ. eigenvalues --   -0.17952  -0.12564  -0.12438
  Beta virt. eigenvalues --   -0.06756  -0.05724  -0.05204  -0.04565  -0.02278
  Beta virt. eigenvalues --   -0.02192  -0.01644  -0.01407  -0.01103  -0.00411
  Beta virt. eigenvalues --   -0.00239   0.00116   0.00360   0.00823   0.00856

 Mulliken charges and spin densities:
               1          2
     1  Na  -0.307419   0.764024
     2  Na   0.300425  -0.128879
     3  Na   0.172862  -0.101001
     4  Na  -0.247045   0.694814
     5  Na  -0.035533  -0.074947
     6  Na   0.070808  -0.085587
     7  Na   0.045903  -0.068424
 Sum of Mulliken charges =  -0.00000   1.00000

 Dipole moment (field-independent basis, Debye):
    X=             -0.0702    Y=             -0.1860    Z=             -0.0139  Tot=              0.1993
 Quadrupole moment (field-independent basis, Debye-Ang):
   XX=            -54.2707   YY=            -63.7641   ZZ=            -74.8491
   XY=             -0.5508   XZ=              1.0380   YZ=             -0.4604

 Normal termination of Gaussian 16 at Thu Dec  7 16:07:44 2023.
