 Gaussian 16, Revision B.01,
 Gaussian 16:  ES64L-G16RevB.01 20-Dec-2017

 -------------------------
 #P B3LYP/6-311+g(d) force
 -------------------------

 -----
 DPGEN
 -----
 Symbolic Z-matrix:
 Charge =  0 Multiplicity = 2

                         Standard orientation:
 ---------------------------------------------------------------------
 Center     Atomic      Atomic             Coordinates (Angstroms)
 Number     Number       Type             X           Y           Z
 ---------------------------------------------------------------------
      1         11           0        1.537398   -0.641286    1.656413
      2         11           0       -1.917634   -1.599665    1.283388
      3         11           0       -0.674966    2.357668    0.858829
      4         11           0       -3.845110    0.018843   -0.928297
      5         11           0        2.467178    2.169527   -0.496177
      6         11           0        2.886008   -2.040919   -0.876417
      7         11           0       -0.452874   -0.264168   -1.497740
 ---------------------------------------------------------------------

 SCF Done:  E(UB3LYP) =  -1136.12925276     A.U. after   20 cycles

 The electronic state is 2-A.
 Alpha  occ. eigenvalues --  -38.44592 -38.44265 -38.44043 -38.43932 -38.43504
 Alpha  occ. eigenvalues --  -38.43436 -38.43172  -2.20408  -2.20141  -2.19895
 Alpha  occ. eigenvalues --   -2.19733  -2.19397  -2.19248  -2.18997  -1.14077
 Alpha  occ. eigenvalues --   -1.14058  -1.14045  -1.13857  -1.13795  -1.13748
 Alpha  occ. eigenvalues --   -1.13572  -1.13546  -1.13513  -1.13415  -1.13386
 Alpha  occ. eigenvalues --   -1.13363  -1.13084  -1.13079  -1.13025  -1.12907
 Alpha  occ. eigenvalues --   -1.12889  -1.12877  -1.12681  -1.12665  -1.12613
 Alpha  occ. eigenvalues --   -0.18052  -0.13632  -0.11404  -0.10922
 Alpha virt. eigenvalues --   -0.06254  -0.05400  -0.04641  -0.03261  -0.02714
 Alpha virt. eigenvalues --   -0.02344  -0.02181  -0.01145  -0.00876  -0.00134
 Alpha virt. eigenvalues --    0.00152   0.00206   0.00422   0.00545   0.00627

  Beta  occ. eigenvalues --  -38.44570 -38.44228 -38.44001 -38.43926 -38.43462
  Beta  occ. eigenvalues --  -38.43423 -38.43159  -2.20367  -2.20075  -2.19819
  Beta  occ. eigenvalues --   -2.19723  -2.19323  -2.19223  -2.18975  -1.14040
  Beta  occ. eigenvalues --   -1.14031  -1.14019  -1.13800  -1.13752  -1.13696
  Beta  occ. eigenvalues --   -1.13523  -1.13488  -1.13443  -1.13404  -1.13381
  Beta  occ. eigenvalues --   -1.13354  -1.13041  -1.13014  -1.12971  -1.12885
  Beta  occ. eigenvalues --   -1.12866  -1.12854  -1.12670  -1.12630  -1.12602
  Beta  occ. eigenvalues --   -0.17345  -0.13420  -0.11234
  Beta virt. eigenvalues --   -0.07132  -0.06054  -0.05249  -0.04144  -0.03037
  Beta virt. eigenvalues --   -0.02139  -0.02093  -0.01538  -0.01031  -0.00566
  Beta virt. eigenvalues --   -0.00002   0.00203   0.00287   0.00527   0.00635

 Mulliken charges and spin densities:
               1          2
     1  Na   0.258904   0.027468
     2  Na  -0.163292   0.247364
     3  Na  -0.251729   0.109675
     4  Na   0.541866   0.116807
     5  Na   0.062594   0.045286
     6  Na  -0.005395   0.189121
     7  Na  -0.442948   0.264278
 Sum of Mulliken charges =  -0.00000   1.00000

 Dipole moment (field-independent basis, Debye):
    X=             -0.7756    Y=              0.2125    Z=             -0.2106  Tot=              0.8313
 Quadrupole moment (field-independent basis, Debye-Ang):
   XX=            -51.0652   YY=            -73.3210   ZZ=            -69.3477
   XY=              0.5189   XZ=             -1.3148   YZ=             -0.3267

 Normal termination of Gaussian 16 at Wed Dec  6 00:55:13 2023.
