 Gaussian 16, Revision B.01,
 Gaussian 16:  ES64L-G16RevB.01 20-Dec-2017

 -------------------------
 #P B3LYP/6-311+g(d) force
 -------------------------

 -----
 DPGEN
 -----
 Symbolic Z-matrix:
 Charge =  0 Multiplicity = 2

                         Standard orientation:
 ---------------------------------------------------------------------
 Center     Atomic      Atomic             Coordinates (Angstroms)
 Number     Number       Type             X           Y           Z
 ---------------------------------------------------------------------
      1         11           0        0.550005   -0.133361    1.754320
      2         11           0       -0.462008    0.286864   -1.741536
      3         11           0       -1.423304   -2.420123   -0.202758
      4         11           0        2.335449   -1.908427    0.031343
      5         11           0       -3.001145    0.199658    0.306658
      6         11           0       -0.463308    2.725437    0.289029
      7         11           0        2.464310    1.249952   -0.437056
 ---------------------------------------------------------------------

 SCF Done:  E(UB3LYP) =  -1136.13500910     A.U. after   19 cycles

 The electronic state is 2-A.
 Alpha  occ. eigenvalues --  -38.43999 -38.43630 -38.43604 -38.43405 -38.43247
 Alpha  occ. eigenvalues --  -38.43205 -38.43025  -2.19888  -2.19567  -2.19492
 Alpha  occ. eigenvalues --   -2.19297  -2.19250  -2.19213  -2.18936  -1.13589
 Alpha  occ. eigenvalues --   -1.13551  -1.13526  -1.13308  -1.13237  -1.13232
 Alpha  occ. eigenvalues --   -1.13206  -1.13123  -1.13099  -1.13008  -1.12963
 Alpha  occ. eigenvalues --   -1.12927  -1.12916  -1.12890  -1.12865  -1.12859
 Alpha  occ. eigenvalues --   -1.12844  -1.12827  -1.12604  -1.12591  -1.12561
 Alpha  occ. eigenvalues --   -0.19336  -0.13485  -0.12538  -0.10860
 Alpha virt. eigenvalues --   -0.05490  -0.05074  -0.04503  -0.03438  -0.02883
 Alpha virt. eigenvalues --   -0.02376  -0.01381  -0.00965  -0.00147  -0.00053
 Alpha virt. eigenvalues --    0.00046   0.00375   0.00865   0.00943   0.00944

  Beta  occ. eigenvalues --  -38.43993 -38.43615 -38.43600 -38.43399 -38.43173
  Beta  occ. eigenvalues --  -38.43131 -38.43015  -2.19880  -2.19545  -2.19488
  Beta  occ. eigenvalues --   -2.19288  -2.19115  -2.19079  -2.18922  -1.13584
  Beta  occ. eigenvalues --   -1.13541  -1.13504  -1.13297  -1.13222  -1.13195
  Beta  occ. eigenvalues --   -1.13176  -1.13107  -1.13096  -1.12991  -1.12939
  Beta  occ. eigenvalues --   -1.12911  -1.12841  -1.12803  -1.12772  -1.12766
  Beta  occ. eigenvalues --   -1.12757  -1.12730  -1.12590  -1.12560  -1.12540
  Beta  occ. eigenvalues --   -0.18596  -0.13240  -0.12272
  Beta virt. eigenvalues --   -0.06916  -0.05424  -0.05066  -0.04490  -0.02621
  Beta virt. eigenvalues --   -0.02101  -0.01347  -0.01290  -0.00896  -0.00165
  Beta virt. eigenvalues --   -0.00073   0.00149   0.00401   0.00921   0.00938

 Mulliken charges and spin densities:
               1          2
     1  Na  -0.496269   0.637291
     2  Na  -0.344602   0.516654
     3  Na   0.113544  -0.091812
     4  Na   0.192811  -0.068330
     5  Na   0.071428  -0.007647
     6  Na   0.163736  -0.012403
     7  Na   0.299352   0.026245
 Sum of Mulliken charges =  -0.00000   1.00000

 Dipole moment (field-independent basis, Debye):
    X=             -0.1138    Y=             -0.0706    Z=              0.0176  Tot=              0.1351
 Quadrupole moment (field-independent basis, Debye-Ang):
   XX=            -57.2386   YY=            -63.4203   ZZ=            -73.4901
   XY=             -0.6833   XZ=             -2.2709   YZ=              0.9445

 Normal termination of Gaussian 16 at Thu Dec  7 11:26:16 2023.
