 Gaussian 16, Revision B.01,
 Gaussian 16:  ES64L-G16RevB.01 20-Dec-2017

 -------------------------
 #P B3LYP/6-311+g(d) force
 -------------------------

 -----
 DPGEN
 -----
 Symbolic Z-matrix:
 Charge =  0 Multiplicity = 2

                         Standard orientation:
 ---------------------------------------------------------------------
 Center     Atomic      Atomic             Coordinates (Angstroms)
 Number     Number       Type             X           Y           Z
 ---------------------------------------------------------------------
      1         11           0        1.152670   -2.948783    0.630827
      2         11           0       -2.679636   -1.132139    0.358047
      3         11           0        3.965169   -1.210383   -1.254228
      4         11           0       -0.510979    3.242799    0.375225
      5         11           0        0.195183    0.239407    1.791603
      6         11           0        2.942428    1.990404   -0.572367
      7         11           0       -5.064836   -0.181305   -1.329109
 ---------------------------------------------------------------------

 SCF Done:  E(UB3LYP) =  -1136.11753553     A.U. after   20 cycles

 The electronic state is 2-A.
 Alpha  occ. eigenvalues --  -38.44592 -38.44573 -38.44474 -38.44293 -38.44153
 Alpha  occ. eigenvalues --  -38.43847 -38.43764  -2.20415  -2.20354  -2.20324
 Alpha  occ. eigenvalues --   -2.20076  -2.19926  -2.19627  -2.19578  -1.14080
 Alpha  occ. eigenvalues --   -1.14042  -1.14040  -1.14037  -1.14027  -1.14012
 Alpha  occ. eigenvalues --   -1.13986  -1.13962  -1.13931  -1.13743  -1.13731
 Alpha  occ. eigenvalues --   -1.13697  -1.13609  -1.13590  -1.13543  -1.13299
 Alpha  occ. eigenvalues --   -1.13289  -1.13264  -1.13252  -1.13248  -1.13231
 Alpha  occ. eigenvalues --   -0.16488  -0.13760  -0.12013  -0.11785
 Alpha virt. eigenvalues --   -0.05888  -0.05360  -0.05021  -0.03654  -0.02816
 Alpha virt. eigenvalues --   -0.02252  -0.01963  -0.01433  -0.01115  -0.00782
 Alpha virt. eigenvalues --   -0.00725   0.00052   0.00148   0.00315   0.00652

  Beta  occ. eigenvalues --  -38.44538 -38.44508 -38.44423 -38.44253 -38.44133
  Beta  occ. eigenvalues --  -38.43842 -38.43767  -2.20292  -2.20259  -2.20233
  Beta  occ. eigenvalues --   -2.20004  -2.19890  -2.19618  -2.19592  -1.14002
  Beta  occ. eigenvalues --   -1.13987  -1.13977  -1.13955  -1.13934  -1.13932
  Beta  occ. eigenvalues --   -1.13930  -1.13902  -1.13851  -1.13696  -1.13676
  Beta  occ. eigenvalues --   -1.13648  -1.13583  -1.13565  -1.13515  -1.13290
  Beta  occ. eigenvalues --   -1.13280  -1.13274  -1.13261  -1.13250  -1.13192
  Beta  occ. eigenvalues --   -0.15866  -0.12738  -0.11916
  Beta virt. eigenvalues --   -0.08411  -0.05661  -0.04937  -0.04642  -0.03499
  Beta virt. eigenvalues --   -0.02376  -0.01901  -0.01650  -0.01307  -0.00953
  Beta virt. eigenvalues --   -0.00544  -0.00409   0.00205   0.00276   0.00426

 Mulliken charges and spin densities:
               1          2
     1  Na   0.203466   0.028948
     2  Na  -0.653952  -0.024269
     3  Na  -0.007566   0.147870
     4  Na   0.043487  -0.052324
     5  Na   0.091848   0.302729
     6  Na  -0.064936   0.221225
     7  Na   0.387653   0.375820
 Sum of Mulliken charges =  -0.00000   1.00000

 Dipole moment (field-independent basis, Debye):
    X=             -0.1018    Y=              0.4202    Z=             -0.4894  Tot=              0.6530
 Quadrupole moment (field-independent basis, Debye-Ang):
   XX=            -62.3425   YY=            -65.5844   ZZ=            -68.4305
   XY=             -4.4963   XZ=              1.7788   YZ=             -1.6823

 Normal termination of Gaussian 16 at Mon Dec  4 03:42:29 2023.
