 Gaussian 16, Revision B.01,
 Gaussian 16:  ES64L-G16RevB.01 20-Dec-2017

 -------------------------
 #P B3LYP/6-311+g(d) force
 -------------------------

 -----
 DPGEN
 -----
 Symbolic Z-matrix:
 Charge =  0 Multiplicity = 2

                         Standard orientation:
 ---------------------------------------------------------------------
 Center     Atomic      Atomic             Coordinates (Angstroms)
 Number     Number       Type             X           Y           Z
 ---------------------------------------------------------------------
      1         11           0        2.700203    1.047061    1.786404
      2         11           0        0.341235    2.871143   -0.671770
      3         11           0       -3.916767   -0.506288    1.597306
      4         11           0        4.693623   -1.091498   -0.306961
      5         11           0       -3.048819    1.174430   -1.157677
      6         11           0        1.186881   -1.248233   -0.912149
      7         11           0       -1.956356   -2.246615   -0.335153
 ---------------------------------------------------------------------

 SCF Done:  E(UB3LYP) =  -1136.11308561     A.U. after   30 cycles

 The electronic state is 2-A.
 Alpha  occ. eigenvalues --  -38.45375 -38.44998 -38.44528 -38.44206 -38.43901
 Alpha  occ. eigenvalues --  -38.43771 -38.42723  -2.21136  -2.20791  -2.20298
 Alpha  occ. eigenvalues --   -2.20054  -2.19736  -2.19634  -2.18481  -1.14830
 Alpha  occ. eigenvalues --   -1.14789  -1.14747  -1.14488  -1.14452  -1.14407
 Alpha  occ. eigenvalues --   -1.13975  -1.13963  -1.13934  -1.13711  -1.13693
 Alpha  occ. eigenvalues --   -1.13682  -1.13441  -1.13376  -1.13373  -1.13310
 Alpha  occ. eigenvalues --   -1.13284  -1.13245  -1.12164  -1.12147  -1.12124
 Alpha  occ. eigenvalues --   -0.16714  -0.14363  -0.11360  -0.10796
 Alpha virt. eigenvalues --   -0.07082  -0.05374  -0.04545  -0.03599  -0.03069
 Alpha virt. eigenvalues --   -0.02378  -0.02087  -0.01382  -0.00950  -0.00604
 Alpha virt. eigenvalues --   -0.00320  -0.00005   0.00168   0.00413   0.00450

  Beta  occ. eigenvalues --  -38.45360 -38.44971 -38.44534 -38.44144 -38.43839
  Beta  occ. eigenvalues --  -38.43725 -38.42724  -2.21108  -2.20744  -2.20309
  Beta  occ. eigenvalues --   -2.19937  -2.19626  -2.19556  -2.18484  -1.14808
  Beta  occ. eigenvalues --   -1.14771  -1.14731  -1.14446  -1.14424  -1.14356
  Beta  occ. eigenvalues --   -1.13982  -1.13970  -1.13937  -1.13629  -1.13612
  Beta  occ. eigenvalues --   -1.13605  -1.13366  -1.13307  -1.13276  -1.13260
  Beta  occ. eigenvalues --   -1.13228  -1.13148  -1.12166  -1.12149  -1.12123
  Beta  occ. eigenvalues --   -0.15981  -0.14040  -0.10962
  Beta virt. eigenvalues --   -0.07206  -0.07045  -0.04935  -0.04328  -0.03354
  Beta virt. eigenvalues --   -0.02724  -0.02116  -0.01578  -0.00996  -0.00734
  Beta virt. eigenvalues --   -0.00594  -0.00086   0.00093   0.00304   0.00438

 Mulliken charges and spin densities:
               1          2
     1  Na   0.137450   0.101850
     2  Na  -0.139812  -0.094722
     3  Na   0.052783   0.362001
     4  Na   0.568257   0.121658
     5  Na   0.070381   0.251510
     6  Na  -0.953592   0.379110
     7  Na   0.264533  -0.121406
 Sum of Mulliken charges =  -0.00000   1.00000

 Dipole moment (field-independent basis, Debye):
    X=              0.3989    Y=             -0.2786    Z=              0.7569  Tot=              0.8998
 Quadrupole moment (field-independent basis, Debye-Ang):
   XX=            -58.4107   YY=            -76.9182   ZZ=            -62.6322
   XY=             -0.7530   XZ=              0.6026   YZ=              1.1258

 Normal termination of Gaussian 16 at Mon Dec  4 02:51:08 2023.
