 Gaussian 16, Revision B.01,
 Gaussian 16:  ES64L-G16RevB.01 20-Dec-2017

 -------------------------
 #P B3LYP/6-311+g(d) force
 -------------------------

 -----
 DPGEN
 -----
 Symbolic Z-matrix:
 Charge =  0 Multiplicity = 2

                         Standard orientation:
 ---------------------------------------------------------------------
 Center     Atomic      Atomic             Coordinates (Angstroms)
 Number     Number       Type             X           Y           Z
 ---------------------------------------------------------------------
      1         11           0        0.284296    3.564923    0.531719
      2         11           0        4.131822   -1.183360   -0.680036
      3         11           0       -1.865665   -3.086729    1.428627
      4         11           0        1.068793   -3.428096   -0.194351
      5         11           0        2.880209    2.469438    0.322733
      6         11           0       -3.275159   -0.653156   -1.181833
      7         11           0       -3.224296    2.316980   -0.226858
 ---------------------------------------------------------------------

 SCF Done:  E(UB3LYP) =  -1136.10610466     A.U. after   20 cycles

 The electronic state is 2-A.
 Alpha  occ. eigenvalues --  -38.44997 -38.44877 -38.44486 -38.44410 -38.44405
 Alpha  occ. eigenvalues --  -38.44266 -38.44251  -2.20786  -2.20626  -2.20283
 Alpha  occ. eigenvalues --   -2.20240  -2.20181  -2.20095  -2.20073  -1.14470
 Alpha  occ. eigenvalues --   -1.14455  -1.14421  -1.14320  -1.14307  -1.14265
 Alpha  occ. eigenvalues --   -1.14124  -1.13936  -1.13916  -1.13914  -1.13886
 Alpha  occ. eigenvalues --   -1.13865  -1.13832  -1.13811  -1.13804  -1.13735
 Alpha  occ. eigenvalues --   -1.13726  -1.13724  -1.13717  -1.13703  -1.13654
 Alpha  occ. eigenvalues --   -0.15584  -0.13812  -0.13520  -0.11039
 Alpha virt. eigenvalues --   -0.07150  -0.05293  -0.04047  -0.03653  -0.03374
 Alpha virt. eigenvalues --   -0.02409  -0.02249  -0.01645  -0.01480  -0.01076
 Alpha virt. eigenvalues --   -0.00412  -0.00233  -0.00043   0.00510   0.00645

  Beta  occ. eigenvalues --  -38.44981 -38.44879 -38.44429 -38.44396 -38.44317
  Beta  occ. eigenvalues --  -38.44239 -38.44214  -2.20761  -2.20636  -2.20220
  Beta  occ. eigenvalues --   -2.20177  -2.20032  -2.20025  -2.20016  -1.14449
  Beta  occ. eigenvalues --   -1.14441  -1.14386  -1.14331  -1.14319  -1.14231
  Beta  occ. eigenvalues --   -1.14077  -1.13876  -1.13864  -1.13847  -1.13846
  Beta  occ. eigenvalues --   -1.13842  -1.13720  -1.13703  -1.13699  -1.13695
  Beta  occ. eigenvalues --   -1.13693  -1.13683  -1.13678  -1.13665  -1.13602
  Beta  occ. eigenvalues --   -0.15110  -0.13126  -0.12636
  Beta virt. eigenvalues --   -0.07900  -0.07329  -0.04868  -0.03599  -0.03385
  Beta virt. eigenvalues --   -0.03075  -0.02174  -0.01948  -0.01460  -0.01359
  Beta virt. eigenvalues --   -0.00757  -0.00183   0.00003   0.00184   0.00483

 Mulliken charges and spin densities:
               1          2
     1  Na  -0.001487   0.116033
     2  Na   0.213507   0.460692
     3  Na   0.270588   0.235581
     4  Na  -0.418893   0.008114
     5  Na   0.108716  -0.019505
     6  Na  -0.131360   0.058082
     7  Na  -0.041072   0.141003
 Sum of Mulliken charges =  -0.00000   1.00000

 Dipole moment (field-independent basis, Debye):
    X=             -0.8203    Y=             -0.3408    Z=              0.0639  Tot=              0.8906
 Quadrupole moment (field-independent basis, Debye-Ang):
   XX=            -64.8315   YY=            -67.5264   ZZ=            -69.8161
   XY=              0.1326   XZ=             -1.8836   YZ=              1.6285

 Normal termination of Gaussian 16 at Mon Dec  4 01:48:53 2023.
