 Gaussian 16, Revision B.01,
 Gaussian 16:  ES64L-G16RevB.01 20-Dec-2017

 -------------------------
 #P B3LYP/6-311+g(d) force
 -------------------------

 -----
 DPGEN
 -----
 Symbolic Z-matrix:
 Charge =  0 Multiplicity = 2

                         Standard orientation:
 ---------------------------------------------------------------------
 Center     Atomic      Atomic             Coordinates (Angstroms)
 Number     Number       Type             X           Y           Z
 ---------------------------------------------------------------------
      1         11           0        1.090920    2.830176   -0.158571
      2         11           0        0.031555   -0.111811   -1.684440
      3         11           0       -0.213588    0.299738    2.244464
      4         11           0        3.163680   -0.298295    0.143158
      5         11           0       -2.479584   -1.763579    0.239965
      6         11           0       -2.376868    1.803243   -0.462756
      7         11           0        0.783886   -2.759472   -0.321821
 ---------------------------------------------------------------------

 SCF Done:  E(UB3LYP) =  -1136.13867143     A.U. after   18 cycles

 The electronic state is 2-A.
 Alpha  occ. eigenvalues --  -38.44049 -38.43810 -38.43693 -38.43659 -38.43569
 Alpha  occ. eigenvalues --  -38.43349 -38.43334  -2.19892  -2.19616  -2.19533
 Alpha  occ. eigenvalues --   -2.19477  -2.19405  -2.19313  -2.19226  -1.13546
 Alpha  occ. eigenvalues --   -1.13522  -1.13512  -1.13290  -1.13282  -1.13261
 Alpha  occ. eigenvalues --   -1.13238  -1.13190  -1.13172  -1.13157  -1.13139
 Alpha  occ. eigenvalues --   -1.13102  -1.13093  -1.13074  -1.13053  -1.13047
 Alpha  occ. eigenvalues --   -1.12971  -1.12920  -1.12874  -1.12855  -1.12835
 Alpha  occ. eigenvalues --   -0.18464  -0.12690  -0.12567  -0.11027
 Alpha virt. eigenvalues --   -0.05394  -0.05150  -0.04779  -0.03160  -0.03129
 Alpha virt. eigenvalues --   -0.02862  -0.01319  -0.01158  -0.00342  -0.00309
 Alpha virt. eigenvalues --   -0.00033   0.00367   0.00818   0.00867   0.00891

  Beta  occ. eigenvalues --  -38.43947 -38.43809 -38.43682 -38.43656 -38.43564
  Beta  occ. eigenvalues --  -38.43343 -38.43272  -2.19705  -2.19617  -2.19516
  Beta  occ. eigenvalues --   -2.19475  -2.19399  -2.19220  -2.19197  -1.13422
  Beta  occ. eigenvalues --   -1.13392  -1.13376  -1.13285  -1.13278  -1.13259
  Beta  occ. eigenvalues --   -1.13216  -1.13170  -1.13159  -1.13146  -1.13129
  Beta  occ. eigenvalues --   -1.13100  -1.13080  -1.13049  -1.13043  -1.13013
  Beta  occ. eigenvalues --   -1.12899  -1.12855  -1.12847  -1.12827  -1.12805
  Beta  occ. eigenvalues --   -0.17736  -0.12464  -0.12356
  Beta virt. eigenvalues --   -0.07075  -0.05404  -0.05085  -0.04704  -0.02402
  Beta virt. eigenvalues --   -0.02344  -0.01799  -0.01229  -0.01075  -0.00400
  Beta virt. eigenvalues --   -0.00339   0.00114   0.00394   0.00856   0.00891

 Mulliken charges and spin densities:
               1          2
     1  Na   0.065643  -0.062780
     2  Na  -0.055500   0.327430
     3  Na  -0.605610   0.768639
     4  Na  -0.002513  -0.030173
     5  Na   0.131274   0.032911
     6  Na   0.217928  -0.027696
     7  Na   0.248779  -0.008331
 Sum of Mulliken charges =  -0.00000   1.00000

 Dipole moment (field-independent basis, Debye):
    X=              0.0074    Y=              0.1846    Z=              0.2308  Tot=              0.2957
 Quadrupole moment (field-independent basis, Debye-Ang):
   XX=            -59.2019   YY=            -62.2588   ZZ=            -72.8930
   XY=              0.4106   XZ=              0.6491   YZ=             -0.8585

 Normal termination of Gaussian 16 at Thu Dec  7 17:00:45 2023.
