 Gaussian 16, Revision B.01,
 Gaussian 16:  ES64L-G16RevB.01 20-Dec-2017

 -------------------------
 #P B3LYP/6-311+g(d) force
 -------------------------

 -----
 DPGEN
 -----
 Symbolic Z-matrix:
 Charge =  0 Multiplicity = 2

                         Standard orientation:
 ---------------------------------------------------------------------
 Center     Atomic      Atomic             Coordinates (Angstroms)
 Number     Number       Type             X           Y           Z
 ---------------------------------------------------------------------
      1         11           0        1.243939   -2.374677    0.031944
      2         11           0        0.727371    2.956236   -0.422394
      3         11           0       -2.863598    1.458670    0.111101
      4         11           0       -2.474516   -1.927008    0.058136
      5         11           0       -0.393092   -0.395056   -1.660481
      6         11           0        3.401548   -0.014454   -0.196344
      7         11           0        0.358348    0.296289    2.078038
 ---------------------------------------------------------------------

 SCF Done:  E(UB3LYP) =  -1136.13255111     A.U. after   19 cycles

 The electronic state is 2-A.
 Alpha  occ. eigenvalues --  -38.44661 -38.44318 -38.43765 -38.43636 -38.43473
 Alpha  occ. eigenvalues --  -38.43393 -38.43183  -2.20462  -2.20121  -2.19624
 Alpha  occ. eigenvalues --   -2.19497  -2.19359  -2.19258  -2.19095  -1.14140
 Alpha  occ. eigenvalues --   -1.14126  -1.14097  -1.13797  -1.13790  -1.13756
 Alpha  occ. eigenvalues --   -1.13350  -1.13273  -1.13256  -1.13172  -1.13126
 Alpha  occ. eigenvalues --   -1.13114  -1.13081  -1.12997  -1.12971  -1.12932
 Alpha  occ. eigenvalues --   -1.12919  -1.12892  -1.12772  -1.12749  -1.12711
 Alpha  occ. eigenvalues --   -0.18403  -0.13240  -0.12128  -0.10581
 Alpha virt. eigenvalues --   -0.06194  -0.05246  -0.04463  -0.03311  -0.02870
 Alpha virt. eigenvalues --   -0.02400  -0.01863  -0.01139  -0.00579  -0.00282
 Alpha virt. eigenvalues --   -0.00041   0.00339   0.00725   0.00828   0.00848

  Beta  occ. eigenvalues --  -38.44660 -38.44316 -38.43763 -38.43544 -38.43465
  Beta  occ. eigenvalues --  -38.43333 -38.43173  -2.20462  -2.20120  -2.19621
  Beta  occ. eigenvalues --   -2.19328  -2.19251  -2.19244  -2.19081  -1.14143
  Beta  occ. eigenvalues --   -1.14107  -1.14099  -1.13792  -1.13776  -1.13759
  Beta  occ. eigenvalues --   -1.13338  -1.13258  -1.13254  -1.13061  -1.13012
  Beta  occ. eigenvalues --   -1.13006  -1.12994  -1.12928  -1.12912  -1.12905
  Beta  occ. eigenvalues --   -1.12886  -1.12885  -1.12756  -1.12710  -1.12698
  Beta  occ. eigenvalues --   -0.17681  -0.13053  -0.11901
  Beta virt. eigenvalues --   -0.06706  -0.06125  -0.05231  -0.04392  -0.02562
  Beta virt. eigenvalues --   -0.02104  -0.01765  -0.01405  -0.01088  -0.00615
  Beta virt. eigenvalues --   -0.00309   0.00121   0.00369   0.00789   0.00830

 Mulliken charges and spin densities:
               1          2
     1  Na   0.343813   0.005436
     2  Na  -0.096087  -0.082877
     3  Na   0.044227  -0.063350
     4  Na   0.329963  -0.006126
     5  Na  -0.164511   0.514466
     6  Na   0.054144  -0.059524
     7  Na  -0.511550   0.691974
 Sum of Mulliken charges =  -0.00000   1.00000

 Dipole moment (field-independent basis, Debye):
    X=              0.0151    Y=              0.1507    Z=              0.1128  Tot=              0.1888
 Quadrupole moment (field-independent basis, Debye-Ang):
   XX=            -52.5163   YY=            -65.7277   ZZ=            -74.9223
   XY=              0.4699   XZ=             -1.7210   YZ=             -1.3725

 Normal termination of Gaussian 16 at Thu Dec  7 04:07:58 2023.
