 Gaussian 16, Revision B.01,
 Gaussian 16:  ES64L-G16RevB.01 20-Dec-2017

 -------------------------
 #P B3LYP/6-311+g(d) force
 -------------------------

 -----
 DPGEN
 -----
 Symbolic Z-matrix:
 Charge =  0 Multiplicity = 2

                         Standard orientation:
 ---------------------------------------------------------------------
 Center     Atomic      Atomic             Coordinates (Angstroms)
 Number     Number       Type             X           Y           Z
 ---------------------------------------------------------------------
      1         11           0       -3.272284    1.246743    0.760464
      2         11           0       -1.069124    1.746671   -0.479575
      3         11           0        3.863752   -0.362096    0.887159
      4         11           0        0.466004   -0.797812    1.634858
      5         11           0       -2.771467   -1.804980   -0.279739
      6         11           0        0.532425   -1.617733   -1.565360
      7         11           0        2.250693    1.589206   -0.957808
 ---------------------------------------------------------------------

 SCF Done:  E(UB3LYP) =  -1136.11174238     A.U. after   24 cycles

 The electronic state is 2-A.
 Alpha  occ. eigenvalues --  -38.45163 -38.44917 -38.44281 -38.44203 -38.43871
 Alpha  occ. eigenvalues --  -38.43472 -38.43355  -2.21000  -2.20757  -2.20150
 Alpha  occ. eigenvalues --   -2.20107  -2.19749  -2.19442  -2.19223  -1.14703
 Alpha  occ. eigenvalues --   -1.14668  -1.14606  -1.14430  -1.14401  -1.14376
 Alpha  occ. eigenvalues --   -1.14165  -1.13821  -1.13788  -1.13745  -1.13733
 Alpha  occ. eigenvalues --   -1.13691  -1.13432  -1.13401  -1.13390  -1.13076
 Alpha  occ. eigenvalues --   -1.13029  -1.13010  -1.12904  -1.12878  -1.12827
 Alpha  occ. eigenvalues --   -0.18553  -0.14551  -0.11376  -0.11032
 Alpha virt. eigenvalues --   -0.07169  -0.05369  -0.04400  -0.03299  -0.02984
 Alpha virt. eigenvalues --   -0.02522  -0.02133  -0.01331  -0.00720  -0.00180
 Alpha virt. eigenvalues --    0.00056   0.00203   0.00393   0.00569   0.00693

  Beta  occ. eigenvalues --  -38.45138 -38.44868 -38.44277 -38.44190 -38.43842
  Beta  occ. eigenvalues --  -38.43453 -38.43302  -2.20956  -2.20667  -2.20124
  Beta  occ. eigenvalues --   -2.20103  -2.19702  -2.19414  -2.19126  -1.14666
  Beta  occ. eigenvalues --   -1.14637  -1.14566  -1.14372  -1.14332  -1.14315
  Beta  occ. eigenvalues --   -1.14147  -1.13810  -1.13777  -1.13738  -1.13718
  Beta  occ. eigenvalues --   -1.13675  -1.13389  -1.13364  -1.13342  -1.13064
  Beta  occ. eigenvalues --   -1.13003  -1.12969  -1.12842  -1.12802  -1.12757
  Beta  occ. eigenvalues --   -0.17910  -0.14175  -0.11100
  Beta virt. eigenvalues --   -0.07366  -0.06945  -0.05201  -0.03766  -0.03132
  Beta virt. eigenvalues --   -0.02689  -0.02038  -0.01492  -0.01191  -0.00435
  Beta virt. eigenvalues --   -0.00047   0.00098   0.00265   0.00514   0.00684

 Mulliken charges and spin densities:
               1          2
     1  Na   1.448993   0.372251
     2  Na  -1.324762  -0.219522
     3  Na   0.299777   0.171807
     4  Na  -0.439309   0.245219
     5  Na   0.081879   0.033869
     6  Na  -0.049675   0.303450
     7  Na  -0.016902   0.092926
 Sum of Mulliken charges =  -0.00000   1.00000

 Dipole moment (field-independent basis, Debye):
    X=              0.5675    Y=             -0.9183    Z=              0.1498  Tot=              1.0899
 Quadrupole moment (field-independent basis, Debye-Ang):
   XX=            -50.9117   YY=            -77.9824   ZZ=            -68.8033
   XY=              2.9834   XZ=             -2.0500   YZ=              0.0798

 Normal termination of Gaussian 16 at Fri Dec  8 19:32:54 2023.
