 Gaussian 16, Revision B.01,
 Gaussian 16:  ES64L-G16RevB.01 20-Dec-2017

 -------------------------
 #P B3LYP/6-311+g(d) force
 -------------------------

 -----
 DPGEN
 -----
 Symbolic Z-matrix:
 Charge =  0 Multiplicity = 2

                         Standard orientation:
 ---------------------------------------------------------------------
 Center     Atomic      Atomic             Coordinates (Angstroms)
 Number     Number       Type             X           Y           Z
 ---------------------------------------------------------------------
      1         11           0       -2.302119    2.343648    0.067637
      2         11           0        2.437769    2.375672   -0.427615
      3         11           0       -0.190655    0.150285   -1.426659
      4         11           0       -3.012442   -0.913520    0.008527
      5         11           0        2.983215   -1.324558    0.034326
      6         11           0        0.369225    0.125675    2.058006
      7         11           0       -0.284993   -2.757203   -0.314222
 ---------------------------------------------------------------------

 SCF Done:  E(UB3LYP) =  -1136.13206902     A.U. after   20 cycles

 The electronic state is 2-A.
 Alpha  occ. eigenvalues --  -38.44555 -38.44145 -38.44093 -38.44011 -38.43561
 Alpha  occ. eigenvalues --  -38.43119 -38.42847  -2.20354  -2.19960  -2.19920
 Alpha  occ. eigenvalues --   -2.19824  -2.19423  -2.19107  -2.18739  -1.14032
 Alpha  occ. eigenvalues --   -1.14013  -1.13991  -1.13645  -1.13621  -1.13617
 Alpha  occ. eigenvalues --   -1.13594  -1.13571  -1.13560  -1.13497  -1.13473
 Alpha  occ. eigenvalues --   -1.13461  -1.13101  -1.13044  -1.13036  -1.12823
 Alpha  occ. eigenvalues --   -1.12770  -1.12722  -1.12426  -1.12391  -1.12362
 Alpha  occ. eigenvalues --   -0.18387  -0.13320  -0.12082  -0.10352
 Alpha virt. eigenvalues --   -0.06060  -0.05771  -0.04382  -0.03228  -0.02569
 Alpha virt. eigenvalues --   -0.02262  -0.01851  -0.01455  -0.00746  -0.00358
 Alpha virt. eigenvalues --   -0.00017   0.00309   0.00696   0.00740   0.00878

  Beta  occ. eigenvalues --  -38.44552 -38.44133 -38.44090 -38.44010 -38.43465
  Beta  occ. eigenvalues --  -38.43069 -38.42838  -2.20352  -2.19957  -2.19899
  Beta  occ. eigenvalues --   -2.19824  -2.19244  -2.19017  -2.18727  -1.14014
  Beta  occ. eigenvalues --   -1.14008  -1.13992  -1.13642  -1.13624  -1.13594
  Beta  occ. eigenvalues --   -1.13566  -1.13557  -1.13548  -1.13491  -1.13465
  Beta  occ. eigenvalues --   -1.13463  -1.12981  -1.12920  -1.12906  -1.12757
  Beta  occ. eigenvalues --   -1.12699  -1.12657  -1.12413  -1.12375  -1.12341
  Beta  occ. eigenvalues --   -0.17702  -0.13110  -0.11837
  Beta virt. eigenvalues --   -0.06521  -0.05994  -0.05685  -0.04361  -0.02490
  Beta virt. eigenvalues --   -0.01898  -0.01720  -0.01398  -0.01211  -0.00795
  Beta virt. eigenvalues --   -0.00378   0.00148   0.00352   0.00739   0.00774

 Mulliken charges and spin densities:
               1          2
     1  Na   0.151552  -0.026074
     2  Na  -0.031327  -0.012803
     3  Na  -0.315010   0.217224
     4  Na   0.213986   0.057071
     5  Na   0.247238   0.039078
     6  Na  -0.471200   0.683158
     7  Na   0.204762   0.042346
 Sum of Mulliken charges =  -0.00000   1.00000

 Dipole moment (field-independent basis, Debye):
    X=              0.2067    Y=              0.2274    Z=              0.1822  Tot=              0.3572
 Quadrupole moment (field-independent basis, Debye-Ang):
   XX=            -52.6022   YY=            -62.8104   ZZ=            -76.6827
   XY=             -0.9791   XZ=             -1.0851   YZ=             -0.0789

 Normal termination of Gaussian 16 at Thu Dec  7 19:15:55 2023.
