 Gaussian 16, Revision B.01,
 Gaussian 16:  ES64L-G16RevB.01 20-Dec-2017

 -------------------------
 #P B3LYP/6-311+g(d) force
 -------------------------

 -----
 DPGEN
 -----
 Symbolic Z-matrix:
 Charge =  0 Multiplicity = 2

                         Standard orientation:
 ---------------------------------------------------------------------
 Center     Atomic      Atomic             Coordinates (Angstroms)
 Number     Number       Type             X           Y           Z
 ---------------------------------------------------------------------
      1         11           0        0.731581   -0.056232    1.442003
      2         11           0       -3.591209    0.024340   -0.378759
      3         11           0        0.108757   -0.279844   -1.401810
      4         11           0        3.052481   -1.869581   -0.234554
      5         11           0       -1.607801   -2.358618    0.468425
      6         11           0        2.394511    2.014038   -0.195141
      7         11           0       -1.088320    2.525897    0.299836
 ---------------------------------------------------------------------

 SCF Done:  E(UB3LYP) =  -1136.12532034     A.U. after   23 cycles

 The electronic state is 2-A.
 Alpha  occ. eigenvalues --  -38.44490 -38.44330 -38.44224 -38.43687 -38.43640
 Alpha  occ. eigenvalues --  -38.43174 -38.42633  -2.20309  -2.20132  -2.20090
 Alpha  occ. eigenvalues --   -2.19682  -2.19512  -2.19032  -2.18697  -1.13982
 Alpha  occ. eigenvalues --   -1.13967  -1.13945  -1.13809  -1.13798  -1.13779
 Alpha  occ. eigenvalues --   -1.13774  -1.13762  -1.13693  -1.13483  -1.13332
 Alpha  occ. eigenvalues --   -1.13265  -1.13179  -1.13165  -1.13139  -1.12727
 Alpha  occ. eigenvalues --   -1.12702  -1.12654  -1.12416  -1.12322  -1.12270
 Alpha  occ. eigenvalues --   -0.18762  -0.13672  -0.12145  -0.09830
 Alpha virt. eigenvalues --   -0.06440  -0.05801  -0.04249  -0.03059  -0.02417
 Alpha virt. eigenvalues --   -0.02233  -0.01616  -0.01489  -0.00755  -0.00166
 Alpha virt. eigenvalues --   -0.00030   0.00216   0.00640   0.00718   0.00834

  Beta  occ. eigenvalues --  -38.44476 -38.44321 -38.44216 -38.43648 -38.43623
  Beta  occ. eigenvalues --  -38.43167 -38.42560  -2.20284  -2.20117  -2.20078
  Beta  occ. eigenvalues --   -2.19613  -2.19483  -2.19022  -2.18565  -1.13966
  Beta  occ. eigenvalues --   -1.13943  -1.13928  -1.13794  -1.13784  -1.13770
  Beta  occ. eigenvalues --   -1.13754  -1.13743  -1.13677  -1.13417  -1.13290
  Beta  occ. eigenvalues --   -1.13215  -1.13154  -1.13135  -1.13105  -1.12720
  Beta  occ. eigenvalues --   -1.12679  -1.12641  -1.12328  -1.12220  -1.12171
  Beta  occ. eigenvalues --   -0.18107  -0.13404  -0.11877
  Beta virt. eigenvalues --   -0.06358  -0.06010  -0.05765  -0.04184  -0.02449
  Beta virt. eigenvalues --   -0.02147  -0.01674  -0.01532  -0.00733  -0.00710
  Beta virt. eigenvalues --   -0.00155   0.00144   0.00296   0.00716   0.00749

 Mulliken charges and spin densities:
               1          2
     1  Na  -0.071797   0.097052
     2  Na   0.037887   0.101586
     3  Na  -0.639187   0.518031
     4  Na   0.134335   0.089402
     5  Na   0.361616   0.021538
     6  Na   0.163896   0.149041
     7  Na   0.013249   0.023352
 Sum of Mulliken charges =  -0.00000   1.00000

 Dipole moment (field-independent basis, Debye):
    X=              0.2471    Y=             -0.0129    Z=              0.0951  Tot=              0.2651
 Quadrupole moment (field-independent basis, Debye-Ang):
   XX=            -49.3413   YY=            -63.6701   ZZ=            -77.3042
   XY=             -0.0318   XZ=             -0.4921   YZ=             -0.3712

 Normal termination of Gaussian 16 at Thu Dec  7 13:01:29 2023.
