 Gaussian 16, Revision B.01,
 Gaussian 16:  ES64L-G16RevB.01 20-Dec-2017

 -------------------------
 #P B3LYP/6-311+g(d) force
 -------------------------

 -----
 DPGEN
 -----
 Symbolic Z-matrix:
 Charge =  0 Multiplicity = 2

                         Standard orientation:
 ---------------------------------------------------------------------
 Center     Atomic      Atomic             Coordinates (Angstroms)
 Number     Number       Type             X           Y           Z
 ---------------------------------------------------------------------
      1         11           0        0.372349    0.389346    1.891536
      2         11           0        0.171452    0.134955   -1.757608
      3         11           0        0.092937   -2.825424   -0.348461
      4         11           0       -2.664851   -1.392119    0.516832
      5         11           0        1.428810    2.755635   -0.003907
      6         11           0        2.951377   -1.008263    0.058536
      7         11           0       -2.352073    1.945869   -0.356929
 ---------------------------------------------------------------------

 SCF Done:  E(UB3LYP) =  -1136.13786025     A.U. after   19 cycles

 The electronic state is 2-A.
 Alpha  occ. eigenvalues --  -38.43923 -38.43910 -38.43900 -38.43473 -38.43461
 Alpha  occ. eigenvalues --  -38.43338 -38.43257  -2.19759  -2.19749  -2.19721
 Alpha  occ. eigenvalues --   -2.19390  -2.19306  -2.19221  -2.19216  -1.13454
 Alpha  occ. eigenvalues --   -1.13439  -1.13429  -1.13423  -1.13408  -1.13394
 Alpha  occ. eigenvalues --   -1.13383  -1.13369  -1.13347  -1.13060  -1.13026
 Alpha  occ. eigenvalues --   -1.13013  -1.13007  -1.12964  -1.12955  -1.12939
 Alpha  occ. eigenvalues --   -1.12883  -1.12864  -1.12842  -1.12835  -1.12818
 Alpha  occ. eigenvalues --   -0.18654  -0.12776  -0.12745  -0.10776
 Alpha virt. eigenvalues --   -0.05703  -0.05054  -0.04718  -0.03152  -0.03077
 Alpha virt. eigenvalues --   -0.02531  -0.01417  -0.01261  -0.00333  -0.00243
 Alpha virt. eigenvalues --    0.00021   0.00369   0.00826   0.00880   0.00933

  Beta  occ. eigenvalues --  -38.43919 -38.43905 -38.43893 -38.43452 -38.43393
  Beta  occ. eigenvalues --  -38.43332 -38.43182  -2.19756  -2.19744  -2.19711
  Beta  occ. eigenvalues --   -2.19292  -2.19243  -2.19212  -2.19079  -1.13444
  Beta  occ. eigenvalues --   -1.13433  -1.13411  -1.13402  -1.13394  -1.13388
  Beta  occ. eigenvalues --   -1.13367  -1.13362  -1.13344  -1.13012  -1.12963
  Beta  occ. eigenvalues --   -1.12947  -1.12936  -1.12918  -1.12907  -1.12896
  Beta  occ. eigenvalues --   -1.12851  -1.12830  -1.12791  -1.12748  -1.12725
  Beta  occ. eigenvalues --   -0.17932  -0.12536  -0.12485
  Beta virt. eigenvalues --   -0.06906  -0.05711  -0.04941  -0.04691  -0.02384
  Beta virt. eigenvalues --   -0.02305  -0.01502  -0.01344  -0.01187  -0.00362
  Beta virt. eigenvalues --   -0.00261   0.00133   0.00398   0.00821   0.00897

 Mulliken charges and spin densities:
               1          2
     1  Na  -0.250117   0.731893
     2  Na  -0.031964   0.512396
     3  Na   0.079513   0.030821
     4  Na  -0.042632   0.021760
     5  Na   0.079881  -0.160632
     6  Na   0.127201  -0.107921
     7  Na   0.038118  -0.028317
 Sum of Mulliken charges =  -0.00000   1.00000

 Dipole moment (field-independent basis, Debye):
    X=              0.2742    Y=              0.3680    Z=              0.0474  Tot=              0.4614
 Quadrupole moment (field-independent basis, Debye-Ang):
   XX=            -58.6830   YY=            -60.8004   ZZ=            -74.1391
   XY=             -0.3810   XZ=             -0.4878   YZ=             -0.7590

 Normal termination of Gaussian 16 at Sun Dec  3 14:07:32 2023.
