 Gaussian 16, Revision B.01,
 Gaussian 16:  ES64L-G16RevB.01 20-Dec-2017

 -------------------------
 #P B3LYP/6-311+g(d) force
 -------------------------

 -----
 DPGEN
 -----
 Symbolic Z-matrix:
 Charge =  0 Multiplicity = 2

                         Standard orientation:
 ---------------------------------------------------------------------
 Center     Atomic      Atomic             Coordinates (Angstroms)
 Number     Number       Type             X           Y           Z
 ---------------------------------------------------------------------
      1         11           0       -0.320822   -1.693994    1.512985
      2         11           0       -2.769620   -0.209760   -0.397230
      3         11           0        1.940439    1.251386    0.866285
      4         11           0       -0.209883   -1.021403   -1.246318
      5         11           0       -0.874248    1.207452    1.277870
      6         11           0       -0.055676    1.611270   -1.351784
      7         11           0        2.289811   -1.144951   -0.661809
 ---------------------------------------------------------------------

 SCF Done:  E(UB3LYP) =  -1136.08251224     A.U. after   21 cycles

 The electronic state is 2-A.
 Alpha  occ. eigenvalues --  -38.44269 -38.44076 -38.44008 -38.43829 -38.43695
 Alpha  occ. eigenvalues --  -38.43681 -38.43679  -2.20635  -2.20117  -2.20027
 Alpha  occ. eigenvalues --   -2.19987  -2.19901  -2.19740  -2.19711  -1.14689
 Alpha  occ. eigenvalues --   -1.14509  -1.14318  -1.13915  -1.13855  -1.13850
 Alpha  occ. eigenvalues --   -1.13775  -1.13700  -1.13659  -1.13594  -1.13572
 Alpha  occ. eigenvalues --   -1.13565  -1.13545  -1.13514  -1.13380  -1.13364
 Alpha  occ. eigenvalues --   -1.13316  -1.13307  -1.13303  -1.13284  -1.13254
 Alpha  occ. eigenvalues --   -0.21309  -0.13774  -0.12906  -0.12129
 Alpha virt. eigenvalues --   -0.05247  -0.04177  -0.03894  -0.03702  -0.03251
 Alpha virt. eigenvalues --   -0.03102  -0.01249  -0.00349  -0.00265   0.00341
 Alpha virt. eigenvalues --    0.00732   0.00857   0.01030   0.01106   0.01138

  Beta  occ. eigenvalues --  -38.44204 -38.44062 -38.43997 -38.43779 -38.43656
  Beta  occ. eigenvalues --  -38.43642 -38.43630  -2.20525  -2.20094  -2.20011
  Beta  occ. eigenvalues --   -2.19901  -2.19811  -2.19702  -2.19619  -1.14621
  Beta  occ. eigenvalues --   -1.14422  -1.14224  -1.13863  -1.13835  -1.13819
  Beta  occ. eigenvalues --   -1.13745  -1.13627  -1.13622  -1.13562  -1.13535
  Beta  occ. eigenvalues --   -1.13510  -1.13491  -1.13441  -1.13312  -1.13308
  Beta  occ. eigenvalues --   -1.13292  -1.13257  -1.13240  -1.13216  -1.13195
  Beta  occ. eigenvalues --   -0.20437  -0.13484  -0.11983
  Beta virt. eigenvalues --   -0.08420  -0.05214  -0.03905  -0.03594  -0.03084
  Beta virt. eigenvalues --   -0.02626  -0.01987  -0.01187  -0.00274  -0.00086
  Beta virt. eigenvalues --    0.00372   0.00770   0.00908   0.01074   0.01143

 Mulliken charges and spin densities:
               1          2
     1  Na  -0.264477   0.319942
     2  Na   0.305875  -0.090522
     3  Na  -0.200655   0.018067
     4  Na  -0.937261   0.110949
     5  Na   0.219524   0.363332
     6  Na   0.247396   0.286785
     7  Na   0.629599  -0.008553
 Sum of Mulliken charges =  -0.00000   1.00000

 Dipole moment (field-independent basis, Debye):
    X=             -0.1543    Y=             -0.0622    Z=              0.3426  Tot=              0.3809
 Quadrupole moment (field-independent basis, Debye-Ang):
   XX=            -58.5678   YY=            -74.2140   ZZ=            -64.2035
   XY=              0.2276   XZ=              0.8252   YZ=             -0.9672

 Normal termination of Gaussian 16 at Fri Dec  8 18:07:16 2023.
