 Gaussian 16, Revision B.01,
 Gaussian 16:  ES64L-G16RevB.01 20-Dec-2017

 -------------------------
 #P B3LYP/6-311+g(d) force
 -------------------------

 -----
 DPGEN
 -----
 Symbolic Z-matrix:
 Charge =  0 Multiplicity = 2

                         Standard orientation:
 ---------------------------------------------------------------------
 Center     Atomic      Atomic             Coordinates (Angstroms)
 Number     Number       Type             X           Y           Z
 ---------------------------------------------------------------------
      1         11           0        0.381220   -0.551008    1.898318
      2         11           0        2.856837   -1.167114   -0.175834
      3         11           0       -1.075665   -2.671918   -0.124595
      4         11           0        0.238976    0.090471   -1.806897
      5         11           0       -3.001372   -0.140952   -0.067892
      6         11           0       -1.274269    2.571730    0.205276
      7         11           0        1.874273    1.868791    0.071624
 ---------------------------------------------------------------------

 SCF Done:  E(UB3LYP) =  -1136.13501714     A.U. after   19 cycles

 The electronic state is 2-A.
 Alpha  occ. eigenvalues --  -38.43993 -38.43953 -38.43484 -38.43437 -38.43407
 Alpha  occ. eigenvalues --  -38.43390 -38.43068  -2.19879  -2.19821  -2.19429
 Alpha  occ. eigenvalues --   -2.19423  -2.19371  -2.19267  -2.18949  -1.13574
 Alpha  occ. eigenvalues --   -1.13547  -1.13518  -1.13498  -1.13490  -1.13476
 Alpha  occ. eigenvalues --   -1.13205  -1.13112  -1.13096  -1.13069  -1.13046
 Alpha  occ. eigenvalues --   -1.13037  -1.13013  -1.12989  -1.12978  -1.12926
 Alpha  occ. eigenvalues --   -1.12921  -1.12894  -1.12613  -1.12605  -1.12596
 Alpha  occ. eigenvalues --   -0.19192  -0.13408  -0.12504  -0.10987
 Alpha virt. eigenvalues --   -0.05660  -0.05019  -0.04490  -0.03394  -0.02973
 Alpha virt. eigenvalues --   -0.02573  -0.01469  -0.00914  -0.00199  -0.00023
 Alpha virt. eigenvalues --    0.00002   0.00365   0.00849   0.00917   0.00941

  Beta  occ. eigenvalues --  -38.43985 -38.43952 -38.43402 -38.43395 -38.43385
  Beta  occ. eigenvalues --  -38.43357 -38.43064  -2.19870  -2.19821  -2.19357
  Beta  occ. eigenvalues --   -2.19279  -2.19274  -2.19261  -2.18944  -1.13571
  Beta  occ. eigenvalues --   -1.13516  -1.13503  -1.13501  -1.13491  -1.13458
  Beta  occ. eigenvalues --   -1.13151  -1.13027  -1.13016  -1.12999  -1.12974
  Beta  occ. eigenvalues --   -1.12951  -1.12938  -1.12925  -1.12918  -1.12903
  Beta  occ. eigenvalues --   -1.12885  -1.12874  -1.12613  -1.12605  -1.12571
  Beta  occ. eigenvalues --   -0.18436  -0.13153  -0.12262
  Beta virt. eigenvalues --   -0.07034  -0.05627  -0.04999  -0.04454  -0.02556
  Beta virt. eigenvalues --   -0.02181  -0.01524  -0.01393  -0.00848  -0.00255
  Beta virt. eigenvalues --   -0.00040   0.00130   0.00392   0.00898   0.00913

 Mulliken charges and spin densities:
               1          2
     1  Na  -0.491628   0.618106
     2  Na   0.493341  -0.092419
     3  Na   0.224733  -0.122732
     4  Na  -0.438973   0.548266
     5  Na  -0.027300  -0.018774
     6  Na  -0.087714  -0.046285
     7  Na   0.327540   0.113839
 Sum of Mulliken charges =  -0.00000   1.00000

 Dipole moment (field-independent basis, Debye):
    X=              0.1301    Y=             -0.3271    Z=              0.0301  Tot=              0.3533
 Quadrupole moment (field-independent basis, Debye-Ang):
   XX=            -57.1841   YY=            -64.7249   ZZ=            -73.0040
   XY=             -0.9992   XZ=             -0.2979   YZ=              1.3487

 Normal termination of Gaussian 16 at Thu Dec  7 04:38:13 2023.
