 Gaussian 16, Revision B.01,
 Gaussian 16:  ES64L-G16RevB.01 20-Dec-2017

 -------------------------
 #P B3LYP/6-311+g(d) force
 -------------------------

 -----
 DPGEN
 -----
 Symbolic Z-matrix:
 Charge =  0 Multiplicity = 2

                         Standard orientation:
 ---------------------------------------------------------------------
 Center     Atomic      Atomic             Coordinates (Angstroms)
 Number     Number       Type             X           Y           Z
 ---------------------------------------------------------------------
      1         11           0        1.223118   -2.625147   -0.913620
      2         11           0       -1.191078   -1.306469    1.632225
      3         11           0       -0.752812    2.345459    1.067299
      4         11           0        2.764314   -0.714660    1.040848
      5         11           0        2.213036    2.059985   -0.608497
      6         11           0       -0.342003    0.498220   -1.777175
      7         11           0       -3.914575   -0.257388   -0.441081
 ---------------------------------------------------------------------

 SCF Done:  E(UB3LYP) =  -1136.12746981     A.U. after   21 cycles

 The electronic state is 2-A.
 Alpha  occ. eigenvalues --  -38.45066 -38.44147 -38.44005 -38.43901 -38.43505
 Alpha  occ. eigenvalues --  -38.43434 -38.43382  -2.20812  -2.19997  -2.19828
 Alpha  occ. eigenvalues --   -2.19717  -2.19409  -2.19273  -2.19256  -1.14485
 Alpha  occ. eigenvalues --   -1.14479  -1.14443  -1.13673  -1.13658  -1.13644
 Alpha  occ. eigenvalues --   -1.13519  -1.13497  -1.13442  -1.13401  -1.13381
 Alpha  occ. eigenvalues --   -1.13323  -1.13097  -1.13058  -1.13048  -1.12935
 Alpha  occ. eigenvalues --   -1.12929  -1.12920  -1.12910  -1.12904  -1.12879
 Alpha  occ. eigenvalues --   -0.17998  -0.13052  -0.12043  -0.10794
 Alpha virt. eigenvalues --   -0.06637  -0.04971  -0.04310  -0.03452  -0.03154
 Alpha virt. eigenvalues --   -0.02575  -0.02137  -0.00871  -0.00657  -0.00100
 Alpha virt. eigenvalues --    0.00041   0.00280   0.00368   0.00722   0.00794

  Beta  occ. eigenvalues --  -38.45070 -38.44132 -38.43980 -38.43860 -38.43430
  Beta  occ. eigenvalues --  -38.43419 -38.43376  -2.20820  -2.19968  -2.19784
  Beta  occ. eigenvalues --   -2.19642  -2.19274  -2.19247  -2.19247  -1.14488
  Beta  occ. eigenvalues --   -1.14478  -1.14450  -1.13650  -1.13640  -1.13616
  Beta  occ. eigenvalues --   -1.13492  -1.13448  -1.13412  -1.13352  -1.13316
  Beta  occ. eigenvalues --   -1.13272  -1.13018  -1.12973  -1.12950  -1.12919
  Beta  occ. eigenvalues --   -1.12911  -1.12903  -1.12878  -1.12872  -1.12863
  Beta  occ. eigenvalues --   -0.17273  -0.12905  -0.11868
  Beta virt. eigenvalues --   -0.07015  -0.06464  -0.04829  -0.04079  -0.02955
  Beta virt. eigenvalues --   -0.02557  -0.02064  -0.01574  -0.00860  -0.00432
  Beta virt. eigenvalues --   -0.00008   0.00101   0.00324   0.00509   0.00824

 Mulliken charges and spin densities:
               1          2
     1  Na  -0.035873  -0.058754
     2  Na  -0.081959   0.296993
     3  Na  -0.343636   0.182906
     4  Na  -0.077618   0.223265
     5  Na   0.558968  -0.035267
     6  Na  -0.138322   0.499880
     7  Na   0.118441  -0.109023
 Sum of Mulliken charges =  -0.00000   1.00000

 Dipole moment (field-independent basis, Debye):
    X=             -0.8216    Y=              0.0959    Z=              0.1528  Tot=              0.8411
 Quadrupole moment (field-independent basis, Debye-Ang):
   XX=            -53.3235   YY=            -69.6899   ZZ=            -70.8449
   XY=              0.7968   XZ=              1.5721   YZ=              1.9778

 Normal termination of Gaussian 16 at Mon Dec  4 01:45:27 2023.
