 Gaussian 16, Revision B.01,
 Gaussian 16:  ES64L-G16RevB.01 20-Dec-2017

 -------------------------
 #P B3LYP/6-311+g(d) force
 -------------------------

 -----
 DPGEN
 -----
 Symbolic Z-matrix:
 Charge =  0 Multiplicity = 2

                         Standard orientation:
 ---------------------------------------------------------------------
 Center     Atomic      Atomic             Coordinates (Angstroms)
 Number     Number       Type             X           Y           Z
 ---------------------------------------------------------------------
      1         11           0       -0.149289    2.802809   -0.079366
      2         11           0        3.981439   -1.955861   -0.264612
      3         11           0        2.733343    1.370691    0.279099
      4         11           0        0.130294   -1.146106   -0.080223
      5         11           0       -1.901052    0.774200   -2.337823
      6         11           0       -3.065563   -2.161447   -0.103525
      7         11           0       -1.729172    0.315715    2.586450
 ---------------------------------------------------------------------

 SCF Done:  E(UB3LYP) =  -1136.12341929     A.U. after   23 cycles

 The electronic state is 2-A.
 Alpha  occ. eigenvalues --  -38.45201 -38.44849 -38.44217 -38.44130 -38.43808
 Alpha  occ. eigenvalues --  -38.43695 -38.42639  -2.21002  -2.20665  -2.20007
 Alpha  occ. eigenvalues --   -2.19947  -2.19670  -2.19452  -2.18481  -1.14665
 Alpha  occ. eigenvalues --   -1.14627  -1.14599  -1.14335  -1.14301  -1.14266
 Alpha  occ. eigenvalues --   -1.13690  -1.13659  -1.13654  -1.13636  -1.13630
 Alpha  occ. eigenvalues --   -1.13560  -1.13400  -1.13350  -1.13263  -1.13128
 Alpha  occ. eigenvalues --   -1.13120  -1.13081  -1.12164  -1.12140  -1.12133
 Alpha  occ. eigenvalues --   -0.17519  -0.13150  -0.11754  -0.11467
 Alpha virt. eigenvalues --   -0.06250  -0.05753  -0.04205  -0.03429  -0.03205
 Alpha virt. eigenvalues --   -0.02706  -0.01978  -0.01316  -0.00758  -0.00628
 Alpha virt. eigenvalues --    0.00121   0.00211   0.00290   0.00497   0.00661

  Beta  occ. eigenvalues --  -38.45092 -38.44764 -38.44218 -38.44131 -38.43799
  Beta  occ. eigenvalues --  -38.43703 -38.42640  -2.20800  -2.20507  -2.20013
  Beta  occ. eigenvalues --   -2.19949  -2.19657  -2.19467  -2.18484  -1.14525
  Beta  occ. eigenvalues --   -1.14494  -1.14456  -1.14225  -1.14199  -1.14152
  Beta  occ. eigenvalues --   -1.13697  -1.13662  -1.13640  -1.13638  -1.13627
  Beta  occ. eigenvalues --   -1.13566  -1.13356  -1.13346  -1.13262  -1.13137
  Beta  occ. eigenvalues --   -1.13130  -1.13090  -1.12169  -1.12143  -1.12114
  Beta  occ. eigenvalues --   -0.16811  -0.12983  -0.11438
  Beta virt. eigenvalues --   -0.07696  -0.05903  -0.05577  -0.03879  -0.02783
  Beta virt. eigenvalues --   -0.02687  -0.02135  -0.01934  -0.01204  -0.00610
  Beta virt. eigenvalues --   -0.00342   0.00182   0.00271   0.00549   0.00692

 Mulliken charges and spin densities:
               1          2
     1  Na   0.150679   0.126403
     2  Na   0.778709  -0.131916
     3  Na   0.208461  -0.041936
     4  Na  -1.843061   0.210536
     5  Na  -0.107099   0.300207
     6  Na   0.874009   0.093725
     7  Na  -0.061697   0.442980
 Sum of Mulliken charges =  -0.00000   1.00000

 Dipole moment (field-independent basis, Debye):
    X=             -1.0163    Y=             -0.1502    Z=              0.0889  Tot=              1.0311
 Quadrupole moment (field-independent basis, Debye-Ang):
   XX=            -58.0099   YY=            -69.2106   ZZ=            -67.3441
   XY=              1.7122   XZ=              0.3917   YZ=              1.5359

 Normal termination of Gaussian 16 at Wed Dec  6 00:59:27 2023.
