 Gaussian 16, Revision B.01,
 Gaussian 16:  ES64L-G16RevB.01 20-Dec-2017

 -------------------------
 #P B3LYP/6-311+g(d) force
 -------------------------

 -----
 DPGEN
 -----
 Symbolic Z-matrix:
 Charge =  0 Multiplicity = 2

                         Standard orientation:
 ---------------------------------------------------------------------
 Center     Atomic      Atomic             Coordinates (Angstroms)
 Number     Number       Type             X           Y           Z
 ---------------------------------------------------------------------
      1         11           0        4.123958    0.649947    0.132110
      2         11           0       -0.247324   -0.617134    1.962706
      3         11           0       -2.227027    2.196815    0.511557
      4         11           0       -3.814345   -1.097345   -0.052695
      5         11           0       -0.863281   -0.764834   -1.781621
      6         11           0        0.910529    1.664072   -0.808349
      7         11           0        2.117491   -2.031521    0.036292
 ---------------------------------------------------------------------

 SCF Done:  E(UB3LYP) =  -1136.11391909     A.U. after   26 cycles

 The electronic state is 2-A.
 Alpha  occ. eigenvalues --  -38.46166 -38.45820 -38.44472 -38.43654 -38.43462
 Alpha  occ. eigenvalues --  -38.43337 -38.42617  -2.21932  -2.21579  -2.20307
 Alpha  occ. eigenvalues --   -2.19553  -2.19303  -2.19160  -2.18507  -1.15602
 Alpha  occ. eigenvalues --   -1.15590  -1.15574  -1.15257  -1.15239  -1.15215
 Alpha  occ. eigenvalues --   -1.13998  -1.13938  -1.13925  -1.13255  -1.13177
 Alpha  occ. eigenvalues --   -1.13162  -1.12990  -1.12966  -1.12942  -1.12833
 Alpha  occ. eigenvalues --   -1.12812  -1.12804  -1.12224  -1.12177  -1.12105
 Alpha  occ. eigenvalues --   -0.18159  -0.13953  -0.10867  -0.10807
 Alpha virt. eigenvalues --   -0.08069  -0.05343  -0.03871  -0.03604  -0.02973
 Alpha virt. eigenvalues --   -0.02392  -0.02267  -0.01535  -0.00801  -0.00414
 Alpha virt. eigenvalues --   -0.00358   0.00171   0.00313   0.00603   0.00655

  Beta  occ. eigenvalues --  -38.46173 -38.45819 -38.44402 -38.43570 -38.43458
  Beta  occ. eigenvalues --  -38.43321 -38.42594  -2.21945  -2.21580  -2.20178
  Beta  occ. eigenvalues --   -2.19398  -2.19299  -2.19132  -2.18469  -1.15611
  Beta  occ. eigenvalues --   -1.15595  -1.15583  -1.15248  -1.15235  -1.15215
  Beta  occ. eigenvalues --   -1.13911  -1.13846  -1.13829  -1.13146  -1.13067
  Beta  occ. eigenvalues --   -1.13056  -1.12987  -1.12944  -1.12940  -1.12810
  Beta  occ. eigenvalues --   -1.12792  -1.12778  -1.12194  -1.12126  -1.12084
  Beta  occ. eigenvalues --   -0.17423  -0.13817  -0.10635
  Beta virt. eigenvalues --   -0.07915  -0.06915  -0.05283  -0.03621  -0.03064
  Beta virt. eigenvalues --   -0.02816  -0.01735  -0.01544  -0.01339  -0.00536
  Beta virt. eigenvalues --   -0.00421  -0.00276   0.00168   0.00459   0.00681

 Mulliken charges and spin densities:
               1          2
     1  Na   0.005310  -0.139477
     2  Na  -0.220696   0.384435
     3  Na  -0.074341   0.058422
     4  Na   0.100314  -0.000662
     5  Na   0.017060   0.232942
     6  Na  -0.102572   0.232942
     7  Na   0.274925   0.231398
 Sum of Mulliken charges =  -0.00000   1.00000

 Dipole moment (field-independent basis, Debye):
    X=              0.2661    Y=             -0.2003    Z=              0.4011  Tot=              0.5214
 Quadrupole moment (field-independent basis, Debye-Ang):
   XX=            -37.5495   YY=            -77.9001   ZZ=            -74.3836
   XY=              2.0428   XZ=             -0.2077   YZ=              1.7479

 Normal termination of Gaussian 16 at Thu Dec  7 07:22:05 2023.
