 Gaussian 16, Revision B.01,
 Gaussian 16:  ES64L-G16RevB.01 20-Dec-2017

 -------------------------
 #P B3LYP/6-311+g(d) force
 -------------------------

 -----
 DPGEN
 -----
 Symbolic Z-matrix:
 Charge =  0 Multiplicity = 2

                         Standard orientation:
 ---------------------------------------------------------------------
 Center     Atomic      Atomic             Coordinates (Angstroms)
 Number     Number       Type             X           Y           Z
 ---------------------------------------------------------------------
      1         11           0       -0.676575   -2.697601    0.319031
      2         11           0        2.337182   -2.962257   -0.438833
      3         11           0        3.218305    0.868407   -0.915384
      4         11           0        0.830223    0.503154    1.437451
      5         11           0       -2.650942    0.487628    1.434814
      6         11           0        1.190653    3.553049   -0.185274
      7         11           0       -4.248845    0.247619   -1.651805
 ---------------------------------------------------------------------

 SCF Done:  E(UB3LYP) =  -1136.12181347     A.U. after   19 cycles

 The electronic state is 2-A.
 Alpha  occ. eigenvalues --  -38.44927 -38.44452 -38.44419 -38.43952 -38.43922
 Alpha  occ. eigenvalues --  -38.43584 -38.43471  -2.20708  -2.20260  -2.20234
 Alpha  occ. eigenvalues --   -2.19835  -2.19719  -2.19395  -2.19271  -1.14380
 Alpha  occ. eigenvalues --   -1.14367  -1.14343  -1.13946  -1.13931  -1.13922
 Alpha  occ. eigenvalues --   -1.13906  -1.13895  -1.13832  -1.13527  -1.13498
 Alpha  occ. eigenvalues --   -1.13446  -1.13358  -1.13357  -1.13330  -1.13069
 Alpha  occ. eigenvalues --   -1.13053  -1.13031  -1.12951  -1.12937  -1.12926
 Alpha  occ. eigenvalues --   -0.16874  -0.13424  -0.12636  -0.10539
 Alpha virt. eigenvalues --   -0.06486  -0.05257  -0.04874  -0.03910  -0.02575
 Alpha virt. eigenvalues --   -0.02197  -0.01846  -0.01418  -0.01197  -0.00764
 Alpha virt. eigenvalues --   -0.00216   0.00206   0.00260   0.00340   0.00584

  Beta  occ. eigenvalues --  -38.44928 -38.44449 -38.44390 -38.43906 -38.43817
  Beta  occ. eigenvalues --  -38.43578 -38.43469  -2.20710  -2.20256  -2.20179
  Beta  occ. eigenvalues --   -2.19753  -2.19522  -2.19386  -2.19276  -1.14381
  Beta  occ. eigenvalues --   -1.14362  -1.14345  -1.13945  -1.13921  -1.13893
  Beta  occ. eigenvalues --   -1.13886  -1.13869  -1.13790  -1.13476  -1.13426
  Beta  occ. eigenvalues --   -1.13381  -1.13224  -1.13222  -1.13203  -1.13064
  Beta  occ. eigenvalues --   -1.13043  -1.13023  -1.12959  -1.12945  -1.12880
  Beta  occ. eigenvalues --   -0.16408  -0.13012  -0.12273
  Beta virt. eigenvalues --   -0.07020  -0.06322  -0.05013  -0.04324  -0.03751
  Beta virt. eigenvalues --   -0.02356  -0.01726  -0.01509  -0.01285  -0.01018
  Beta virt. eigenvalues --   -0.00647   0.00089   0.00329   0.00524   0.00557

 Mulliken charges and spin densities:
               1          2
     1  Na  -0.158710   0.045253
     2  Na   0.104453   0.049565
     3  Na  -0.003664   0.294582
     4  Na  -0.016184  -0.013030
     5  Na   0.023672   0.026302
     6  Na   0.169205   0.022905
     7  Na  -0.118772   0.574423
 Sum of Mulliken charges =  -0.00000   1.00000

 Dipole moment (field-independent basis, Debye):
    X=              1.1905    Y=              0.8266    Z=             -0.2431  Tot=              1.4696
 Quadrupole moment (field-independent basis, Debye-Ang):
   XX=            -71.2909   YY=            -58.9418   ZZ=            -69.9139
   XY=              1.1342   XZ=             -2.1101   YZ=             -0.6067

 Normal termination of Gaussian 16 at Wed Nov 29 03:58:13 2023.
