 Gaussian 16, Revision B.01,
 Gaussian 16:  ES64L-G16RevB.01 20-Dec-2017

 -------------------------
 #P B3LYP/6-311+g(d) force
 -------------------------

 -----
 DPGEN
 -----
 Symbolic Z-matrix:
 Charge =  0 Multiplicity = 2

                         Standard orientation:
 ---------------------------------------------------------------------
 Center     Atomic      Atomic             Coordinates (Angstroms)
 Number     Number       Type             X           Y           Z
 ---------------------------------------------------------------------
      1         11           0        2.152645    0.192241    1.335349
      2         11           0       -1.003919    2.194314    1.324511
      3         11           0       -3.627573   -1.971932    0.371480
      4         11           0       -2.381624    1.217123   -1.395327
      5         11           0        1.397336    0.961293   -1.240266
      6         11           0        4.389904   -1.168383   -0.405160
      7         11           0       -0.926770   -1.424656    0.009412
 ---------------------------------------------------------------------

 SCF Done:  E(UB3LYP) =  -1136.11161991     A.U. after   23 cycles

 The electronic state is 2-A.
 Alpha  occ. eigenvalues --  -38.44795 -38.44685 -38.44066 -38.43985 -38.43835
 Alpha  occ. eigenvalues --  -38.43686 -38.43310  -2.20608  -2.20604  -2.19959
 Alpha  occ. eigenvalues --   -2.19950  -2.19790  -2.19535  -2.19172  -1.14451
 Alpha  occ. eigenvalues --   -1.14301  -1.14290  -1.14258  -1.14236  -1.14137
 Alpha  occ. eigenvalues --   -1.13646  -1.13643  -1.13634  -1.13611  -1.13594
 Alpha  occ. eigenvalues --   -1.13539  -1.13520  -1.13435  -1.13404  -1.13212
 Alpha  occ. eigenvalues --   -1.13184  -1.13163  -1.12830  -1.12798  -1.12781
 Alpha  occ. eigenvalues --   -0.18456  -0.14392  -0.11571  -0.10489
 Alpha virt. eigenvalues --   -0.07114  -0.05264  -0.04586  -0.03066  -0.02819
 Alpha virt. eigenvalues --   -0.02334  -0.01909  -0.01702  -0.00959  -0.00128
 Alpha virt. eigenvalues --   -0.00044   0.00197   0.00330   0.00578   0.00750

  Beta  occ. eigenvalues --  -38.44780 -38.44659 -38.44017 -38.43945 -38.43817
  Beta  occ. eigenvalues --  -38.43667 -38.43309  -2.20577  -2.20561  -2.19887
  Beta  occ. eigenvalues --   -2.19857  -2.19762  -2.19504  -2.19171  -1.14400
  Beta  occ. eigenvalues --   -1.14272  -1.14269  -1.14237  -1.14213  -1.14103
  Beta  occ. eigenvalues --   -1.13604  -1.13593  -1.13581  -1.13567  -1.13552
  Beta  occ. eigenvalues --   -1.13473  -1.13440  -1.13389  -1.13378  -1.13190
  Beta  occ. eigenvalues --   -1.13147  -1.13134  -1.12825  -1.12798  -1.12777
  Beta  occ. eigenvalues --   -0.17793  -0.14174  -0.11342
  Beta virt. eigenvalues --   -0.06984  -0.06702  -0.05087  -0.04031  -0.02873
  Beta virt. eigenvalues --   -0.02689  -0.01932  -0.01538  -0.01225  -0.00480
  Beta virt. eigenvalues --   -0.00082   0.00047   0.00258   0.00458   0.00651

 Mulliken charges and spin densities:
               1          2
     1  Na   0.179990   0.142314
     2  Na  -0.053725   0.034756
     3  Na   1.117179  -0.148993
     4  Na   0.281159   0.338145
     5  Na  -0.293989   0.309129
     6  Na   0.645055   0.092904
     7  Na  -1.875669   0.231745
 Sum of Mulliken charges =  -0.00000   1.00000

 Dipole moment (field-independent basis, Debye):
    X=              0.8306    Y=              0.5364    Z=              0.1412  Tot=              0.9988
 Quadrupole moment (field-independent basis, Debye-Ang):
   XX=            -51.3118   YY=            -72.4981   ZZ=            -70.9699
   XY=             -7.2282   XZ=             -1.5818   YZ=              1.5702

 Normal termination of Gaussian 16 at Tue Dec  5 12:50:14 2023.
