 Gaussian 16, Revision B.01,
 Gaussian 16:  ES64L-G16RevB.01 20-Dec-2017

 -------------------------
 #P B3LYP/6-311+g(d) force
 -------------------------

 -----
 DPGEN
 -----
 Symbolic Z-matrix:
 Charge =  0 Multiplicity = 2

                         Standard orientation:
 ---------------------------------------------------------------------
 Center     Atomic      Atomic             Coordinates (Angstroms)
 Number     Number       Type             X           Y           Z
 ---------------------------------------------------------------------
      1         11           0        3.540986   -1.384299    0.285386
      2         11           0       -0.019765   -0.491530    2.003014
      3         11           0        2.170497    2.032615   -0.290577
      4         11           0       -3.436080    0.308096    0.228172
      5         11           0        0.865218   -0.743569   -1.361334
      6         11           0       -2.155004   -2.061506   -0.661372
      7         11           0       -0.965852    2.340193   -0.203288
 ---------------------------------------------------------------------

 SCF Done:  E(UB3LYP) =  -1136.11998723     A.U. after   22 cycles

 The electronic state is 2-A.
 Alpha  occ. eigenvalues --  -38.45290 -38.45034 -38.44053 -38.43826 -38.43779
 Alpha  occ. eigenvalues --  -38.43569 -38.42621  -2.21171  -2.20828  -2.19905
 Alpha  occ. eigenvalues --   -2.19721  -2.19653  -2.19515  -2.18506  -1.14918
 Alpha  occ. eigenvalues --   -1.14821  -1.14793  -1.14510  -1.14482  -1.14469
 Alpha  occ. eigenvalues --   -1.13591  -1.13537  -1.13505  -1.13409  -1.13379
 Alpha  occ. eigenvalues --   -1.13364  -1.13336  -1.13310  -1.13285  -1.13197
 Alpha  occ. eigenvalues --   -1.13148  -1.13136  -1.12183  -1.12172  -1.12154
 Alpha  occ. eigenvalues --   -0.18603  -0.14182  -0.11755  -0.10509
 Alpha virt. eigenvalues --   -0.07092  -0.05627  -0.04083  -0.03473  -0.02670
 Alpha virt. eigenvalues --   -0.02334  -0.02226  -0.01377  -0.00534  -0.00267
 Alpha virt. eigenvalues --    0.00028   0.00146   0.00486   0.00652   0.00732

  Beta  occ. eigenvalues --  -38.45289 -38.45037 -38.43957 -38.43805 -38.43769
  Beta  occ. eigenvalues --  -38.43525 -38.42617  -2.21172  -2.20836  -2.19727
  Beta  occ. eigenvalues --   -2.19684  -2.19638  -2.19436  -2.18502  -1.14919
  Beta  occ. eigenvalues --   -1.14824  -1.14774  -1.14513  -1.14488  -1.14465
  Beta  occ. eigenvalues --   -1.13471  -1.13415  -1.13388  -1.13375  -1.13354
  Beta  occ. eigenvalues --   -1.13344  -1.13293  -1.13292  -1.13271  -1.13140
  Beta  occ. eigenvalues --   -1.13087  -1.13078  -1.12183  -1.12172  -1.12125
  Beta  occ. eigenvalues --   -0.17915  -0.14013  -0.11520
  Beta virt. eigenvalues --   -0.06961  -0.06649  -0.05576  -0.03771  -0.03012
  Beta virt. eigenvalues --   -0.02475  -0.01691  -0.01396  -0.01157  -0.00547
  Beta virt. eigenvalues --   -0.00060   0.00074   0.00185   0.00620   0.00728

 Mulliken charges and spin densities:
               1          2
     1  Na   0.367612   0.016700
     2  Na  -0.521237   0.617092
     3  Na   0.207695   0.021638
     4  Na   0.397869   0.104091
     5  Na  -0.239435   0.212978
     6  Na   0.137164   0.081081
     7  Na  -0.349667  -0.053580
 Sum of Mulliken charges =  -0.00000   1.00000

 Dipole moment (field-independent basis, Debye):
    X=              0.4988    Y=             -0.2476    Z=              0.3778  Tot=              0.6729
 Quadrupole moment (field-independent basis, Debye-Ang):
   XX=            -45.9057   YY=            -72.2094   ZZ=            -75.6505
   XY=             -1.5589   XZ=              0.5731   YZ=             -0.0355

 Normal termination of Gaussian 16 at Tue Dec  5 11:32:48 2023.
