 Gaussian 16, Revision B.01,
 Gaussian 16:  ES64L-G16RevB.01 20-Dec-2017

 -------------------------
 #P B3LYP/6-311+g(d) force
 -------------------------

 -----
 DPGEN
 -----
 Symbolic Z-matrix:
 Charge =  0 Multiplicity = 2

                         Standard orientation:
 ---------------------------------------------------------------------
 Center     Atomic      Atomic             Coordinates (Angstroms)
 Number     Number       Type             X           Y           Z
 ---------------------------------------------------------------------
      1         11           0        1.039365    2.727791   -0.064295
      2         11           0       -2.952617   -1.407410   -0.023517
      3         11           0       -2.141440    2.014947    0.190102
      4         11           0        0.205774   -0.354037    1.858129
      5         11           0        3.438103   -0.564651    0.103597
      6         11           0        0.144740    0.153605   -1.773023
      7         11           0        0.266075   -2.570246   -0.290994
 ---------------------------------------------------------------------

 SCF Done:  E(UB3LYP) =  -1136.13525889     A.U. after   19 cycles

 The electronic state is 2-A.
 Alpha  occ. eigenvalues --  -38.44535 -38.43893 -38.43514 -38.43497 -38.43403
 Alpha  occ. eigenvalues --  -38.43337 -38.43260  -2.20308  -2.19710  -2.19423
 Alpha  occ. eigenvalues --   -2.19371  -2.19265  -2.19263  -2.19226  -1.13983
 Alpha  occ. eigenvalues --   -1.13964  -1.13946  -1.13376  -1.13374  -1.13362
 Alpha  occ. eigenvalues --   -1.13172  -1.13087  -1.13061  -1.13040  -1.13033
 Alpha  occ. eigenvalues --   -1.13024  -1.13009  -1.12982  -1.12920  -1.12912
 Alpha  occ. eigenvalues --   -1.12876  -1.12869  -1.12844  -1.12818  -1.12814
 Alpha  occ. eigenvalues --   -0.18703  -0.12817  -0.12622  -0.10635
 Alpha virt. eigenvalues --   -0.06002  -0.05027  -0.04569  -0.03027  -0.02938
 Alpha virt. eigenvalues --   -0.02437  -0.01924  -0.01087  -0.00297  -0.00208
 Alpha virt. eigenvalues --   -0.00027   0.00319   0.00768   0.00869   0.00888

  Beta  occ. eigenvalues --  -38.44535 -38.43893 -38.43509 -38.43419 -38.43398
  Beta  occ. eigenvalues --  -38.43321 -38.43179  -2.20310  -2.19712  -2.19364
  Beta  occ. eigenvalues --   -2.19279  -2.19259  -2.19239  -2.19080  -1.13970
  Beta  occ. eigenvalues --   -1.13964  -1.13949  -1.13381  -1.13365  -1.13356
  Beta  occ. eigenvalues --   -1.13097  -1.13066  -1.13025  -1.13009  -1.12977
  Beta  occ. eigenvalues --   -1.12975  -1.12952  -1.12910  -1.12896  -1.12876
  Beta  occ. eigenvalues --   -1.12858  -1.12828  -1.12784  -1.12727  -1.12717
  Beta  occ. eigenvalues --   -0.17961  -0.12608  -0.12368
  Beta virt. eigenvalues --   -0.06721  -0.05961  -0.05031  -0.04526  -0.02294
  Beta virt. eigenvalues --   -0.02141  -0.01837  -0.01376  -0.01034  -0.00347
  Beta virt. eigenvalues --   -0.00238   0.00109   0.00339   0.00808   0.00861

 Mulliken charges and spin densities:
               1          2
     1  Na   0.088684  -0.128508
     2  Na   0.044513  -0.063354
     3  Na   0.055153  -0.041030
     4  Na  -0.463506   0.819402
     5  Na   0.108945  -0.126636
     6  Na  -0.193411   0.617091
     7  Na   0.359624  -0.076965
 Sum of Mulliken charges =  -0.00000   1.00000

 Dipole moment (field-independent basis, Debye):
    X=              0.3236    Y=             -0.0274    Z=              0.0925  Tot=              0.3377
 Quadrupole moment (field-independent basis, Debye-Ang):
   XX=            -52.7483   YY=            -64.6852   ZZ=            -74.9984
   XY=              0.5801   XZ=             -0.1233   YZ=              0.9774

 Normal termination of Gaussian 16 at Tue Dec  5 10:05:01 2023.
