 Gaussian 16, Revision B.01,
 Gaussian 16:  ES64L-G16RevB.01 20-Dec-2017

 -------------------------
 #P B3LYP/6-311+g(d) force
 -------------------------

 -----
 DPGEN
 -----
 Symbolic Z-matrix:
 Charge =  0 Multiplicity = 2

                         Standard orientation:
 ---------------------------------------------------------------------
 Center     Atomic      Atomic             Coordinates (Angstroms)
 Number     Number       Type             X           Y           Z
 ---------------------------------------------------------------------
      1         11           0       -1.381769    0.991066    2.045559
      2         11           0       -3.147787   -1.709421    0.863291
      3         11           0        3.745499   -1.988646   -0.057235
      4         11           0        3.709014    1.430477    0.003555
      5         11           0        0.110328   -1.688497   -0.563491
      6         11           0       -2.877111    0.446271   -2.002554
      7         11           0       -0.158173    2.518750   -0.289125
 ---------------------------------------------------------------------

 SCF Done:  E(UB3LYP) =  -1136.11569504     A.U. after   23 cycles

 The electronic state is 2-A.
 Alpha  occ. eigenvalues --  -38.45582 -38.44973 -38.44516 -38.44299 -38.44191
 Alpha  occ. eigenvalues --  -38.43965 -38.42755  -2.21317  -2.20735  -2.20334
 Alpha  occ. eigenvalues --   -2.20127  -2.19968  -2.19837  -2.18588  -1.15007
 Alpha  occ. eigenvalues --   -1.14971  -1.14953  -1.14443  -1.14425  -1.14339
 Alpha  occ. eigenvalues --   -1.13997  -1.13956  -1.13951  -1.13793  -1.13791
 Alpha  occ. eigenvalues --   -1.13757  -1.13639  -1.13626  -1.13616  -1.13515
 Alpha  occ. eigenvalues --   -1.13488  -1.13451  -1.12292  -1.12251  -1.12208
 Alpha  occ. eigenvalues --   -0.17340  -0.13761  -0.11523  -0.11017
 Alpha virt. eigenvalues --   -0.07112  -0.06157  -0.03893  -0.03358  -0.02903
 Alpha virt. eigenvalues --   -0.02679  -0.02489  -0.01646  -0.01017  -0.00736
 Alpha virt. eigenvalues --   -0.00181   0.00129   0.00275   0.00390   0.00560

  Beta  occ. eigenvalues --  -38.45588 -38.44974 -38.44418 -38.44270 -38.44196
  Beta  occ. eigenvalues --  -38.43898 -38.42748  -2.21328  -2.20738  -2.20151
  Beta  occ. eigenvalues --   -2.20078  -2.19977  -2.19713  -2.18579  -1.15013
  Beta  occ. eigenvalues --   -1.14978  -1.14963  -1.14433  -1.14423  -1.14346
  Beta  occ. eigenvalues --   -1.13868  -1.13834  -1.13824  -1.13762  -1.13745
  Beta  occ. eigenvalues --   -1.13707  -1.13644  -1.13633  -1.13621  -1.13431
  Beta  occ. eigenvalues --   -1.13403  -1.13359  -1.12282  -1.12241  -1.12193
  Beta  occ. eigenvalues --   -0.16671  -0.13606  -0.11404
  Beta virt. eigenvalues --   -0.07022  -0.06932  -0.05981  -0.03737  -0.02960
  Beta virt. eigenvalues --   -0.02474  -0.02375  -0.01799  -0.01354  -0.00940
  Beta virt. eigenvalues --   -0.00309  -0.00140   0.00185   0.00433   0.00548

 Mulliken charges and spin densities:
               1          2
     1  Na  -0.087842   0.227668
     2  Na   0.647602   0.135410
     3  Na   0.133261  -0.027220
     4  Na  -0.082350  -0.068199
     5  Na  -0.712088   0.150740
     6  Na   0.075170   0.329445
     7  Na   0.026247   0.252155
 Sum of Mulliken charges =  -0.00000   1.00000

 Dipole moment (field-independent basis, Debye):
    X=              0.6111    Y=             -0.3421    Z=              0.1716  Tot=              0.7210
 Quadrupole moment (field-independent basis, Debye-Ang):
   XX=            -51.1407   YY=            -71.9473   ZZ=            -73.0398
   XY=              3.0770   XZ=             -0.1957   YZ=             -1.7766

 Normal termination of Gaussian 16 at Sun Dec  3 20:09:30 2023.
