 Gaussian 16, Revision B.01,
 Gaussian 16:  ES64L-G16RevB.01 20-Dec-2017

 -------------------------
 #P B3LYP/6-311+g(d) force
 -------------------------

 -----
 DPGEN
 -----
 Symbolic Z-matrix:
 Charge =  0 Multiplicity = 2

                         Standard orientation:
 ---------------------------------------------------------------------
 Center     Atomic      Atomic             Coordinates (Angstroms)
 Number     Number       Type             X           Y           Z
 ---------------------------------------------------------------------
      1         11           0       -4.202033    0.879459   -0.179326
      2         11           0        3.469854   -3.080507   -0.405098
      3         11           0       -3.618933   -2.130080   -0.420726
      4         11           0        3.777302    0.728111   -0.267277
      5         11           0       -0.220935   -3.555850    0.890721
      6         11           0        2.115602    3.665326    0.244460
      7         11           0       -1.320857    3.493540    0.137246
 ---------------------------------------------------------------------

 SCF Done:  E(UB3LYP) =  -1136.10187212     A.U. after   30 cycles

 The electronic state is 2-A.
 Alpha  occ. eigenvalues --  -38.45510 -38.44873 -38.44799 -38.44650 -38.44609
 Alpha  occ. eigenvalues --  -38.44567 -38.44191  -2.21212  -2.20672  -2.20558
 Alpha  occ. eigenvalues --   -2.20458  -2.20388  -2.20341  -2.19976  -1.14909
 Alpha  occ. eigenvalues --   -1.14885  -1.14864  -1.14389  -1.14332  -1.14316
 Alpha  occ. eigenvalues --   -1.14216  -1.14205  -1.14165  -1.14110  -1.14098
 Alpha  occ. eigenvalues --   -1.14086  -1.14047  -1.14046  -1.14030  -1.14020
 Alpha  occ. eigenvalues --   -1.14018  -1.13967  -1.13638  -1.13627  -1.13587
 Alpha  occ. eigenvalues --   -0.15333  -0.13913  -0.13348  -0.10661
 Alpha virt. eigenvalues --   -0.08264  -0.05146  -0.04537  -0.03533  -0.03328
 Alpha virt. eigenvalues --   -0.02484  -0.02304  -0.02020  -0.01743  -0.00756
 Alpha virt. eigenvalues --   -0.00592  -0.00108   0.00039   0.00118   0.00304

  Beta  occ. eigenvalues --  -38.45547 -38.44852 -38.44719 -38.44619 -38.44580
  Beta  occ. eigenvalues --  -38.44543 -38.44125  -2.21284  -2.20639  -2.20408
  Beta  occ. eigenvalues --   -2.20405  -2.20370  -2.20266  -2.19850  -1.14961
  Beta  occ. eigenvalues --   -1.14936  -1.14891  -1.14350  -1.14314  -1.14281
  Beta  occ. eigenvalues --   -1.14113  -1.14104  -1.14076  -1.14068  -1.14066
  Beta  occ. eigenvalues --   -1.14046  -1.14044  -1.14029  -1.13995  -1.13964
  Beta  occ. eigenvalues --   -1.13951  -1.13910  -1.13552  -1.13542  -1.13514
  Beta  occ. eigenvalues --   -0.14748  -0.13321  -0.12741
  Beta virt. eigenvalues --   -0.08284  -0.07506  -0.04711  -0.04043  -0.03320
  Beta virt. eigenvalues --   -0.02957  -0.02390  -0.02062  -0.01949  -0.01650
  Beta virt. eigenvalues --   -0.00514  -0.00246   0.00051   0.00191   0.00316

 Mulliken charges and spin densities:
               1          2
     1  Na   0.189214   0.178011
     2  Na   0.200349  -0.179204
     3  Na  -0.241175   0.057722
     4  Na  -0.325715   0.283545
     5  Na  -0.357338   0.412861
     6  Na   0.572517  -0.083423
     7  Na  -0.037852   0.330488
 Sum of Mulliken charges =  -0.00000   1.00000

 Dipole moment (field-independent basis, Debye):
    X=             -0.2682    Y=             -0.3964    Z=             -0.1126  Tot=              0.4917
 Quadrupole moment (field-independent basis, Debye-Ang):
   XX=            -62.8915   YY=            -63.2335   ZZ=            -73.9427
   XY=             -2.8101   XZ=             -0.9231   YZ=              1.8984

 Normal termination of Gaussian 16 at Mon Dec  4 02:12:00 2023.
