 Gaussian 16, Revision B.01,
 Gaussian 16:  ES64L-G16RevB.01 20-Dec-2017

 -------------------------
 #P B3LYP/6-311+g(d) force
 -------------------------

 -----
 DPGEN
 -----
 Symbolic Z-matrix:
 Charge =  0 Multiplicity = 2

                         Standard orientation:
 ---------------------------------------------------------------------
 Center     Atomic      Atomic             Coordinates (Angstroms)
 Number     Number       Type             X           Y           Z
 ---------------------------------------------------------------------
      1         11           0       -0.381353    1.861345   -0.961225
      2         11           0        5.958121   -1.057749   -0.843914
      3         11           0        4.405173    0.736640    0.242719
      4         11           0        1.027582   -0.296103    1.643544
      5         11           0       -3.525792    1.718863    0.417604
      6         11           0       -5.432719   -1.198944   -0.695793
      7         11           0       -2.051014   -1.764051    0.197066
 ---------------------------------------------------------------------

 SCF Done:  E(UB3LYP) =  -1136.10858918     A.U. after   20 cycles

 The electronic state is 2-A.
 Alpha  occ. eigenvalues --  -38.44806 -38.44599 -38.44462 -38.44181 -38.44097
 Alpha  occ. eigenvalues --  -38.44018 -38.43792  -2.20619  -2.20411  -2.20263
 Alpha  occ. eigenvalues --   -2.20063  -2.19894  -2.19889  -2.19573  -1.14298
 Alpha  occ. eigenvalues --   -1.14283  -1.14220  -1.14171  -1.14107  -1.14070
 Alpha  occ. eigenvalues --   -1.14002  -1.13935  -1.13921  -1.13877  -1.13671
 Alpha  occ. eigenvalues --   -1.13667  -1.13559  -1.13547  -1.13517  -1.13503
 Alpha  occ. eigenvalues --   -1.13486  -1.13346  -1.13244  -1.13237  -1.13203
 Alpha  occ. eigenvalues --   -0.16564  -0.14095  -0.11753  -0.11207
 Alpha virt. eigenvalues --   -0.06422  -0.05971  -0.03942  -0.03419  -0.03091
 Alpha virt. eigenvalues --   -0.02780  -0.02134  -0.01613  -0.01323  -0.00923
 Alpha virt. eigenvalues --   -0.00204  -0.00006   0.00226   0.00419   0.00491

  Beta  occ. eigenvalues --  -38.44748 -38.44541 -38.44419 -38.44182 -38.44063
  Beta  occ. eigenvalues --  -38.44017 -38.43786  -2.20513  -2.20304  -2.20186
  Beta  occ. eigenvalues --   -2.20064  -2.19891  -2.19828  -2.19563  -1.14221
  Beta  occ. eigenvalues --   -1.14215  -1.14172  -1.14132  -1.14035  -1.13998
  Beta  occ. eigenvalues --   -1.13914  -1.13886  -1.13864  -1.13812  -1.13672
  Beta  occ. eigenvalues --   -1.13667  -1.13516  -1.13503  -1.13496  -1.13483
  Beta  occ. eigenvalues --   -1.13477  -1.13347  -1.13238  -1.13221  -1.13199
  Beta  occ. eigenvalues --   -0.15845  -0.13973  -0.11538
  Beta virt. eigenvalues --   -0.07377  -0.06197  -0.05517  -0.03793  -0.03187
  Beta virt. eigenvalues --   -0.02820  -0.02214  -0.01815  -0.01339  -0.01131
  Beta virt. eigenvalues --   -0.00682  -0.00066   0.00206   0.00326   0.00527

 Mulliken charges and spin densities:
               1          2
     1  Na  -0.129701   0.294101
     2  Na   0.356357  -0.038877
     3  Na  -0.405986   0.039047
     4  Na  -0.087095   0.183043
     5  Na   0.214674   0.193219
     6  Na   0.239476  -0.049332
     7  Na  -0.187725   0.378799
 Sum of Mulliken charges =  -0.00000   1.00000

 Dipole moment (field-independent basis, Debye):
    X=             -0.7499    Y=             -0.0242    Z=             -0.1963  Tot=              0.7755
 Quadrupole moment (field-independent basis, Debye-Ang):
   XX=            -68.1452   YY=            -67.9911   ZZ=            -66.9291
   XY=             -2.9891   XZ=             -1.0020   YZ=              3.1001

 Normal termination of Gaussian 16 at Fri Dec  8 17:00:06 2023.
