 Gaussian 16, Revision B.01,
 Gaussian 16:  ES64L-G16RevB.01 20-Dec-2017

 -------------------------
 #P B3LYP/6-311+g(d) force
 -------------------------

 -----
 DPGEN
 -----
 Symbolic Z-matrix:
 Charge =  0 Multiplicity = 2

                         Standard orientation:
 ---------------------------------------------------------------------
 Center     Atomic      Atomic             Coordinates (Angstroms)
 Number     Number       Type             X           Y           Z
 ---------------------------------------------------------------------
      1         11           0       -4.317788    0.457455    0.287226
      2         11           0       -2.184431   -0.963360   -0.229917
      3         11           0        0.223360    2.162584   -1.268168
      4         11           0        3.155431    0.015014   -0.340626
      5         11           0        0.872689   -1.773956   -1.772496
      6         11           0        0.922520   -1.855241    1.903167
      7         11           0        1.328220    1.957505    1.420814
 ---------------------------------------------------------------------

 SCF Done:  E(UB3LYP) =  -1136.11016989     A.U. after   22 cycles

 The electronic state is 2-A.
 Alpha  occ. eigenvalues --  -38.45287 -38.45113 -38.44109 -38.44008 -38.43669
 Alpha  occ. eigenvalues --  -38.43489 -38.43417  -2.21154  -2.20965  -2.19928
 Alpha  occ. eigenvalues --   -2.19863  -2.19586  -2.19397  -2.19287  -1.14862
 Alpha  occ. eigenvalues --   -1.14855  -1.14826  -1.14768  -1.14568  -1.14555
 Alpha  occ. eigenvalues --   -1.13630  -1.13596  -1.13571  -1.13542  -1.13506
 Alpha  occ. eigenvalues --   -1.13475  -1.13261  -1.13207  -1.13197  -1.13052
 Alpha  occ. eigenvalues --   -1.13047  -1.13005  -1.12959  -1.12944  -1.12891
 Alpha  occ. eigenvalues --   -0.18147  -0.13558  -0.11779  -0.11405
 Alpha virt. eigenvalues --   -0.07126  -0.04468  -0.03762  -0.03693  -0.03449
 Alpha virt. eigenvalues --   -0.02784  -0.02344  -0.00847  -0.00442  -0.00335
 Alpha virt. eigenvalues --   -0.00194   0.00012   0.00296   0.00755   0.00964

  Beta  occ. eigenvalues --  -38.45277 -38.45116 -38.44044 -38.43984 -38.43665
  Beta  occ. eigenvalues --  -38.43463 -38.43364  -2.21141  -2.20971  -2.19820
  Beta  occ. eigenvalues --   -2.19808  -2.19580  -2.19350  -2.19189  -1.14866
  Beta  occ. eigenvalues --   -1.14823  -1.14805  -1.14760  -1.14571  -1.14559
  Beta  occ. eigenvalues --   -1.13601  -1.13513  -1.13485  -1.13468  -1.13456
  Beta  occ. eigenvalues --   -1.13442  -1.13253  -1.13200  -1.13186  -1.13024
  Beta  occ. eigenvalues --   -1.13016  -1.12954  -1.12892  -1.12878  -1.12816
  Beta  occ. eigenvalues --   -0.17377  -0.13437  -0.11652
  Beta virt. eigenvalues --   -0.07461  -0.06906  -0.04187  -0.03520  -0.03266
  Beta virt. eigenvalues --   -0.02965  -0.02296  -0.01804  -0.00802  -0.00274
  Beta virt. eigenvalues --   -0.00134   0.00006   0.00095   0.00319   0.00824

 Mulliken charges and spin densities:
               1          2
     1  Na   0.563025  -0.184603
     2  Na  -1.098199   0.205254
     3  Na  -0.290259   0.117305
     4  Na   0.355777   0.117046
     5  Na   0.325620   0.329436
     6  Na  -0.138295   0.273123
     7  Na   0.282330   0.142439
 Sum of Mulliken charges =  -0.00000   1.00000

 Dipole moment (field-independent basis, Debye):
    X=              0.2634    Y=              0.2521    Z=              0.1525  Tot=              0.3952
 Quadrupole moment (field-independent basis, Debye-Ang):
   XX=            -54.7108   YY=            -74.6041   ZZ=            -67.5532
   XY=             -3.6834   XZ=             -1.7108   YZ=             -0.7269

 Normal termination of Gaussian 16 at Thu Dec  7 23:27:23 2023.
