 Gaussian 16, Revision B.01,
 Gaussian 16:  ES64L-G16RevB.01 20-Dec-2017

 -------------------------
 #P B3LYP/6-311+g(d) force
 -------------------------

 -----
 DPGEN
 -----
 Symbolic Z-matrix:
 Charge =  0 Multiplicity = 2

                         Standard orientation:
 ---------------------------------------------------------------------
 Center     Atomic      Atomic             Coordinates (Angstroms)
 Number     Number       Type             X           Y           Z
 ---------------------------------------------------------------------
      1         11           0       -1.208290   -2.110576   -0.236001
      2         11           0       -3.600011   -1.214267    1.925039
      3         11           0        2.221064   -2.295613   -1.339351
      4         11           0        2.640677    2.453489    0.768960
      5         11           0       -0.903000    2.925037   -0.433230
      6         11           0        3.914854   -0.704689    0.730214
      7         11           0       -3.065294    0.946619   -1.415631
 ---------------------------------------------------------------------

 SCF Done:  E(UB3LYP) =  -1136.11352825     A.U. after   20 cycles

 The electronic state is 2-A.
 Alpha  occ. eigenvalues --  -38.44903 -38.44683 -38.44584 -38.44498 -38.44116
 Alpha  occ. eigenvalues --  -38.43827 -38.43748  -2.20728  -2.20495  -2.20396
 Alpha  occ. eigenvalues --   -2.20290  -2.19895  -2.19653  -2.19545  -1.14420
 Alpha  occ. eigenvalues --   -1.14392  -1.14334  -1.14185  -1.14157  -1.14147
 Alpha  occ. eigenvalues --   -1.14060  -1.14036  -1.14013  -1.13980  -1.13971
 Alpha  occ. eigenvalues --   -1.13899  -1.13565  -1.13552  -1.13520  -1.13308
 Alpha  occ. eigenvalues --   -1.13297  -1.13293  -1.13221  -1.13211  -1.13187
 Alpha  occ. eigenvalues --   -0.16321  -0.14208  -0.12610  -0.10901
 Alpha virt. eigenvalues --   -0.06854  -0.05812  -0.04232  -0.03426  -0.03075
 Alpha virt. eigenvalues --   -0.02550  -0.01923  -0.01517  -0.01258  -0.00758
 Alpha virt. eigenvalues --   -0.00530  -0.00072   0.00039   0.00373   0.00633

  Beta  occ. eigenvalues --  -38.44865 -38.44682 -38.44497 -38.44488 -38.44079
  Beta  occ. eigenvalues --  -38.43788 -38.43742  -2.20662  -2.20496  -2.20278
  Beta  occ. eigenvalues --   -2.20233  -2.19828  -2.19581  -2.19539  -1.14369
  Beta  occ. eigenvalues --   -1.14347  -1.14281  -1.14184  -1.14161  -1.14127
  Beta  occ. eigenvalues --   -1.13986  -1.13963  -1.13944  -1.13925  -1.13908
  Beta  occ. eigenvalues --   -1.13843  -1.13519  -1.13508  -1.13474  -1.13267
  Beta  occ. eigenvalues --   -1.13247  -1.13238  -1.13214  -1.13209  -1.13171
  Beta  occ. eigenvalues --   -0.15823  -0.13663  -0.12039
  Beta virt. eigenvalues --   -0.07602  -0.06773  -0.05314  -0.03941  -0.03263
  Beta virt. eigenvalues --   -0.02667  -0.02258  -0.01638  -0.01257  -0.00922
  Beta virt. eigenvalues --   -0.00498  -0.00393   0.00149   0.00206   0.00488

 Mulliken charges and spin densities:
               1          2
     1  Na  -0.821621   0.209498
     2  Na   0.636047   0.338596
     3  Na  -0.089772   0.150826
     4  Na   0.043362   0.236480
     5  Na  -0.195087  -0.021125
     6  Na   0.054199  -0.025651
     7  Na   0.372872   0.111376
 Sum of Mulliken charges =  -0.00000   1.00000

 Dipole moment (field-independent basis, Debye):
    X=             -0.6280    Y=             -0.2525    Z=              0.1949  Tot=              0.7043
 Quadrupole moment (field-independent basis, Debye-Ang):
   XX=            -58.0918   YY=            -74.5872   ZZ=            -67.4914
   XY=             -2.9873   XZ=              1.5851   YZ=              1.4570

 Normal termination of Gaussian 16 at Sun Dec  3 12:48:09 2023.
