 Gaussian 16, Revision B.01,
 Gaussian 16:  ES64L-G16RevB.01 20-Dec-2017

 -------------------------
 #P B3LYP/6-311+g(d) force
 -------------------------

 -----
 DPGEN
 -----
 Symbolic Z-matrix:
 Charge =  0 Multiplicity = 2

                         Standard orientation:
 ---------------------------------------------------------------------
 Center     Atomic      Atomic             Coordinates (Angstroms)
 Number     Number       Type             X           Y           Z
 ---------------------------------------------------------------------
      1         11           0        0.905950    1.931100    0.882260
      2         11           0       -0.573899   -2.597272   -0.507540
      3         11           0        3.851494    0.934032    0.288728
      4         11           0        1.990107   -1.220553   -1.972886
      5         11           0       -0.111585   -1.276585    2.325178
      6         11           0       -3.900360   -0.154231    0.122288
      7         11           0       -2.161706    2.383508   -1.138027
 ---------------------------------------------------------------------

 SCF Done:  E(UB3LYP) =  -1136.11557072     A.U. after   20 cycles

 The electronic state is 2-A.
 Alpha  occ. eigenvalues --  -38.45275 -38.44655 -38.44354 -38.44325 -38.43932
 Alpha  occ. eigenvalues --  -38.43893 -38.43109  -2.21028  -2.20450  -2.20173
 Alpha  occ. eigenvalues --   -2.20161  -2.19757  -2.19676  -2.18949  -1.14706
 Alpha  occ. eigenvalues --   -1.14680  -1.14665  -1.14133  -1.14106  -1.14097
 Alpha  occ. eigenvalues --   -1.13838  -1.13818  -1.13814  -1.13803  -1.13784
 Alpha  occ. eigenvalues --   -1.13779  -1.13426  -1.13424  -1.13395  -1.13342
 Alpha  occ. eigenvalues --   -1.13330  -1.13320  -1.12631  -1.12626  -1.12584
 Alpha  occ. eigenvalues --   -0.17016  -0.13269  -0.12098  -0.11272
 Alpha virt. eigenvalues --   -0.06946  -0.05018  -0.04356  -0.03689  -0.03413
 Alpha virt. eigenvalues --   -0.02650  -0.02328  -0.00965  -0.00465  -0.00425
 Alpha virt. eigenvalues --   -0.00178   0.00050   0.00134   0.00625   0.00730

  Beta  occ. eigenvalues --  -38.45268 -38.44656 -38.44278 -38.44238 -38.43908
  Beta  occ. eigenvalues --  -38.43885 -38.43108  -2.21017  -2.20454  -2.20031
  Beta  occ. eigenvalues --   -2.19998  -2.19715  -2.19661  -2.18952  -1.14696
  Beta  occ. eigenvalues --   -1.14673  -1.14654  -1.14133  -1.14108  -1.14092
  Beta  occ. eigenvalues --   -1.13742  -1.13725  -1.13710  -1.13688  -1.13684
  Beta  occ. eigenvalues --   -1.13666  -1.13398  -1.13376  -1.13375  -1.13331
  Beta  occ. eigenvalues --   -1.13320  -1.13307  -1.12636  -1.12606  -1.12578
  Beta  occ. eigenvalues --   -0.16350  -0.12975  -0.11832
  Beta virt. eigenvalues --   -0.07596  -0.06887  -0.04542  -0.04038  -0.03120
  Beta virt. eigenvalues --   -0.03070  -0.02272  -0.01996  -0.00857  -0.00348
  Beta virt. eigenvalues --   -0.00219  -0.00133   0.00154   0.00282   0.00737

 Mulliken charges and spin densities:
               1          2
     1  Na  -0.716980   0.343508
     2  Na  -0.013461   0.252329
     3  Na   0.438829  -0.084250
     4  Na  -0.168647   0.220049
     5  Na   0.278829   0.260942
     6  Na  -0.102501  -0.025073
     7  Na   0.283932   0.032494
 Sum of Mulliken charges =  -0.00000   1.00000

 Dipole moment (field-independent basis, Debye):
    X=             -0.0007    Y=             -0.0649    Z=              0.2004  Tot=              0.2107
 Quadrupole moment (field-independent basis, Debye-Ang):
   XX=            -54.8949   YY=            -74.4569   ZZ=            -68.6513
   XY=              4.0176   XZ=             -0.8937   YZ=             -1.3964

 Normal termination of Gaussian 16 at Sun Dec  3 13:28:08 2023.
