 Gaussian 16, Revision B.01,
 Gaussian 16:  ES64L-G16RevB.01 20-Dec-2017

 -------------------------
 #P B3LYP/6-311+g(d) force
 -------------------------

 -----
 DPGEN
 -----
 Symbolic Z-matrix:
 Charge =  0 Multiplicity = 2

                         Standard orientation:
 ---------------------------------------------------------------------
 Center     Atomic      Atomic             Coordinates (Angstroms)
 Number     Number       Type             X           Y           Z
 ---------------------------------------------------------------------
      1         11           0        2.660988   -1.368254   -0.113190
      2         11           0        0.043933   -2.767074   -0.569022
      3         11           0        0.133860   -0.323102    2.328089
      4         11           0       -2.606970   -1.096590   -0.335679
      5         11           0        0.140545    0.921280   -1.254455
      6         11           0       -3.293471    2.046511    0.083901
      7         11           0        2.921114    2.587229   -0.139644
 ---------------------------------------------------------------------

 SCF Done:  E(UB3LYP) =  -1136.12417059     A.U. after   21 cycles

 The electronic state is 2-A.
 Alpha  occ. eigenvalues --  -38.44708 -38.44682 -38.44004 -38.43963 -38.43913
 Alpha  occ. eigenvalues --  -38.43672 -38.42996  -2.20538  -2.20487  -2.19804
 Alpha  occ. eigenvalues --   -2.19797  -2.19769  -2.19545  -2.18915  -1.14251
 Alpha  occ. eigenvalues --   -1.14199  -1.14163  -1.14159  -1.14146  -1.14129
 Alpha  occ. eigenvalues --   -1.13496  -1.13460  -1.13447  -1.13444  -1.13442
 Alpha  occ. eigenvalues --   -1.13434  -1.13421  -1.13413  -1.13407  -1.13250
 Alpha  occ. eigenvalues --   -1.13208  -1.13151  -1.12615  -1.12565  -1.12531
 Alpha  occ. eigenvalues --   -0.18192  -0.13309  -0.12066  -0.10616
 Alpha virt. eigenvalues --   -0.06606  -0.05780  -0.04215  -0.03192  -0.02644
 Alpha virt. eigenvalues --   -0.02544  -0.02068  -0.01609  -0.00919  -0.00233
 Alpha virt. eigenvalues --   -0.00078   0.00234   0.00533   0.00643   0.00740

  Beta  occ. eigenvalues --  -38.44712 -38.44676 -38.44008 -38.43900 -38.43843
  Beta  occ. eigenvalues --  -38.43644 -38.42978  -2.20530  -2.20495  -2.19782
  Beta  occ. eigenvalues --   -2.19777  -2.19578  -2.19495  -2.18885  -1.14247
  Beta  occ. eigenvalues --   -1.14170  -1.14168  -1.14157  -1.14144  -1.14134
  Beta  occ. eigenvalues --   -1.13483  -1.13448  -1.13435  -1.13434  -1.13419
  Beta  occ. eigenvalues --   -1.13413  -1.13299  -1.13267  -1.13259  -1.13210
  Beta  occ. eigenvalues --   -1.13165  -1.13117  -1.12596  -1.12547  -1.12486
  Beta  occ. eigenvalues --   -0.17482  -0.13176  -0.11904
  Beta virt. eigenvalues --   -0.06662  -0.06426  -0.05670  -0.04177  -0.02548
  Beta virt. eigenvalues --   -0.02038  -0.01917  -0.01715  -0.01291  -0.00928
  Beta virt. eigenvalues --   -0.00224   0.00138   0.00303   0.00664   0.00686

 Mulliken charges and spin densities:
               1          2
     1  Na   0.487127   0.117045
     2  Na  -0.048857   0.065044
     3  Na  -0.503702   0.635139
     4  Na   0.263083   0.107098
     5  Na  -0.756376   0.156006
     6  Na   0.364489  -0.023343
     7  Na   0.194237  -0.056989
 Sum of Mulliken charges =  -0.00000   1.00000

 Dipole moment (field-independent basis, Debye):
    X=             -0.1025    Y=              0.5769    Z=              0.2270  Tot=              0.6284
 Quadrupole moment (field-independent basis, Debye-Ang):
   XX=            -54.5733   YY=            -63.3473   ZZ=            -76.0410
   XY=             -2.6854   XZ=              0.1752   YZ=              2.1025

 Normal termination of Gaussian 16 at Thu Dec  7 07:55:30 2023.
