 Gaussian 16, Revision B.01,
 Gaussian 16:  ES64L-G16RevB.01 20-Dec-2017

 -------------------------
 #P B3LYP/6-311+g(d) force
 -------------------------

 -----
 DPGEN
 -----
 Symbolic Z-matrix:
 Charge =  0 Multiplicity = 2

                         Standard orientation:
 ---------------------------------------------------------------------
 Center     Atomic      Atomic             Coordinates (Angstroms)
 Number     Number       Type             X           Y           Z
 ---------------------------------------------------------------------
      1         11           0       -3.254269    0.263654   -0.200264
      2         11           0        3.060315    1.242204   -0.302428
      3         11           0        2.171618   -2.141063   -0.385709
      4         11           0       -0.544739    0.145326   -1.655626
      5         11           0        0.386688    0.074856    1.999939
      6         11           0       -1.328177   -2.342670    0.354265
      7         11           0       -0.491435    2.757694    0.189823
 ---------------------------------------------------------------------

 SCF Done:  E(UB3LYP) =  -1136.13531542     A.U. after   19 cycles

 The electronic state is 2-A.
 Alpha  occ. eigenvalues --  -38.44364 -38.44291 -38.43574 -38.43480 -38.43463
 Alpha  occ. eigenvalues --  -38.43208 -38.43065  -2.20157  -2.20154  -2.19461
 Alpha  occ. eigenvalues --   -2.19398  -2.19374  -2.19069  -2.18965  -1.13871
 Alpha  occ. eigenvalues --   -1.13831  -1.13812  -1.13810  -1.13791  -1.13782
 Alpha  occ. eigenvalues --   -1.13154  -1.13116  -1.13089  -1.13068  -1.13058
 Alpha  occ. eigenvalues --   -1.13046  -1.13040  -1.13006  -1.12990  -1.12754
 Alpha  occ. eigenvalues --   -1.12741  -1.12675  -1.12649  -1.12627  -1.12589
 Alpha  occ. eigenvalues --   -0.18679  -0.13250  -0.12235  -0.10778
 Alpha virt. eigenvalues --   -0.05996  -0.05114  -0.04363  -0.03333  -0.02891
 Alpha virt. eigenvalues --   -0.02478  -0.01794  -0.01018  -0.00388  -0.00190
 Alpha virt. eigenvalues --   -0.00023   0.00329   0.00771   0.00856   0.00903

  Beta  occ. eigenvalues --  -38.44358 -38.44286 -38.43567 -38.43425 -38.43369
  Beta  occ. eigenvalues --  -38.43200 -38.43053  -2.20151  -2.20145  -2.19386
  Beta  occ. eigenvalues --   -2.19359  -2.19202  -2.19058  -2.18947  -1.13858
  Beta  occ. eigenvalues --   -1.13816  -1.13804  -1.13796  -1.13784  -1.13776
  Beta  occ. eigenvalues --   -1.13085  -1.13063  -1.13049  -1.13042  -1.13026
  Beta  occ. eigenvalues --   -1.13002  -1.12936  -1.12882  -1.12870  -1.12744
  Beta  occ. eigenvalues --   -1.12703  -1.12670  -1.12639  -1.12590  -1.12574
  Beta  occ. eigenvalues --   -0.17967  -0.12992  -0.11993
  Beta virt. eigenvalues --   -0.06907  -0.05911  -0.05089  -0.04315  -0.02604
  Beta virt. eigenvalues --   -0.02102  -0.01693  -0.01470  -0.00970  -0.00399
  Beta virt. eigenvalues --   -0.00206   0.00113   0.00373   0.00829   0.00878

 Mulliken charges and spin densities:
               1          2
     1  Na   0.432423  -0.015548
     2  Na  -0.022939  -0.049393
     3  Na  -0.045010  -0.001726
     4  Na  -0.312522   0.541317
     5  Na  -0.267662   0.624124
     6  Na   0.165593   0.030785
     7  Na   0.050117  -0.129559
 Sum of Mulliken charges =  -0.00000   1.00000

 Dipole moment (field-independent basis, Debye):
    X=              0.0559    Y=              0.2161    Z=              0.0235  Tot=              0.2245
 Quadrupole moment (field-independent basis, Debye-Ang):
   XX=            -53.8832   YY=            -65.7550   ZZ=            -73.7694
   XY=              0.2213   XZ=             -1.6785   YZ=              0.1185

 Normal termination of Gaussian 16 at Thu Dec  7 19:40:17 2023.
