 Gaussian 16, Revision B.01,
 Gaussian 16:  ES64L-G16RevB.01 20-Dec-2017

 -------------------------
 #P B3LYP/6-311+g(d) force
 -------------------------

 -----
 DPGEN
 -----
 Symbolic Z-matrix:
 Charge =  0 Multiplicity = 2

                         Standard orientation:
 ---------------------------------------------------------------------
 Center     Atomic      Atomic             Coordinates (Angstroms)
 Number     Number       Type             X           Y           Z
 ---------------------------------------------------------------------
      1         11           0       -1.697603    2.466222    0.291826
      2         11           0        0.187071   -2.826731   -0.003941
      3         11           0       -0.668577   -0.372712    2.132066
      4         11           0       -3.073777   -0.730058   -0.594318
      5         11           0        3.117384   -0.886444    0.130138
      6         11           0        2.105696    2.367943   -0.121686
      7         11           0        0.029806   -0.018221   -1.834085
 ---------------------------------------------------------------------

 SCF Done:  E(UB3LYP) =  -1136.13719600     A.U. after   18 cycles

 The electronic state is 2-A.
 Alpha  occ. eigenvalues --  -38.44244 -38.44090 -38.43896 -38.43674 -38.43616
 Alpha  occ. eigenvalues --  -38.43523 -38.43172  -2.20070  -2.19896  -2.19762
 Alpha  occ. eigenvalues --   -2.19584  -2.19432  -2.19323  -2.19031  -1.13752
 Alpha  occ. eigenvalues --   -1.13722  -1.13705  -1.13572  -1.13558  -1.13541
 Alpha  occ. eigenvalues --   -1.13419  -1.13399  -1.13383  -1.13266  -1.13227
 Alpha  occ. eigenvalues --   -1.13206  -1.13111  -1.13095  -1.13065  -1.12999
 Alpha  occ. eigenvalues --   -1.12987  -1.12959  -1.12713  -1.12706  -1.12651
 Alpha  occ. eigenvalues --   -0.18241  -0.13002  -0.12207  -0.10975
 Alpha virt. eigenvalues --   -0.05758  -0.05309  -0.04573  -0.03328  -0.02970
 Alpha virt. eigenvalues --   -0.02801  -0.01605  -0.01014  -0.00476  -0.00376
 Alpha virt. eigenvalues --   -0.00069   0.00360   0.00750   0.00863   0.00871

  Beta  occ. eigenvalues --  -38.44228 -38.44091 -38.43806 -38.43609 -38.43605
  Beta  occ. eigenvalues --  -38.43524 -38.43165  -2.20044  -2.19899  -2.19594
  Beta  occ. eigenvalues --   -2.19457  -2.19422  -2.19327  -2.19024  -1.13721
  Beta  occ. eigenvalues --   -1.13695  -1.13688  -1.13568  -1.13558  -1.13543
  Beta  occ. eigenvalues --   -1.13309  -1.13280  -1.13264  -1.13184  -1.13141
  Beta  occ. eigenvalues --   -1.13108  -1.13094  -1.13072  -1.13062  -1.12992
  Beta  occ. eigenvalues --   -1.12988  -1.12963  -1.12711  -1.12672  -1.12647
  Beta  occ. eigenvalues --   -0.17511  -0.12807  -0.11990
  Beta virt. eigenvalues --   -0.07050  -0.05680  -0.05301  -0.04464  -0.02619
  Beta virt. eigenvalues --   -0.02220  -0.01781  -0.01491  -0.00941  -0.00496
  Beta virt. eigenvalues --   -0.00433   0.00093   0.00402   0.00842   0.00865

 Mulliken charges and spin densities:
               1          2
     1  Na  -0.077716  -0.026022
     2  Na   0.187316  -0.032338
     3  Na  -0.311198   0.652882
     4  Na   0.330098  -0.006023
     5  Na  -0.060043  -0.074572
     6  Na  -0.014971  -0.082309
     7  Na  -0.053485   0.568382
 Sum of Mulliken charges =  -0.00000   1.00000

 Dipole moment (field-independent basis, Debye):
    X=             -0.1922    Y=             -0.0933    Z=              0.0609  Tot=              0.2222
 Quadrupole moment (field-independent basis, Debye-Ang):
   XX=            -56.7900   YY=            -65.1765   ZZ=            -72.8105
   XY=             -0.1799   XZ=              1.5904   YZ=              0.7291

 Normal termination of Gaussian 16 at Tue Dec  5 18:48:48 2023.
