 Gaussian 16, Revision B.01,
 Gaussian 16:  ES64L-G16RevB.01 20-Dec-2017

 -------------------------
 #P B3LYP/6-311+g(d) force
 -------------------------

 -----
 DPGEN
 -----
 Symbolic Z-matrix:
 Charge =  0 Multiplicity = 2

                         Standard orientation:
 ---------------------------------------------------------------------
 Center     Atomic      Atomic             Coordinates (Angstroms)
 Number     Number       Type             X           Y           Z
 ---------------------------------------------------------------------
      1         11           0       -1.549676   -0.512911    1.973490
      2         11           0        0.216581    0.202530   -1.838024
      3         11           0       -3.018431    0.926305   -0.561343
      4         11           0       -1.035527   -2.121713   -0.916459
      5         11           0        0.138869    2.433974    0.599833
      6         11           0        3.613956    0.474332   -0.244354
      7         11           0        1.634228   -1.402516    0.986856
 ---------------------------------------------------------------------

 SCF Done:  E(UB3LYP) =  -1136.12484100     A.U. after   21 cycles

 The electronic state is 2-A.
 Alpha  occ. eigenvalues --  -38.44619 -38.44368 -38.44119 -38.44001 -38.43211
 Alpha  occ. eigenvalues --  -38.43183 -38.42870  -2.20439  -2.20215  -2.20117
 Alpha  occ. eigenvalues --   -2.19917  -2.19118  -2.19037  -2.18839  -1.14164
 Alpha  occ. eigenvalues --   -1.14089  -1.14053  -1.13913  -1.13899  -1.13871
 Alpha  occ. eigenvalues --   -1.13836  -1.13761  -1.13690  -1.13592  -1.13557
 Alpha  occ. eigenvalues --   -1.13515  -1.12798  -1.12780  -1.12752  -1.12740
 Alpha  occ. eigenvalues --   -1.12721  -1.12633  -1.12567  -1.12453  -1.12425
 Alpha  occ. eigenvalues --   -0.19036  -0.13503  -0.11821  -0.11525
 Alpha virt. eigenvalues --   -0.06450  -0.04499  -0.03887  -0.03470  -0.03225
 Alpha virt. eigenvalues --   -0.02866  -0.02024  -0.00748  -0.00367   0.00107
 Alpha virt. eigenvalues --    0.00225   0.00349   0.00426   0.00915   0.00971

  Beta  occ. eigenvalues --  -38.44622 -38.44361 -38.44039 -38.43925 -38.43203
  Beta  occ. eigenvalues --  -38.43162 -38.42842  -2.20445  -2.20205  -2.19973
  Beta  occ. eigenvalues --   -2.19778  -2.19081  -2.19026  -2.18793  -1.14167
  Beta  occ. eigenvalues --   -1.14088  -1.14057  -1.13897  -1.13861  -1.13830
  Beta  occ. eigenvalues --   -1.13787  -1.13655  -1.13586  -1.13490  -1.13470
  Beta  occ. eigenvalues --   -1.13415  -1.12775  -1.12740  -1.12735  -1.12723
  Beta  occ. eigenvalues --   -1.12692  -1.12627  -1.12520  -1.12413  -1.12384
  Beta  occ. eigenvalues --   -0.18243  -0.13337  -0.11298
  Beta virt. eigenvalues --   -0.07712  -0.06338  -0.04314  -0.03592  -0.03172
  Beta virt. eigenvalues --   -0.02317  -0.01971  -0.01955  -0.00605  -0.00152
  Beta virt. eigenvalues --    0.00126   0.00249   0.00366   0.00587   0.00948

 Mulliken charges and spin densities:
               1          2
     1  Na   0.034995   0.542265
     2  Na  -0.047243   0.476442
     3  Na   0.181008  -0.098516
     4  Na   0.295847   0.036114
     5  Na  -0.453555  -0.030957
     6  Na   0.308689  -0.070103
     7  Na  -0.319740   0.144755
 Sum of Mulliken charges =  -0.00000   1.00000

 Dipole moment (field-independent basis, Debye):
    X=              0.0450    Y=              0.3200    Z=              0.0289  Tot=              0.3244
 Quadrupole moment (field-independent basis, Debye-Ang):
   XX=            -51.8596   YY=            -74.9610   ZZ=            -67.5660
   XY=              0.9871   XZ=              0.1596   YZ=             -0.1590

 Normal termination of Gaussian 16 at Tue Dec  5 17:04:55 2023.
