 Gaussian 16, Revision B.01,
 Gaussian 16:  ES64L-G16RevB.01 20-Dec-2017

 -------------------------
 #P B3LYP/6-311+g(d) force
 -------------------------

 -----
 DPGEN
 -----
 Symbolic Z-matrix:
 Charge =  0 Multiplicity = 2

                         Standard orientation:
 ---------------------------------------------------------------------
 Center     Atomic      Atomic             Coordinates (Angstroms)
 Number     Number       Type             X           Y           Z
 ---------------------------------------------------------------------
      1         11           0        1.032377   -0.575043    2.009684
      2         11           0       -0.245496   -0.134483   -1.321772
      3         11           0        3.004416    1.379006   -0.253136
      4         11           0        2.185894   -2.243613   -0.893214
      5         11           0       -0.121524    2.787030    0.384622
      6         11           0       -2.362287   -2.277960    0.546698
      7         11           0       -3.493380    1.065062   -0.472882
 ---------------------------------------------------------------------

 SCF Done:  E(UB3LYP) =  -1136.13088869     A.U. after   21 cycles

 The electronic state is 2-A.
 Alpha  occ. eigenvalues --  -38.44534 -38.44426 -38.44357 -38.43609 -38.43606
 Alpha  occ. eigenvalues --  -38.43280 -38.43180  -2.20348  -2.20205  -2.20129
 Alpha  occ. eigenvalues --   -2.19467  -2.19449  -2.19228  -2.19002  -1.14027
 Alpha  occ. eigenvalues --   -1.14005  -1.13983  -1.13885  -1.13853  -1.13846
 Alpha  occ. eigenvalues --   -1.13802  -1.13788  -1.13758  -1.13154  -1.13138
 Alpha  occ. eigenvalues --   -1.13124  -1.13081  -1.13075  -1.13066  -1.12936
 Alpha  occ. eigenvalues --   -1.12879  -1.12844  -1.12690  -1.12674  -1.12621
 Alpha  occ. eigenvalues --   -0.17985  -0.13282  -0.11943  -0.10397
 Alpha virt. eigenvalues --   -0.06086  -0.05883  -0.04476  -0.03115  -0.02730
 Alpha virt. eigenvalues --   -0.02213  -0.01974  -0.01491  -0.00742  -0.00360
 Alpha virt. eigenvalues --   -0.00095   0.00276   0.00616   0.00683   0.00731

  Beta  occ. eigenvalues --  -38.44529 -38.44420 -38.44345 -38.43578 -38.43524
  Beta  occ. eigenvalues --  -38.43241 -38.43178  -2.20342  -2.20196  -2.20108
  Beta  occ. eigenvalues --   -2.19395  -2.19315  -2.19160  -2.18999  -1.14013
  Beta  occ. eigenvalues --   -1.14003  -1.13969  -1.13872  -1.13848  -1.13841
  Beta  occ. eigenvalues --   -1.13782  -1.13772  -1.13742  -1.13107  -1.13064
  Beta  occ. eigenvalues --   -1.13039  -1.13032  -1.12991  -1.12961  -1.12878
  Beta  occ. eigenvalues --   -1.12836  -1.12789  -1.12687  -1.12662  -1.12613
  Beta  occ. eigenvalues --   -0.17345  -0.13074  -0.11696
  Beta virt. eigenvalues --   -0.06657  -0.05988  -0.05699  -0.04322  -0.02628
  Beta virt. eigenvalues --   -0.02078  -0.01898  -0.01383  -0.01243  -0.00701
  Beta virt. eigenvalues --   -0.00337   0.00104   0.00338   0.00706   0.00765

 Mulliken charges and spin densities:
               1          2
     1  Na  -0.179199   0.653179
     2  Na   0.416902   0.168437
     3  Na   0.210884   0.063797
     4  Na   0.067393   0.081141
     5  Na  -0.493661  -0.014648
     6  Na  -0.341258   0.027149
     7  Na   0.318938   0.020944
 Sum of Mulliken charges =  -0.00000   1.00000

 Dipole moment (field-independent basis, Debye):
    X=             -0.1536    Y=             -0.0263    Z=              0.1149  Tot=              0.1936
 Quadrupole moment (field-independent basis, Debye-Ang):
   XX=            -51.1057   YY=            -65.6233   ZZ=            -75.2293
   XY=              0.5771   XZ=             -1.3019   YZ=             -0.0896

 Normal termination of Gaussian 16 at Tue Dec  5 18:25:57 2023.
