 Gaussian 16, Revision B.01,
 Gaussian 16:  ES64L-G16RevB.01 20-Dec-2017

 -------------------------
 #P B3LYP/6-311+g(d) force
 -------------------------

 -----
 DPGEN
 -----
 Symbolic Z-matrix:
 Charge =  0 Multiplicity = 2

                         Standard orientation:
 ---------------------------------------------------------------------
 Center     Atomic      Atomic             Coordinates (Angstroms)
 Number     Number       Type             X           Y           Z
 ---------------------------------------------------------------------
      1         11           0        0.917449   -3.060252   -0.512057
      2         11           0       -3.524773    0.915391    0.470329
      3         11           0        2.344675    2.247581   -0.414647
      4         11           0       -0.493508    3.080853   -0.345574
      5         11           0       -2.628058   -2.112625   -0.310025
      6         11           0        3.366107   -0.970119    0.625555
      7         11           0        0.018107   -0.100828    0.486420
 ---------------------------------------------------------------------

 SCF Done:  E(UB3LYP) =  -1136.12750120     A.U. after   23 cycles

 The electronic state is 2-A.
 Alpha  occ. eigenvalues --  -38.44328 -38.44266 -38.43840 -38.43753 -38.43747
 Alpha  occ. eigenvalues --  -38.43304 -38.43133  -2.20168  -2.20156  -2.19801
 Alpha  occ. eigenvalues --   -2.19646  -2.19601  -2.19157  -2.19004  -1.13891
 Alpha  occ. eigenvalues --   -1.13849  -1.13846  -1.13812  -1.13805  -1.13800
 Alpha  occ. eigenvalues --   -1.13531  -1.13489  -1.13429  -1.13301  -1.13288
 Alpha  occ. eigenvalues --   -1.13273  -1.13268  -1.13255  -1.13222  -1.12811
 Alpha  occ. eigenvalues --   -1.12805  -1.12780  -1.12659  -1.12647  -1.12631
 Alpha  occ. eigenvalues --   -0.17764  -0.13951  -0.13547  -0.09650
 Alpha virt. eigenvalues --   -0.06421  -0.05723  -0.04389  -0.03217  -0.02719
 Alpha virt. eigenvalues --   -0.02294  -0.01867  -0.01306  -0.01196  -0.00330
 Alpha virt. eigenvalues --    0.00011   0.00286   0.00589   0.00715   0.00761

  Beta  occ. eigenvalues --  -38.44313 -38.44248 -38.43849 -38.43726 -38.43719
  Beta  occ. eigenvalues --  -38.43245 -38.43072  -2.20148  -2.20132  -2.19816
  Beta  occ. eigenvalues --   -2.19599  -2.19553  -2.19046  -2.18889  -1.13855
  Beta  occ. eigenvalues --   -1.13843  -1.13839  -1.13802  -1.13758  -1.13738
  Beta  occ. eigenvalues --   -1.13531  -1.13503  -1.13448  -1.13272  -1.13258
  Beta  occ. eigenvalues --   -1.13240  -1.13235  -1.13217  -1.13160  -1.12737
  Beta  occ. eigenvalues --   -1.12730  -1.12707  -1.12579  -1.12568  -1.12558
  Beta  occ. eigenvalues --   -0.17475  -0.13261  -0.12941
  Beta virt. eigenvalues --   -0.06438  -0.06350  -0.05468  -0.04228  -0.02602
  Beta virt. eigenvalues --   -0.02257  -0.02044  -0.01611  -0.01149  -0.00975
  Beta virt. eigenvalues --   -0.00144   0.00302   0.00499   0.00603   0.00815

 Mulliken charges and spin densities:
               1          2
     1  Na   0.547648   0.139450
     2  Na   1.036596   0.398597
     3  Na   0.490402   0.066872
     4  Na   0.438842   0.121906
     5  Na   0.443485   0.102288
     6  Na   1.262328   0.410596
     7  Na  -4.219302  -0.239709
 Sum of Mulliken charges =  -0.00000   1.00000

 Dipole moment (field-independent basis, Debye):
    X=              0.0222    Y=             -0.0036    Z=             -0.5443  Tot=              0.5448
 Quadrupole moment (field-independent basis, Debye-Ang):
   XX=            -64.4909   YY=            -62.2889   ZZ=            -71.6251
   XY=              1.3516   XZ=             -0.4425   YZ=              0.6990

 Normal termination of Gaussian 16 at Wed Nov 29 16:00:25 2023.
