 Gaussian 16, Revision B.01,
 Gaussian 16:  ES64L-G16RevB.01 20-Dec-2017

 -------------------------
 #P B3LYP/6-311+g(d) force
 -------------------------

 -----
 DPGEN
 -----
 Symbolic Z-matrix:
 Charge =  0 Multiplicity = 2

                         Standard orientation:
 ---------------------------------------------------------------------
 Center     Atomic      Atomic             Coordinates (Angstroms)
 Number     Number       Type             X           Y           Z
 ---------------------------------------------------------------------
      1         11           0        3.094404    0.659436    0.089861
      2         11           0        0.019046    2.971499   -0.136730
      3         11           0       -2.824452    0.681737    0.524243
      4         11           0        0.262282   -0.343820    1.653019
      5         11           0       -1.962978   -2.104833   -0.297799
      6         11           0       -0.392894    0.386528   -1.590086
      7         11           0        1.804592   -2.250548   -0.242509
 ---------------------------------------------------------------------

 SCF Done:  E(UB3LYP) =  -1136.13242158     A.U. after   21 cycles

 The electronic state is 2-A.
 Alpha  occ. eigenvalues --  -38.44316 -38.43958 -38.43553 -38.43429 -38.43250
 Alpha  occ. eigenvalues --  -38.43122 -38.42896  -2.20160  -2.19880  -2.19447
 Alpha  occ. eigenvalues --   -2.19351  -2.19127  -2.19112  -2.18938  -1.13841
 Alpha  occ. eigenvalues --   -1.13835  -1.13789  -1.13600  -1.13533  -1.13515
 Alpha  occ. eigenvalues --   -1.13173  -1.13104  -1.13073  -1.13043  -1.13002
 Alpha  occ. eigenvalues --   -1.12980  -1.12896  -1.12819  -1.12765  -1.12743
 Alpha  occ. eigenvalues --   -1.12734  -1.12729  -1.12604  -1.12547  -1.12533
 Alpha  occ. eigenvalues --   -0.19218  -0.13566  -0.12465  -0.10501
 Alpha virt. eigenvalues --   -0.05821  -0.05031  -0.04639  -0.03328  -0.02672
 Alpha virt. eigenvalues --   -0.02061  -0.01644  -0.01054  -0.00306  -0.00206
 Alpha virt. eigenvalues --    0.00054   0.00360   0.00828   0.00902   0.00921

  Beta  occ. eigenvalues --  -38.44313 -38.43940 -38.43546 -38.43418 -38.43245
  Beta  occ. eigenvalues --  -38.43054 -38.42826  -2.20158  -2.19851  -2.19438
  Beta  occ. eigenvalues --   -2.19336  -2.19107  -2.19002  -2.18811  -1.13842
  Beta  occ. eigenvalues --   -1.13818  -1.13785  -1.13586  -1.13503  -1.13477
  Beta  occ. eigenvalues --   -1.13161  -1.13089  -1.13054  -1.13032  -1.12974
  Beta  occ. eigenvalues --   -1.12954  -1.12872  -1.12745  -1.12729  -1.12728
  Beta  occ. eigenvalues --   -1.12662  -1.12641  -1.12518  -1.12460  -1.12445
  Beta  occ. eigenvalues --   -0.18500  -0.13314  -0.12200
  Beta virt. eigenvalues --   -0.06588  -0.05776  -0.05010  -0.04611  -0.02522
  Beta virt. eigenvalues --   -0.01943  -0.01555  -0.01072  -0.00973  -0.00304
  Beta virt. eigenvalues --   -0.00250   0.00176   0.00396   0.00855   0.00914

 Mulliken charges and spin densities:
               1          2
     1  Na   0.018864  -0.087612
     2  Na   0.049067  -0.104124
     3  Na   0.209284   0.105593
     4  Na  -0.268183   0.506118
     5  Na   0.258810   0.020111
     6  Na  -0.388574   0.574754
     7  Na   0.120733  -0.014840
 Sum of Mulliken charges =  -0.00000   1.00000

 Dipole moment (field-independent basis, Debye):
    X=              0.3135    Y=              0.0498    Z=              0.0893  Tot=              0.3297
 Quadrupole moment (field-independent basis, Debye-Ang):
   XX=            -54.6173   YY=            -62.4148   ZZ=            -75.5910
   XY=              0.6622   XZ=             -1.3536   YZ=              2.0138

 Normal termination of Gaussian 16 at Tue Nov 28 21:09:58 2023.
