 Gaussian 16, Revision B.01,
 Gaussian 16:  ES64L-G16RevB.01 20-Dec-2017

 -------------------------
 #P B3LYP/6-311+g(d) force
 -------------------------

 -----
 DPGEN
 -----
 Symbolic Z-matrix:
 Charge =  0 Multiplicity = 2

                         Standard orientation:
 ---------------------------------------------------------------------
 Center     Atomic      Atomic             Coordinates (Angstroms)
 Number     Number       Type             X           Y           Z
 ---------------------------------------------------------------------
      1         11           0        0.656430    2.748162    0.136233
      2         11           0        0.208777   -0.086073   -1.373673
      3         11           0       -2.550644   -1.777572   -0.097089
      4         11           0       -2.600411    1.455770   -0.590610
      5         11           0        1.559598   -2.633383   -0.277347
      6         11           0        3.048147    0.494655   -0.131922
      7         11           0       -0.321897   -0.201559    2.334409
 ---------------------------------------------------------------------

 SCF Done:  E(UB3LYP) =  -1136.13456007     A.U. after   19 cycles

 The electronic state is 2-A.
 Alpha  occ. eigenvalues --  -38.44021 -38.44008 -38.43941 -38.43725 -38.43512
 Alpha  occ. eigenvalues --  -38.42985 -38.42984  -2.19893  -2.19851  -2.19775
 Alpha  occ. eigenvalues --   -2.19589  -2.19356  -2.19046  -2.18862  -1.13602
 Alpha  occ. eigenvalues --   -1.13548  -1.13522  -1.13501  -1.13479  -1.13472
 Alpha  occ. eigenvalues --   -1.13461  -1.13435  -1.13417  -1.13278  -1.13234
 Alpha  occ. eigenvalues --   -1.13215  -1.13091  -1.13007  -1.12975  -1.12739
 Alpha  occ. eigenvalues --   -1.12691  -1.12678  -1.12531  -1.12515  -1.12499
 Alpha  occ. eigenvalues --   -0.18666  -0.13274  -0.12240  -0.10948
 Alpha virt. eigenvalues --   -0.05641  -0.05195  -0.04475  -0.03284  -0.02873
 Alpha virt. eigenvalues --   -0.02715  -0.01527  -0.01100  -0.00393  -0.00220
 Alpha virt. eigenvalues --   -0.00023   0.00341   0.00779   0.00865   0.00911

  Beta  occ. eigenvalues --  -38.44018 -38.43938 -38.43894 -38.43710 -38.43509
  Beta  occ. eigenvalues --  -38.42981 -38.42941  -2.19891  -2.19772  -2.19639
  Beta  occ. eigenvalues --   -2.19564  -2.19352  -2.18969  -2.18857  -1.13597
  Beta  occ. eigenvalues --   -1.13533  -1.13522  -1.13463  -1.13426  -1.13413
  Beta  occ. eigenvalues --   -1.13355  -1.13328  -1.13315  -1.13253  -1.13207
  Beta  occ. eigenvalues --   -1.13200  -1.13081  -1.12997  -1.12970  -1.12685
  Beta  occ. eigenvalues --   -1.12641  -1.12620  -1.12522  -1.12500  -1.12486
  Beta  occ. eigenvalues --   -0.17973  -0.13032  -0.12035
  Beta virt. eigenvalues --   -0.06935  -0.05611  -0.05149  -0.04445  -0.02508
  Beta virt. eigenvalues --   -0.02042  -0.01678  -0.01443  -0.01031  -0.00437
  Beta virt. eigenvalues --   -0.00231   0.00144   0.00385   0.00852   0.00886

 Mulliken charges and spin densities:
               1          2
     1  Na   0.239697   0.111041
     2  Na  -0.582893  -0.070059
     3  Na   0.247032   0.042706
     4  Na   0.282855   0.094754
     5  Na   0.257587   0.031374
     6  Na   0.252745   0.050803
     7  Na  -0.697024   0.739382
 Sum of Mulliken charges =  -0.00000   1.00000

 Dipole moment (field-independent basis, Debye):
    X=             -0.0425    Y=             -0.2114    Z=              0.2735  Tot=              0.3483
 Quadrupole moment (field-independent basis, Debye-Ang):
   XX=            -56.6105   YY=            -63.4756   ZZ=            -73.8114
   XY=              0.3753   XZ=              1.1761   YZ=              0.0067

 Normal termination of Gaussian 16 at Thu Dec  7 20:41:07 2023.
