 Gaussian 16, Revision B.01,
 Gaussian 16:  ES64L-G16RevB.01 20-Dec-2017

 -------------------------
 #P B3LYP/6-311+g(d) force
 -------------------------

 -----
 DPGEN
 -----
 Symbolic Z-matrix:
 Charge =  0 Multiplicity = 2

                         Standard orientation:
 ---------------------------------------------------------------------
 Center     Atomic      Atomic             Coordinates (Angstroms)
 Number     Number       Type             X           Y           Z
 ---------------------------------------------------------------------
      1         11           0       -0.588274    0.785641   -1.848844
      2         11           0        1.356982   -2.585987   -0.340029
      3         11           0       -3.018175    1.007326    0.671375
      4         11           0        0.428518   -0.325735    2.407035
      5         11           0        0.779989    3.114946   -0.149936
      6         11           0        2.993988    0.166351   -0.193825
      7         11           0       -1.953028   -2.162542   -0.545776
 ---------------------------------------------------------------------

 SCF Done:  E(UB3LYP) =  -1136.13304497     A.U. after   19 cycles

 The electronic state is 2-A.
 Alpha  occ. eigenvalues --  -38.44529 -38.44362 -38.43900 -38.43743 -38.43677
 Alpha  occ. eigenvalues --  -38.43540 -38.43285  -2.20340  -2.20150  -2.19727
 Alpha  occ. eigenvalues --   -2.19625  -2.19482  -2.19377  -2.19141  -1.13988
 Alpha  occ. eigenvalues --   -1.13977  -1.13957  -1.13815  -1.13807  -1.13794
 Alpha  occ. eigenvalues --   -1.13422  -1.13394  -1.13361  -1.13325  -1.13288
 Alpha  occ. eigenvalues --   -1.13255  -1.13144  -1.13130  -1.13114  -1.13061
 Alpha  occ. eigenvalues --   -1.13038  -1.13013  -1.12811  -1.12796  -1.12782
 Alpha  occ. eigenvalues --   -0.17941  -0.12766  -0.12382  -0.11187
 Alpha virt. eigenvalues --   -0.05800  -0.05001  -0.04808  -0.03579  -0.03155
 Alpha virt. eigenvalues --   -0.02993  -0.01319  -0.01086  -0.00442  -0.00281
 Alpha virt. eigenvalues --   -0.00113   0.00390   0.00680   0.00750   0.00829

  Beta  occ. eigenvalues --  -38.44430 -38.44348 -38.43899 -38.43697 -38.43676
  Beta  occ. eigenvalues --  -38.43529 -38.43278  -2.20156  -2.20125  -2.19727
  Beta  occ. eigenvalues --   -2.19539  -2.19484  -2.19359  -2.19131  -1.13865
  Beta  occ. eigenvalues --   -1.13850  -1.13823  -1.13793  -1.13782  -1.13778
  Beta  occ. eigenvalues --   -1.13422  -1.13383  -1.13358  -1.13277  -1.13231
  Beta  occ. eigenvalues --   -1.13195  -1.13129  -1.13117  -1.13116  -1.13044
  Beta  occ. eigenvalues --   -1.13018  -1.12999  -1.12804  -1.12791  -1.12758
  Beta  occ. eigenvalues --   -0.17239  -0.12611  -0.12170
  Beta virt. eigenvalues --   -0.07318  -0.05677  -0.04890  -0.04625  -0.02919
  Beta virt. eigenvalues --   -0.02462  -0.02033  -0.01190  -0.01001  -0.00454
  Beta virt. eigenvalues --   -0.00300   0.00066   0.00445   0.00829   0.00858

 Mulliken charges and spin densities:
               1          2
     1  Na   0.044943   0.281090
     2  Na   0.021761   0.036433
     3  Na  -0.021844   0.084564
     4  Na  -0.453677   0.635831
     5  Na   0.173049  -0.050158
     6  Na   0.073741  -0.018007
     7  Na   0.162026   0.030246
 Sum of Mulliken charges =  -0.00000   1.00000

 Dipole moment (field-independent basis, Debye):
    X=             -0.2107    Y=              0.3198    Z=              0.2894  Tot=              0.4800
 Quadrupole moment (field-independent basis, Debye-Ang):
   XX=            -61.2950   YY=            -64.8343   ZZ=            -70.5420
   XY=             -0.2539   XZ=             -1.6581   YZ=              2.3234

 Normal termination of Gaussian 16 at Thu Dec  7 06:18:32 2023.
