 Gaussian 16, Revision B.01,
 Gaussian 16:  ES64L-G16RevB.01 20-Dec-2017

 -------------------------
 #P B3LYP/6-311+g(d) force
 -------------------------

 -----
 DPGEN
 -----
 Symbolic Z-matrix:
 Charge =  0 Multiplicity = 2

                         Standard orientation:
 ---------------------------------------------------------------------
 Center     Atomic      Atomic             Coordinates (Angstroms)
 Number     Number       Type             X           Y           Z
 ---------------------------------------------------------------------
      1         11           0       -2.859062    1.021721   -0.464552
      2         11           0       -2.043359   -2.032559    0.299979
      3         11           0        2.997776    0.449658    0.110656
      4         11           0        1.801544   -2.278980   -0.076323
      5         11           0       -0.043190   -0.187018   -1.810217
      6         11           0       -0.477422    0.336510    1.996041
      7         11           0        0.623714    2.690668   -0.055584
 ---------------------------------------------------------------------

 SCF Done:  E(UB3LYP) =  -1136.13536931     A.U. after   19 cycles

 The electronic state is 2-A.
 Alpha  occ. eigenvalues --  -38.44162 -38.44023 -38.43691 -38.43570 -38.43489
 Alpha  occ. eigenvalues --  -38.43280 -38.42893  -2.20034  -2.19913  -2.19611
 Alpha  occ. eigenvalues --   -2.19455  -2.19451  -2.19161  -2.18775  -1.13719
 Alpha  occ. eigenvalues --   -1.13698  -1.13666  -1.13631  -1.13568  -1.13554
 Alpha  occ. eigenvalues --   -1.13287  -1.13259  -1.13233  -1.13150  -1.13116
 Alpha  occ. eigenvalues --   -1.13112  -1.13100  -1.13080  -1.13061  -1.12838
 Alpha  occ. eigenvalues --   -1.12816  -1.12784  -1.12457  -1.12442  -1.12405
 Alpha  occ. eigenvalues --   -0.19003  -0.13543  -0.12165  -0.11110
 Alpha virt. eigenvalues --   -0.05745  -0.05146  -0.04187  -0.03574  -0.02894
 Alpha virt. eigenvalues --   -0.02730  -0.01555  -0.00921  -0.00148  -0.00110
 Alpha virt. eigenvalues --   -0.00014   0.00376   0.00797   0.00915   0.00947

  Beta  occ. eigenvalues --  -38.44149 -38.44022 -38.43605 -38.43559 -38.43414
  Beta  occ. eigenvalues --  -38.43279 -38.42888  -2.20013  -2.19913  -2.19454
  Beta  occ. eigenvalues --   -2.19436  -2.19319  -2.19161  -2.18770  -1.13705
  Beta  occ. eigenvalues --   -1.13658  -1.13654  -1.13636  -1.13567  -1.13538
  Beta  occ. eigenvalues --   -1.13195  -1.13151  -1.13124  -1.13105  -1.13075
  Beta  occ. eigenvalues --   -1.13060  -1.13037  -1.12999  -1.12977  -1.12838
  Beta  occ. eigenvalues --   -1.12800  -1.12777  -1.12456  -1.12417  -1.12398
  Beta  occ. eigenvalues --   -0.18253  -0.13304  -0.11923
  Beta virt. eigenvalues --   -0.07155  -0.05674  -0.05138  -0.04171  -0.02756
  Beta virt. eigenvalues --   -0.02113  -0.01679  -0.01450  -0.00846  -0.00168
  Beta virt. eigenvalues --   -0.00151   0.00108   0.00402   0.00869   0.00919

 Mulliken charges and spin densities:
               1          2
     1  Na   0.308915  -0.034251
     2  Na   0.144481   0.003242
     3  Na  -0.032838  -0.043490
     4  Na   0.190069  -0.044374
     5  Na  -0.346070   0.550798
     6  Na  -0.464521   0.618304
     7  Na   0.199964  -0.050230
 Sum of Mulliken charges =  -0.00000   1.00000

 Dipole moment (field-independent basis, Debye):
    X=             -0.3349    Y=              0.0544    Z=              0.0684  Tot=              0.3461
 Quadrupole moment (field-independent basis, Debye-Ang):
   XX=            -56.4610   YY=            -66.3849   ZZ=            -72.3083
   XY=             -0.0532   XZ=              1.1033   YZ=             -1.3443

 Normal termination of Gaussian 16 at Tue Dec  5 09:48:29 2023.
