 Gaussian 16, Revision B.01,
 Gaussian 16:  ES64L-G16RevB.01 20-Dec-2017

 -------------------------
 #P B3LYP/6-311+g(d) force
 -------------------------

 -----
 DPGEN
 -----
 Symbolic Z-matrix:
 Charge =  0 Multiplicity = 2

                         Standard orientation:
 ---------------------------------------------------------------------
 Center     Atomic      Atomic             Coordinates (Angstroms)
 Number     Number       Type             X           Y           Z
 ---------------------------------------------------------------------
      1         11           0       -4.739664    2.320482    0.417251
      2         11           0        4.503241    3.480779   -0.136025
      3         11           0       -0.506903   -3.002857   -0.340596
      4         11           0        3.554306   -2.602259    0.567423
      5         11           0       -5.828472   -0.193422   -0.347201
      6         11           0       -1.995650   -0.276350    0.116502
      7         11           0        5.013142    0.273627   -0.277354
 ---------------------------------------------------------------------

 SCF Done:  E(UB3LYP) =  -1136.10529913     A.U. after   18 cycles

 The electronic state is 2-A.
 Alpha  occ. eigenvalues --  -38.46138 -38.45469 -38.44160 -38.44032 -38.43764
 Alpha  occ. eigenvalues --  -38.43144 -38.42983  -2.21972  -2.21319  -2.19961
 Alpha  occ. eigenvalues --   -2.19861  -2.19570  -2.18932  -2.18785  -1.15733
 Alpha  occ. eigenvalues --   -1.15614  -1.15592  -1.14975  -1.14953  -1.14938
 Alpha  occ. eigenvalues --   -1.13606  -1.13603  -1.13571  -1.13543  -1.13533
 Alpha  occ. eigenvalues --   -1.13475  -1.13206  -1.13205  -1.13204  -1.12606
 Alpha  occ. eigenvalues --   -1.12598  -1.12580  -1.12463  -1.12462  -1.12450
 Alpha  occ. eigenvalues --   -0.16066  -0.14073  -0.12252  -0.10806
 Alpha virt. eigenvalues --   -0.06712  -0.05767  -0.04117  -0.03922  -0.02970
 Alpha virt. eigenvalues --   -0.02507  -0.01841  -0.01549  -0.01425  -0.01024
 Alpha virt. eigenvalues --   -0.00503  -0.00377  -0.00008   0.00251   0.00289

  Beta  occ. eigenvalues --  -38.46131 -38.45461 -38.44061 -38.43999 -38.43679
  Beta  occ. eigenvalues --  -38.43153 -38.42990  -2.21959  -2.21305  -2.19801
  Beta  occ. eigenvalues --   -2.19775  -2.19409  -2.18952  -2.18807  -1.15721
  Beta  occ. eigenvalues --   -1.15606  -1.15578  -1.14960  -1.14944  -1.14929
  Beta  occ. eigenvalues --   -1.13498  -1.13492  -1.13481  -1.13479  -1.13446
  Beta  occ. eigenvalues --   -1.13439  -1.13102  -1.13096  -1.13095  -1.12615
  Beta  occ. eigenvalues --   -1.12613  -1.12582  -1.12486  -1.12484  -1.12404
  Beta  occ. eigenvalues --   -0.15860  -0.13200  -0.11718
  Beta virt. eigenvalues --   -0.07468  -0.06654  -0.05424  -0.03894  -0.03514
  Beta virt. eigenvalues --   -0.02769  -0.02268  -0.01669  -0.01345  -0.01230
  Beta virt. eigenvalues --   -0.00761  -0.00191  -0.00014   0.00223   0.00294

 Mulliken charges and spin densities:
               1          2
     1  Na   0.330745   0.118873
     2  Na   0.225393   0.439553
     3  Na   0.559683  -0.109021
     4  Na  -0.036991   0.476971
     5  Na   0.418577   0.056464
     6  Na  -1.205354   0.074987
     7  Na  -0.292053  -0.057827
 Sum of Mulliken charges =  -0.00000   1.00000

 Dipole moment (field-independent basis, Debye):
    X=             -5.0303    Y=              0.8168    Z=              0.1078  Tot=              5.0974
 Quadrupole moment (field-independent basis, Debye-Ang):
   XX=            -63.0285   YY=            -58.6785   ZZ=            -74.0633
   XY=             -1.5252   XZ=              1.7417   YZ=              2.9934

 Normal termination of Gaussian 16 at Sun Dec  3 22:26:37 2023.
