 Gaussian 16, Revision B.01,
 Gaussian 16:  ES64L-G16RevB.01 20-Dec-2017

 -------------------------
 #P B3LYP/6-311+g(d) force
 -------------------------

 -----
 DPGEN
 -----
 Symbolic Z-matrix:
 Charge =  0 Multiplicity = 2

                         Standard orientation:
 ---------------------------------------------------------------------
 Center     Atomic      Atomic             Coordinates (Angstroms)
 Number     Number       Type             X           Y           Z
 ---------------------------------------------------------------------
      1         11           0        3.072112    0.929471   -0.868256
      2         11           0       -0.688470    0.601918   -1.354798
      3         11           0        1.229500   -0.449373    1.877297
      4         11           0       -1.843445   -1.758248    0.526427
      5         11           0        1.940983   -2.407243   -0.611488
      6         11           0       -4.090423    0.364254   -0.317713
      7         11           0        0.379743    2.719221    0.748531
 ---------------------------------------------------------------------

 SCF Done:  E(UB3LYP) =  -1136.12886053     A.U. after   20 cycles

 The electronic state is 2-A.
 Alpha  occ. eigenvalues --  -38.44850 -38.44346 -38.44140 -38.43671 -38.43324
 Alpha  occ. eigenvalues --  -38.43167 -38.42928  -2.20654  -2.20182  -2.20039
 Alpha  occ. eigenvalues --   -2.19543  -2.19244  -2.19006  -2.18790  -1.14330
 Alpha  occ. eigenvalues --   -1.14306  -1.14287  -1.13860  -1.13837  -1.13795
 Alpha  occ. eigenvalues --   -1.13758  -1.13726  -1.13636  -1.13248  -1.13213
 Alpha  occ. eigenvalues --   -1.13146  -1.12917  -1.12909  -1.12862  -1.12677
 Alpha  occ. eigenvalues --   -1.12665  -1.12635  -1.12477  -1.12440  -1.12408
 Alpha  occ. eigenvalues --   -0.18247  -0.13753  -0.11749  -0.10643
 Alpha virt. eigenvalues --   -0.06676  -0.05005  -0.04146  -0.03341  -0.02827
 Alpha virt. eigenvalues --   -0.02547  -0.02119  -0.01125  -0.00551  -0.00227
 Alpha virt. eigenvalues --    0.00015   0.00215   0.00463   0.00783   0.00835

  Beta  occ. eigenvalues --  -38.44845 -38.44305 -38.44122 -38.43658 -38.43253
  Beta  occ. eigenvalues --  -38.43155 -38.42908  -2.20644  -2.20108  -2.20007
  Beta  occ. eigenvalues --   -2.19523  -2.19117  -2.18986  -2.18755  -1.14324
  Beta  occ. eigenvalues --   -1.14297  -1.14280  -1.13802  -1.13789  -1.13736
  Beta  occ. eigenvalues --   -1.13725  -1.13705  -1.13612  -1.13237  -1.13188
  Beta  occ. eigenvalues --   -1.13123  -1.12834  -1.12816  -1.12770  -1.12660
  Beta  occ. eigenvalues --   -1.12648  -1.12598  -1.12457  -1.12399  -1.12383
  Beta  occ. eigenvalues --   -0.17596  -0.13479  -0.11553
  Beta virt. eigenvalues --   -0.06861  -0.06451  -0.04851  -0.04046  -0.02868
  Beta virt. eigenvalues --   -0.02373  -0.02175  -0.01273  -0.01064  -0.00388
  Beta virt. eigenvalues --   -0.00050   0.00076   0.00291   0.00583   0.00819

 Mulliken charges and spin densities:
               1          2
     1  Na   0.245931   0.302537
     2  Na  -0.107728   0.266717
     3  Na   0.098881   0.458202
     4  Na  -0.372365  -0.119131
     5  Na  -0.195868   0.107788
     6  Na   0.496214   0.033264
     7  Na  -0.165065  -0.049376
 Sum of Mulliken charges =  -0.00000   1.00000

 Dipole moment (field-independent basis, Debye):
    X=             -0.8854    Y=              0.3073    Z=              0.0142  Tot=              0.9374
 Quadrupole moment (field-independent basis, Debye-Ang):
   XX=            -51.2805   YY=            -69.9754   ZZ=            -71.8235
   XY=             -0.6525   XZ=             -0.9549   YZ=              1.3337

 Normal termination of Gaussian 16 at Tue Dec  5 19:46:13 2023.
