 Gaussian 16, Revision B.01,
 Gaussian 16:  ES64L-G16RevB.01 20-Dec-2017

 -------------------------
 #P B3LYP/6-311+g(d) force
 -------------------------

 -----
 DPGEN
 -----
 Symbolic Z-matrix:
 Charge =  0 Multiplicity = 2

                         Standard orientation:
 ---------------------------------------------------------------------
 Center     Atomic      Atomic             Coordinates (Angstroms)
 Number     Number       Type             X           Y           Z
 ---------------------------------------------------------------------
      1         11           0        1.698186   -1.980939    0.254222
      2         11           0       -0.157964    0.224501    1.991895
      3         11           0        3.407249    0.866881   -0.032373
      4         11           0       -1.382109   -2.674028   -0.343826
      5         11           0       -0.642305    3.008600   -0.230799
      6         11           0        0.099818    0.115309   -1.788541
      7         11           0       -3.022874    0.439676    0.149422
 ---------------------------------------------------------------------

 SCF Done:  E(UB3LYP) =  -1136.13610636     A.U. after   20 cycles

 The electronic state is 2-A.
 Alpha  occ. eigenvalues --  -38.44305 -38.44154 -38.43704 -38.43657 -38.43426
 Alpha  occ. eigenvalues --  -38.43221 -38.43077  -2.20085  -2.19994  -2.19602
 Alpha  occ. eigenvalues --   -2.19481  -2.19359  -2.19145  -2.18943  -1.13757
 Alpha  occ. eigenvalues --   -1.13752  -1.13725  -1.13680  -1.13659  -1.13624
 Alpha  occ. eigenvalues --   -1.13277  -1.13237  -1.13221  -1.13174  -1.13139
 Alpha  occ. eigenvalues --   -1.13110  -1.13051  -1.12996  -1.12974  -1.12836
 Alpha  occ. eigenvalues --   -1.12811  -1.12784  -1.12604  -1.12591  -1.12584
 Alpha  occ. eigenvalues --   -0.18597  -0.13019  -0.12310  -0.10842
 Alpha virt. eigenvalues --   -0.05998  -0.04898  -0.04605  -0.03281  -0.02862
 Alpha virt. eigenvalues --   -0.02645  -0.01734  -0.01111  -0.00446  -0.00152
 Alpha virt. eigenvalues --   -0.00003   0.00348   0.00811   0.00827   0.00881

  Beta  occ. eigenvalues --  -38.44309 -38.44147 -38.43651 -38.43615 -38.43351
  Beta  occ. eigenvalues --  -38.43211 -38.43071  -2.20094  -2.19986  -2.19474
  Beta  occ. eigenvalues --   -2.19438  -2.19223  -2.19131  -2.18935  -1.13765
  Beta  occ. eigenvalues --   -1.13745  -1.13732  -1.13666  -1.13635  -1.13623
  Beta  occ. eigenvalues --   -1.13175  -1.13157  -1.13135  -1.13113  -1.13103
  Beta  occ. eigenvalues --   -1.13095  -1.12963  -1.12905  -1.12875  -1.12823
  Beta  occ. eigenvalues --   -1.12780  -1.12763  -1.12592  -1.12588  -1.12564
  Beta  occ. eigenvalues --   -0.17840  -0.12804  -0.12081
  Beta virt. eigenvalues --   -0.06919  -0.05962  -0.04821  -0.04610  -0.02474
  Beta virt. eigenvalues --   -0.02134  -0.01705  -0.01542  -0.01026  -0.00506
  Beta virt. eigenvalues --   -0.00145   0.00110   0.00363   0.00809   0.00876

 Mulliken charges and spin densities:
               1          2
     1  Na   0.207278   0.085920
     2  Na  -0.230746   0.592404
     3  Na  -0.011275  -0.143084
     4  Na   0.066247  -0.004671
     5  Na  -0.026726  -0.157148
     6  Na  -0.208871   0.622668
     7  Na   0.204093   0.003911
 Sum of Mulliken charges =  -0.00000   1.00000

 Dipole moment (field-independent basis, Debye):
    X=              0.0052    Y=              0.5039    Z=              0.0609  Tot=              0.5076
 Quadrupole moment (field-independent basis, Debye-Ang):
   XX=            -56.2227   YY=            -63.2969   ZZ=            -73.9317
   XY=              1.7643   XZ=              0.3487   YZ=             -0.1171

 Normal termination of Gaussian 16 at Thu Dec  7 09:04:24 2023.
