 Gaussian 16, Revision B.01,
 Gaussian 16:  ES64L-G16RevB.01 20-Dec-2017

 -------------------------
 #P B3LYP/6-311+g(d) force
 -------------------------

 -----
 DPGEN
 -----
 Symbolic Z-matrix:
 Charge =  0 Multiplicity = 2

                         Standard orientation:
 ---------------------------------------------------------------------
 Center     Atomic      Atomic             Coordinates (Angstroms)
 Number     Number       Type             X           Y           Z
 ---------------------------------------------------------------------
      1         11           0       -1.161880    2.237705    0.209169
      2         11           0       -3.866331    0.097407   -1.162200
      3         11           0        0.092492   -0.993009   -1.237060
      4         11           0        3.526729   -1.560781   -0.612884
      5         11           0        2.849026    1.825752   -0.213134
      6         11           0        1.086530   -0.190734    1.730674
      7         11           0       -2.526565   -1.416340    1.285435
 ---------------------------------------------------------------------

 SCF Done:  E(UB3LYP) =  -1136.12072089     A.U. after   28 cycles

 The electronic state is 2-A.
 Alpha  occ. eigenvalues --  -38.45090 -38.44482 -38.44374 -38.44368 -38.43822
 Alpha  occ. eigenvalues --  -38.43528 -38.42941  -2.20921  -2.20325  -2.20213
 Alpha  occ. eigenvalues --   -2.20189  -2.19749  -2.19358  -2.18751  -1.14659
 Alpha  occ. eigenvalues --   -1.14592  -1.14519  -1.14027  -1.13982  -1.13970
 Alpha  occ. eigenvalues --   -1.13891  -1.13865  -1.13851  -1.13842  -1.13819
 Alpha  occ. eigenvalues --   -1.13801  -1.13459  -1.13382  -1.13345  -1.13027
 Alpha  occ. eigenvalues --   -1.13012  -1.12993  -1.12455  -1.12428  -1.12357
 Alpha  occ. eigenvalues --   -0.18198  -0.14526  -0.10900  -0.10678
 Alpha virt. eigenvalues --   -0.07020  -0.05588  -0.04899  -0.02965  -0.02884
 Alpha virt. eigenvalues --   -0.02378  -0.02038  -0.01310  -0.01084  -0.00384
 Alpha virt. eigenvalues --    0.00011   0.00156   0.00320   0.00434   0.00579

  Beta  occ. eigenvalues --  -38.45094 -38.44448 -38.44360 -38.44319 -38.43761
  Beta  occ. eigenvalues --  -38.43513 -38.42929  -2.20930  -2.20267  -2.20173
  Beta  occ. eigenvalues --   -2.20108  -2.19640  -2.19330  -2.18732  -1.14644
  Beta  occ. eigenvalues --   -1.14592  -1.14534  -1.13972  -1.13947  -1.13911
  Beta  occ. eigenvalues --   -1.13880  -1.13842  -1.13793  -1.13780  -1.13765
  Beta  occ. eigenvalues --   -1.13755  -1.13387  -1.13285  -1.13271  -1.13006
  Beta  occ. eigenvalues --   -1.12987  -1.12979  -1.12443  -1.12402  -1.12339
  Beta  occ. eigenvalues --   -0.17577  -0.14099  -0.10613
  Beta virt. eigenvalues --   -0.07123  -0.06837  -0.05345  -0.04348  -0.02847
  Beta virt. eigenvalues --   -0.02720  -0.01652  -0.01541  -0.01198  -0.00689
  Beta virt. eigenvalues --   -0.00222   0.00095   0.00211   0.00420   0.00593

 Mulliken charges and spin densities:
               1          2
     1  Na  -0.508640   0.075496
     2  Na   0.647634   0.385184
     3  Na  -0.864759  -0.063332
     4  Na   0.484038   0.165543
     5  Na   0.072606   0.082838
     6  Na   0.058473   0.234391
     7  Na   0.110648   0.119879
 Sum of Mulliken charges =  -0.00000   1.00000

 Dipole moment (field-independent basis, Debye):
    X=             -0.0060    Y=             -0.0847    Z=              0.1763  Tot=              0.1957
 Quadrupole moment (field-independent basis, Debye-Ang):
   XX=            -53.0680   YY=            -76.9500   ZZ=            -67.3346
   XY=              2.2323   XZ=             -0.0346   YZ=             -3.4443

 Normal termination of Gaussian 16 at Fri Dec  8 05:12:21 2023.
