 Gaussian 16, Revision B.01,
 Gaussian 16:  ES64L-G16RevB.01 20-Dec-2017

 -------------------------
 #P B3LYP/6-311+g(d) force
 -------------------------

 -----
 DPGEN
 -----
 Symbolic Z-matrix:
 Charge =  0 Multiplicity = 2

                         Standard orientation:
 ---------------------------------------------------------------------
 Center     Atomic      Atomic             Coordinates (Angstroms)
 Number     Number       Type             X           Y           Z
 ---------------------------------------------------------------------
      1         11           0       -1.240878    2.282908   -0.053453
      2         11           0       -0.417837   -0.013005   -1.784910
      3         11           0       -2.888234   -0.460082    0.272023
      4         11           0       -0.436433   -2.443870    0.078274
      5         11           0        0.405292    0.160149    1.788679
      6         11           0        2.517615   -1.333065   -0.214011
      7         11           0        2.060476    1.806964   -0.086602
 ---------------------------------------------------------------------

 SCF Done:  E(UB3LYP) =  -1136.13011928     A.U. after   17 cycles

 The electronic state is 2-A.
 Alpha  occ. eigenvalues --  -38.43795 -38.43554 -38.43409 -38.43395 -38.43368
 Alpha  occ. eigenvalues --  -38.43123 -38.42937  -2.19720  -2.19486  -2.19457
 Alpha  occ. eigenvalues --   -2.19425  -2.19361  -2.19095  -2.18926  -1.13423
 Alpha  occ. eigenvalues --   -1.13385  -1.13369  -1.13263  -1.13189  -1.13175
 Alpha  occ. eigenvalues --   -1.13161  -1.13152  -1.13124  -1.13080  -1.13052
 Alpha  occ. eigenvalues --   -1.13027  -1.12993  -1.12969  -1.12947  -1.12762
 Alpha  occ. eigenvalues --   -1.12745  -1.12697  -1.12606  -1.12575  -1.12542
 Alpha  occ. eigenvalues --   -0.19992  -0.13497  -0.12725  -0.11244
 Alpha virt. eigenvalues --   -0.05361  -0.04874  -0.04277  -0.03439  -0.02982
 Alpha virt. eigenvalues --   -0.02556  -0.01326  -0.00801  -0.00023   0.00218
 Alpha virt. eigenvalues --    0.00242   0.00371   0.00903   0.01006   0.01019

  Beta  occ. eigenvalues --  -38.43788 -38.43548 -38.43402 -38.43314 -38.43288
  Beta  occ. eigenvalues --  -38.43113 -38.42926  -2.19711  -2.19478  -2.19354
  Beta  occ. eigenvalues --   -2.19308  -2.19275  -2.19082  -2.18911  -1.13415
  Beta  occ. eigenvalues --   -1.13383  -1.13332  -1.13232  -1.13170  -1.13138
  Beta  occ. eigenvalues --   -1.13104  -1.13083  -1.13041  -1.12991  -1.12974
  Beta  occ. eigenvalues --   -1.12971  -1.12932  -1.12929  -1.12877  -1.12745
  Beta  occ. eigenvalues --   -1.12697  -1.12689  -1.12596  -1.12539  -1.12520
  Beta  occ. eigenvalues --   -0.19215  -0.13230  -0.12417
  Beta virt. eigenvalues --   -0.07225  -0.05322  -0.04870  -0.04291  -0.02589
  Beta virt. eigenvalues --   -0.02125  -0.01476  -0.01241  -0.00750   0.00110
  Beta virt. eigenvalues --    0.00171   0.00196   0.00390   0.00958   0.00995

 Mulliken charges and spin densities:
               1          2
     1  Na   0.478537  -0.052126
     2  Na  -0.812179   0.576823
     3  Na   0.154427  -0.023257
     4  Na   0.399246  -0.012969
     5  Na  -0.816188   0.584844
     6  Na   0.163251  -0.034500
     7  Na   0.432906  -0.038815
 Sum of Mulliken charges =  -0.00000   1.00000

 Dipole moment (field-independent basis, Debye):
    X=             -0.0247    Y=              0.0277    Z=              0.0184  Tot=              0.0414
 Quadrupole moment (field-independent basis, Debye-Ang):
   XX=            -57.0522   YY=            -65.9718   ZZ=            -71.8393
   XY=             -0.0299   XZ=             -1.8652   YZ=             -0.3076

 Normal termination of Gaussian 16 at Thu Dec  7 20:22:03 2023.
