 Gaussian 16, Revision B.01,
 Gaussian 16:  ES64L-G16RevB.01 20-Dec-2017

 -------------------------
 #P B3LYP/6-311+g(d) force
 -------------------------

 -----
 DPGEN
 -----
 Symbolic Z-matrix:
 Charge =  0 Multiplicity = 2

                         Standard orientation:
 ---------------------------------------------------------------------
 Center     Atomic      Atomic             Coordinates (Angstroms)
 Number     Number       Type             X           Y           Z
 ---------------------------------------------------------------------
      1         11           0        0.575881    0.012308   -1.642310
      2         11           0        0.184412    0.802137    2.035685
      3         11           0       -2.440996   -1.898798   -0.798924
      4         11           0        0.700625   -2.551550    0.408086
      5         11           0       -3.803082    1.258426    0.511651
      6         11           0        1.213060    2.844339   -0.897667
      7         11           0        3.570099   -0.466862    0.383480
 ---------------------------------------------------------------------

 SCF Done:  E(UB3LYP) =  -1136.12027001     A.U. after   23 cycles

 The electronic state is 2-A.
 Alpha  occ. eigenvalues --  -38.45370 -38.44934 -38.44716 -38.43666 -38.43515
 Alpha  occ. eigenvalues --  -38.43368 -38.42981  -2.21146  -2.20661  -2.20513
 Alpha  occ. eigenvalues --   -2.19474  -2.19470  -2.19210  -2.18848  -1.14824
 Alpha  occ. eigenvalues --   -1.14792  -1.14780  -1.14333  -1.14317  -1.14296
 Alpha  occ. eigenvalues --   -1.14194  -1.14156  -1.14121  -1.13201  -1.13158
 Alpha  occ. eigenvalues --   -1.13149  -1.13132  -1.13099  -1.13095  -1.12868
 Alpha  occ. eigenvalues --   -1.12835  -1.12824  -1.12541  -1.12522  -1.12467
 Alpha  occ. eigenvalues --   -0.17811  -0.12932  -0.11863  -0.10928
 Alpha virt. eigenvalues --   -0.07015  -0.05082  -0.04319  -0.03113  -0.03020
 Alpha virt. eigenvalues --   -0.02648  -0.02405  -0.01194  -0.00745  -0.00241
 Alpha virt. eigenvalues --   -0.00184   0.00165   0.00331   0.00656   0.00779

  Beta  occ. eigenvalues --  -38.45359 -38.44922 -38.44651 -38.43655 -38.43448
  Beta  occ. eigenvalues --  -38.43341 -38.42976  -2.21127  -2.20639  -2.20392
  Beta  occ. eigenvalues --   -2.19453  -2.19351  -2.19164  -2.18844  -1.14802
  Beta  occ. eigenvalues --   -1.14773  -1.14770  -1.14316  -1.14303  -1.14282
  Beta  occ. eigenvalues --   -1.14113  -1.14075  -1.14030  -1.13139  -1.13131
  Beta  occ. eigenvalues --   -1.13115  -1.13080  -1.13051  -1.13018  -1.12818
  Beta  occ. eigenvalues --   -1.12797  -1.12793  -1.12541  -1.12512  -1.12445
  Beta  occ. eigenvalues --   -0.17152  -0.12712  -0.11513
  Beta virt. eigenvalues --   -0.07365  -0.06688  -0.04905  -0.04161  -0.02747
  Beta virt. eigenvalues --   -0.02391  -0.02239  -0.01675  -0.01096  -0.00659
  Beta virt. eigenvalues --   -0.00171  -0.00096   0.00210   0.00468   0.00698

 Mulliken charges and spin densities:
               1          2
     1  Na   0.557521   0.240382
     2  Na  -0.217631   0.533821
     3  Na   0.139844   0.018216
     4  Na  -0.216012   0.111581
     5  Na  -0.148129   0.059291
     6  Na  -0.124000  -0.035865
     7  Na   0.008406   0.072574
 Sum of Mulliken charges =  -0.00000   1.00000

 Dipole moment (field-independent basis, Debye):
    X=              0.6074    Y=              0.2456    Z=              0.3867  Tot=              0.7607
 Quadrupole moment (field-independent basis, Debye-Ang):
   XX=            -51.7802   YY=            -69.1679   ZZ=            -72.9214
   XY=             -0.7670   XZ=              1.2675   YZ=              0.1833

 Normal termination of Gaussian 16 at Thu Dec  7 11:18:43 2023.
