 Gaussian 16, Revision B.01,
 Gaussian 16:  ES64L-G16RevB.01 20-Dec-2017

 -------------------------
 #P B3LYP/6-311+g(d) force
 -------------------------

 -----
 DPGEN
 -----
 Symbolic Z-matrix:
 Charge =  0 Multiplicity = 2

                         Standard orientation:
 ---------------------------------------------------------------------
 Center     Atomic      Atomic             Coordinates (Angstroms)
 Number     Number       Type             X           Y           Z
 ---------------------------------------------------------------------
      1         11           0       -3.155205   -1.630043    0.436673
      2         11           0        0.532083   -2.715366    0.001576
      3         11           0        2.810321   -0.878134   -1.564940
      4         11           0        2.419105    0.132658    2.155150
      5         11           0       -3.928419    1.578796   -0.157613
      6         11           0       -0.189327    0.386610   -0.739940
      7         11           0        1.511441    3.125478   -0.130906
 ---------------------------------------------------------------------

 SCF Done:  E(UB3LYP) =  -1136.12040526     A.U. after   23 cycles

 The electronic state is 2-A.
 Alpha  occ. eigenvalues --  -38.45119 -38.44699 -38.44455 -38.43941 -38.43691
 Alpha  occ. eigenvalues --  -38.43436 -38.43235  -2.20876  -2.20542  -2.20245
 Alpha  occ. eigenvalues --   -2.19754  -2.19471  -2.19367  -2.19081  -1.14549
 Alpha  occ. eigenvalues --   -1.14532  -1.14519  -1.14214  -1.14185  -1.14162
 Alpha  occ. eigenvalues --   -1.13922  -1.13906  -1.13874  -1.13419  -1.13379
 Alpha  occ. eigenvalues --   -1.13359  -1.13178  -1.13131  -1.13110  -1.13076
 Alpha  occ. eigenvalues --   -1.13032  -1.12985  -1.12771  -1.12736  -1.12716
 Alpha  occ. eigenvalues --   -0.17469  -0.13653  -0.11771  -0.10326
 Alpha virt. eigenvalues --   -0.06998  -0.05599  -0.04551  -0.03230  -0.02606
 Alpha virt. eigenvalues --   -0.02400  -0.02029  -0.01415  -0.01184  -0.00620
 Alpha virt. eigenvalues --   -0.00514   0.00193   0.00341   0.00546   0.00751

  Beta  occ. eigenvalues --  -38.45125 -38.44650 -38.44449 -38.43835 -38.43695
  Beta  occ. eigenvalues --  -38.43414 -38.43231  -2.20887  -2.20454  -2.20234
  Beta  occ. eigenvalues --   -2.19556  -2.19479  -2.19328  -2.19078  -1.14556
  Beta  occ. eigenvalues --   -1.14539  -1.14526  -1.14144  -1.14119  -1.14102
  Beta  occ. eigenvalues --   -1.13913  -1.13899  -1.13868  -1.13284  -1.13247
  Beta  occ. eigenvalues --   -1.13222  -1.13180  -1.13130  -1.13109  -1.13036
  Beta  occ. eigenvalues --   -1.13003  -1.12960  -1.12771  -1.12718  -1.12705
  Beta  occ. eigenvalues --   -0.16887  -0.13448  -0.11600
  Beta virt. eigenvalues --   -0.06917  -0.06365  -0.05345  -0.04499  -0.02829
  Beta virt. eigenvalues --   -0.02355  -0.01851  -0.01414  -0.01346  -0.00917
  Beta virt. eigenvalues --   -0.00537  -0.00123   0.00270   0.00488   0.00588

 Mulliken charges and spin densities:
               1          2
     1  Na   0.063672  -0.018136
     2  Na   0.516517   0.172284
     3  Na   1.508255   0.038033
     4  Na  -0.417034   0.509809
     5  Na   0.454962  -0.062576
     6  Na  -2.207920   0.458101
     7  Na   0.081548  -0.097515
 Sum of Mulliken charges =  -0.00000   1.00000

 Dipole moment (field-independent basis, Debye):
    X=             -0.8220    Y=              0.1533    Z=             -0.3513  Tot=              0.9069
 Quadrupole moment (field-independent basis, Debye-Ang):
   XX=            -52.3994   YY=            -63.9854   ZZ=            -76.0284
   XY=             -2.4479   XZ=             -4.2673   YZ=             -1.1986

 Normal termination of Gaussian 16 at Tue Dec  5 14:41:04 2023.
