 Gaussian 16, Revision B.01,
 Gaussian 16:  ES64L-G16RevB.01 20-Dec-2017

 -------------------------
 #P B3LYP/6-311+g(d) force
 -------------------------

 -----
 DPGEN
 -----
 Symbolic Z-matrix:
 Charge =  0 Multiplicity = 2

                         Standard orientation:
 ---------------------------------------------------------------------
 Center     Atomic      Atomic             Coordinates (Angstroms)
 Number     Number       Type             X           Y           Z
 ---------------------------------------------------------------------
      1         11           0        2.672369   -1.073122   -1.339855
      2         11           0        0.714481    1.740019   -1.297673
      3         11           0       -0.463501   -0.115833    1.639379
      4         11           0        3.658981    0.122588    1.704291
      5         11           0       -0.748802   -1.540125   -1.218873
      6         11           0       -3.525604   -1.616876    0.572990
      7         11           0       -2.307924    2.483350   -0.060260
 ---------------------------------------------------------------------

 SCF Done:  E(UB3LYP) =  -1136.12422994     A.U. after   22 cycles

 The electronic state is 2-A.
 Alpha  occ. eigenvalues --  -38.44967 -38.44801 -38.44029 -38.43858 -38.43737
 Alpha  occ. eigenvalues --  -38.43175 -38.43134  -2.20822  -2.20597  -2.19880
 Alpha  occ. eigenvalues --   -2.19666  -2.19645  -2.19006  -2.18981  -1.14556
 Alpha  occ. eigenvalues --   -1.14450  -1.14431  -1.14244  -1.14242  -1.14215
 Alpha  occ. eigenvalues --   -1.13555  -1.13549  -1.13517  -1.13359  -1.13356
 Alpha  occ. eigenvalues --   -1.13321  -1.13313  -1.13290  -1.13217  -1.12705
 Alpha  occ. eigenvalues --   -1.12676  -1.12666  -1.12651  -1.12629  -1.12578
 Alpha  occ. eigenvalues --   -0.18087  -0.13732  -0.11598  -0.11190
 Alpha virt. eigenvalues --   -0.06520  -0.05143  -0.04916  -0.03175  -0.02833
 Alpha virt. eigenvalues --   -0.02445  -0.02284  -0.01217  -0.01043  -0.00015
 Alpha virt. eigenvalues --    0.00098   0.00171   0.00348   0.00500   0.00563

  Beta  occ. eigenvalues --  -38.44937 -38.44724 -38.44007 -38.43858 -38.43691
  Beta  occ. eigenvalues --  -38.43177 -38.43111  -2.20767  -2.20453  -2.19846
  Beta  occ. eigenvalues --   -2.19666  -2.19564  -2.18986  -2.18966  -1.14513
  Beta  occ. eigenvalues --   -1.14412  -1.14388  -1.14145  -1.14142  -1.14122
  Beta  occ. eigenvalues --   -1.13530  -1.13522  -1.13466  -1.13351  -1.13320
  Beta  occ. eigenvalues --   -1.13313  -1.13300  -1.13238  -1.13147  -1.12684
  Beta  occ. eigenvalues --   -1.12659  -1.12648  -1.12633  -1.12630  -1.12560
  Beta  occ. eigenvalues --   -0.17412  -0.13361  -0.11124
  Beta virt. eigenvalues --   -0.07729  -0.06302  -0.04836  -0.04386  -0.02976
  Beta virt. eigenvalues --   -0.02319  -0.02027  -0.01865  -0.01140  -0.00661
  Beta virt. eigenvalues --    0.00115   0.00143   0.00347   0.00486   0.00551

 Mulliken charges and spin densities:
               1          2
     1  Na   0.678210  -0.026796
     2  Na  -0.049989   0.166882
     3  Na  -0.436951   0.328439
     4  Na  -0.189933   0.370478
     5  Na  -0.427690   0.247912
     6  Na   0.571475   0.012393
     7  Na  -0.145122  -0.099308
 Sum of Mulliken charges =  -0.00000   1.00000

 Dipole moment (field-independent basis, Debye):
    X=             -0.0060    Y=             -0.0761    Z=              0.2676  Tot=              0.2783
 Quadrupole moment (field-independent basis, Debye-Ang):
   XX=            -52.1756   YY=            -77.3007   ZZ=            -66.8912
   XY=             -0.5336   XZ=             -1.2794   YZ=              1.8803

 Normal termination of Gaussian 16 at Thu Dec  7 07:35:26 2023.
