 Gaussian 16, Revision B.01,
 Gaussian 16:  ES64L-G16RevB.01 20-Dec-2017

 -------------------------
 #P B3LYP/6-311+g(d) force
 -------------------------

 -----
 DPGEN
 -----
 Symbolic Z-matrix:
 Charge =  0 Multiplicity = 2

                         Standard orientation:
 ---------------------------------------------------------------------
 Center     Atomic      Atomic             Coordinates (Angstroms)
 Number     Number       Type             X           Y           Z
 ---------------------------------------------------------------------
      1         11           0        2.664943    1.019028    0.657844
      2         11           0        2.053661   -2.199600   -0.379296
      3         11           0       -1.795975   -2.299545    0.052530
      4         11           0        0.009160   -0.134583   -1.636109
      5         11           0       -2.885888    0.996472    0.132656
      6         11           0       -0.228726   -0.169877    1.692015
      7         11           0        0.182826    2.788105   -0.519640
 ---------------------------------------------------------------------

 SCF Done:  E(UB3LYP) =  -1136.13654023     A.U. after   19 cycles

 The electronic state is 2-A.
 Alpha  occ. eigenvalues --  -38.43851 -38.43651 -38.43587 -38.43531 -38.43181
 Alpha  occ. eigenvalues --  -38.43152 -38.42996  -2.19711  -2.19543  -2.19447
 Alpha  occ. eigenvalues --   -2.19423  -2.19199  -2.19048  -2.19037  -1.13405
 Alpha  occ. eigenvalues --   -1.13377  -1.13344  -1.13267  -1.13222  -1.13165
 Alpha  occ. eigenvalues --   -1.13142  -1.13127  -1.13106  -1.13081  -1.13079
 Alpha  occ. eigenvalues --   -1.13035  -1.12892  -1.12822  -1.12809  -1.12803
 Alpha  occ. eigenvalues --   -1.12707  -1.12684  -1.12673  -1.12645  -1.12621
 Alpha  occ. eigenvalues --   -0.19220  -0.13185  -0.12605  -0.10815
 Alpha virt. eigenvalues --   -0.05399  -0.05091  -0.04538  -0.03231  -0.02897
 Alpha virt. eigenvalues --   -0.02332  -0.01446  -0.01143  -0.00202  -0.00050
 Alpha virt. eigenvalues --    0.00113   0.00362   0.00877   0.00887   0.00939

  Beta  occ. eigenvalues --  -38.43846 -38.43644 -38.43578 -38.43513 -38.43139
  Beta  occ. eigenvalues --  -38.43108 -38.42920  -2.19707  -2.19535  -2.19435
  Beta  occ. eigenvalues --   -2.19392  -2.19066  -2.19026  -2.18903  -1.13396
  Beta  occ. eigenvalues --   -1.13367  -1.13333  -1.13257  -1.13195  -1.13149
  Beta  occ. eigenvalues --   -1.13135  -1.13095  -1.13084  -1.13073  -1.13041
  Beta  occ. eigenvalues --   -1.13018  -1.12807  -1.12763  -1.12726  -1.12708
  Beta  occ. eigenvalues --   -1.12662  -1.12657  -1.12609  -1.12556  -1.12535
  Beta  occ. eigenvalues --   -0.18514  -0.12901  -0.12310
  Beta virt. eigenvalues --   -0.06900  -0.05399  -0.05044  -0.04496  -0.02440
  Beta virt. eigenvalues --   -0.02135  -0.01371  -0.01294  -0.01066  -0.00165
  Beta virt. eigenvalues --   -0.00081   0.00174   0.00388   0.00878   0.00924

 Mulliken charges and spin densities:
               1          2
     1  Na   0.079761   0.098156
     2  Na   0.043699  -0.033877
     3  Na   0.033815  -0.098513
     4  Na  -0.157659   0.545121
     5  Na   0.041447  -0.050554
     6  Na  -0.106622   0.522036
     7  Na   0.065559   0.017632
 Sum of Mulliken charges =  -0.00000   1.00000

 Dipole moment (field-independent basis, Debye):
    X=             -0.2240    Y=             -0.1788    Z=              0.0671  Tot=              0.2944
 Quadrupole moment (field-independent basis, Debye-Ang):
   XX=            -56.8178   YY=            -61.5212   ZZ=            -74.2784
   XY=             -0.5240   XZ=              0.6068   YZ=              0.2656

 Normal termination of Gaussian 16 at Wed Nov 29 01:54:32 2023.
