 Gaussian 16, Revision B.01,
 Gaussian 16:  ES64L-G16RevB.01 20-Dec-2017

 -------------------------
 #P B3LYP/6-311+g(d) force
 -------------------------

 -----
 DPGEN
 -----
 Symbolic Z-matrix:
 Charge =  0 Multiplicity = 2

                         Standard orientation:
 ---------------------------------------------------------------------
 Center     Atomic      Atomic             Coordinates (Angstroms)
 Number     Number       Type             X           Y           Z
 ---------------------------------------------------------------------
      1         11           0       -7.356842    1.981751   -0.283086
      2         11           0        4.098679   -1.961253    0.038318
      3         11           0        5.530112    0.656238    0.880081
      4         11           0        4.914766    3.589139   -0.716200
      5         11           0       -3.030873   -2.193827    0.009815
      6         11           0       -4.529506    0.923042    0.730847
      7         11           0        0.373664   -2.995089   -0.659775
 ---------------------------------------------------------------------

 SCF Done:  E(UB3LYP) =  -1136.10369411     A.U. after   19 cycles

 The electronic state is 2-A.
 Alpha  occ. eigenvalues --  -38.45318 -38.44825 -38.44552 -38.44487 -38.44411
 Alpha  occ. eigenvalues --  -38.44286 -38.44173  -2.21106  -2.20612  -2.20369
 Alpha  occ. eigenvalues --   -2.20273  -2.20134  -2.20095  -2.19966  -1.14743
 Alpha  occ. eigenvalues --   -1.14741  -1.14721  -1.14262  -1.14259  -1.14255
 Alpha  occ. eigenvalues --   -1.14057  -1.14011  -1.13997  -1.13937  -1.13934
 Alpha  occ. eigenvalues --   -1.13888  -1.13829  -1.13822  -1.13773  -1.13762
 Alpha  occ. eigenvalues --   -1.13758  -1.13747  -1.13638  -1.13634  -1.13616
 Alpha  occ. eigenvalues --   -0.15080  -0.14448  -0.12669  -0.11469
 Alpha virt. eigenvalues --   -0.07383  -0.05446  -0.03994  -0.03279  -0.03136
 Alpha virt. eigenvalues --   -0.02805  -0.02603  -0.01986  -0.01531  -0.01402
 Alpha virt. eigenvalues --   -0.00748  -0.00404  -0.00310   0.00144   0.00367

  Beta  occ. eigenvalues --  -38.45215 -38.44781 -38.44479 -38.44446 -38.44435
  Beta  occ. eigenvalues --  -38.44299 -38.44182  -2.20916  -2.20528  -2.20232
  Beta  occ. eigenvalues --   -2.20202  -2.20175  -2.20128  -2.19988  -1.14613
  Beta  occ. eigenvalues --   -1.14611  -1.14596  -1.14207  -1.14202  -1.14199
  Beta  occ. eigenvalues --   -1.13985  -1.13917  -1.13907  -1.13879  -1.13874
  Beta  occ. eigenvalues --   -1.13868  -1.13866  -1.13840  -1.13791  -1.13785
  Beta  occ. eigenvalues --   -1.13779  -1.13714  -1.13656  -1.13651  -1.13604
  Beta  occ. eigenvalues --   -0.14499  -0.13911  -0.12136
  Beta virt. eigenvalues --   -0.08342  -0.06866  -0.05051  -0.03682  -0.03090
  Beta virt. eigenvalues --   -0.02989  -0.02564  -0.02343  -0.01685  -0.01392
  Beta virt. eigenvalues --   -0.00990  -0.00446  -0.00177   0.00024   0.00233

 Mulliken charges and spin densities:
               1          2
     1  Na   0.263396   0.191793
     2  Na   0.088212   0.332397
     3  Na  -0.172253  -0.059756
     4  Na   0.131224   0.500947
     5  Na  -0.107275   0.230393
     6  Na  -0.320790  -0.017502
     7  Na   0.117487  -0.178272
 Sum of Mulliken charges =  -0.00000   1.00000

 Dipole moment (field-independent basis, Debye):
    X=             -0.3885    Y=              1.1709    Z=             -0.4281  Tot=              1.3058
 Quadrupole moment (field-independent basis, Debye-Ang):
   XX=            -54.7414   YY=            -64.7602   ZZ=            -71.7739
   XY=             -1.6944   XZ=              2.7889   YZ=             -2.0071

 Normal termination of Gaussian 16 at Sun Dec  3 17:28:30 2023.
