 Gaussian 16, Revision B.01,
 Gaussian 16:  ES64L-G16RevB.01 20-Dec-2017

 -------------------------
 #P B3LYP/6-311+g(d) force
 -------------------------

 -----
 DPGEN
 -----
 Symbolic Z-matrix:
 Charge =  0 Multiplicity = 2

                         Standard orientation:
 ---------------------------------------------------------------------
 Center     Atomic      Atomic             Coordinates (Angstroms)
 Number     Number       Type             X           Y           Z
 ---------------------------------------------------------------------
      1         11           0       -6.820079   -0.538436    0.991797
      2         11           0        2.972087    1.151600    1.146549
      3         11           0        8.511292    0.153203   -0.564521
      4         11           0        5.589775   -0.418474   -0.141339
      5         11           0       -0.496325   -0.722957    0.427370
      6         11           0       -3.447209   -1.415609   -0.898348
      7         11           0       -6.309541    1.790674   -0.961507
 ---------------------------------------------------------------------

 SCF Done:  E(UB3LYP) =  -1136.10609901     A.U. after   19 cycles

 The electronic state is 2-A.
 Alpha  occ. eigenvalues --  -38.45523 -38.45451 -38.44260 -38.44059 -38.44056
 Alpha  occ. eigenvalues --  -38.43373 -38.43273  -2.21317  -2.21246  -2.20065
 Alpha  occ. eigenvalues --   -2.19883  -2.19866  -2.19210  -2.19030  -1.15048
 Alpha  occ. eigenvalues --   -1.14973  -1.14960  -1.14903  -1.14888  -1.14833
 Alpha  occ. eigenvalues --   -1.13717  -1.13709  -1.13673  -1.13569  -1.13538
 Alpha  occ. eigenvalues --   -1.13523  -1.13509  -1.13507  -1.13472  -1.12882
 Alpha  occ. eigenvalues --   -1.12871  -1.12870  -1.12718  -1.12717  -1.12674
 Alpha  occ. eigenvalues --   -0.15386  -0.14415  -0.12381  -0.10948
 Alpha virt. eigenvalues --   -0.06617  -0.05615  -0.04292  -0.03455  -0.02842
 Alpha virt. eigenvalues --   -0.02774  -0.01945  -0.01687  -0.01526  -0.01326
 Alpha virt. eigenvalues --   -0.00699  -0.00249  -0.00054   0.00238   0.00267

  Beta  occ. eigenvalues --  -38.45505 -38.45448 -38.44170 -38.44000 -38.43981
  Beta  occ. eigenvalues --  -38.43376 -38.43289  -2.21284  -2.21242  -2.19898
  Beta  occ. eigenvalues --   -2.19757  -2.19744  -2.19224  -2.19066  -1.15030
  Beta  occ. eigenvalues --   -1.14951  -1.14935  -1.14901  -1.14878  -1.14822
  Beta  occ. eigenvalues --   -1.13604  -1.13595  -1.13566  -1.13481  -1.13464
  Beta  occ. eigenvalues --   -1.13450  -1.13415  -1.13412  -1.13398  -1.12889
  Beta  occ. eigenvalues --   -1.12888  -1.12829  -1.12748  -1.12746  -1.12660
  Beta  occ. eigenvalues --   -0.15041  -0.13604  -0.11673
  Beta virt. eigenvalues --   -0.07833  -0.06512  -0.05274  -0.03827  -0.03342
  Beta virt. eigenvalues --   -0.02621  -0.02463  -0.01722  -0.01540  -0.01272
  Beta virt. eigenvalues --   -0.00934  -0.00354   0.00018   0.00096   0.00291

 Mulliken charges and spin densities:
               1          2
     1  Na   0.180452   0.038983
     2  Na   0.161371   0.380790
     3  Na   0.468655   0.213507
     4  Na  -0.599870   0.139574
     5  Na  -0.104149  -0.134667
     6  Na  -0.187693   0.290996
     7  Na   0.081234   0.070817
 Sum of Mulliken charges =  -0.00000   1.00000

 Dipole moment (field-independent basis, Debye):
    X=             -3.7193    Y=              0.9226    Z=              0.0066  Tot=              3.8321
 Quadrupole moment (field-independent basis, Debye-Ang):
   XX=            -48.6551   YY=            -65.9677   ZZ=            -68.3197
   XY=              2.8559   XZ=             -1.1401   YZ=             -3.6412

 Normal termination of Gaussian 16 at Sun Dec  3 23:59:06 2023.
