 Gaussian 16, Revision B.01,
 Gaussian 16:  ES64L-G16RevB.01 20-Dec-2017

 -------------------------
 #P B3LYP/6-311+g(d) force
 -------------------------

 -----
 DPGEN
 -----
 Symbolic Z-matrix:
 Charge =  0 Multiplicity = 2

                         Standard orientation:
 ---------------------------------------------------------------------
 Center     Atomic      Atomic             Coordinates (Angstroms)
 Number     Number       Type             X           Y           Z
 ---------------------------------------------------------------------
      1         11           0       -0.125272   -0.355391    2.172300
      2         11           0        0.695389    0.318524   -1.380636
      3         11           0        2.376671   -2.103343   -0.099083
      4         11           0       -1.176168   -2.284695   -0.884831
      5         11           0       -3.126592   -0.056729    0.481617
      6         11           0       -1.229165    2.547585   -0.702845
      7         11           0        2.585136    1.934050    0.413477
 ---------------------------------------------------------------------

 SCF Done:  E(UB3LYP) =  -1136.13133588     A.U. after   19 cycles

 The electronic state is 2-A.
 Alpha  occ. eigenvalues --  -38.44204 -38.44069 -38.43873 -38.43744 -38.43613
 Alpha  occ. eigenvalues --  -38.43472 -38.42915  -2.20020  -2.19927  -2.19699
 Alpha  occ. eigenvalues --   -2.19598  -2.19464  -2.19350  -2.18974  -1.13732
 Alpha  occ. eigenvalues --   -1.13677  -1.13636  -1.13591  -1.13556  -1.13549
 Alpha  occ. eigenvalues --   -1.13396  -1.13357  -1.13326  -1.13280  -1.13263
 Alpha  occ. eigenvalues --   -1.13250  -1.13212  -1.13104  -1.13066  -1.13058
 Alpha  occ. eigenvalues --   -1.12993  -1.12963  -1.12633  -1.12625  -1.12594
 Alpha  occ. eigenvalues --   -0.18587  -0.13024  -0.12272  -0.11060
 Alpha virt. eigenvalues --   -0.05642  -0.05368  -0.04228  -0.03444  -0.02914
 Alpha virt. eigenvalues --   -0.02723  -0.01499  -0.01226  -0.00380  -0.00010
 Alpha virt. eigenvalues --    0.00055   0.00363   0.00765   0.00823   0.00865

  Beta  occ. eigenvalues --  -38.44199 -38.43974 -38.43872 -38.43738 -38.43597
  Beta  occ. eigenvalues --  -38.43449 -38.42868  -2.20013  -2.19751  -2.19699
  Beta  occ. eigenvalues --   -2.19590  -2.19437  -2.19311  -2.18889  -1.13726
  Beta  occ. eigenvalues --   -1.13662  -1.13630  -1.13476  -1.13436  -1.13420
  Beta  occ. eigenvalues --   -1.13391  -1.13351  -1.13320  -1.13277  -1.13253
  Beta  occ. eigenvalues --   -1.13226  -1.13184  -1.13078  -1.13052  -1.13024
  Beta  occ. eigenvalues --   -1.12954  -1.12939  -1.12577  -1.12554  -1.12531
  Beta  occ. eigenvalues --   -0.17864  -0.12831  -0.12012
  Beta virt. eigenvalues --   -0.07131  -0.05594  -0.05265  -0.04138  -0.02710
  Beta virt. eigenvalues --   -0.02247  -0.01683  -0.01389  -0.01157  -0.00301
  Beta virt. eigenvalues --   -0.00026   0.00150   0.00398   0.00825   0.00857

 Mulliken charges and spin densities:
               1          2
     1  Na  -0.430069   0.656111
     2  Na   0.121106  -0.054961
     3  Na   0.185219   0.026190
     4  Na  -0.005779   0.079567
     5  Na   0.242251   0.128122
     6  Na  -0.062769   0.038505
     7  Na  -0.049959   0.126466
 Sum of Mulliken charges =  -0.00000   1.00000

 Dipole moment (field-independent basis, Debye):
    X=              0.3314    Y=             -0.0271    Z=              0.4575  Tot=              0.5656
 Quadrupole moment (field-independent basis, Debye-Ang):
   XX=            -56.2439   YY=            -64.7515   ZZ=            -72.4900
   XY=             -0.3265   XZ=              1.8142   YZ=              1.3548

 Normal termination of Gaussian 16 at Thu Dec  7 22:44:19 2023.
