 Gaussian 16, Revision B.01,
 Gaussian 16:  ES64L-G16RevB.01 20-Dec-2017

 -------------------------
 #P B3LYP/6-311+g(d) force
 -------------------------

 -----
 DPGEN
 -----
 Symbolic Z-matrix:
 Charge =  0 Multiplicity = 2

                         Standard orientation:
 ---------------------------------------------------------------------
 Center     Atomic      Atomic             Coordinates (Angstroms)
 Number     Number       Type             X           Y           Z
 ---------------------------------------------------------------------
      1         11           0        3.487434   -0.011713   -0.229590
      2         11           0       -2.838676   -1.674940   -0.409473
      3         11           0       -0.193959    0.097325    2.113176
      4         11           0        0.766568    2.910756   -0.229796
      5         11           0        0.124335   -0.384797   -1.509408
      6         11           0        1.129926   -2.550812    0.296288
      7         11           0       -2.475628    1.614180   -0.031197
 ---------------------------------------------------------------------

 SCF Done:  E(UB3LYP) =  -1136.13426320     A.U. after   20 cycles

 The electronic state is 2-A.
 Alpha  occ. eigenvalues --  -38.44683 -38.43859 -38.43696 -38.43587 -38.43530
 Alpha  occ. eigenvalues --  -38.43364 -38.43228  -2.20464  -2.19684  -2.19561
 Alpha  occ. eigenvalues --   -2.19470  -2.19412  -2.19339  -2.19039  -1.14140
 Alpha  occ. eigenvalues --   -1.14111  -1.14109  -1.13370  -1.13352  -1.13322
 Alpha  occ. eigenvalues --   -1.13243  -1.13238  -1.13230  -1.13183  -1.13140
 Alpha  occ. eigenvalues --   -1.13099  -1.13087  -1.13054  -1.13011  -1.13007
 Alpha  occ. eigenvalues --   -1.12949  -1.12931  -1.12718  -1.12702  -1.12674
 Alpha  occ. eigenvalues --   -0.18456  -0.13182  -0.12167  -0.10667
 Alpha virt. eigenvalues --   -0.06112  -0.05107  -0.04566  -0.03208  -0.02719
 Alpha virt. eigenvalues --   -0.02487  -0.01970  -0.01102  -0.00452  -0.00362
 Alpha virt. eigenvalues --   -0.00046   0.00299   0.00722   0.00839   0.00864

  Beta  occ. eigenvalues --  -38.44680 -38.43850 -38.43690 -38.43518 -38.43483
  Beta  occ. eigenvalues --  -38.43318 -38.43226  -2.20460  -2.19669  -2.19554
  Beta  occ. eigenvalues --   -2.19395  -2.19277  -2.19255  -2.19037  -1.14124
  Beta  occ. eigenvalues --   -1.14110  -1.14107  -1.13361  -1.13331  -1.13307
  Beta  occ. eigenvalues --   -1.13232  -1.13212  -1.13206  -1.13177  -1.13048
  Beta  occ. eigenvalues --   -1.13005  -1.12997  -1.12960  -1.12949  -1.12936
  Beta  occ. eigenvalues --   -1.12898  -1.12868  -1.12711  -1.12695  -1.12670
  Beta  occ. eigenvalues --   -0.17747  -0.12953  -0.11940
  Beta virt. eigenvalues --   -0.06765  -0.06034  -0.05085  -0.04502  -0.02469
  Beta virt. eigenvalues --   -0.02012  -0.01859  -0.01437  -0.01054  -0.00457
  Beta virt. eigenvalues --   -0.00388   0.00112   0.00348   0.00787   0.00858

 Mulliken charges and spin densities:
               1          2
     1  Na   0.055468  -0.055335
     2  Na   0.260171   0.033553
     3  Na  -0.343008   0.633767
     4  Na  -0.085441  -0.061365
     5  Na  -0.341511   0.386734
     6  Na   0.257026   0.033459
     7  Na   0.197294   0.029188
 Sum of Mulliken charges =  -0.00000   1.00000

 Dipole moment (field-independent basis, Debye):
    X=              0.3455    Y=             -0.1203    Z=              0.1297  Tot=              0.3881
 Quadrupole moment (field-independent basis, Debye-Ang):
   XX=            -53.0900   YY=            -64.9125   ZZ=            -74.8647
   XY=              0.7864   XZ=              0.3691   YZ=             -0.7446

 Normal termination of Gaussian 16 at Fri Dec  8 07:16:15 2023.
