 Gaussian 16, Revision B.01,
 Gaussian 16:  ES64L-G16RevB.01 20-Dec-2017

 -------------------------
 #P B3LYP/6-311+g(d) force
 -------------------------

 -----
 DPGEN
 -----
 Symbolic Z-matrix:
 Charge =  0 Multiplicity = 2

                         Standard orientation:
 ---------------------------------------------------------------------
 Center     Atomic      Atomic             Coordinates (Angstroms)
 Number     Number       Type             X           Y           Z
 ---------------------------------------------------------------------
      1         11           0       -3.228611    1.958074    0.701070
      2         11           0       -4.475969   -1.043561   -0.232504
      3         11           0       -1.448233   -2.534815   -0.382819
      4         11           0        2.290669   -1.905489   -0.928369
      5         11           0        3.386125   -1.403069    1.954871
      6         11           0        2.847848    1.801864   -1.408214
      7         11           0        0.628171    3.126995    0.295964
 ---------------------------------------------------------------------

 SCF Done:  E(UB3LYP) =  -1136.10824535     A.U. after   21 cycles

 The electronic state is 2-A.
 Alpha  occ. eigenvalues --  -38.44775 -38.44665 -38.44456 -38.44455 -38.44391
 Alpha  occ. eigenvalues --  -38.44346 -38.43901  -2.20592  -2.20453  -2.20271
 Alpha  occ. eigenvalues --   -2.20234  -2.20173  -2.20151  -2.19679  -1.14252
 Alpha  occ. eigenvalues --   -1.14226  -1.14217  -1.14127  -1.14122  -1.14120
 Alpha  occ. eigenvalues --   -1.13954  -1.13926  -1.13897  -1.13895  -1.13879
 Alpha  occ. eigenvalues --   -1.13850  -1.13837  -1.13830  -1.13826  -1.13814
 Alpha  occ. eigenvalues --   -1.13804  -1.13779  -1.13352  -1.13349  -1.13328
 Alpha  occ. eigenvalues --   -0.15985  -0.14122  -0.12646  -0.10539
 Alpha virt. eigenvalues --   -0.06994  -0.06540  -0.03672  -0.03288  -0.03140
 Alpha virt. eigenvalues --   -0.02827  -0.02271  -0.01769  -0.01497  -0.00701
 Alpha virt. eigenvalues --   -0.00419  -0.00053   0.00178   0.00194   0.00443

  Beta  occ. eigenvalues --  -38.44689 -38.44676 -38.44421 -38.44393 -38.44359
  Beta  occ. eigenvalues --  -38.44330 -38.43915  -2.20476  -2.20430  -2.20205
  Beta  occ. eigenvalues --   -2.20180  -2.20118  -2.20059  -2.19709  -1.14152
  Beta  occ. eigenvalues --   -1.14146  -1.14138  -1.14115  -1.14106  -1.14104
  Beta  occ. eigenvalues --   -1.13914  -1.13880  -1.13856  -1.13845  -1.13823
  Beta  occ. eigenvalues --   -1.13818  -1.13801  -1.13798  -1.13778  -1.13757
  Beta  occ. eigenvalues --   -1.13747  -1.13713  -1.13373  -1.13368  -1.13331
  Beta  occ. eigenvalues --   -0.15557  -0.13603  -0.12146
  Beta virt. eigenvalues --   -0.07385  -0.06753  -0.05930  -0.03661  -0.02988
  Beta virt. eigenvalues --   -0.02875  -0.02462  -0.01902  -0.01523  -0.01233
  Beta virt. eigenvalues --   -0.00544  -0.00266   0.00219   0.00330   0.00352

 Mulliken charges and spin densities:
               1          2
     1  Na  -0.120073   0.326512
     2  Na   0.531563  -0.037787
     3  Na  -0.249075   0.224518
     4  Na  -0.321008   0.131702
     5  Na   0.185625   0.344154
     6  Na   0.324271   0.107155
     7  Na  -0.351303  -0.096255
 Sum of Mulliken charges =  -0.00000   1.00000

 Dipole moment (field-independent basis, Debye):
    X=              0.1031    Y=             -0.3045    Z=              0.1789  Tot=              0.3679
 Quadrupole moment (field-independent basis, Debye-Ang):
   XX=            -59.1664   YY=            -75.5556   ZZ=            -67.2531
   XY=              2.8754   XZ=             -0.9504   YZ=              2.5441

 Normal termination of Gaussian 16 at Sun Dec  3 11:45:23 2023.
