 Gaussian 16, Revision B.01,
 Gaussian 16:  ES64L-G16RevB.01 20-Dec-2017

 -------------------------
 #P B3LYP/6-311+g(d) force
 -------------------------

 -----
 DPGEN
 -----
 Symbolic Z-matrix:
 Charge =  0 Multiplicity = 2

                         Standard orientation:
 ---------------------------------------------------------------------
 Center     Atomic      Atomic             Coordinates (Angstroms)
 Number     Number       Type             X           Y           Z
 ---------------------------------------------------------------------
      1         11           0        1.498801   -2.252000   -1.496964
      2         11           0        2.489176    1.531390   -1.077205
      3         11           0        1.403123   -0.023634    2.771967
      4         11           0        0.417264   -0.172489    0.052290
      5         11           0       -2.084934   -1.733837    1.046020
      6         11           0       -2.314449    0.233905   -1.511333
      7         11           0       -1.408982    2.416665    0.215225
 ---------------------------------------------------------------------

 SCF Done:  E(UB3LYP) =  -1136.10642517     A.U. after   24 cycles

 The electronic state is 2-A.
 Alpha  occ. eigenvalues --  -38.45517 -38.44349 -38.44082 -38.43702 -38.43680
 Alpha  occ. eigenvalues --  -38.43075 -38.42097  -2.21358  -2.20196  -2.19909
 Alpha  occ. eigenvalues --   -2.19646  -2.19531  -2.18963  -2.18412  -1.15075
 Alpha  occ. eigenvalues --   -1.14958  -1.14932  -1.13967  -1.13817  -1.13771
 Alpha  occ. eigenvalues --   -1.13655  -1.13547  -1.13509  -1.13386  -1.13308
 Alpha  occ. eigenvalues --   -1.13293  -1.13228  -1.13162  -1.13137  -1.12663
 Alpha  occ. eigenvalues --   -1.12621  -1.12560  -1.12199  -1.12041  -1.12006
 Alpha  occ. eigenvalues --   -0.18646  -0.12816  -0.12177  -0.11328
 Alpha virt. eigenvalues --   -0.05330  -0.04812  -0.04386  -0.03208  -0.02929
 Alpha virt. eigenvalues --   -0.02780  -0.01259  -0.01004  -0.00799   0.00313
 Alpha virt. eigenvalues --    0.00359   0.00512   0.00644   0.00813   0.00902

  Beta  occ. eigenvalues --  -38.45408 -38.44302 -38.44070 -38.43689 -38.43673
  Beta  occ. eigenvalues --  -38.43076 -38.42067  -2.21158  -2.20110  -2.19889
  Beta  occ. eigenvalues --   -2.19621  -2.19521  -2.18967  -2.18372  -1.14938
  Beta  occ. eigenvalues --   -1.14820  -1.14791  -1.13908  -1.13754  -1.13709
  Beta  occ. eigenvalues --   -1.13641  -1.13525  -1.13491  -1.13372  -1.13297
  Beta  occ. eigenvalues --   -1.13270  -1.13216  -1.13146  -1.13131  -1.12665
  Beta  occ. eigenvalues --   -1.12612  -1.12564  -1.12060  -1.12030  -1.11992
  Beta  occ. eigenvalues --   -0.17850  -0.12536  -0.11168
  Beta virt. eigenvalues --   -0.08105  -0.05130  -0.04335  -0.04089  -0.02907
  Beta virt. eigenvalues --   -0.02326  -0.02203  -0.01173  -0.00715  -0.00508
  Beta virt. eigenvalues --    0.00409   0.00449   0.00577   0.00712   0.00860

 Mulliken charges and spin densities:
               1          2
     1  Na   0.241700   0.079576
     2  Na   0.203837  -0.172471
     3  Na  -0.009114   0.563923
     4  Na  -1.054791   0.842453
     5  Na   0.375783  -0.025096
     6  Na   0.169800  -0.411268
     7  Na   0.072786   0.122884
 Sum of Mulliken charges =  -0.00000   1.00000

 Dipole moment (field-independent basis, Debye):
    X=              0.3605    Y=             -0.1582    Z=              0.2886  Tot=              0.4881
 Quadrupole moment (field-independent basis, Debye-Ang):
   XX=            -62.6038   YY=            -69.8736   ZZ=            -58.7447
   XY=              1.5402   XZ=             -0.4731   YZ=              1.6888

 Normal termination of Gaussian 16 at Thu Dec  7 03:54:00 2023.
