 Gaussian 16, Revision B.01,
 Gaussian 16:  ES64L-G16RevB.01 20-Dec-2017

 -------------------------
 #P B3LYP/6-311+g(d) force
 -------------------------

 -----
 DPGEN
 -----
 Symbolic Z-matrix:
 Charge =  0 Multiplicity = 2

                         Standard orientation:
 ---------------------------------------------------------------------
 Center     Atomic      Atomic             Coordinates (Angstroms)
 Number     Number       Type             X           Y           Z
 ---------------------------------------------------------------------
      1         11           0        2.313322    1.822452   -0.414591
      2         11           0       -3.397068    0.299937   -0.886435
      3         11           0        1.453920   -0.695471    1.817264
      4         11           0        2.370315   -1.549254   -1.376333
      5         11           0       -0.643238    1.752894    1.239736
      6         11           0       -0.600999    0.194541   -1.343307
      7         11           0       -1.496254   -1.825099    0.963666
 ---------------------------------------------------------------------

 SCF Done:  E(UB3LYP) =  -1136.12446272     A.U. after   23 cycles

 The electronic state is 2-A.
 Alpha  occ. eigenvalues --  -38.44558 -38.43858 -38.43777 -38.43565 -38.43286
 Alpha  occ. eigenvalues --  -38.43276 -38.43067  -2.20452  -2.19719  -2.19705
 Alpha  occ. eigenvalues --   -2.19658  -2.19190  -2.19155  -2.19020  -1.14241
 Alpha  occ. eigenvalues --   -1.14071  -1.14054  -1.13435  -1.13395  -1.13394
 Alpha  occ. eigenvalues --   -1.13376  -1.13344  -1.13334  -1.13305  -1.13285
 Alpha  occ. eigenvalues --   -1.13265  -1.12887  -1.12847  -1.12832  -1.12822
 Alpha  occ. eigenvalues --   -1.12795  -1.12787  -1.12723  -1.12667  -1.12597
 Alpha  occ. eigenvalues --   -0.19270  -0.13882  -0.12059  -0.11147
 Alpha virt. eigenvalues --   -0.05781  -0.04738  -0.04590  -0.03276  -0.02894
 Alpha virt. eigenvalues --   -0.02626  -0.01796  -0.00710  -0.00585   0.00194
 Alpha virt. eigenvalues --    0.00312   0.00520   0.00598   0.00765   0.00889

  Beta  occ. eigenvalues --  -38.44538 -38.43818 -38.43720 -38.43525 -38.43269
  Beta  occ. eigenvalues --  -38.43262 -38.43031  -2.20417  -2.19633  -2.19619
  Beta  occ. eigenvalues --   -2.19587  -2.19149  -2.19144  -2.18958  -1.14206
  Beta  occ. eigenvalues --   -1.14048  -1.14032  -1.13361  -1.13334  -1.13329
  Beta  occ. eigenvalues --   -1.13319  -1.13279  -1.13272  -1.13240  -1.13233
  Beta  occ. eigenvalues --   -1.13219  -1.12858  -1.12821  -1.12812  -1.12794
  Beta  occ. eigenvalues --   -1.12770  -1.12768  -1.12686  -1.12592  -1.12561
  Beta  occ. eigenvalues --   -0.18490  -0.13582  -0.10953
  Beta virt. eigenvalues --   -0.07985  -0.05587  -0.04666  -0.03992  -0.02951
  Beta virt. eigenvalues --   -0.02283  -0.01802  -0.01681  -0.00592  -0.00313
  Beta virt. eigenvalues --    0.00280   0.00371   0.00560   0.00677   0.00848

 Mulliken charges and spin densities:
               1          2
     1  Na   0.135321   0.008776
     2  Na   0.737715   0.063536
     3  Na   0.274455   0.198188
     4  Na  -0.056598   0.060100
     5  Na  -0.158095   0.317165
     6  Na  -0.613606   0.300221
     7  Na  -0.319193   0.052014
 Sum of Mulliken charges =  -0.00000   1.00000

 Dipole moment (field-independent basis, Debye):
    X=             -0.3238    Y=             -0.0255    Z=             -0.1104  Tot=              0.3430
 Quadrupole moment (field-independent basis, Debye-Ang):
   XX=            -52.2440   YY=            -75.5758   ZZ=            -65.6385
   XY=             -0.0948   XZ=             -0.4902   YZ=              0.4613

 Normal termination of Gaussian 16 at Thu Dec  7 14:41:49 2023.
