 Gaussian 16, Revision B.01,
 Gaussian 16:  ES64L-G16RevB.01 20-Dec-2017

 -------------------------
 #P B3LYP/6-311+g(d) force
 -------------------------

 -----
 DPGEN
 -----
 Symbolic Z-matrix:
 Charge =  0 Multiplicity = 2

                         Standard orientation:
 ---------------------------------------------------------------------
 Center     Atomic      Atomic             Coordinates (Angstroms)
 Number     Number       Type             X           Y           Z
 ---------------------------------------------------------------------
      1         11           0        2.409538    1.819836    0.600910
      2         11           0       -2.965888    0.060645    0.077507
      3         11           0        0.509256    0.152689   -1.626673
      4         11           0        2.485127   -1.704047   -0.374307
      5         11           0       -1.097217   -2.677900   -0.293228
      6         11           0       -1.139842    2.677989   -0.578948
      7         11           0       -0.200975   -0.329213    2.194739
 ---------------------------------------------------------------------

 SCF Done:  E(UB3LYP) =  -1136.13631464     A.U. after   18 cycles

 The electronic state is 2-A.
 Alpha  occ. eigenvalues --  -38.44072 -38.43919 -38.43795 -38.43594 -38.43393
 Alpha  occ. eigenvalues --  -38.43275 -38.43265  -2.19936  -2.19744  -2.19658
 Alpha  occ. eigenvalues --   -2.19462  -2.19280  -2.19247  -2.19125  -1.13595
 Alpha  occ. eigenvalues --   -1.13570  -1.13556  -1.13435  -1.13411  -1.13408
 Alpha  occ. eigenvalues --   -1.13377  -1.13300  -1.13265  -1.13140  -1.13134
 Alpha  occ. eigenvalues --   -1.13119  -1.12966  -1.12949  -1.12926  -1.12910
 Alpha  occ. eigenvalues --   -1.12884  -1.12869  -1.12788  -1.12770  -1.12745
 Alpha  occ. eigenvalues --   -0.18658  -0.12997  -0.12431  -0.11170
 Alpha virt. eigenvalues --   -0.05307  -0.05205  -0.04568  -0.03444  -0.03015
 Alpha virt. eigenvalues --   -0.02864  -0.01282  -0.01096  -0.00264  -0.00144
 Alpha virt. eigenvalues --    0.00006   0.00370   0.00832   0.00886   0.00921

  Beta  occ. eigenvalues --  -38.43976 -38.43904 -38.43786 -38.43592 -38.43389
  Beta  occ. eigenvalues --  -38.43254 -38.43218  -2.19760  -2.19718  -2.19645
  Beta  occ. eigenvalues --   -2.19461  -2.19242  -2.19177  -2.19107  -1.13480
  Beta  occ. eigenvalues --   -1.13450  -1.13428  -1.13413  -1.13390  -1.13371
  Beta  occ. eigenvalues --   -1.13361  -1.13282  -1.13254  -1.13141  -1.13135
  Beta  occ. eigenvalues --   -1.13096  -1.12926  -1.12902  -1.12898  -1.12870
  Beta  occ. eigenvalues --   -1.12861  -1.12816  -1.12760  -1.12747  -1.12732
  Beta  occ. eigenvalues --   -0.17937  -0.12774  -0.12172
  Beta virt. eigenvalues --   -0.07246  -0.05273  -0.05099  -0.04512  -0.02674
  Beta virt. eigenvalues --   -0.02306  -0.01805  -0.01186  -0.01001  -0.00238
  Beta virt. eigenvalues --   -0.00187   0.00119   0.00405   0.00884   0.00918

 Mulliken charges and spin densities:
               1          2
     1  Na  -0.031023   0.131644
     2  Na   0.092862   0.021441
     3  Na  -0.136701   0.293582
     4  Na   0.286425  -0.036907
     5  Na   0.100431  -0.038243
     6  Na   0.185048  -0.011609
     7  Na  -0.497042   0.640092
 Sum of Mulliken charges =  -0.00000   1.00000

 Dipole moment (field-independent basis, Debye):
    X=              0.2580    Y=             -0.0895    Z=              0.3398  Tot=              0.4359
 Quadrupole moment (field-independent basis, Debye-Ang):
   XX=            -59.5329   YY=            -63.3027   ZZ=            -71.9851
   XY=              0.4043   XZ=              1.3929   YZ=              1.1820

 Normal termination of Gaussian 16 at Wed Nov 29 16:31:14 2023.
