 Gaussian 16, Revision B.01,
 Gaussian 16:  ES64L-G16RevB.01 20-Dec-2017

 -------------------------
 #P B3LYP/6-311+g(d) force
 -------------------------

 -----
 DPGEN
 -----
 Symbolic Z-matrix:
 Charge =  0 Multiplicity = 2

                         Standard orientation:
 ---------------------------------------------------------------------
 Center     Atomic      Atomic             Coordinates (Angstroms)
 Number     Number       Type             X           Y           Z
 ---------------------------------------------------------------------
      1         11           0        3.356032   -2.466100   -0.024778
      2         11           0        4.219890    0.847016   -0.103467
      3         11           0        1.579570    3.398499    0.379327
      4         11           0       -3.819770   -2.137877   -0.536356
      5         11           0       -1.800624    3.023426   -0.870210
      6         11           0        0.181676   -3.409916    0.153804
      7         11           0       -3.716774    0.744952    1.001680
 ---------------------------------------------------------------------

 SCF Done:  E(UB3LYP) =  -1136.10740610     A.U. after   23 cycles

 The electronic state is 2-A.
 Alpha  occ. eigenvalues --  -38.45178 -38.45027 -38.44784 -38.44521 -38.44275
 Alpha  occ. eigenvalues --  -38.44130 -38.44036  -2.20962  -2.20757  -2.20558
 Alpha  occ. eigenvalues --   -2.20311  -2.20066  -2.19921  -2.19833  -1.14638
 Alpha  occ. eigenvalues --   -1.14628  -1.14611  -1.14451  -1.14439  -1.14393
 Alpha  occ. eigenvalues --   -1.14221  -1.14216  -1.14182  -1.13964  -1.13954
 Alpha  occ. eigenvalues --   -1.13949  -1.13741  -1.13735  -1.13722  -1.13579
 Alpha  occ. eigenvalues --   -1.13570  -1.13545  -1.13488  -1.13474  -1.13457
 Alpha  occ. eigenvalues --   -0.15449  -0.14035  -0.13184  -0.10682
 Alpha virt. eigenvalues --   -0.07663  -0.05186  -0.04334  -0.03426  -0.03206
 Alpha virt. eigenvalues --   -0.02772  -0.02446  -0.01909  -0.01334  -0.00505
 Alpha virt. eigenvalues --   -0.00297  -0.00129   0.00067   0.00197   0.00463

  Beta  occ. eigenvalues --  -38.45171 -38.45040 -38.44728 -38.44475 -38.44271
  Beta  occ. eigenvalues --  -38.44075 -38.43971  -2.20954  -2.20786  -2.20458
  Beta  occ. eigenvalues --   -2.20227  -2.20065  -2.19818  -2.19710  -1.14637
  Beta  occ. eigenvalues --   -1.14627  -1.14572  -1.14475  -1.14462  -1.14380
  Beta  occ. eigenvalues --   -1.14155  -1.14150  -1.14100  -1.13907  -1.13897
  Beta  occ. eigenvalues --   -1.13889  -1.13745  -1.13739  -1.13681  -1.13508
  Beta  occ. eigenvalues --   -1.13501  -1.13479  -1.13405  -1.13395  -1.13378
  Beta  occ. eigenvalues --   -0.14924  -0.13350  -0.12422
  Beta virt. eigenvalues --   -0.07783  -0.07592  -0.04837  -0.03883  -0.03074
  Beta virt. eigenvalues --   -0.02840  -0.02565  -0.02199  -0.01821  -0.01199
  Beta virt. eigenvalues --   -0.00249  -0.00072   0.00034   0.00217   0.00317

 Mulliken charges and spin densities:
               1          2
     1  Na   0.212826  -0.065210
     2  Na   0.043500   0.318916
     3  Na  -0.004591  -0.061618
     4  Na   0.076384   0.243206
     5  Na  -0.160622   0.239213
     6  Na  -0.169383   0.282886
     7  Na   0.001887   0.042607
 Sum of Mulliken charges =  -0.00000   1.00000

 Dipole moment (field-independent basis, Debye):
    X=             -0.8450    Y=             -0.0996    Z=              0.0986  Tot=              0.8566
 Quadrupole moment (field-independent basis, Debye-Ang):
   XX=            -64.1404   YY=            -67.8837   ZZ=            -69.7409
   XY=              0.3702   XZ=             -0.1081   YZ=              2.7259

 Normal termination of Gaussian 16 at Mon Dec  4 04:12:22 2023.
