 Gaussian 16, Revision B.01,
 Gaussian 16:  ES64L-G16RevB.01 20-Dec-2017

 -------------------------
 #P B3LYP/6-311+g(d) force
 -------------------------

 -----
 DPGEN
 -----
 Symbolic Z-matrix:
 Charge =  0 Multiplicity = 2

                         Standard orientation:
 ---------------------------------------------------------------------
 Center     Atomic      Atomic             Coordinates (Angstroms)
 Number     Number       Type             X           Y           Z
 ---------------------------------------------------------------------
      1         11           0        0.453580    1.557771   -1.018679
      2         11           0        3.488429   -1.474032   -0.296813
      3         11           0       -5.489618    0.467974   -0.049730
      4         11           0       -2.813955   -0.251990    0.244777
      5         11           0        3.218011    2.152490    0.107257
      6         11           0        0.159848   -2.161672   -0.693597
      7         11           0        0.983705   -0.290541    1.706786
 ---------------------------------------------------------------------

 SCF Done:  E(UB3LYP) =  -1136.11401819     A.U. after   26 cycles

 The electronic state is 2-A.
 Alpha  occ. eigenvalues --  -38.45924 -38.44318 -38.44130 -38.43935 -38.43455
 Alpha  occ. eigenvalues --  -38.43143 -38.43112  -2.21823  -2.20215  -2.19994
 Alpha  occ. eigenvalues --   -2.19806  -2.19342  -2.19010  -2.19004  -1.15520
 Alpha  occ. eigenvalues --   -1.15482  -1.15445  -1.13892  -1.13873  -1.13841
 Alpha  occ. eigenvalues --   -1.13667  -1.13636  -1.13596  -1.13587  -1.13406
 Alpha  occ. eigenvalues --   -1.13404  -1.13024  -1.13021  -1.12958  -1.12692
 Alpha  occ. eigenvalues --   -1.12669  -1.12663  -1.12655  -1.12650  -1.12646
 Alpha  occ. eigenvalues --   -0.18441  -0.14105  -0.11748  -0.11153
 Alpha virt. eigenvalues --   -0.07265  -0.04830  -0.04366  -0.03410  -0.02999
 Alpha virt. eigenvalues --   -0.02188  -0.01825  -0.01491  -0.01235  -0.00919
 Alpha virt. eigenvalues --   -0.00358   0.00095   0.00328   0.00609   0.00696

  Beta  occ. eigenvalues --  -38.45913 -38.44279 -38.44057 -38.43855 -38.43448
  Beta  occ. eigenvalues --  -38.43137 -38.43106  -2.21808  -2.20143  -2.19858
  Beta  occ. eigenvalues --   -2.19657  -2.19333  -2.19004  -2.19002  -1.15509
  Beta  occ. eigenvalues --   -1.15442  -1.15435  -1.13846  -1.13828  -1.13781
  Beta  occ. eigenvalues --   -1.13573  -1.13550  -1.13499  -1.13491  -1.13305
  Beta  occ. eigenvalues --   -1.13303  -1.13021  -1.13016  -1.12931  -1.12688
  Beta  occ. eigenvalues --   -1.12677  -1.12660  -1.12659  -1.12623  -1.12580
  Beta  occ. eigenvalues --   -0.17815  -0.13277  -0.11481
  Beta virt. eigenvalues --   -0.07728  -0.07091  -0.04618  -0.03639  -0.03113
  Beta virt. eigenvalues --   -0.02808  -0.02081  -0.01509  -0.01304  -0.00777
  Beta virt. eigenvalues --   -0.00482  -0.00201   0.00220   0.00407   0.00671

 Mulliken charges and spin densities:
               1          2
     1  Na  -0.221929   0.051630
     2  Na   0.072309   0.454367
     3  Na  -0.258488   0.043470
     4  Na  -0.384838   0.536875
     5  Na   0.317644   0.032482
     6  Na   0.390901  -0.121944
     7  Na   0.084401   0.003121
 Sum of Mulliken charges =  -0.00000   1.00000

 Dipole moment (field-independent basis, Debye):
    X=              1.1768    Y=             -0.1684    Z=              0.2006  Tot=              1.2056
 Quadrupole moment (field-independent basis, Debye-Ang):
   XX=            -67.7565   YY=            -76.4124   ZZ=            -61.1752
   XY=             -0.3338   XZ=              1.6101   YZ=              1.4686

 Normal termination of Gaussian 16 at Thu Dec  7 21:46:59 2023.
