 Gaussian 16, Revision B.01,
 Gaussian 16:  ES64L-G16RevB.01 20-Dec-2017

 -------------------------
 #P B3LYP/6-311+g(d) force
 -------------------------

 -----
 DPGEN
 -----
 Symbolic Z-matrix:
 Charge =  0 Multiplicity = 2

                         Standard orientation:
 ---------------------------------------------------------------------
 Center     Atomic      Atomic             Coordinates (Angstroms)
 Number     Number       Type             X           Y           Z
 ---------------------------------------------------------------------
      1         11           0        3.334249    2.540425   -0.272574
      2         11           0       -4.579589    2.401824   -0.089487
      3         11           0       -1.023700   -2.245552   -1.560606
      4         11           0       -1.042580   -1.535101    1.561388
      5         11           0       -3.991976   -0.436731    0.208493
      6         11           0        1.783476   -0.237552   -0.138681
      7         11           0        5.520119   -0.487313    0.291467
 ---------------------------------------------------------------------

 SCF Done:  E(UB3LYP) =  -1136.10545533     A.U. after   24 cycles

 The electronic state is 2-A.
 Alpha  occ. eigenvalues --  -38.46096 -38.45806 -38.44267 -38.43848 -38.43595
 Alpha  occ. eigenvalues --  -38.43547 -38.42962  -2.21932  -2.21615  -2.20065
 Alpha  occ. eigenvalues --   -2.19662  -2.19462  -2.19425  -2.18780  -1.15605
 Alpha  occ. eigenvalues --   -1.15591  -1.15578  -1.15280  -1.15268  -1.15237
 Alpha  occ. eigenvalues --   -1.13751  -1.13731  -1.13689  -1.13441  -1.13305
 Alpha  occ. eigenvalues --   -1.13300  -1.13172  -1.13142  -1.13098  -1.13069
 Alpha  occ. eigenvalues --   -1.13056  -1.13014  -1.12432  -1.12425  -1.12370
 Alpha  occ. eigenvalues --   -0.17043  -0.14276  -0.12151  -0.09512
 Alpha virt. eigenvalues --   -0.07349  -0.06708  -0.04317  -0.03565  -0.03031
 Alpha virt. eigenvalues --   -0.02347  -0.01872  -0.01681  -0.01496  -0.01000
 Alpha virt. eigenvalues --   -0.00443  -0.00290   0.00212   0.00235   0.00358

  Beta  occ. eigenvalues --  -38.46094 -38.45796 -38.44250 -38.43846 -38.43570
  Beta  occ. eigenvalues --  -38.43542 -38.42848  -2.21931  -2.21598  -2.20037
  Beta  occ. eigenvalues --   -2.19658  -2.19420  -2.19416  -2.18568  -1.15599
  Beta  occ. eigenvalues --   -1.15580  -1.15578  -1.15265  -1.15251  -1.15226
  Beta  occ. eigenvalues --   -1.13725  -1.13714  -1.13655  -1.13437  -1.13302
  Beta  occ. eigenvalues --   -1.13297  -1.13145  -1.13093  -1.13082  -1.13064
  Beta  occ. eigenvalues --   -1.13036  -1.13003  -1.12287  -1.12281  -1.12230
  Beta  occ. eigenvalues --   -0.16775  -0.13782  -0.12002
  Beta virt. eigenvalues --   -0.07267  -0.06524  -0.05632  -0.04184  -0.03196
  Beta virt. eigenvalues --   -0.02854  -0.02263  -0.01791  -0.01553  -0.00986
  Beta virt. eigenvalues --   -0.00742  -0.00133   0.00076   0.00253   0.00378

 Mulliken charges and spin densities:
               1          2
     1  Na   0.786491   0.038872
     2  Na   0.562193  -0.000548
     3  Na   0.641908   0.033792
     4  Na   0.660570   0.024931
     5  Na  -0.863790   0.023342
     6  Na  -1.955383   0.197698
     7  Na   0.168011   0.681912
 Sum of Mulliken charges =  -0.00000   1.00000

 Dipole moment (field-independent basis, Debye):
    X=             -1.9594    Y=             -0.5886    Z=             -0.3232  Tot=              2.0713
 Quadrupole moment (field-independent basis, Debye-Ang):
   XX=            -93.3454   YY=            -61.5930   ZZ=            -61.8377
   XY=              7.8607   XZ=             -0.0433   YZ=             -0.0847

 Normal termination of Gaussian 16 at Sun Dec  3 23:11:15 2023.
