 Gaussian 16, Revision B.01,
 Gaussian 16:  ES64L-G16RevB.01 20-Dec-2017

 -------------------------
 #P B3LYP/6-311+g(d) force
 -------------------------

 -----
 DPGEN
 -----
 Symbolic Z-matrix:
 Charge =  0 Multiplicity = 2

                         Standard orientation:
 ---------------------------------------------------------------------
 Center     Atomic      Atomic             Coordinates (Angstroms)
 Number     Number       Type             X           Y           Z
 ---------------------------------------------------------------------
      1         11           0       -0.316567   -1.686495    1.516365
      2         11           0       -2.771176   -0.209681   -0.387570
      3         11           0        1.946200    1.255681    0.856687
      4         11           0       -0.221248   -1.026362   -1.242149
      5         11           0       -0.866659    1.210288    1.272317
      6         11           0       -0.061481    1.608093   -1.353625
      7         11           0        2.290932   -1.151525   -0.662027
 ---------------------------------------------------------------------

 SCF Done:  E(UB3LYP) =  -1136.08258459     A.U. after   25 cycles

 The electronic state is 2-A.
 Alpha  occ. eigenvalues --  -38.44247 -38.44055 -38.44013 -38.43832 -38.43699
 Alpha  occ. eigenvalues --  -38.43688 -38.43675  -2.20612  -2.20095  -2.20034
 Alpha  occ. eigenvalues --   -2.19992  -2.19908  -2.19736  -2.19719  -1.14652
 Alpha  occ. eigenvalues --   -1.14491  -1.14303  -1.13924  -1.13857  -1.13835
 Alpha  occ. eigenvalues --   -1.13773  -1.13707  -1.13642  -1.13597  -1.13567
 Alpha  occ. eigenvalues --   -1.13565  -1.13548  -1.13515  -1.13383  -1.13369
 Alpha  occ. eigenvalues --   -1.13313  -1.13310  -1.13302  -1.13283  -1.13260
 Alpha  occ. eigenvalues --   -0.21311  -0.13779  -0.12895  -0.12132
 Alpha virt. eigenvalues --   -0.05253  -0.04174  -0.03890  -0.03704  -0.03244
 Alpha virt. eigenvalues --   -0.03099  -0.01254  -0.00347  -0.00265   0.00340
 Alpha virt. eigenvalues --    0.00731   0.00854   0.01031   0.01108   0.01138

  Beta  occ. eigenvalues --  -38.44182 -38.44041 -38.44003 -38.43783 -38.43653
  Beta  occ. eigenvalues --  -38.43646 -38.43636  -2.20502  -2.20072  -2.20018
  Beta  occ. eigenvalues --   -2.19906  -2.19817  -2.19698  -2.19627  -1.14584
  Beta  occ. eigenvalues --   -1.14404  -1.14210  -1.13870  -1.13827  -1.13815
  Beta  occ. eigenvalues --   -1.13744  -1.13630  -1.13608  -1.13568  -1.13527
  Beta  occ. eigenvalues --   -1.13514  -1.13492  -1.13443  -1.13316  -1.13313
  Beta  occ. eigenvalues --   -1.13288  -1.13254  -1.13239  -1.13222  -1.13201
  Beta  occ. eigenvalues --   -0.20439  -0.13488  -0.11986
  Beta virt. eigenvalues --   -0.08410  -0.05220  -0.03911  -0.03594  -0.03078
  Beta virt. eigenvalues --   -0.02620  -0.01980  -0.01193  -0.00274  -0.00084
  Beta virt. eigenvalues --    0.00372   0.00769   0.00904   0.01075   0.01143

 Mulliken charges and spin densities:
               1          2
     1  Na  -0.249926   0.321864
     2  Na   0.315588  -0.088992
     3  Na  -0.202781   0.015000
     4  Na  -0.941309   0.112190
     5  Na   0.200883   0.360590
     6  Na   0.260537   0.290958
     7  Na   0.617009  -0.011609
 Sum of Mulliken charges =  -0.00000   1.00000

 Dipole moment (field-independent basis, Debye):
    X=             -0.1430    Y=             -0.0673    Z=              0.3355  Tot=              0.3708
 Quadrupole moment (field-independent basis, Debye-Ang):
   XX=            -58.4976   YY=            -74.2129   ZZ=            -64.2560
   XY=              0.2177   XZ=              0.7933   YZ=             -0.9406

 Normal termination of Gaussian 16 at Sat Dec  9 06:16:04 2023.
