 Gaussian 16, Revision B.01,
 Gaussian 16:  ES64L-G16RevB.01 20-Dec-2017

 -------------------------
 #P B3LYP/6-311+g(d) force
 -------------------------

 -----
 DPGEN
 -----
 Symbolic Z-matrix:
 Charge =  0 Multiplicity = 2

                         Standard orientation:
 ---------------------------------------------------------------------
 Center     Atomic      Atomic             Coordinates (Angstroms)
 Number     Number       Type             X           Y           Z
 ---------------------------------------------------------------------
      1         11           0        0.042636   -0.001865    1.747156
      2         11           0       -0.695277    1.993108    0.001356
      3         11           0       -2.708564    0.002356    0.000056
      4         11           0        0.036636    0.000536   -1.744934
      5         11           0        2.013407    1.390949   -0.001044
      6         11           0        2.011115   -1.393451   -0.003344
      7         11           0       -0.699951   -1.991632    0.000756
 ---------------------------------------------------------------------

 SCF Done:  E(UB3LYP) =  -1136.07182380     A.U. after   19 cycles

 The electronic state is 2-A.
 Alpha  occ. eigenvalues --  -38.44268 -38.44268 -38.43992 -38.43721 -38.43719
 Alpha  occ. eigenvalues --  -38.43553 -38.43551  -2.20561  -2.20554  -2.20054
 Alpha  occ. eigenvalues --   -2.19901  -2.19856  -2.19766  -2.19762  -1.14475
 Alpha  occ. eigenvalues --   -1.14361  -1.14323  -1.14280  -1.14229  -1.14168
 Alpha  occ. eigenvalues --   -1.13869  -1.13863  -1.13767  -1.13681  -1.13655
 Alpha  occ. eigenvalues --   -1.13653  -1.13493  -1.13439  -1.13368  -1.13359
 Alpha  occ. eigenvalues --   -1.13338  -1.13337  -1.13329  -1.13224  -1.13171
 Alpha  occ. eigenvalues --   -0.21936  -0.14057  -0.12965  -0.12332
 Alpha virt. eigenvalues --   -0.05260  -0.04235  -0.04049  -0.03715  -0.03193
 Alpha virt. eigenvalues --   -0.02763  -0.01170  -0.00430  -0.00077   0.00336
 Alpha virt. eigenvalues --    0.00760   0.00862   0.01031   0.01173   0.01256

  Beta  occ. eigenvalues --  -38.44172 -38.44171 -38.43985 -38.43708 -38.43706
  Beta  occ. eigenvalues --  -38.43535 -38.43533  -2.20387  -2.20379  -2.20046
  Beta  occ. eigenvalues --   -2.19883  -2.19838  -2.19743  -2.19737  -1.14390
  Beta  occ. eigenvalues --   -1.14250  -1.14193  -1.14172  -1.14124  -1.14039
  Beta  occ. eigenvalues --   -1.13863  -1.13861  -1.13752  -1.13657  -1.13639
  Beta  occ. eigenvalues --   -1.13606  -1.13420  -1.13369  -1.13346  -1.13324
  Beta  occ. eigenvalues --   -1.13322  -1.13280  -1.13248  -1.13218  -1.13165
  Beta  occ. eigenvalues --   -0.21103  -0.13671  -0.12572
  Beta virt. eigenvalues --   -0.08105  -0.05302  -0.04221  -0.04005  -0.02730
  Beta virt. eigenvalues --   -0.02234  -0.01696  -0.01095  -0.00391   0.00065
  Beta virt. eigenvalues --    0.00365   0.00760   0.00832   0.01058   0.01168

 Mulliken charges and spin densities:
               1          2
     1  Na  -0.330508   0.466765
     2  Na   0.251096   0.067638
     3  Na  -0.148896  -0.085027
     4  Na  -0.330665   0.465611
     5  Na   0.153860   0.008788
     6  Na   0.154769   0.008852
     7  Na   0.250344   0.067373
 Sum of Mulliken charges =  -0.00000   1.00000

 Dipole moment (field-independent basis, Debye):
    X=             -0.1543    Y=              0.0004    Z=              0.0028  Tot=              0.1544
 Quadrupole moment (field-independent basis, Debye-Ang):
   XX=            -58.8417   YY=            -70.3694   ZZ=            -68.7722
   XY=             -0.0041   XZ=             -0.0111   YZ=              0.0047

 Normal termination of Gaussian 16 at Fri Dec  8 17:30:09 2023.
