 Gaussian 16, Revision B.01,
 Gaussian 16:  ES64L-G16RevB.01 20-Dec-2017

 -------------------------
 #P B3LYP/6-311+g(d) force
 -------------------------

 -----
 DPGEN
 -----
 Symbolic Z-matrix:
 Charge =  0 Multiplicity = 2

                         Standard orientation:
 ---------------------------------------------------------------------
 Center     Atomic      Atomic             Coordinates (Angstroms)
 Number     Number       Type             X           Y           Z
 ---------------------------------------------------------------------
      1         11           0        0.293406   -2.711419   -0.087911
      2         11           0        0.010655   -0.134161   -1.806987
      3         11           0       -2.160550    2.051449   -0.061838
      4         11           0        1.319457    2.382026    0.001008
      5         11           0        3.524094   -0.328023    0.042760
      6         11           0       -2.929907   -1.103552    0.045684
      7         11           0       -0.057155   -0.156320    1.867283
 ---------------------------------------------------------------------

 SCF Done:  E(UB3LYP) =  -1136.13591040     A.U. after   20 cycles

 The electronic state is 2-A.
 Alpha  occ. eigenvalues --  -38.44868 -38.44148 -38.43415 -38.43316 -38.43300
 Alpha  occ. eigenvalues --  -38.43145 -38.43083  -2.20635  -2.20005  -2.19354
 Alpha  occ. eigenvalues --   -2.19278  -2.19170  -2.19018  -2.18970  -1.14309
 Alpha  occ. eigenvalues --   -1.14296  -1.14270  -1.13683  -1.13671  -1.13641
 Alpha  occ. eigenvalues --   -1.13051  -1.13005  -1.12977  -1.12964  -1.12945
 Alpha  occ. eigenvalues --   -1.12888  -1.12833  -1.12826  -1.12820  -1.12701
 Alpha  occ. eigenvalues --   -1.12691  -1.12651  -1.12639  -1.12631  -1.12566
 Alpha  occ. eigenvalues --   -0.18820  -0.13159  -0.12271  -0.10701
 Alpha virt. eigenvalues --   -0.06307  -0.04893  -0.04305  -0.03188  -0.02778
 Alpha virt. eigenvalues --   -0.02492  -0.02062  -0.01011  -0.00297  -0.00150
 Alpha virt. eigenvalues --   -0.00041   0.00323   0.00779   0.00850   0.00876

  Beta  occ. eigenvalues --  -38.44870 -38.44143 -38.43332 -38.43295 -38.43234
  Beta  occ. eigenvalues --  -38.43138 -38.43074  -2.20642  -2.19999  -2.19202
  Beta  occ. eigenvalues --   -2.19165  -2.19128  -2.19010  -2.18958  -1.14304
  Beta  occ. eigenvalues --   -1.14299  -1.14276  -1.13683  -1.13643  -1.13637
  Beta  occ. eigenvalues --   -1.12954  -1.12902  -1.12879  -1.12860  -1.12851
  Beta  occ. eigenvalues --   -1.12831  -1.12813  -1.12797  -1.12770  -1.12692
  Beta  occ. eigenvalues --   -1.12654  -1.12636  -1.12630  -1.12590  -1.12563
  Beta  occ. eigenvalues --   -0.18066  -0.12957  -0.11994
  Beta virt. eigenvalues --   -0.06770  -0.06267  -0.04916  -0.04287  -0.02432
  Beta virt. eigenvalues --   -0.01977  -0.01949  -0.01415  -0.00967  -0.00346
  Beta virt. eigenvalues --   -0.00199   0.00101   0.00338   0.00812   0.00869

 Mulliken charges and spin densities:
               1          2
     1  Na   0.170341  -0.194421
     2  Na  -0.328729   0.725198
     3  Na   0.103045  -0.054424
     4  Na   0.086505  -0.099229
     5  Na   0.025386  -0.120604
     6  Na   0.350853  -0.031369
     7  Na  -0.407402   0.774850
 Sum of Mulliken charges =  -0.00000   1.00000

 Dipole moment (field-independent basis, Debye):
    X=              0.3560    Y=             -0.2098    Z=              0.0545  Tot=              0.4168
 Quadrupole moment (field-independent basis, Debye-Ang):
   XX=            -51.1027   YY=            -66.4904   ZZ=            -74.7064
   XY=             -0.3907   XZ=              0.1739   YZ=             -0.0505

 Normal termination of Gaussian 16 at Thu Dec  7 13:10:31 2023.
