 Gaussian 16, Revision B.01,
 Gaussian 16:  ES64L-G16RevB.01 20-Dec-2017

 -------------------------
 #P B3LYP/6-311+g(d) force
 -------------------------

 -----
 DPGEN
 -----
 Symbolic Z-matrix:
 Charge =  0 Multiplicity = 2

                         Standard orientation:
 ---------------------------------------------------------------------
 Center     Atomic      Atomic             Coordinates (Angstroms)
 Number     Number       Type             X           Y           Z
 ---------------------------------------------------------------------
      1         11           0        3.666051   -0.739637   -0.813189
      2         11           0       -1.531160    0.462598    1.796317
      3         11           0       -1.089545    3.187265   -0.318088
      4         11           0       -1.619452   -2.824566   -1.089703
      5         11           0        1.586927   -2.434514    1.224575
      6         11           0       -3.830983    0.065839   -0.591252
      7         11           0        2.818162    2.283015   -0.208660
 ---------------------------------------------------------------------

 SCF Done:  E(UB3LYP) =  -1136.11356707     A.U. after   21 cycles

 The electronic state is 2-A.
 Alpha  occ. eigenvalues --  -38.44867 -38.44692 -38.44596 -38.44529 -38.44265
 Alpha  occ. eigenvalues --  -38.44125 -38.43730  -2.20612  -2.20501  -2.20400
 Alpha  occ. eigenvalues --   -2.20284  -2.20079  -2.19909  -2.19522  -1.14297
 Alpha  occ. eigenvalues --   -1.14264  -1.14241  -1.14188  -1.14172  -1.14121
 Alpha  occ. eigenvalues --   -1.14076  -1.14042  -1.14013  -1.13964  -1.13949
 Alpha  occ. eigenvalues --   -1.13913  -1.13775  -1.13744  -1.13728  -1.13576
 Alpha  occ. eigenvalues --   -1.13559  -1.13529  -1.13178  -1.13175  -1.13158
 Alpha  occ. eigenvalues --   -0.16390  -0.13804  -0.12376  -0.10274
 Alpha virt. eigenvalues --   -0.06810  -0.06173  -0.04451  -0.03610  -0.03072
 Alpha virt. eigenvalues --   -0.01967  -0.01915  -0.01747  -0.01362  -0.00966
 Alpha virt. eigenvalues --   -0.00320   0.00012   0.00244   0.00544   0.00626

  Beta  occ. eigenvalues --  -38.44839 -38.44651 -38.44558 -38.44530 -38.44252
  Beta  occ. eigenvalues --  -38.44096 -38.43685  -2.20563  -2.20426  -2.20330
  Beta  occ. eigenvalues --   -2.20288  -2.20057  -2.19858  -2.19438  -1.14266
  Beta  occ. eigenvalues --   -1.14235  -1.14182  -1.14134  -1.14123  -1.14066
  Beta  occ. eigenvalues --   -1.14029  -1.13998  -1.13964  -1.13949  -1.13945
  Beta  occ. eigenvalues --   -1.13916  -1.13752  -1.13730  -1.13700  -1.13541
  Beta  occ. eigenvalues --   -1.13528  -1.13485  -1.13121  -1.13116  -1.13102
  Beta  occ. eigenvalues --   -0.15900  -0.13297  -0.11990
  Beta virt. eigenvalues --   -0.06943  -0.06839  -0.05889  -0.03874  -0.03399
  Beta virt. eigenvalues --   -0.02581  -0.01812  -0.01644  -0.01410  -0.01188
  Beta virt. eigenvalues --   -0.00872  -0.00108   0.00251   0.00398   0.00620

 Mulliken charges and spin densities:
               1          2
     1  Na   0.308706   0.093821
     2  Na   0.510284   0.219311
     3  Na  -0.160282  -0.084583
     4  Na  -0.181356   0.119859
     5  Na  -0.397912   0.272360
     6  Na   0.148554   0.270424
     7  Na  -0.227993   0.108808
 Sum of Mulliken charges =  -0.00000   1.00000

 Dipole moment (field-independent basis, Debye):
    X=             -0.6744    Y=              0.2941    Z=             -0.2984  Tot=              0.7940
 Quadrupole moment (field-independent basis, Debye-Ang):
   XX=            -65.6737   YY=            -65.8042   ZZ=            -69.8180
   XY=             -5.7111   XZ=             -0.5025   YZ=              0.2665

 Normal termination of Gaussian 16 at Sun Dec  3 11:40:15 2023.
