 Gaussian 16, Revision B.01,
 Gaussian 16:  ES64L-G16RevB.01 20-Dec-2017

 -------------------------
 #P B3LYP/6-311+g(d) force
 -------------------------

 -----
 DPGEN
 -----
 Symbolic Z-matrix:
 Charge =  0 Multiplicity = 2

                         Standard orientation:
 ---------------------------------------------------------------------
 Center     Atomic      Atomic             Coordinates (Angstroms)
 Number     Number       Type             X           Y           Z
 ---------------------------------------------------------------------
      1         11           0        3.109990   -1.852638   -0.354919
      2         11           0        2.722737    1.307814   -0.099443
      3         11           0       -0.206830   -0.331196   -1.520803
      4         11           0        0.009263    2.853540    0.395630
      5         11           0       -0.157784   -1.059302    2.078446
      6         11           0       -2.904629    1.276272   -0.303468
      7         11           0       -2.572747   -2.194491   -0.195443
 ---------------------------------------------------------------------

 SCF Done:  E(UB3LYP) =  -1136.12902845     A.U. after   20 cycles

 The electronic state is 2-A.
 Alpha  occ. eigenvalues --  -38.44479 -38.44274 -38.44060 -38.44043 -38.43865
 Alpha  occ. eigenvalues --  -38.43745 -38.42730  -2.20318  -2.20076  -2.19912
 Alpha  occ. eigenvalues --   -2.19899  -2.19777  -2.19578  -2.18588  -1.14002
 Alpha  occ. eigenvalues --   -1.13980  -1.13948  -1.13777  -1.13732  -1.13713
 Alpha  occ. eigenvalues --   -1.13597  -1.13591  -1.13573  -1.13557  -1.13544
 Alpha  occ. eigenvalues --   -1.13538  -1.13469  -1.13419  -1.13390  -1.13231
 Alpha  occ. eigenvalues --   -1.13205  -1.13195  -1.12271  -1.12242  -1.12232
 Alpha  occ. eigenvalues --   -0.18157  -0.13680  -0.12088  -0.10483
 Alpha virt. eigenvalues --   -0.06279  -0.05841  -0.04206  -0.03388  -0.02933
 Alpha virt. eigenvalues --   -0.02208  -0.02035  -0.01399  -0.00831  -0.00184
 Alpha virt. eigenvalues --   -0.00043   0.00266   0.00627   0.00704   0.00857

  Beta  occ. eigenvalues --  -38.44468 -38.44266 -38.44057 -38.44040 -38.43823
  Beta  occ. eigenvalues --  -38.43643 -38.42723  -2.20300  -2.20063  -2.19907
  Beta  occ. eigenvalues --   -2.19898  -2.19701  -2.19388  -2.18577  -1.13986
  Beta  occ. eigenvalues --   -1.13956  -1.13938  -1.13771  -1.13714  -1.13704
  Beta  occ. eigenvalues --   -1.13594  -1.13589  -1.13555  -1.13554  -1.13533
  Beta  occ. eigenvalues --   -1.13518  -1.13410  -1.13372  -1.13331  -1.13104
  Beta  occ. eigenvalues --   -1.13072  -1.13063  -1.12265  -1.12236  -1.12209
  Beta  occ. eigenvalues --   -0.17524  -0.13416  -0.11863
  Beta virt. eigenvalues --   -0.06705  -0.06180  -0.05741  -0.04125  -0.02690
  Beta virt. eigenvalues --   -0.02168  -0.01876  -0.01492  -0.01214  -0.00851
  Beta virt. eigenvalues --   -0.00166   0.00141   0.00328   0.00700   0.00746

 Mulliken charges and spin densities:
               1          2
     1  Na   0.333414   0.082437
     2  Na   0.026997   0.061257
     3  Na  -0.236252   0.003449
     4  Na  -0.160559   0.056387
     5  Na  -0.505700   0.579179
     6  Na   0.238430   0.111626
     7  Na   0.303670   0.105665
 Sum of Mulliken charges =  -0.00000   1.00000

 Dipole moment (field-independent basis, Debye):
    X=             -0.2862    Y=             -0.5648    Z=             -0.0636  Tot=              0.6364
 Quadrupole moment (field-independent basis, Debye-Ang):
   XX=            -53.6543   YY=            -65.8802   ZZ=            -75.3206
   XY=             -0.5111   XZ=              0.2934   YZ=              1.3648

 Normal termination of Gaussian 16 at Fri Dec  8 05:45:49 2023.
