 Gaussian 16, Revision B.01,
 Gaussian 16:  ES64L-G16RevB.01 20-Dec-2017

 -------------------------
 #P B3LYP/6-311+g(d) force
 -------------------------

 -----
 DPGEN
 -----
 Symbolic Z-matrix:
 Charge =  0 Multiplicity = 2

                         Standard orientation:
 ---------------------------------------------------------------------
 Center     Atomic      Atomic             Coordinates (Angstroms)
 Number     Number       Type             X           Y           Z
 ---------------------------------------------------------------------
      1         11           0        2.975328   -1.404554   -0.531401
      2         11           0        6.076448   -0.464902   -0.283906
      3         11           0        2.752401    1.552061   -0.619494
      4         11           0       -0.393897    1.579953    0.228217
      5         11           0       -0.259530   -0.998748    1.817066
      6         11           0       -4.475689    0.606655    0.681012
      7         11           0       -6.675061   -0.870464   -1.291494
 ---------------------------------------------------------------------

 SCF Done:  E(UB3LYP) =  -1136.10925662     A.U. after   21 cycles

 The electronic state is 2-A.
 Alpha  occ. eigenvalues --  -38.45074 -38.44992 -38.44236 -38.44063 -38.44020
 Alpha  occ. eigenvalues --  -38.43921 -38.43880  -2.20942  -2.20779  -2.20147
 Alpha  occ. eigenvalues --   -2.19900  -2.19794  -2.19778  -2.19645  -1.14698
 Alpha  occ. eigenvalues --   -1.14609  -1.14551  -1.14443  -1.14438  -1.14385
 Alpha  occ. eigenvalues --   -1.13842  -1.13790  -1.13737  -1.13650  -1.13547
 Alpha  occ. eigenvalues --   -1.13520  -1.13452  -1.13444  -1.13443  -1.13436
 Alpha  occ. eigenvalues --   -1.13430  -1.13396  -1.13326  -1.13313  -1.13251
 Alpha  occ. eigenvalues --   -0.17079  -0.13852  -0.12066  -0.10698
 Alpha virt. eigenvalues --   -0.07200  -0.05382  -0.04518  -0.03772  -0.02746
 Alpha virt. eigenvalues --   -0.02652  -0.02041  -0.01931  -0.00995  -0.00894
 Alpha virt. eigenvalues --   -0.00341  -0.00088   0.00174   0.00318   0.00351

  Beta  occ. eigenvalues --  -38.45056 -38.44984 -38.44156 -38.44023 -38.44001
  Beta  occ. eigenvalues --  -38.43899 -38.43879  -2.20909  -2.20764  -2.20003
  Beta  occ. eigenvalues --   -2.19785  -2.19782  -2.19759  -2.19642  -1.14661
  Beta  occ. eigenvalues --   -1.14585  -1.14527  -1.14433  -1.14421  -1.14375
  Beta  occ. eigenvalues --   -1.13749  -1.13695  -1.13617  -1.13590  -1.13470
  Beta  occ. eigenvalues --   -1.13447  -1.13446  -1.13440  -1.13438  -1.13431
  Beta  occ. eigenvalues --   -1.13390  -1.13330  -1.13323  -1.13311  -1.13251
  Beta  occ. eigenvalues --   -0.16400  -0.13721  -0.11868
  Beta virt. eigenvalues --   -0.07175  -0.06717  -0.05164  -0.04117  -0.03455
  Beta virt. eigenvalues --   -0.02604  -0.02046  -0.01807  -0.01757  -0.00907
  Beta virt. eigenvalues --   -0.00503  -0.00210   0.00132   0.00308   0.00445

 Mulliken charges and spin densities:
               1          2
     1  Na  -0.501184   0.235058
     2  Na   0.497876  -0.004789
     3  Na   0.112430   0.228159
     4  Na  -0.170630   0.180998
     5  Na   0.007004   0.350340
     6  Na  -0.237051   0.024631
     7  Na   0.291555  -0.014397
 Sum of Mulliken charges =  -0.00000   1.00000

 Dipole moment (field-independent basis, Debye):
    X=              2.4420    Y=             -0.4736    Z=             -0.1252  Tot=              2.4907
 Quadrupole moment (field-independent basis, Debye-Ang):
   XX=            -53.6961   YY=            -70.5812   ZZ=            -69.6309
   XY=              2.7139   XZ=              3.3799   YZ=              3.8100

 Normal termination of Gaussian 16 at Tue Nov 28 23:31:07 2023.
