 Gaussian 16, Revision B.01,
 Gaussian 16:  ES64L-G16RevB.01 20-Dec-2017

 -------------------------
 #P B3LYP/6-311+g(d) force
 -------------------------

 -----
 DPGEN
 -----
 Symbolic Z-matrix:
 Charge =  0 Multiplicity = 2

                         Standard orientation:
 ---------------------------------------------------------------------
 Center     Atomic      Atomic             Coordinates (Angstroms)
 Number     Number       Type             X           Y           Z
 ---------------------------------------------------------------------
      1         11           0        0.414193   -1.971505   -0.843706
      2         11           0        2.629081    0.702983   -0.089128
      3         11           0       -1.398610    1.250765   -0.760391
      4         11           0       -3.261823   -1.561587   -0.846100
      5         11           0       -2.697967   -0.027188    1.998600
      6         11           0        0.869205    3.875180   -0.112283
      7         11           0        3.445921   -2.268648    0.653009
 ---------------------------------------------------------------------

 SCF Done:  E(UB3LYP) =  -1136.12761652     A.U. after   19 cycles

 The electronic state is 2-A.
 Alpha  occ. eigenvalues --  -38.44513 -38.44103 -38.43916 -38.43897 -38.43889
 Alpha  occ. eigenvalues --  -38.43763 -38.43351  -2.20360  -2.19946  -2.19773
 Alpha  occ. eigenvalues --   -2.19763  -2.19755  -2.19609  -2.19134  -1.14044
 Alpha  occ. eigenvalues --   -1.14018  -1.14001  -1.13648  -1.13643  -1.13567
 Alpha  occ. eigenvalues --   -1.13508  -1.13483  -1.13455  -1.13449  -1.13398
 Alpha  occ. eigenvalues --   -1.13385  -1.13375  -1.13359  -1.13338  -1.13267
 Alpha  occ. eigenvalues --   -1.13254  -1.13220  -1.12805  -1.12799  -1.12768
 Alpha  occ. eigenvalues --   -0.17439  -0.14185  -0.12296  -0.10247
 Alpha virt. eigenvalues --   -0.06018  -0.05471  -0.05224  -0.03623  -0.02346
 Alpha virt. eigenvalues --   -0.02185  -0.01976  -0.01456  -0.01094  -0.00489
 Alpha virt. eigenvalues --   -0.00160   0.00160   0.00403   0.00589   0.00636

  Beta  occ. eigenvalues --  -38.44501 -38.44097 -38.43883 -38.43877 -38.43794
  Beta  occ. eigenvalues --  -38.43744 -38.43355  -2.20344  -2.19937  -2.19751
  Beta  occ. eigenvalues --   -2.19695  -2.19577  -2.19572  -2.19142  -1.14037
  Beta  occ. eigenvalues --   -1.14010  -1.13946  -1.13640  -1.13635  -1.13555
  Beta  occ. eigenvalues --   -1.13482  -1.13432  -1.13411  -1.13403  -1.13362
  Beta  occ. eigenvalues --   -1.13301  -1.13269  -1.13260  -1.13245  -1.13236
  Beta  occ. eigenvalues --   -1.13229  -1.13194  -1.12810  -1.12804  -1.12773
  Beta  occ. eigenvalues --   -0.16849  -0.13802  -0.12178
  Beta virt. eigenvalues --   -0.06490  -0.05783  -0.05220  -0.05105  -0.03172
  Beta virt. eigenvalues --   -0.02072  -0.01902  -0.01566  -0.01181  -0.01022
  Beta virt. eigenvalues --   -0.00267   0.00175   0.00276   0.00642   0.00700

 Mulliken charges and spin densities:
               1          2
     1  Na  -0.643212   0.065958
     2  Na  -0.711191   0.056521
     3  Na  -1.117250   0.352037
     4  Na   1.324138   0.172076
     5  Na  -0.215851   0.342866
     6  Na   0.443248  -0.091175
     7  Na   0.920118   0.101717
 Sum of Mulliken charges =  -0.00000   1.00000

 Dipole moment (field-independent basis, Debye):
    X=              0.0092    Y=             -0.7992    Z=             -0.0427  Tot=              0.8004
 Quadrupole moment (field-independent basis, Debye-Ang):
   XX=            -60.5313   YY=            -62.5103   ZZ=            -72.7644
   XY=              2.2732   XZ=              5.9410   YZ=             -0.7323

 Normal termination of Gaussian 16 at Tue Nov 28 22:15:00 2023.
