 Gaussian 16, Revision B.01,
 Gaussian 16:  ES64L-G16RevB.01 20-Dec-2017

 -------------------------
 #P B3LYP/6-311+g(d) force
 -------------------------

 -----
 DPGEN
 -----
 Symbolic Z-matrix:
 Charge =  0 Multiplicity = 2

                         Standard orientation:
 ---------------------------------------------------------------------
 Center     Atomic      Atomic             Coordinates (Angstroms)
 Number     Number       Type             X           Y           Z
 ---------------------------------------------------------------------
      1         11           0       -0.230516   -0.559413    1.006652
      2         11           0       -2.032043    0.880480   -1.616458
      3         11           0        5.860553   -2.046565   -0.492626
      4         11           0       -4.009112   -0.611868    1.805471
      5         11           0        3.933943    0.443755    0.323631
      6         11           0        1.199592    3.106697    0.160624
      7         11           0       -4.722417   -1.213086   -1.187294
 ---------------------------------------------------------------------

 SCF Done:  E(UB3LYP) =  -1136.10777737     A.U. after   23 cycles

 The electronic state is 2-A.
 Alpha  occ. eigenvalues --  -38.45623 -38.45304 -38.45087 -38.44748 -38.44569
 Alpha  occ. eigenvalues --  -38.43294 -38.43178  -2.21399  -2.21038  -2.20896
 Alpha  occ. eigenvalues --   -2.20571  -2.20406  -2.19085  -2.18950  -1.15097
 Alpha  occ. eigenvalues --   -1.15061  -1.14987  -1.14720  -1.14706  -1.14660
 Alpha  occ. eigenvalues --   -1.14594  -1.14558  -1.14490  -1.14271  -1.14228
 Alpha  occ. eigenvalues --   -1.14201  -1.14060  -1.14048  -1.14028  -1.12777
 Alpha  occ. eigenvalues --   -1.12772  -1.12724  -1.12612  -1.12612  -1.12569
 Alpha  occ. eigenvalues --   -0.16889  -0.13959  -0.11369  -0.10976
 Alpha virt. eigenvalues --   -0.07619  -0.06026  -0.04135  -0.03718  -0.03338
 Alpha virt. eigenvalues --   -0.02882  -0.01788  -0.01654  -0.01462  -0.00966
 Alpha virt. eigenvalues --   -0.00499  -0.00280   0.00136   0.00175   0.00312

  Beta  occ. eigenvalues --  -38.45573 -38.45304 -38.45028 -38.44702 -38.44541
  Beta  occ. eigenvalues --  -38.43293 -38.43179  -2.21308  -2.21039  -2.20790
  Beta  occ. eigenvalues --   -2.20486  -2.20357  -2.19084  -2.18953  -1.15033
  Beta  occ. eigenvalues --   -1.15000  -1.14910  -1.14719  -1.14705  -1.14661
  Beta  occ. eigenvalues --   -1.14524  -1.14483  -1.14400  -1.14218  -1.14169
  Beta  occ. eigenvalues --   -1.14135  -1.14029  -1.14001  -1.13985  -1.12775
  Beta  occ. eigenvalues --   -1.12770  -1.12725  -1.12614  -1.12613  -1.12571
  Beta  occ. eigenvalues --   -0.16168  -0.13840  -0.11344
  Beta virt. eigenvalues --   -0.07453  -0.07065  -0.05635  -0.03938  -0.03364
  Beta virt. eigenvalues --   -0.03126  -0.02173  -0.01592  -0.01512  -0.01174
  Beta virt. eigenvalues --   -0.00770  -0.00366  -0.00046   0.00233   0.00334

 Mulliken charges and spin densities:
               1          2
     1  Na  -0.623842   0.451356
     2  Na  -0.048483   0.425196
     3  Na   0.228562  -0.013056
     4  Na   0.322773   0.072750
     5  Na  -0.481871   0.025405
     6  Na   0.380316  -0.008064
     7  Na   0.222545   0.046414
 Sum of Mulliken charges =  -0.00000   1.00000

 Dipole moment (field-independent basis, Debye):
    X=             -2.4824    Y=              0.7791    Z=              0.1484  Tot=              2.6060
 Quadrupole moment (field-independent basis, Debye-Ang):
   XX=            -72.4481   YY=            -60.0179   ZZ=            -73.0355
   XY=              3.9418   XZ=             -1.8729   YZ=              3.6427

 Normal termination of Gaussian 16 at Mon Dec  4 03:51:25 2023.
