 Gaussian 16, Revision B.01,
 Gaussian 16:  ES64L-G16RevB.01 20-Dec-2017

 -------------------------
 #P B3LYP/6-311+g(d) force
 -------------------------

 -----
 DPGEN
 -----
 Symbolic Z-matrix:
 Charge =  0 Multiplicity = 2

                         Standard orientation:
 ---------------------------------------------------------------------
 Center     Atomic      Atomic             Coordinates (Angstroms)
 Number     Number       Type             X           Y           Z
 ---------------------------------------------------------------------
      1         11           0        3.896870   -0.412798    0.750172
      2         11           0       -2.470541   -1.586086   -0.744828
      3         11           0        1.133265   -1.889913   -0.849541
      4         11           0       -3.597195    0.855604    1.272367
      5         11           0        0.109630   -0.329413    1.728209
      6         11           0        1.786298    2.205230   -0.477983
      7         11           0       -0.858328    1.157377   -1.678396
 ---------------------------------------------------------------------

 SCF Done:  E(UB3LYP) =  -1136.12197922     A.U. after   25 cycles

 The electronic state is 2-A.
 Alpha  occ. eigenvalues --  -38.45301 -38.45087 -38.44948 -38.44055 -38.43452
 Alpha  occ. eigenvalues --  -38.42734 -38.42352  -2.21134  -2.20878  -2.20757
 Alpha  occ. eigenvalues --   -2.19922  -2.19331  -2.18644  -2.18210  -1.14862
 Alpha  occ. eigenvalues --   -1.14787  -1.14736  -1.14556  -1.14524  -1.14501
 Alpha  occ. eigenvalues --   -1.14415  -1.14395  -1.14375  -1.13613  -1.13571
 Alpha  occ. eigenvalues --   -1.13561  -1.13044  -1.12978  -1.12940  -1.12348
 Alpha  occ. eigenvalues --   -1.12297  -1.12276  -1.11886  -1.11876  -1.11839
 Alpha  occ. eigenvalues --   -0.18342  -0.14075  -0.11451  -0.10838
 Alpha virt. eigenvalues --   -0.07070  -0.05215  -0.04500  -0.03059  -0.02905
 Alpha virt. eigenvalues --   -0.02598  -0.02302  -0.01261  -0.00735  -0.00208
 Alpha virt. eigenvalues --    0.00036   0.00172   0.00372   0.00593   0.00715

  Beta  occ. eigenvalues --  -38.45280 -38.45071 -38.44879 -38.44036 -38.43419
  Beta  occ. eigenvalues --  -38.42693 -38.42354  -2.21097  -2.20847  -2.20628
  Beta  occ. eigenvalues --   -2.19894  -2.19275  -2.18571  -2.18216  -1.14823
  Beta  occ. eigenvalues --   -1.14764  -1.14707  -1.14534  -1.14503  -1.14482
  Beta  occ. eigenvalues --   -1.14328  -1.14302  -1.14291  -1.13587  -1.13555
  Beta  occ. eigenvalues --   -1.13510  -1.13011  -1.12936  -1.12879  -1.12305
  Beta  occ. eigenvalues --   -1.12242  -1.12214  -1.11888  -1.11873  -1.11838
  Beta  occ. eigenvalues --   -0.17667  -0.13681  -0.10686
  Beta virt. eigenvalues --   -0.07713  -0.06795  -0.04840  -0.04138  -0.02877
  Beta virt. eigenvalues --   -0.02621  -0.01951  -0.01710  -0.00955  -0.00654
  Beta virt. eigenvalues --   -0.00076   0.00114   0.00276   0.00424   0.00696

 Mulliken charges and spin densities:
               1          2
     1  Na   0.838547   0.156546
     2  Na   0.518591   0.047972
     3  Na  -0.276837   0.069397
     4  Na   0.088202   0.271037
     5  Na  -0.518163   0.298951
     6  Na  -0.555970  -0.150073
     7  Na  -0.094370   0.306170
 Sum of Mulliken charges =  -0.00000   1.00000

 Dipole moment (field-independent basis, Debye):
    X=              0.0115    Y=             -0.4080    Z=              0.7025  Tot=              0.8125
 Quadrupole moment (field-independent basis, Debye-Ang):
   XX=            -47.3417   YY=            -78.6436   ZZ=            -68.5036
   XY=             -0.5270   XZ=              1.4701   YZ=              6.0871

 Normal termination of Gaussian 16 at Sun Dec  3 22:22:11 2023.
