 Gaussian 16, Revision B.01,
 Gaussian 16:  ES64L-G16RevB.01 20-Dec-2017

 -------------------------
 #P B3LYP/6-311+g(d) force
 -------------------------

 -----
 DPGEN
 -----
 Symbolic Z-matrix:
 Charge =  0 Multiplicity = 2

                         Standard orientation:
 ---------------------------------------------------------------------
 Center     Atomic      Atomic             Coordinates (Angstroms)
 Number     Number       Type             X           Y           Z
 ---------------------------------------------------------------------
      1         11           0       -1.854215    2.959413    0.267591
      2         11           0        2.751666   -1.148651    0.113818
      3         11           0       -3.277787   -1.115721   -0.502145
      4         11           0        0.118447   -3.094427    0.317433
      5         11           0        2.688641    2.033634   -0.266009
      6         11           0       -0.006400    0.105212   -1.826783
      7         11           0       -0.420352    0.260540    1.896095
 ---------------------------------------------------------------------

 SCF Done:  E(UB3LYP) =  -1136.12987509     A.U. after   20 cycles

 The electronic state is 2-A.
 Alpha  occ. eigenvalues --  -38.44737 -38.44252 -38.44021 -38.43951 -38.43746
 Alpha  occ. eigenvalues --  -38.43505 -38.43393  -2.20493  -2.20014  -2.19828
 Alpha  occ. eigenvalues --   -2.19804  -2.19596  -2.19381  -2.19214  -1.14167
 Alpha  occ. eigenvalues --   -1.14136  -1.14131  -1.13691  -1.13667  -1.13657
 Alpha  occ. eigenvalues --   -1.13517  -1.13498  -1.13487  -1.13465  -1.13447
 Alpha  occ. eigenvalues --   -1.13411  -1.13273  -1.13234  -1.13210  -1.13064
 Alpha  occ. eigenvalues --   -1.13045  -1.13031  -1.12880  -1.12873  -1.12847
 Alpha  occ. eigenvalues --   -0.17834  -0.12883  -0.12183  -0.10536
 Alpha virt. eigenvalues --   -0.06262  -0.05458  -0.04683  -0.03178  -0.02801
 Alpha virt. eigenvalues --   -0.02447  -0.01905  -0.01515  -0.00770  -0.00504
 Alpha virt. eigenvalues --   -0.00071   0.00300   0.00661   0.00713   0.00796

  Beta  occ. eigenvalues --  -38.44714 -38.44245 -38.44018 -38.43887 -38.43672
  Beta  occ. eigenvalues --  -38.43501 -38.43387  -2.20454  -2.20002  -2.19823
  Beta  occ. eigenvalues --   -2.19685  -2.19461  -2.19376  -2.19205  -1.14126
  Beta  occ. eigenvalues --   -1.14112  -1.14106  -1.13667  -1.13661  -1.13651
  Beta  occ. eigenvalues --   -1.13516  -1.13475  -1.13461  -1.13411  -1.13369
  Beta  occ. eigenvalues --   -1.13320  -1.13182  -1.13144  -1.13106  -1.13065
  Beta  occ. eigenvalues --   -1.13042  -1.13004  -1.12873  -1.12861  -1.12832
  Beta  occ. eigenvalues --   -0.17177  -0.12605  -0.11920
  Beta virt. eigenvalues --   -0.06892  -0.06090  -0.05273  -0.04691  -0.02505
  Beta virt. eigenvalues --   -0.02178  -0.01705  -0.01576  -0.01337  -0.00796
  Beta virt. eigenvalues --   -0.00544   0.00074   0.00357   0.00684   0.00794

 Mulliken charges and spin densities:
               1          2
     1  Na  -0.041821  -0.105243
     2  Na   0.011337   0.014011
     3  Na   0.021350   0.047518
     4  Na   0.064387   0.026276
     5  Na   0.173572  -0.030655
     6  Na  -0.123805   0.506206
     7  Na  -0.105020   0.541887
 Sum of Mulliken charges =  -0.00000   1.00000

 Dipole moment (field-independent basis, Debye):
    X=             -0.4972    Y=              0.3399    Z=             -0.0747  Tot=              0.6069
 Quadrupole moment (field-independent basis, Debye-Ang):
   XX=            -57.5489   YY=            -61.2680   ZZ=            -75.0486
   XY=              1.0954   XZ=              1.0341   YZ=             -0.8200

 Normal termination of Gaussian 16 at Thu Dec  7 23:14:35 2023.
