 Gaussian 16, Revision B.01,
 Gaussian 16:  ES64L-G16RevB.01 20-Dec-2017

 -------------------------
 #P B3LYP/6-311+g(d) force
 -------------------------

 -----
 DPGEN
 -----
 Symbolic Z-matrix:
 Charge =  0 Multiplicity = 2

                         Standard orientation:
 ---------------------------------------------------------------------
 Center     Atomic      Atomic             Coordinates (Angstroms)
 Number     Number       Type             X           Y           Z
 ---------------------------------------------------------------------
      1         11           0        0.137546   -2.157088    1.218224
      2         11           0       -2.578072    1.827025   -0.064100
      3         11           0        1.064214    2.374822   -0.630914
      4         11           0        0.023756   -0.523158   -2.149360
      5         11           0        3.133365   -0.921010   -0.502615
      6         11           0       -2.574649   -1.738063   -0.081536
      7         11           0        0.793839    1.137472    2.210300
 ---------------------------------------------------------------------

 SCF Done:  E(UB3LYP) =  -1136.13037273     A.U. after   19 cycles

 The electronic state is 2-A.
 Alpha  occ. eigenvalues --  -38.44482 -38.44456 -38.44130 -38.43960 -38.43402
 Alpha  occ. eigenvalues --  -38.43390 -38.43316  -2.20350  -2.20312  -2.19921
 Alpha  occ. eigenvalues --   -2.19733  -2.19288  -2.19254  -2.19175  -1.14024
 Alpha  occ. eigenvalues --   -1.13989  -1.13985  -1.13967  -1.13966  -1.13910
 Alpha  occ. eigenvalues --   -1.13594  -1.13576  -1.13563  -1.13415  -1.13394
 Alpha  occ. eigenvalues --   -1.13370  -1.13044  -1.12956  -1.12953  -1.12933
 Alpha  occ. eigenvalues --   -1.12917  -1.12852  -1.12830  -1.12808  -1.12785
 Alpha  occ. eigenvalues --   -0.18222  -0.12712  -0.12053  -0.11874
 Alpha virt. eigenvalues --   -0.05715  -0.04900  -0.04405  -0.03576  -0.03377
 Alpha virt. eigenvalues --   -0.03337  -0.01518  -0.00723  -0.00343   0.00029
 Alpha virt. eigenvalues --    0.00105   0.00390   0.00607   0.00775   0.00792

  Beta  occ. eigenvalues --  -38.44405 -38.44377 -38.44124 -38.43962 -38.43381
  Beta  occ. eigenvalues --  -38.43368 -38.43316  -2.20210  -2.20166  -2.19913
  Beta  occ. eigenvalues --   -2.19738  -2.19241  -2.19228  -2.19177  -1.13932
  Beta  occ. eigenvalues --   -1.13889  -1.13888  -1.13861  -1.13861  -1.13808
  Beta  occ. eigenvalues --   -1.13578  -1.13564  -1.13559  -1.13411  -1.13397
  Beta  occ. eigenvalues --   -1.13376  -1.13018  -1.12936  -1.12907  -1.12906
  Beta  occ. eigenvalues --   -1.12870  -1.12845  -1.12819  -1.12809  -1.12772
  Beta  occ. eigenvalues --   -0.17426  -0.12518  -0.11882
  Beta virt. eigenvalues --   -0.07898  -0.05656  -0.04741  -0.03954  -0.03176
  Beta virt. eigenvalues --   -0.02676  -0.02385  -0.01426  -0.00713  -0.00080
  Beta virt. eigenvalues --   -0.00014   0.00134   0.00435   0.00749   0.00820

 Mulliken charges and spin densities:
               1          2
     1  Na  -0.285018   0.234005
     2  Na  -0.151321  -0.068680
     3  Na   0.120947  -0.016667
     4  Na  -0.297753   0.592728
     5  Na   0.270655  -0.047845
     6  Na   0.320590  -0.048983
     7  Na   0.021900   0.355443
 Sum of Mulliken charges =  -0.00000   1.00000

 Dipole moment (field-independent basis, Debye):
    X=              0.2808    Y=              0.1505    Z=             -0.1067  Tot=              0.3360
 Quadrupole moment (field-independent basis, Debye-Ang):
   XX=            -60.0610   YY=            -70.6466   ZZ=            -66.2311
   XY=             -0.9942   XZ=             -0.4104   YZ=             -0.1168

 Normal termination of Gaussian 16 at Sun Dec  3 11:48:06 2023.
