 Gaussian 16, Revision B.01,
 Gaussian 16:  ES64L-G16RevB.01 20-Dec-2017

 -------------------------
 #P B3LYP/6-311+g(d) force
 -------------------------

 -----
 DPGEN
 -----
 Symbolic Z-matrix:
 Charge =  0 Multiplicity = 2

                         Standard orientation:
 ---------------------------------------------------------------------
 Center     Atomic      Atomic             Coordinates (Angstroms)
 Number     Number       Type             X           Y           Z
 ---------------------------------------------------------------------
      1         11           0        0.399452    0.189520    2.092612
      2         11           0       -2.182883    1.761427   -0.148204
      3         11           0        0.897251    2.814021   -0.029997
      4         11           0        0.545017   -2.715576    0.324221
      5         11           0        0.045770   -0.323352   -1.665098
      6         11           0        3.050115   -0.347215   -0.484581
      7         11           0       -2.754723   -1.378825   -0.088953
 ---------------------------------------------------------------------

 SCF Done:  E(UB3LYP) =  -1136.13871182     A.U. after   19 cycles

 The electronic state is 2-A.
 Alpha  occ. eigenvalues --  -38.43909 -38.43713 -38.43511 -38.43458 -38.43363
 Alpha  occ. eigenvalues --  -38.43363 -38.43249  -2.19755  -2.19610  -2.19370
 Alpha  occ. eigenvalues --   -2.19348  -2.19259  -2.19253  -2.19220  -1.13456
 Alpha  occ. eigenvalues --   -1.13405  -1.13384  -1.13276  -1.13247  -1.13231
 Alpha  occ. eigenvalues --   -1.13097  -1.13085  -1.13039  -1.13022  -1.13010
 Alpha  occ. eigenvalues --   -1.12978  -1.12950  -1.12921  -1.12912  -1.12900
 Alpha  occ. eigenvalues --   -1.12886  -1.12876  -1.12859  -1.12852  -1.12826
 Alpha  occ. eigenvalues --   -0.18913  -0.12981  -0.12636  -0.11034
 Alpha virt. eigenvalues --   -0.05416  -0.04867  -0.04795  -0.03209  -0.03086
 Alpha virt. eigenvalues --   -0.02718  -0.01386  -0.01030  -0.00206  -0.00114
 Alpha virt. eigenvalues --   -0.00013   0.00365   0.00847   0.00930   0.00931

  Beta  occ. eigenvalues --  -38.43895 -38.43617 -38.43510 -38.43447 -38.43359
  Beta  occ. eigenvalues --  -38.43359 -38.43186  -2.19733  -2.19435  -2.19371
  Beta  occ. eigenvalues --   -2.19331  -2.19253  -2.19218  -2.19138  -1.13429
  Beta  occ. eigenvalues --   -1.13377  -1.13372  -1.13164  -1.13121  -1.13112
  Beta  occ. eigenvalues --   -1.13089  -1.13069  -1.13029  -1.13005  -1.12975
  Beta  occ. eigenvalues --   -1.12968  -1.12944  -1.12903  -1.12893  -1.12872
  Beta  occ. eigenvalues --   -1.12857  -1.12837  -1.12826  -1.12789  -1.12777
  Beta  occ. eigenvalues --   -0.18178  -0.12720  -0.12409
  Beta virt. eigenvalues --   -0.07075  -0.05388  -0.04870  -0.04722  -0.02419
  Beta virt. eigenvalues --   -0.02306  -0.01650  -0.01289  -0.00962  -0.00236
  Beta virt. eigenvalues --   -0.00152   0.00118   0.00393   0.00884   0.00920

 Mulliken charges and spin densities:
               1          2
     1  Na  -0.524745   0.657469
     2  Na   0.098840  -0.036104
     3  Na   0.168194  -0.045307
     4  Na   0.268799   0.051631
     5  Na  -0.356521   0.446134
     6  Na   0.216408  -0.042999
     7  Na   0.129025  -0.030824
 Sum of Mulliken charges =  -0.00000   1.00000

 Dipole moment (field-independent basis, Debye):
    X=              0.2775    Y=             -0.0799    Z=              0.1539  Tot=              0.3272
 Quadrupole moment (field-independent basis, Debye-Ang):
   XX=            -58.7563   YY=            -62.8453   ZZ=            -72.8048
   XY=              0.7662   XZ=             -0.8524   YZ=             -1.0710

 Normal termination of Gaussian 16 at Tue Dec  5 18:03:43 2023.
