 Gaussian 16, Revision B.01,
 Gaussian 16:  ES64L-G16RevB.01 20-Dec-2017

 -------------------------
 #P B3LYP/6-311+g(d) force
 -------------------------

 -----
 DPGEN
 -----
 Symbolic Z-matrix:
 Charge =  0 Multiplicity = 2

                         Standard orientation:
 ---------------------------------------------------------------------
 Center     Atomic      Atomic             Coordinates (Angstroms)
 Number     Number       Type             X           Y           Z
 ---------------------------------------------------------------------
      1         11           0       -4.174759    0.384624    0.089173
      2         11           0       -3.339354   -2.722937    0.268585
      3         11           0        3.918713    0.802272    0.740902
      4         11           0        1.316404    3.597838   -0.047909
      5         11           0        0.402249   -2.871712   -0.028506
      6         11           0       -1.782593    3.156200   -0.400789
      7         11           0        3.659341   -2.346286   -0.621455
 ---------------------------------------------------------------------

 SCF Done:  E(UB3LYP) =  -1136.10841245     A.U. after   26 cycles

 The electronic state is 2-A.
 Alpha  occ. eigenvalues --  -38.45302 -38.44868 -38.44730 -38.44613 -38.44605
 Alpha  occ. eigenvalues --  -38.44051 -38.43721  -2.21088  -2.20644  -2.20517
 Alpha  occ. eigenvalues --   -2.20400  -2.20394  -2.19849  -2.19533  -1.14755
 Alpha  occ. eigenvalues --   -1.14746  -1.14735  -1.14326  -1.14318  -1.14291
 Alpha  occ. eigenvalues --   -1.14195  -1.14190  -1.14176  -1.14064  -1.14060
 Alpha  occ. eigenvalues --   -1.14054  -1.14052  -1.14051  -1.13996  -1.13503
 Alpha  occ. eigenvalues --   -1.13488  -1.13470  -1.13191  -1.13183  -1.13173
 Alpha  occ. eigenvalues --   -0.15639  -0.14079  -0.13481  -0.10534
 Alpha virt. eigenvalues --   -0.08020  -0.04979  -0.04323  -0.03703  -0.03335
 Alpha virt. eigenvalues --   -0.02524  -0.02194  -0.01975  -0.01509  -0.00657
 Alpha virt. eigenvalues --   -0.00361  -0.00125   0.00115   0.00341   0.00560

  Beta  occ. eigenvalues --  -38.45276 -38.44865 -38.44732 -38.44592 -38.44555
  Beta  occ. eigenvalues --  -38.43969 -38.43684  -2.21044  -2.20644  -2.20528
  Beta  occ. eigenvalues --   -2.20379  -2.20291  -2.19695  -2.19465  -1.14728
  Beta  occ. eigenvalues --   -1.14719  -1.14684  -1.14325  -1.14323  -1.14258
  Beta  occ. eigenvalues --   -1.14203  -1.14197  -1.14150  -1.14050  -1.14043
  Beta  occ. eigenvalues --   -1.14017  -1.13992  -1.13980  -1.13928  -1.13399
  Beta  occ. eigenvalues --   -1.13384  -1.13369  -1.13146  -1.13137  -1.13126
  Beta  occ. eigenvalues --   -0.15139  -0.13420  -0.12874
  Beta virt. eigenvalues --   -0.08119  -0.07291  -0.04583  -0.03754  -0.03525
  Beta virt. eigenvalues --   -0.02949  -0.02309  -0.02084  -0.01882  -0.01357
  Beta virt. eigenvalues --   -0.00269  -0.00120  -0.00021   0.00293   0.00446

 Mulliken charges and spin densities:
               1          2
     1  Na  -0.069205   0.136181
     2  Na   0.676685   0.196419
     3  Na  -0.244142   0.406145
     4  Na  -0.170861   0.028978
     5  Na  -0.917097   0.249882
     6  Na   0.374325   0.159500
     7  Na   0.350296  -0.177105
 Sum of Mulliken charges =  -0.00000   1.00000

 Dipole moment (field-independent basis, Debye):
    X=             -0.5405    Y=             -0.6161    Z=             -0.0962  Tot=              0.8252
 Quadrupole moment (field-independent basis, Debye-Ang):
   XX=            -60.1363   YY=            -66.4690   ZZ=            -73.4202
   XY=             -1.7739   XZ=             -1.7741   YZ=              0.3339

 Normal termination of Gaussian 16 at Sun Dec  3 20:54:52 2023.
