 Gaussian 16, Revision B.01,
 Gaussian 16:  ES64L-G16RevB.01 20-Dec-2017

 -------------------------
 #P B3LYP/6-311+g(d) force
 -------------------------

 -----
 DPGEN
 -----
 Symbolic Z-matrix:
 Charge =  0 Multiplicity = 2

                         Standard orientation:
 ---------------------------------------------------------------------
 Center     Atomic      Atomic             Coordinates (Angstroms)
 Number     Number       Type             X           Y           Z
 ---------------------------------------------------------------------
      1         11           0       -3.608984   -1.898933   -0.067294
      2         11           0        2.433584   -2.718438    0.394698
      3         11           0       -1.101509    3.527986    1.131037
      4         11           0        2.147177    2.566339   -0.543578
      5         11           0       -3.266656    1.648532   -0.749874
      6         11           0        4.209916    0.195199   -0.273556
      7         11           0       -0.813527   -3.320685    0.108567
 ---------------------------------------------------------------------

 SCF Done:  E(UB3LYP) =  -1136.11141915     A.U. after   23 cycles

 The electronic state is 2-A.
 Alpha  occ. eigenvalues --  -38.45554 -38.45144 -38.44320 -38.44201 -38.44176
 Alpha  occ. eigenvalues --  -38.44056 -38.43666  -2.21308  -2.20934  -2.20136
 Alpha  occ. eigenvalues --   -2.20016  -2.20000  -2.19849  -2.19496  -1.14996
 Alpha  occ. eigenvalues --   -1.14978  -1.14939  -1.14607  -1.14604  -1.14568
 Alpha  occ. eigenvalues --   -1.13833  -1.13808  -1.13803  -1.13675  -1.13671
 Alpha  occ. eigenvalues --   -1.13668  -1.13660  -1.13654  -1.13606  -1.13504
 Alpha  occ. eigenvalues --   -1.13495  -1.13486  -1.13150  -1.13139  -1.13126
 Alpha  occ. eigenvalues --   -0.15806  -0.14000  -0.13651  -0.10713
 Alpha virt. eigenvalues --   -0.07583  -0.05029  -0.03982  -0.03578  -0.03357
 Alpha virt. eigenvalues --   -0.02525  -0.02380  -0.01847  -0.01358  -0.00588
 Alpha virt. eigenvalues --   -0.00269  -0.00035   0.00112   0.00467   0.00632

  Beta  occ. eigenvalues --  -38.45545 -38.45109 -38.44310 -38.44152 -38.44145
  Beta  occ. eigenvalues --  -38.44011 -38.43617  -2.21296  -2.20876  -2.20124
  Beta  occ. eigenvalues --   -2.19960  -2.19914  -2.19766  -2.19404  -1.14992
  Beta  occ. eigenvalues --   -1.14975  -1.14897  -1.14572  -1.14568  -1.14499
  Beta  occ. eigenvalues --   -1.13806  -1.13803  -1.13771  -1.13637  -1.13630
  Beta  occ. eigenvalues --   -1.13618  -1.13603  -1.13594  -1.13543  -1.13448
  Beta  occ. eigenvalues --   -1.13438  -1.13430  -1.13096  -1.13075  -1.13062
  Beta  occ. eigenvalues --   -0.15275  -0.13339  -0.12888
  Beta virt. eigenvalues --   -0.07758  -0.07473  -0.04650  -0.03618  -0.03182
  Beta virt. eigenvalues --   -0.02978  -0.02302  -0.02126  -0.01711  -0.01206
  Beta virt. eigenvalues --   -0.00353  -0.00082   0.00222   0.00312   0.00456

 Mulliken charges and spin densities:
               1          2
     1  Na  -0.295140   0.291188
     2  Na   0.118676   0.235175
     3  Na   0.077899   0.221473
     4  Na  -0.495452   0.159320
     5  Na  -0.076617   0.049922
     6  Na   0.629581   0.099750
     7  Na   0.041052  -0.056828
 Sum of Mulliken charges =  -0.00000   1.00000

 Dipole moment (field-independent basis, Debye):
    X=              0.0604    Y=              0.7828    Z=             -0.1219  Tot=              0.7945
 Quadrupole moment (field-independent basis, Debye-Ang):
   XX=            -61.7950   YY=            -68.9171   ZZ=            -70.3844
   XY=             -2.3938   XZ=              1.8018   YZ=             -0.3892

 Normal termination of Gaussian 16 at Sun Dec  3 20:13:18 2023.
