 Gaussian 16, Revision B.01,
 Gaussian 16:  ES64L-G16RevB.01 20-Dec-2017

 -------------------------
 #P B3LYP/6-311+g(d) force
 -------------------------

 -----
 DPGEN
 -----
 Symbolic Z-matrix:
 Charge =  0 Multiplicity = 2

                         Standard orientation:
 ---------------------------------------------------------------------
 Center     Atomic      Atomic             Coordinates (Angstroms)
 Number     Number       Type             X           Y           Z
 ---------------------------------------------------------------------
      1         11           0        3.539176   -2.181425   -0.237320
      2         11           0        1.686579    2.754921    0.886717
      3         11           0        0.486243   -2.510853    1.313311
      4         11           0       -2.114120    2.982828    0.243473
      5         11           0        4.015177    1.127824   -1.186412
      6         11           0       -4.647519    0.221403   -0.570777
      7         11           0       -2.965536   -2.394697   -0.448991
 ---------------------------------------------------------------------

 SCF Done:  E(UB3LYP) =  -1136.10568278     A.U. after   23 cycles

 The electronic state is 2-A.
 Alpha  occ. eigenvalues --  -38.45090 -38.45046 -38.44865 -38.44771 -38.44391
 Alpha  occ. eigenvalues --  -38.44224 -38.43885  -2.20855  -2.20832  -2.20607
 Alpha  occ. eigenvalues --   -2.20506  -2.20203  -2.20032  -2.19672  -1.14540
 Alpha  occ. eigenvalues --   -1.14523  -1.14513  -1.14505  -1.14500  -1.14478
 Alpha  occ. eigenvalues --   -1.14282  -1.14266  -1.14225  -1.14197  -1.14187
 Alpha  occ. eigenvalues --   -1.14139  -1.13864  -1.13856  -1.13832  -1.13685
 Alpha  occ. eigenvalues --   -1.13669  -1.13663  -1.13322  -1.13320  -1.13301
 Alpha  occ. eigenvalues --   -0.15585  -0.14171  -0.12689  -0.10790
 Alpha virt. eigenvalues --   -0.07684  -0.05089  -0.04640  -0.03555  -0.03450
 Alpha virt. eigenvalues --   -0.02398  -0.01934  -0.01842  -0.01490  -0.00865
 Alpha virt. eigenvalues --   -0.00716  -0.00213   0.00053   0.00350   0.00616

  Beta  occ. eigenvalues --  -38.45093 -38.45027 -38.44820 -38.44779 -38.44358
  Beta  occ. eigenvalues --  -38.44162 -38.43823  -2.20867  -2.20802  -2.20528
  Beta  occ. eigenvalues --   -2.20523  -2.20143  -2.19915  -2.19558  -1.14552
  Beta  occ. eigenvalues --   -1.14535  -1.14489  -1.14484  -1.14476  -1.14433
  Beta  occ. eigenvalues --   -1.14228  -1.14213  -1.14212  -1.14202  -1.14164
  Beta  occ. eigenvalues --   -1.14126  -1.13818  -1.13816  -1.13786  -1.13605
  Beta  occ. eigenvalues --   -1.13593  -1.13587  -1.13244  -1.13244  -1.13226
  Beta  occ. eigenvalues --   -0.15048  -0.13555  -0.12024
  Beta virt. eigenvalues --   -0.07854  -0.07647  -0.04550  -0.04111  -0.03325
  Beta virt. eigenvalues --   -0.03168  -0.02199  -0.01894  -0.01600  -0.01172
  Beta virt. eigenvalues --   -0.00672  -0.00500   0.00066   0.00231   0.00382

 Mulliken charges and spin densities:
               1          2
     1  Na   0.210169   0.003778
     2  Na  -0.177735  -0.086143
     3  Na  -0.448707   0.303239
     4  Na  -0.051655   0.243675
     5  Na   0.200143   0.291871
     6  Na   0.341423   0.123770
     7  Na  -0.073640   0.119810
 Sum of Mulliken charges =  -0.00000   1.00000

 Dipole moment (field-independent basis, Debye):
    X=             -0.1604    Y=             -0.1374    Z=             -0.3198  Tot=              0.3833
 Quadrupole moment (field-independent basis, Debye-Ang):
   XX=            -59.7880   YY=            -69.0217   ZZ=            -71.2044
   XY=             -3.8031   XZ=             -0.2988   YZ=              1.4614

 Normal termination of Gaussian 16 at Sun Dec  3 13:27:48 2023.
