 Gaussian 16, Revision B.01,
 Gaussian 16:  ES64L-G16RevB.01 20-Dec-2017

 -------------------------
 #P B3LYP/6-311+g(d) force
 -------------------------

 -----
 DPGEN
 -----
 Symbolic Z-matrix:
 Charge =  0 Multiplicity = 2

                         Standard orientation:
 ---------------------------------------------------------------------
 Center     Atomic      Atomic             Coordinates (Angstroms)
 Number     Number       Type             X           Y           Z
 ---------------------------------------------------------------------
      1         11           0       -2.334617    0.384636   -1.029375
      2         11           0       -3.437109   -3.086466   -0.596943
      3         11           0        2.929616   -0.987936    0.385102
      4         11           0       -2.574784    3.867955    0.094536
      5         11           0        5.716675    0.512322   -0.879794
      6         11           0       -0.185638   -1.892141    1.104170
      7         11           0       -0.114143    1.201630    0.922305
 ---------------------------------------------------------------------

 SCF Done:  E(UB3LYP) =  -1136.11919016     A.U. after   19 cycles

 The electronic state is 2-A.
 Alpha  occ. eigenvalues --  -38.44603 -38.44510 -38.44447 -38.44179 -38.43941
 Alpha  occ. eigenvalues --  -38.43836 -38.43481  -2.20414  -2.20402  -2.20299
 Alpha  occ. eigenvalues --   -2.19946  -2.19832  -2.19618  -2.19301  -1.14214
 Alpha  occ. eigenvalues --   -1.14105  -1.14035  -1.14034  -1.14024  -1.14019
 Alpha  occ. eigenvalues --   -1.13990  -1.13952  -1.13846  -1.13620  -1.13619
 Alpha  occ. eigenvalues --   -1.13560  -1.13538  -1.13502  -1.13416  -1.13278
 Alpha  occ. eigenvalues --   -1.13275  -1.13231  -1.12988  -1.12985  -1.12947
 Alpha  occ. eigenvalues --   -0.17205  -0.13689  -0.12280  -0.11423
 Alpha virt. eigenvalues --   -0.06113  -0.05317  -0.04691  -0.03663  -0.02657
 Alpha virt. eigenvalues --   -0.02263  -0.01955  -0.01841  -0.01146  -0.01009
 Alpha virt. eigenvalues --   -0.00525  -0.00087   0.00275   0.00531   0.00598

  Beta  occ. eigenvalues --  -38.44498 -38.44480 -38.44435 -38.44177 -38.43908
  Beta  occ. eigenvalues --  -38.43789 -38.43484  -2.20363  -2.20277  -2.20206
  Beta  occ. eigenvalues --   -2.19942  -2.19777  -2.19530  -2.19316  -1.14189
  Beta  occ. eigenvalues --   -1.14070  -1.13987  -1.13974  -1.13917  -1.13902
  Beta  occ. eigenvalues --   -1.13900  -1.13889  -1.13825  -1.13616  -1.13615
  Beta  occ. eigenvalues --   -1.13556  -1.13500  -1.13467  -1.13360  -1.13219
  Beta  occ. eigenvalues --   -1.13211  -1.13176  -1.13007  -1.13004  -1.12894
  Beta  occ. eigenvalues --   -0.16711  -0.12901  -0.11845
  Beta virt. eigenvalues --   -0.08030  -0.05984  -0.04964  -0.04303  -0.03447
  Beta virt. eigenvalues --   -0.02294  -0.02155  -0.01692  -0.01392  -0.00790
  Beta virt. eigenvalues --   -0.00745  -0.00216   0.00002   0.00426   0.00596

 Mulliken charges and spin densities:
               1          2
     1  Na  -0.279700   0.129434
     2  Na   0.421634   0.250854
     3  Na  -0.308225   0.161980
     4  Na   0.432487  -0.003611
     5  Na   0.268501   0.360109
     6  Na   0.055734  -0.030712
     7  Na  -0.590432   0.131947
 Sum of Mulliken charges =  -0.00000   1.00000

 Dipole moment (field-independent basis, Debye):
    X=             -0.5604    Y=              0.7293    Z=              0.0795  Tot=              0.9232
 Quadrupole moment (field-independent basis, Debye-Ang):
   XX=            -65.1234   YY=            -60.3060   ZZ=            -69.7045
   XY=             -0.0818   XZ=             -1.0839   YZ=             -0.8723

 Normal termination of Gaussian 16 at Wed Nov 29 02:49:07 2023.
