 Gaussian 16, Revision B.01,
 Gaussian 16:  ES64L-G16RevB.01 20-Dec-2017

 -------------------------
 #P B3LYP/6-311+g(d) force
 -------------------------

 -----
 DPGEN
 -----
 Symbolic Z-matrix:
 Charge =  0 Multiplicity = 2

                         Standard orientation:
 ---------------------------------------------------------------------
 Center     Atomic      Atomic             Coordinates (Angstroms)
 Number     Number       Type             X           Y           Z
 ---------------------------------------------------------------------
      1         11           0        3.014004   -0.781788   -0.124121
      2         11           0        0.185398   -2.438706   -0.446335
      3         11           0       -2.045272    2.555266    0.131517
      4         11           0       -3.091932   -1.347191   -0.016294
      5         11           0       -0.125451    0.297248   -1.631495
      6         11           0        0.237255   -0.487570    2.102022
      7         11           0        1.825998    2.202742   -0.015294
 ---------------------------------------------------------------------

 SCF Done:  E(UB3LYP) =  -1136.13210861     A.U. after   19 cycles

 The electronic state is 2-A.
 Alpha  occ. eigenvalues --  -38.44428 -38.43904 -38.43847 -38.43779 -38.43595
 Alpha  occ. eigenvalues --  -38.43266 -38.42998  -2.20208  -2.19733  -2.19680
 Alpha  occ. eigenvalues --   -2.19666  -2.19465  -2.19263  -2.18958  -1.13883
 Alpha  occ. eigenvalues --   -1.13860  -1.13853  -1.13422  -1.13404  -1.13385
 Alpha  occ. eigenvalues --   -1.13362  -1.13342  -1.13339  -1.13316  -1.13298
 Alpha  occ. eigenvalues --   -1.13268  -1.13185  -1.13120  -1.13081  -1.13010
 Alpha  occ. eigenvalues --   -1.12908  -1.12858  -1.12636  -1.12614  -1.12551
 Alpha  occ. eigenvalues --   -0.18766  -0.13006  -0.12308  -0.10838
 Alpha virt. eigenvalues --   -0.05868  -0.05454  -0.04208  -0.03163  -0.02894
 Alpha virt. eigenvalues --   -0.02610  -0.01740  -0.01199  -0.00352  -0.00133
 Alpha virt. eigenvalues --   -0.00034   0.00330   0.00726   0.00833   0.00929

  Beta  occ. eigenvalues --  -38.44430 -38.43905 -38.43841 -38.43683 -38.43588
  Beta  occ. eigenvalues --  -38.43202 -38.42978  -2.20213  -2.19726  -2.19683
  Beta  occ. eigenvalues --   -2.19490  -2.19457  -2.19146  -2.18928  -1.13871
  Beta  occ. eigenvalues --   -1.13867  -1.13859  -1.13420  -1.13399  -1.13356
  Beta  occ. eigenvalues --   -1.13347  -1.13340  -1.13321  -1.13230  -1.13178
  Beta  occ. eigenvalues --   -1.13166  -1.13143  -1.13093  -1.13080  -1.12937
  Beta  occ. eigenvalues --   -1.12824  -1.12772  -1.12613  -1.12546  -1.12535
  Beta  occ. eigenvalues --   -0.17996  -0.12811  -0.12089
  Beta virt. eigenvalues --   -0.06846  -0.05845  -0.05406  -0.04182  -0.02419
  Beta virt. eigenvalues --   -0.02144  -0.01670  -0.01499  -0.01145  -0.00395
  Beta virt. eigenvalues --   -0.00160   0.00124   0.00358   0.00787   0.00830

 Mulliken charges and spin densities:
               1          2
     1  Na   0.424413   0.077708
     2  Na   0.440378   0.044299
     3  Na  -0.096708  -0.087782
     4  Na  -0.019411  -0.093427
     5  Na  -0.138165   0.340065
     6  Na  -0.717629   0.765858
     7  Na   0.107123  -0.046721
 Sum of Mulliken charges =  -0.00000   1.00000

 Dipole moment (field-independent basis, Debye):
    X=             -0.3641    Y=              0.0749    Z=              0.2954  Tot=              0.4748
 Quadrupole moment (field-independent basis, Debye-Ang):
   XX=            -53.5391   YY=            -65.6465   ZZ=            -73.8950
   XY=              0.1425   XZ=             -1.0137   YZ=              1.5031

 Normal termination of Gaussian 16 at Tue Dec  5 10:59:45 2023.
