 Gaussian 16, Revision B.01,
 Gaussian 16:  ES64L-G16RevB.01 20-Dec-2017

 -------------------------
 #P B3LYP/6-311+g(d) force
 -------------------------

 -----
 DPGEN
 -----
 Symbolic Z-matrix:
 Charge =  0 Multiplicity = 2

                         Standard orientation:
 ---------------------------------------------------------------------
 Center     Atomic      Atomic             Coordinates (Angstroms)
 Number     Number       Type             X           Y           Z
 ---------------------------------------------------------------------
      1         11           0       -1.528821   -2.181755   -0.067946
      2         11           0       -0.090892    2.892067   -0.064794
      3         11           0       -0.254068   -0.061839   -1.591550
      4         11           0       -3.309323    0.732262    0.138417
      5         11           0        2.791054    1.301192    0.055444
      6         11           0        1.977644   -2.037667   -0.540563
      7         11           0        0.414406   -0.644261    2.070991
 ---------------------------------------------------------------------

 SCF Done:  E(UB3LYP) =  -1136.13364741     A.U. after   19 cycles

 The electronic state is 2-A.
 Alpha  occ. eigenvalues --  -38.44248 -38.43783 -38.43665 -38.43458 -38.43453
 Alpha  occ. eigenvalues --  -38.43387 -38.43257  -2.20043  -2.19630  -2.19568
 Alpha  occ. eigenvalues --   -2.19405  -2.19362  -2.19289  -2.19220  -1.13713
 Alpha  occ. eigenvalues --   -1.13703  -1.13688  -1.13305  -1.13296  -1.13287
 Alpha  occ. eigenvalues --   -1.13280  -1.13235  -1.13197  -1.13194  -1.13090
 Alpha  occ. eigenvalues --   -1.13054  -1.13007  -1.13001  -1.12965  -1.12963
 Alpha  occ. eigenvalues --   -1.12908  -1.12881  -1.12866  -1.12858  -1.12841
 Alpha  occ. eigenvalues --   -0.18880  -0.13089  -0.12524  -0.10865
 Alpha virt. eigenvalues --   -0.05774  -0.05096  -0.04544  -0.03215  -0.02894
 Alpha virt. eigenvalues --   -0.02579  -0.01602  -0.01034  -0.00288  -0.00179
 Alpha virt. eigenvalues --   -0.00020   0.00341   0.00810   0.00887   0.00907

  Beta  occ. eigenvalues --  -38.44250 -38.43780 -38.43573 -38.43446 -38.43436
  Beta  occ. eigenvalues --  -38.43386 -38.43191  -2.20047  -2.19627  -2.19397
  Beta  occ. eigenvalues --   -2.19388  -2.19335  -2.19220  -2.19171  -1.13710
  Beta  occ. eigenvalues --   -1.13702  -1.13691  -1.13303  -1.13289  -1.13270
  Beta  occ. eigenvalues --   -1.13238  -1.13140  -1.13088  -1.13076  -1.13048
  Beta  occ. eigenvalues --   -1.12998  -1.12992  -1.12958  -1.12954  -1.12928
  Beta  occ. eigenvalues --   -1.12871  -1.12851  -1.12847  -1.12795  -1.12778
  Beta  occ. eigenvalues --   -0.18139  -0.12882  -0.12291
  Beta virt. eigenvalues --   -0.06877  -0.05725  -0.05091  -0.04476  -0.02461
  Beta virt. eigenvalues --   -0.02146  -0.01543  -0.01476  -0.00971  -0.00308
  Beta virt. eigenvalues --   -0.00225   0.00143   0.00376   0.00871   0.00893

 Mulliken charges and spin densities:
               1          2
     1  Na   0.509284   0.074962
     2  Na  -0.014791  -0.083314
     3  Na  -0.266280   0.357986
     4  Na  -0.108871  -0.061120
     5  Na   0.003685  -0.018146
     6  Na   0.489123   0.038201
     7  Na  -0.612150   0.691432
 Sum of Mulliken charges =  -0.00000   1.00000

 Dipole moment (field-independent basis, Debye):
    X=             -0.1465    Y=              0.0926    Z=              0.2754  Tot=              0.3254
 Quadrupole moment (field-independent basis, Debye-Ang):
   XX=            -55.2691   YY=            -64.8378   ZZ=            -73.7142
   XY=             -1.2413   XZ=             -1.4456   YZ=              1.2488

 Normal termination of Gaussian 16 at Tue Dec  5 21:35:51 2023.
