 Gaussian 16, Revision B.01,
 Gaussian 16:  ES64L-G16RevB.01 20-Dec-2017

 -------------------------
 #P B3LYP/6-311+g(d) force
 -------------------------

 -----
 DPGEN
 -----
 Symbolic Z-matrix:
 Charge =  0 Multiplicity = 2

                         Standard orientation:
 ---------------------------------------------------------------------
 Center     Atomic      Atomic             Coordinates (Angstroms)
 Number     Number       Type             X           Y           Z
 ---------------------------------------------------------------------
      1         11           0       -0.254669    1.660266    0.200827
      2         11           0        2.545847    3.575599    0.045696
      3         11           0        3.122774   -0.024988   -0.713070
      4         11           0        0.537490   -1.367205    1.479728
      5         11           0       -2.937909   -0.929619    0.450462
      6         11           0        2.697310   -3.239719   -0.674226
      7         11           0       -5.710844    0.325666   -0.789417
 ---------------------------------------------------------------------

 SCF Done:  E(UB3LYP) =  -1136.12625313     A.U. after   19 cycles

 The electronic state is 2-A.
 Alpha  occ. eigenvalues --  -38.44407 -38.44310 -38.44252 -38.44190 -38.43798
 Alpha  occ. eigenvalues --  -38.43687 -38.43417  -2.20215  -2.20168  -2.20094
 Alpha  occ. eigenvalues --   -2.20026  -2.19617  -2.19482  -2.19230  -1.13875
 Alpha  occ. eigenvalues --   -1.13849  -1.13847  -1.13839  -1.13837  -1.13794
 Alpha  occ. eigenvalues --   -1.13785  -1.13758  -1.13722  -1.13712  -1.13693
 Alpha  occ. eigenvalues --   -1.13611  -1.13281  -1.13271  -1.13242  -1.13146
 Alpha  occ. eigenvalues --   -1.13145  -1.13108  -1.12917  -1.12910  -1.12880
 Alpha  occ. eigenvalues --   -0.17006  -0.13774  -0.12433  -0.11253
 Alpha virt. eigenvalues --   -0.05529  -0.05404  -0.05083  -0.03729  -0.02457
 Alpha virt. eigenvalues --   -0.02317  -0.01960  -0.01726  -0.01434  -0.00678
 Alpha virt. eigenvalues --   -0.00357  -0.00019   0.00403   0.00479   0.00547

  Beta  occ. eigenvalues --  -38.44308 -38.44261 -38.44224 -38.44171 -38.43780
  Beta  occ. eigenvalues --  -38.43678 -38.43418  -2.20082  -2.20044  -2.20031
  Beta  occ. eigenvalues --   -2.19995  -2.19585  -2.19465  -2.19240  -1.13819
  Beta  occ. eigenvalues --   -1.13782  -1.13761  -1.13744  -1.13724  -1.13722
  Beta  occ. eigenvalues --   -1.13717  -1.13703  -1.13702  -1.13668  -1.13649
  Beta  occ. eigenvalues --   -1.13582  -1.13255  -1.13244  -1.13226  -1.13135
  Beta  occ. eigenvalues --   -1.13132  -1.13098  -1.12933  -1.12926  -1.12819
  Beta  occ. eigenvalues --   -0.16430  -0.12881  -0.12306
  Beta virt. eigenvalues --   -0.07788  -0.05374  -0.05148  -0.04605  -0.03442
  Beta virt. eigenvalues --   -0.02149  -0.02018  -0.01723  -0.01490  -0.01104
  Beta virt. eigenvalues --   -0.00350  -0.00066   0.00107   0.00504   0.00567

 Mulliken charges and spin densities:
               1          2
     1  Na  -1.073826  -0.122907
     2  Na   0.746599   0.123768
     3  Na  -0.474602   0.277186
     4  Na  -0.101563   0.237103
     5  Na   0.042702   0.133008
     6  Na   0.396895   0.000711
     7  Na   0.463795   0.351131
 Sum of Mulliken charges =  -0.00000   1.00000

 Dipole moment (field-independent basis, Debye):
    X=              0.6463    Y=             -0.0535    Z=             -0.0291  Tot=              0.6492
 Quadrupole moment (field-independent basis, Debye-Ang):
   XX=            -65.7319   YY=            -61.1466   ZZ=            -69.6857
   XY=             -0.9691   XZ=              1.4943   YZ=              0.0151

 Normal termination of Gaussian 16 at Tue Nov 28 21:29:08 2023.
