 Gaussian 16, Revision B.01,
 Gaussian 16:  ES64L-G16RevB.01 20-Dec-2017

 -------------------------
 #P B3LYP/6-311+g(d) force
 -------------------------

 -----
 DPGEN
 -----
 Symbolic Z-matrix:
 Charge =  0 Multiplicity = 2

                         Standard orientation:
 ---------------------------------------------------------------------
 Center     Atomic      Atomic             Coordinates (Angstroms)
 Number     Number       Type             X           Y           Z
 ---------------------------------------------------------------------
      1         11           0       -1.783990    2.323497    0.069570
      2         11           0       -0.160125   -0.448231   -1.610233
      3         11           0        1.814801    1.689041    0.280842
      4         11           0        1.338553   -1.537702    1.137822
      5         11           0       -3.716559   -1.089991   -0.852178
      6         11           0        4.026731   -0.434134   -0.694794
      7         11           0       -1.519411   -0.502480    1.668970
 ---------------------------------------------------------------------

 SCF Done:  E(UB3LYP) =  -1136.11913141     A.U. after   36 cycles

 The electronic state is 2-A.
 Alpha  occ. eigenvalues --  -38.45508 -38.45025 -38.44344 -38.43743 -38.43463
 Alpha  occ. eigenvalues --  -38.43154 -38.42723  -2.21365  -2.20857  -2.20155
 Alpha  occ. eigenvalues --   -2.19700  -2.19410  -2.19047  -2.18568  -1.15092
 Alpha  occ. eigenvalues --   -1.15007  -1.14977  -1.14527  -1.14508  -1.14476
 Alpha  occ. eigenvalues --   -1.13825  -1.13793  -1.13781  -1.13447  -1.13343
 Alpha  occ. eigenvalues --   -1.13301  -1.13102  -1.13053  -1.13012  -1.12745
 Alpha  occ. eigenvalues --   -1.12732  -1.12657  -1.12264  -1.12232  -1.12186
 Alpha  occ. eigenvalues --   -0.18733  -0.14393  -0.11302  -0.10755
 Alpha virt. eigenvalues --   -0.07286  -0.05166  -0.04506  -0.03103  -0.03031
 Alpha virt. eigenvalues --   -0.02186  -0.02113  -0.01422  -0.00891  -0.00147
 Alpha virt. eigenvalues --   -0.00042   0.00253   0.00310   0.00642   0.00722

  Beta  occ. eigenvalues --  -38.45491 -38.44994 -38.44298 -38.43685 -38.43408
  Beta  occ. eigenvalues --  -38.43151 -38.42724  -2.21334  -2.20799  -2.20069
  Beta  occ. eigenvalues --   -2.19598  -2.19315  -2.19046  -2.18573  -1.15058
  Beta  occ. eigenvalues --   -1.14988  -1.14954  -1.14490  -1.14463  -1.14441
  Beta  occ. eigenvalues --   -1.13765  -1.13734  -1.13725  -1.13355  -1.13267
  Beta  occ. eigenvalues --   -1.13225  -1.13041  -1.12988  -1.12919  -1.12747
  Beta  occ. eigenvalues --   -1.12712  -1.12648  -1.12264  -1.12232  -1.12184
  Beta  occ. eigenvalues --   -0.18077  -0.14033  -0.10605
  Beta virt. eigenvalues --   -0.07417  -0.07025  -0.05026  -0.04000  -0.02844
  Beta virt. eigenvalues --   -0.02753  -0.01637  -0.01532  -0.01212  -0.00574
  Beta virt. eigenvalues --   -0.00061   0.00035   0.00318   0.00429   0.00723

 Mulliken charges and spin densities:
               1          2
     1  Na  -0.306576   0.037748
     2  Na  -0.350452   0.187216
     3  Na  -0.619805   0.047528
     4  Na  -0.308277   0.168086
     5  Na   0.007280   0.293662
     6  Na   1.138034   0.241029
     7  Na   0.439796   0.024731
 Sum of Mulliken charges =  -0.00000   1.00000

 Dipole moment (field-independent basis, Debye):
    X=              0.6549    Y=             -0.2028    Z=             -0.5063  Tot=              0.8523
 Quadrupole moment (field-independent basis, Debye-Ang):
   XX=            -47.9969   YY=            -79.1849   ZZ=            -67.8481
   XY=             -1.9079   XZ=             -2.1920   YZ=              1.3751

 Normal termination of Gaussian 16 at Thu Dec  7 14:46:04 2023.
