 Gaussian 16, Revision B.01,
 Gaussian 16:  ES64L-G16RevB.01 20-Dec-2017

 -------------------------
 #P B3LYP/6-311+g(d) force
 -------------------------

 -----
 DPGEN
 -----
 Symbolic Z-matrix:
 Charge =  0 Multiplicity = 2

                         Standard orientation:
 ---------------------------------------------------------------------
 Center     Atomic      Atomic             Coordinates (Angstroms)
 Number     Number       Type             X           Y           Z
 ---------------------------------------------------------------------
      1         11           0        0.517238    3.128921   -0.560150
      2         11           0        3.013688    0.625703    0.302454
      3         11           0        0.323187   -0.004030    1.981845
      4         11           0        1.372656   -2.690360   -0.156649
      5         11           0       -2.095671   -1.959040   -0.035961
      6         11           0       -3.145856    1.242985    0.348037
      7         11           0        0.014758   -0.344179   -1.879575
 ---------------------------------------------------------------------

 SCF Done:  E(UB3LYP) =  -1136.13539998     A.U. after   19 cycles

 The electronic state is 2-A.
 Alpha  occ. eigenvalues --  -38.43986 -38.43905 -38.43876 -38.43838 -38.43669
 Alpha  occ. eigenvalues --  -38.43515 -38.43427  -2.19764  -2.19760  -2.19742
 Alpha  occ. eigenvalues --   -2.19616  -2.19589  -2.19388  -2.19292  -1.13496
 Alpha  occ. eigenvalues --   -1.13434  -1.13429  -1.13422  -1.13407  -1.13397
 Alpha  occ. eigenvalues --   -1.13385  -1.13365  -1.13352  -1.13294  -1.13287
 Alpha  occ. eigenvalues --   -1.13268  -1.13252  -1.13241  -1.13212  -1.13065
 Alpha  occ. eigenvalues --   -1.13055  -1.13007  -1.12968  -1.12947  -1.12915
 Alpha  occ. eigenvalues --   -0.18326  -0.12870  -0.12329  -0.10922
 Alpha virt. eigenvalues --   -0.05590  -0.05089  -0.04978  -0.03282  -0.03009
 Alpha virt. eigenvalues --   -0.02692  -0.01407  -0.01202  -0.00574  -0.00314
 Alpha virt. eigenvalues --   -0.00041   0.00360   0.00810   0.00838   0.00879

  Beta  occ. eigenvalues --  -38.43985 -38.43898 -38.43825 -38.43795 -38.43592
  Beta  occ. eigenvalues --  -38.43509 -38.43422  -2.19761  -2.19732  -2.19612
  Beta  occ. eigenvalues --   -2.19592  -2.19449  -2.19381  -2.19286  -1.13452
  Beta  occ. eigenvalues --   -1.13432  -1.13420  -1.13406  -1.13385  -1.13361
  Beta  occ. eigenvalues --   -1.13323  -1.13283  -1.13263  -1.13260  -1.13251
  Beta  occ. eigenvalues --   -1.13239  -1.13203  -1.13153  -1.13112  -1.13045
  Beta  occ. eigenvalues --   -1.13036  -1.12994  -1.12950  -1.12936  -1.12901
  Beta  occ. eigenvalues --   -0.17596  -0.12621  -0.12083
  Beta virt. eigenvalues --   -0.07095  -0.05496  -0.05101  -0.04826  -0.02513
  Beta virt. eigenvalues --   -0.02314  -0.01711  -0.01309  -0.01118  -0.00585
  Beta virt. eigenvalues --   -0.00361   0.00095   0.00390   0.00839   0.00862

 Mulliken charges and spin densities:
               1          2
     1  Na  -0.136853  -0.008032
     2  Na   0.197135  -0.038132
     3  Na  -0.218333   0.644503
     4  Na   0.255115  -0.101479
     5  Na   0.107631  -0.068383
     6  Na  -0.136234  -0.049923
     7  Na  -0.068461   0.621447
 Sum of Mulliken charges =  -0.00000   1.00000

 Dipole moment (field-independent basis, Debye):
    X=              0.1213    Y=              0.0583    Z=              0.0826  Tot=              0.1579
 Quadrupole moment (field-independent basis, Debye-Ang):
   XX=            -59.4839   YY=            -61.8779   ZZ=            -73.2625
   XY=             -1.2576   XZ=             -0.6530   YZ=             -0.7284

 Normal termination of Gaussian 16 at Tue Dec  5 14:43:11 2023.
