 Gaussian 16, Revision B.01,
 Gaussian 16:  ES64L-G16RevB.01 20-Dec-2017

 -------------------------
 #P B3LYP/6-311+g(d) force
 -------------------------

 -----
 DPGEN
 -----
 Symbolic Z-matrix:
 Charge =  0 Multiplicity = 2

                         Standard orientation:
 ---------------------------------------------------------------------
 Center     Atomic      Atomic             Coordinates (Angstroms)
 Number     Number       Type             X           Y           Z
 ---------------------------------------------------------------------
      1         11           0       -2.333585    1.921351   -0.862911
      2         11           0        4.856636    0.160653   -0.495450
      3         11           0       -4.197731   -1.034863   -0.202189
      4         11           0       -1.720343    0.112993    1.777441
      5         11           0        1.210921    2.284016    0.170608
      6         11           0       -0.599291   -1.884415   -1.026875
      7         11           0        2.783393   -1.559736    0.639374
 ---------------------------------------------------------------------

 SCF Done:  E(UB3LYP) =  -1136.11405852     A.U. after   24 cycles

 The electronic state is 2-A.
 Alpha  occ. eigenvalues --  -38.45806 -38.44243 -38.44207 -38.43936 -38.43833
 Alpha  occ. eigenvalues --  -38.43711 -38.43385  -2.21649  -2.20077  -2.20013
 Alpha  occ. eigenvalues --   -2.19786  -2.19666  -2.19559  -2.19147  -1.15339
 Alpha  occ. eigenvalues --   -1.15322  -1.15258  -1.13776  -1.13755  -1.13684
 Alpha  occ. eigenvalues --   -1.13677  -1.13670  -1.13618  -1.13593  -1.13415
 Alpha  occ. eigenvalues --   -1.13400  -1.13326  -1.13305  -1.13251  -1.13234
 Alpha  occ. eigenvalues --   -1.13204  -1.13177  -1.12849  -1.12824  -1.12752
 Alpha  occ. eigenvalues --   -0.17463  -0.14321  -0.11165  -0.10642
 Alpha virt. eigenvalues --   -0.07012  -0.05565  -0.04653  -0.03274  -0.02981
 Alpha virt. eigenvalues --   -0.02078  -0.01999  -0.01602  -0.01178  -0.00615
 Alpha virt. eigenvalues --   -0.00467  -0.00030   0.00279   0.00570   0.00627

  Beta  occ. eigenvalues --  -38.45793 -38.44235 -38.44144 -38.43869 -38.43830
  Beta  occ. eigenvalues --  -38.43668 -38.43385  -2.21630  -2.20066  -2.19900
  Beta  occ. eigenvalues --   -2.19677  -2.19651  -2.19478  -2.19147  -1.15327
  Beta  occ. eigenvalues --   -1.15281  -1.15246  -1.13768  -1.13752  -1.13650
  Beta  occ. eigenvalues --   -1.13606  -1.13588  -1.13539  -1.13531  -1.13350
  Beta  occ. eigenvalues --   -1.13330  -1.13307  -1.13287  -1.13192  -1.13181
  Beta  occ. eigenvalues --   -1.13146  -1.13118  -1.12850  -1.12818  -1.12753
  Beta  occ. eigenvalues --   -0.16850  -0.13663  -0.10959
  Beta virt. eigenvalues --   -0.07156  -0.06828  -0.05462  -0.04024  -0.03048
  Beta virt. eigenvalues --   -0.02699  -0.01940  -0.01662  -0.01235  -0.00708
  Beta virt. eigenvalues --   -0.00475  -0.00223   0.00072   0.00342   0.00654

 Mulliken charges and spin densities:
               1          2
     1  Na   0.038954   0.047277
     2  Na   0.214880   0.403762
     3  Na   0.467261   0.292800
     4  Na  -0.026847   0.136585
     5  Na  -0.263237  -0.027535
     6  Na  -0.319147   0.125480
     7  Na  -0.111864   0.021631
 Sum of Mulliken charges =  -0.00000   1.00000

 Dipole moment (field-independent basis, Debye):
    X=             -0.9968    Y=              0.0642    Z=              0.2118  Tot=              1.0211
 Quadrupole moment (field-independent basis, Debye-Ang):
   XX=            -66.3672   YY=            -77.3733   ZZ=            -60.4601
   XY=              2.4180   XZ=             -1.3108   YZ=             -2.9424

 Normal termination of Gaussian 16 at Sun Dec  3 19:40:29 2023.
