 Gaussian 16, Revision B.01,
 Gaussian 16:  ES64L-G16RevB.01 20-Dec-2017

 -------------------------
 #P B3LYP/6-311+g(d) force
 -------------------------

 -----
 DPGEN
 -----
 Symbolic Z-matrix:
 Charge =  0 Multiplicity = 2

                         Standard orientation:
 ---------------------------------------------------------------------
 Center     Atomic      Atomic             Coordinates (Angstroms)
 Number     Number       Type             X           Y           Z
 ---------------------------------------------------------------------
      1         11           0       -0.166676    0.126626   -1.688389
      2         11           0        3.385982    1.024981   -0.332468
      3         11           0        2.107743   -2.315356    0.309181
      4         11           0       -1.813379   -2.292173   -0.484070
      5         11           0       -2.968384    0.654576    0.036612
      6         11           0       -0.266299   -0.101850    2.040398
      7         11           0       -0.278986    2.903197    0.118734
 ---------------------------------------------------------------------

 SCF Done:  E(UB3LYP) =  -1136.13370198     A.U. after   20 cycles

 The electronic state is 2-A.
 Alpha  occ. eigenvalues --  -38.44605 -38.44025 -38.43838 -38.43706 -38.43494
 Alpha  occ. eigenvalues --  -38.43293 -38.43155  -2.20357  -2.19926  -2.19625
 Alpha  occ. eigenvalues --   -2.19594  -2.19450  -2.19178  -2.18996  -1.14037
 Alpha  occ. eigenvalues --   -1.14005  -1.13999  -1.13617  -1.13596  -1.13562
 Alpha  occ. eigenvalues --   -1.13308  -1.13290  -1.13261  -1.13258  -1.13225
 Alpha  occ. eigenvalues --   -1.13205  -1.13145  -1.13116  -1.13066  -1.12851
 Alpha  occ. eigenvalues --   -1.12832  -1.12799  -1.12679  -1.12665  -1.12621
 Alpha  occ. eigenvalues --   -0.18508  -0.13050  -0.12143  -0.10838
 Alpha virt. eigenvalues --   -0.06033  -0.05251  -0.04467  -0.03220  -0.02823
 Alpha virt. eigenvalues --   -0.02632  -0.01751  -0.01112  -0.00475  -0.00386
 Alpha virt. eigenvalues --   -0.00043   0.00329   0.00740   0.00822   0.00841

  Beta  occ. eigenvalues --  -38.44603 -38.44016 -38.43834 -38.43611 -38.43430
  Beta  occ. eigenvalues --  -38.43280 -38.43151  -2.20355  -2.19915  -2.19619
  Beta  occ. eigenvalues --   -2.19420  -2.19333  -2.19158  -2.18993  -1.14028
  Beta  occ. eigenvalues --   -1.14005  -1.13998  -1.13613  -1.13571  -1.13539
  Beta  occ. eigenvalues --   -1.13290  -1.13282  -1.13258  -1.13148  -1.13106
  Beta  occ. eigenvalues --   -1.13077  -1.13069  -1.13032  -1.12979  -1.12830
  Beta  occ. eigenvalues --   -1.12811  -1.12770  -1.12676  -1.12646  -1.12616
  Beta  occ. eigenvalues --   -0.17762  -0.12842  -0.11886
  Beta virt. eigenvalues --   -0.06937  -0.05947  -0.05200  -0.04434  -0.02510
  Beta virt. eigenvalues --   -0.02078  -0.01700  -0.01549  -0.01031  -0.00491
  Beta virt. eigenvalues --   -0.00434   0.00105   0.00366   0.00800   0.00865

 Mulliken charges and spin densities:
               1          2
     1  Na  -0.076684   0.470074
     2  Na  -0.101388  -0.071980
     3  Na  -0.056934  -0.046531
     4  Na   0.174150   0.022752
     5  Na   0.463409   0.050091
     6  Na  -0.276163   0.685841
     7  Na  -0.126390  -0.110247
 Sum of Mulliken charges =  -0.00000   1.00000

 Dipole moment (field-independent basis, Debye):
    X=              0.2611    Y=              0.0787    Z=              0.1144  Tot=              0.2958
 Quadrupole moment (field-independent basis, Debye-Ang):
   XX=            -55.0695   YY=            -64.4324   ZZ=            -74.0858
   XY=              0.4254   XZ=             -0.2361   YZ=              0.2550

 Normal termination of Gaussian 16 at Thu Dec  7 19:56:04 2023.
