 Gaussian 16, Revision B.01,
 Gaussian 16:  ES64L-G16RevB.01 20-Dec-2017

 -------------------------
 #P B3LYP/6-311+g(d) force
 -------------------------

 -----
 DPGEN
 -----
 Symbolic Z-matrix:
 Charge =  0 Multiplicity = 2

                         Standard orientation:
 ---------------------------------------------------------------------
 Center     Atomic      Atomic             Coordinates (Angstroms)
 Number     Number       Type             X           Y           Z
 ---------------------------------------------------------------------
      1         11           0       -0.059245   -2.020417   -0.078194
      2         11           0       -0.039028    0.234923   -1.647670
      3         11           0       -1.610637    1.857391    0.036059
      4         11           0       -2.583525   -0.864266   -0.052047
      5         11           0        0.023418    0.029522    1.817937
      6         11           0        2.502158   -0.952451   -0.072710
      7         11           0        1.766860    1.715299   -0.003375
 ---------------------------------------------------------------------

 SCF Done:  E(UB3LYP) =  -1136.08794942     A.U. after   19 cycles

 The electronic state is 2-A.
 Alpha  occ. eigenvalues --  -38.44060 -38.44025 -38.43938 -38.43913 -38.43553
 Alpha  occ. eigenvalues --  -38.43387 -38.43372  -2.20213  -2.20142  -2.20092
 Alpha  occ. eigenvalues --   -2.20081  -2.19634  -2.19585  -2.19455  -1.14117
 Alpha  occ. eigenvalues --   -1.14024  -1.13992  -1.13958  -1.13893  -1.13852
 Alpha  occ. eigenvalues --   -1.13797  -1.13777  -1.13754  -1.13715  -1.13686
 Alpha  occ. eigenvalues --   -1.13645  -1.13266  -1.13252  -1.13199  -1.13169
 Alpha  occ. eigenvalues --   -1.13150  -1.13114  -1.13104  -1.13086  -1.13024
 Alpha  occ. eigenvalues --   -0.21422  -0.14210  -0.12618  -0.11980
 Alpha virt. eigenvalues --   -0.05489  -0.04578  -0.03818  -0.03784  -0.02910
 Alpha virt. eigenvalues --   -0.02639  -0.01360  -0.00556  -0.00046   0.00333
 Alpha virt. eigenvalues --    0.00611   0.00701   0.00939   0.01101   0.01121

  Beta  occ. eigenvalues --  -38.44051 -38.44017 -38.43851 -38.43816 -38.43541
  Beta  occ. eigenvalues --  -38.43375 -38.43351  -2.20132  -2.20074  -2.20054
  Beta  occ. eigenvalues --   -2.19917  -2.19618  -2.19556  -2.19440  -1.14059
  Beta  occ. eigenvalues --   -1.13999  -1.13963  -1.13877  -1.13819  -1.13798
  Beta  occ. eigenvalues --   -1.13736  -1.13731  -1.13654  -1.13635  -1.13624
  Beta  occ. eigenvalues --   -1.13544  -1.13247  -1.13196  -1.13187  -1.13144
  Beta  occ. eigenvalues --   -1.13104  -1.13095  -1.13058  -1.13022  -1.13019
  Beta  occ. eigenvalues --   -0.20601  -0.13834  -0.12268
  Beta virt. eigenvalues --   -0.07808  -0.05515  -0.04565  -0.03781  -0.02799
  Beta virt. eigenvalues --   -0.02020  -0.01573  -0.01271  -0.00521   0.00094
  Beta virt. eigenvalues --    0.00361   0.00578   0.00677   0.00973   0.01109

 Mulliken charges and spin densities:
               1          2
     1  Na   0.321030   0.129012
     2  Na  -0.322836   0.387669
     3  Na   0.168641   0.013200
     4  Na  -0.004778  -0.045586
     5  Na  -0.368064   0.516796
     6  Na  -0.003324  -0.027387
     7  Na   0.209330   0.026296
 Sum of Mulliken charges =  -0.00000   1.00000

 Dipole moment (field-independent basis, Debye):
    X=             -0.0639    Y=              0.2305    Z=              0.2158  Tot=              0.3221
 Quadrupole moment (field-independent basis, Debye-Ang):
   XX=            -56.6054   YY=            -70.2807   ZZ=            -69.9277
   XY=             -0.0238   XZ=             -0.1207   YZ=              0.4308

 Normal termination of Gaussian 16 at Sat Dec  9 06:36:40 2023.
