 Gaussian 16, Revision B.01,
 Gaussian 16:  ES64L-G16RevB.01 20-Dec-2017

 -------------------------
 #P B3LYP/6-311+g(d) force
 -------------------------

 -----
 DPGEN
 -----
 Symbolic Z-matrix:
 Charge =  0 Multiplicity = 2

                         Standard orientation:
 ---------------------------------------------------------------------
 Center     Atomic      Atomic             Coordinates (Angstroms)
 Number     Number       Type             X           Y           Z
 ---------------------------------------------------------------------
      1         11           0        1.830496    2.378995   -0.276118
      2         11           0       -3.117962   -1.078031    0.012461
      3         11           0        0.152110   -0.178894   -1.458906
      4         11           0       -0.033357   -2.714449    0.143479
      5         11           0        3.081270   -0.974287   -0.342761
      6         11           0       -2.414585    2.079751   -0.295653
      7         11           0        0.502028    0.486915    2.217497
 ---------------------------------------------------------------------

 SCF Done:  E(UB3LYP) =  -1136.13246677     A.U. after   19 cycles

 The electronic state is 2-A.
 Alpha  occ. eigenvalues --  -38.44427 -38.44134 -38.43918 -38.43706 -38.43607
 Alpha  occ. eigenvalues --  -38.43262 -38.42992  -2.20269  -2.19959  -2.19724
 Alpha  occ. eigenvalues --   -2.19563  -2.19455  -2.19276  -2.18874  -1.13959
 Alpha  occ. eigenvalues --   -1.13922  -1.13898  -1.13639  -1.13625  -1.13608
 Alpha  occ. eigenvalues --   -1.13395  -1.13382  -1.13356  -1.13225  -1.13199
 Alpha  occ. eigenvalues --   -1.13182  -1.13155  -1.13105  -1.13080  -1.13013
 Alpha  occ. eigenvalues --   -1.12927  -1.12888  -1.12565  -1.12522  -1.12484
 Alpha  occ. eigenvalues --   -0.18480  -0.13358  -0.12114  -0.10695
 Alpha virt. eigenvalues --   -0.05975  -0.05525  -0.04263  -0.03200  -0.02866
 Alpha virt. eigenvalues --   -0.02481  -0.01846  -0.01162  -0.00554  -0.00282
 Alpha virt. eigenvalues --   -0.00046   0.00310   0.00723   0.00824   0.00887

  Beta  occ. eigenvalues --  -38.44416 -38.44135 -38.43915 -38.43600 -38.43599
  Beta  occ. eigenvalues --  -38.43215 -38.42986  -2.20251  -2.19962  -2.19720
  Beta  occ. eigenvalues --   -2.19445  -2.19365  -2.19191  -2.18866  -1.13938
  Beta  occ. eigenvalues --   -1.13895  -1.13890  -1.13643  -1.13618  -1.13609
  Beta  occ. eigenvalues --   -1.13382  -1.13379  -1.13354  -1.13157  -1.13109
  Beta  occ. eigenvalues --   -1.13078  -1.13072  -1.13046  -1.13028  -1.12952
  Beta  occ. eigenvalues --   -1.12873  -1.12820  -1.12554  -1.12494  -1.12481
  Beta  occ. eigenvalues --   -0.17787  -0.13148  -0.11894
  Beta virt. eigenvalues --   -0.06737  -0.05903  -0.05498  -0.04229  -0.02508
  Beta virt. eigenvalues --   -0.02037  -0.01755  -0.01456  -0.01109  -0.00592
  Beta virt. eigenvalues --   -0.00301   0.00136   0.00360   0.00802   0.00827

 Mulliken charges and spin densities:
               1          2
     1  Na   0.206812  -0.035913
     2  Na   0.014501  -0.002957
     3  Na  -0.346470   0.162864
     4  Na   0.172365   0.089440
     5  Na   0.433312   0.086033
     6  Na   0.156369  -0.024990
     7  Na  -0.636889   0.725524
 Sum of Mulliken charges =  -0.00000   1.00000

 Dipole moment (field-independent basis, Debye):
    X=              0.1609    Y=              0.0842    Z=              0.1463  Tot=              0.2332
 Quadrupole moment (field-independent basis, Debye-Ang):
   XX=            -53.4552   YY=            -65.2250   ZZ=            -74.8200
   XY=             -0.1434   XZ=             -0.9815   YZ=             -1.5111

 Normal termination of Gaussian 16 at Thu Dec  7 02:37:05 2023.
