 Gaussian 16, Revision B.01,
 Gaussian 16:  ES64L-G16RevB.01 20-Dec-2017

 -------------------------
 #P B3LYP/6-311+g(d) force
 -------------------------

 -----
 DPGEN
 -----
 Symbolic Z-matrix:
 Charge =  0 Multiplicity = 2

                         Standard orientation:
 ---------------------------------------------------------------------
 Center     Atomic      Atomic             Coordinates (Angstroms)
 Number     Number       Type             X           Y           Z
 ---------------------------------------------------------------------
      1         11           0        0.252073   -0.054745   -1.624465
      2         11           0        3.049249    1.516834    0.298863
      3         11           0        2.911416   -1.399332   -0.030664
      4         11           0       -1.365964    2.409612   -0.400287
      5         11           0       -3.602317    0.077829    0.390008
      6         11           0       -1.291918   -2.355923   -0.284274
      7         11           0        0.047460   -0.194275    1.650819
 ---------------------------------------------------------------------

 SCF Done:  E(UB3LYP) =  -1136.12144668     A.U. after   23 cycles

 The electronic state is 2-A.
 Alpha  occ. eigenvalues --  -38.45142 -38.44618 -38.44462 -38.44327 -38.42945
 Alpha  occ. eigenvalues --  -38.42811 -38.42715  -2.20960  -2.20507  -2.20314
 Alpha  occ. eigenvalues --   -2.20254  -2.18972  -2.18676  -2.18624  -1.14628
 Alpha  occ. eigenvalues --   -1.14610  -1.14595  -1.14293  -1.14166  -1.14140
 Alpha  occ. eigenvalues --   -1.13981  -1.13964  -1.13935  -1.13930  -1.13895
 Alpha  occ. eigenvalues --   -1.13857  -1.12681  -1.12625  -1.12598  -1.12353
 Alpha  occ. eigenvalues --   -1.12331  -1.12308  -1.12304  -1.12284  -1.12235
 Alpha  occ. eigenvalues --   -0.18889  -0.14215  -0.11484  -0.10504
 Alpha virt. eigenvalues --   -0.06992  -0.05368  -0.03888  -0.03368  -0.02732
 Alpha virt. eigenvalues --   -0.02293  -0.02101  -0.01284  -0.00476  -0.00110
 Alpha virt. eigenvalues --   -0.00033   0.00209   0.00596   0.00673   0.00812

  Beta  occ. eigenvalues --  -38.45126 -38.44610 -38.44453 -38.44287 -38.42851
  Beta  occ. eigenvalues --  -38.42798 -38.42707  -2.20929  -2.20496  -2.20301
  Beta  occ. eigenvalues --   -2.20179  -2.18801  -2.18656  -2.18613  -1.14601
  Beta  occ. eigenvalues --   -1.14588  -1.14575  -1.14289  -1.14143  -1.14122
  Beta  occ. eigenvalues --   -1.13948  -1.13927  -1.13919  -1.13909  -1.13846
  Beta  occ. eigenvalues --   -1.13799  -1.12576  -1.12505  -1.12482  -1.12330
  Beta  occ. eigenvalues --   -1.12306  -1.12298  -1.12281  -1.12256  -1.12210
  Beta  occ. eigenvalues --   -0.18217  -0.13904  -0.11210
  Beta virt. eigenvalues --   -0.06939  -0.06605  -0.05358  -0.03632  -0.02878
  Beta virt. eigenvalues --   -0.02529  -0.01600  -0.01268  -0.01175  -0.00429
  Beta virt. eigenvalues --   -0.00044   0.00060   0.00264   0.00708   0.00803

 Mulliken charges and spin densities:
               1          2
     1  Na  -0.203574   0.335436
     2  Na  -0.021230   0.081590
     3  Na   0.468040   0.059153
     4  Na   0.055340   0.042446
     5  Na   0.002329   0.091876
     6  Na   0.180552   0.072648
     7  Na  -0.481457   0.316851
 Sum of Mulliken charges =  -0.00000   1.00000

 Dipole moment (field-independent basis, Debye):
    X=              0.2177    Y=             -0.1620    Z=              0.1796  Tot=              0.3254
 Quadrupole moment (field-independent basis, Debye-Ang):
   XX=            -47.9875   YY=            -70.4815   ZZ=            -74.5564
   XY=              0.5561   XZ=             -0.4429   YZ=              0.8976

 Normal termination of Gaussian 16 at Thu Dec  7 16:43:39 2023.
