 Gaussian 16, Revision B.01,
 Gaussian 16:  ES64L-G16RevB.01 20-Dec-2017

 -------------------------
 #P B3LYP/6-311+g(d) force
 -------------------------

 -----
 DPGEN
 -----
 Symbolic Z-matrix:
 Charge =  0 Multiplicity = 2

                         Standard orientation:
 ---------------------------------------------------------------------
 Center     Atomic      Atomic             Coordinates (Angstroms)
 Number     Number       Type             X           Y           Z
 ---------------------------------------------------------------------
      1         11           0       -4.124367   -1.477927    0.013351
      2         11           0        2.666164    2.432702   -0.542327
      3         11           0        2.390083   -3.154239   -0.231083
      4         11           0       -0.406943    4.121671   -0.295879
      5         11           0        4.071553   -0.576465    0.814308
      6         11           0       -1.467110   -3.146031   -0.376865
      7         11           0       -3.129379    1.800288    0.618494
 ---------------------------------------------------------------------

 SCF Done:  E(UB3LYP) =  -1136.10728203     A.U. after   39 cycles

 The electronic state is 2-A.
 Alpha  occ. eigenvalues --  -38.45038 -38.44896 -38.44875 -38.44749 -38.44380
 Alpha  occ. eigenvalues --  -38.44184 -38.43970  -2.20828  -2.20680  -2.20621
 Alpha  occ. eigenvalues --   -2.20554  -2.20182  -2.19972  -2.19764  -1.14507
 Alpha  occ. eigenvalues --   -1.14495  -1.14484  -1.14342  -1.14331  -1.14308
 Alpha  occ. eigenvalues --   -1.14305  -1.14296  -1.14268  -1.14245  -1.14220
 Alpha  occ. eigenvalues --   -1.14210  -1.13836  -1.13826  -1.13813  -1.13634
 Alpha  occ. eigenvalues --   -1.13622  -1.13594  -1.13421  -1.13408  -1.13385
 Alpha  occ. eigenvalues --   -0.15600  -0.14116  -0.13446  -0.10468
 Alpha virt. eigenvalues --   -0.08143  -0.04814  -0.04582  -0.03618  -0.03365
 Alpha virt. eigenvalues --   -0.02395  -0.02178  -0.01981  -0.01635  -0.00670
 Alpha virt. eigenvalues --   -0.00560   0.00002   0.00104   0.00227   0.00606

  Beta  occ. eigenvalues --  -38.45025 -38.44887 -38.44869 -38.44746 -38.44330
  Beta  occ. eigenvalues --  -38.44125 -38.43893  -2.20808  -2.20647  -2.20633
  Beta  occ. eigenvalues --   -2.20555  -2.20090  -2.19863  -2.19621  -1.14486
  Beta  occ. eigenvalues --   -1.14484  -1.14451  -1.14331  -1.14318  -1.14312
  Beta  occ. eigenvalues --   -1.14301  -1.14260  -1.14249  -1.14237  -1.14227
  Beta  occ. eigenvalues --   -1.14180  -1.13774  -1.13767  -1.13745  -1.13560
  Beta  occ. eigenvalues --   -1.13549  -1.13521  -1.13323  -1.13311  -1.13293
  Beta  occ. eigenvalues --   -0.15081  -0.13434  -0.12776
  Beta virt. eigenvalues --   -0.08259  -0.07330  -0.04359  -0.04138  -0.03360
  Beta virt. eigenvalues --   -0.03001  -0.02178  -0.02068  -0.01815  -0.01540
  Beta virt. eigenvalues --   -0.00382  -0.00277   0.00070   0.00227   0.00416

 Mulliken charges and spin densities:
               1          2
     1  Na   0.601435  -0.016364
     2  Na  -0.451747   0.269787
     3  Na  -0.091988   0.186127
     4  Na   0.563576  -0.050582
     5  Na  -0.061009   0.053007
     6  Na  -0.161564   0.214926
     7  Na  -0.398704   0.343099
 Sum of Mulliken charges =  -0.00000   1.00000

 Dipole moment (field-independent basis, Debye):
    X=              0.4857    Y=             -0.5081    Z=              0.0374  Tot=              0.7039
 Quadrupole moment (field-independent basis, Debye-Ang):
   XX=            -61.3361   YY=            -66.1252   ZZ=            -72.7364
   XY=             -0.0866   XZ=              1.5234   YZ=              0.7955

 Normal termination of Gaussian 16 at Sun Dec  3 12:27:20 2023.
