 Gaussian 16, Revision B.01,
 Gaussian 16:  ES64L-G16RevB.01 20-Dec-2017

 -------------------------
 #P B3LYP/6-311+g(d) force
 -------------------------

 -----
 DPGEN
 -----
 Symbolic Z-matrix:
 Charge =  0 Multiplicity = 2

                         Standard orientation:
 ---------------------------------------------------------------------
 Center     Atomic      Atomic             Coordinates (Angstroms)
 Number     Number       Type             X           Y           Z
 ---------------------------------------------------------------------
      1         11           0        0.050797    2.834276    0.010457
      2         11           0       -2.869737    0.782258    0.074566
      3         11           0       -1.755267   -1.994350   -0.254624
      4         11           0       -0.026486   -0.400722    1.846367
      5         11           0        1.792107   -2.171298   -0.107101
      6         11           0        0.014856    0.062153   -1.580704
      7         11           0        2.793729    0.887683    0.011040
 ---------------------------------------------------------------------

 SCF Done:  E(UB3LYP) =  -1136.13362702     A.U. after   19 cycles

 The electronic state is 2-A.
 Alpha  occ. eigenvalues --  -38.43848 -38.43781 -38.43376 -38.43294 -38.43253
 Alpha  occ. eigenvalues --  -38.43160 -38.42961  -2.19752  -2.19680  -2.19365
 Alpha  occ. eigenvalues --   -2.19252  -2.19228  -2.19058  -2.19036  -1.13488
 Alpha  occ. eigenvalues --   -1.13402  -1.13392  -1.13373  -1.13339  -1.13329
 Alpha  occ. eigenvalues --   -1.13126  -1.13053  -1.12987  -1.12955  -1.12915
 Alpha  occ. eigenvalues --   -1.12900  -1.12855  -1.12847  -1.12819  -1.12785
 Alpha  occ. eigenvalues --   -1.12712  -1.12690  -1.12671  -1.12657  -1.12630
 Alpha  occ. eigenvalues --   -0.19641  -0.13482  -0.12643  -0.10867
 Alpha virt. eigenvalues --   -0.05505  -0.04945  -0.04553  -0.03283  -0.02789
 Alpha virt. eigenvalues --   -0.02355  -0.01419  -0.00963  -0.00087   0.00009
 Alpha virt. eigenvalues --    0.00043   0.00367   0.00864   0.00957   0.00965

  Beta  occ. eigenvalues --  -38.43843 -38.43777 -38.43362 -38.43285 -38.43166
  Beta  occ. eigenvalues --  -38.43157 -38.42888  -2.19747  -2.19675  -2.19345
  Beta  occ. eigenvalues --   -2.19218  -2.19092  -2.19034  -2.18926  -1.13488
  Beta  occ. eigenvalues --   -1.13392  -1.13370  -1.13368  -1.13331  -1.13308
  Beta  occ. eigenvalues --   -1.13103  -1.12987  -1.12970  -1.12932  -1.12866
  Beta  occ. eigenvalues --   -1.12845  -1.12809  -1.12759  -1.12741  -1.12727
  Beta  occ. eigenvalues --   -1.12674  -1.12665  -1.12628  -1.12571  -1.12551
  Beta  occ. eigenvalues --   -0.18888  -0.13196  -0.12375
  Beta virt. eigenvalues --   -0.06875  -0.05493  -0.04946  -0.04541  -0.02415
  Beta virt. eigenvalues --   -0.02003  -0.01339  -0.01282  -0.00906  -0.00130
  Beta virt. eigenvalues --   -0.00032   0.00159   0.00393   0.00915   0.00950

 Mulliken charges and spin densities:
               1          2
     1  Na   0.077180  -0.082628
     2  Na   0.076772  -0.032423
     3  Na   0.582918   0.008582
     4  Na  -0.665030   0.719022
     5  Na   0.469355  -0.032954
     6  Na  -0.623673   0.472116
     7  Na   0.082477  -0.051716
 Sum of Mulliken charges =  -0.00000   1.00000

 Dipole moment (field-independent basis, Debye):
    X=              0.0507    Y=              0.1206    Z=              0.1963  Tot=              0.2359
 Quadrupole moment (field-independent basis, Debye-Ang):
   XX=            -56.3158   YY=            -63.1966   ZZ=            -74.0788
   XY=             -0.6851   XZ=             -0.0223   YZ=              1.0866

 Normal termination of Gaussian 16 at Tue Nov 28 19:57:48 2023.
