 Gaussian 16, Revision B.01,
 Gaussian 16:  ES64L-G16RevB.01 20-Dec-2017

 -------------------------
 #P B3LYP/6-311+g(d) force
 -------------------------

 -----
 DPGEN
 -----
 Symbolic Z-matrix:
 Charge =  0 Multiplicity = 2

                         Standard orientation:
 ---------------------------------------------------------------------
 Center     Atomic      Atomic             Coordinates (Angstroms)
 Number     Number       Type             X           Y           Z
 ---------------------------------------------------------------------
      1         11           0        2.865140   -1.379730   -0.756101
      2         11           0       -2.557793   -0.822385    1.020919
      3         11           0       -0.411277   -2.776571   -0.390872
      4         11           0       -3.255596    1.746108   -0.570003
      5         11           0        1.309053    0.083307    2.022608
      6         11           0       -0.150948    0.276154   -1.289667
      7         11           0        2.201421    2.873118   -0.036884
 ---------------------------------------------------------------------

 SCF Done:  E(UB3LYP) =  -1136.12553553     A.U. after   22 cycles

 The electronic state is 2-A.
 Alpha  occ. eigenvalues --  -38.44658 -38.44150 -38.44110 -38.43908 -38.43675
 Alpha  occ. eigenvalues --  -38.43370 -38.43282  -2.20478  -2.19970  -2.19869
 Alpha  occ. eigenvalues --   -2.19757  -2.19574  -2.19321  -2.19158  -1.14159
 Alpha  occ. eigenvalues --   -1.14137  -1.14092  -1.13668  -1.13621  -1.13608
 Alpha  occ. eigenvalues --   -1.13545  -1.13536  -1.13512  -1.13431  -1.13409
 Alpha  occ. eigenvalues --   -1.13349  -1.13259  -1.13229  -1.13201  -1.13041
 Alpha  occ. eigenvalues --   -1.12995  -1.12938  -1.12831  -1.12807  -1.12779
 Alpha  occ. eigenvalues --   -0.18141  -0.13467  -0.11871  -0.10567
 Alpha virt. eigenvalues --   -0.06472  -0.05462  -0.04317  -0.03436  -0.02627
 Alpha virt. eigenvalues --   -0.02399  -0.02020  -0.01366  -0.00585  -0.00176
 Alpha virt. eigenvalues --   -0.00132   0.00299   0.00402   0.00641   0.00821

  Beta  occ. eigenvalues --  -38.44635 -38.44139 -38.44117 -38.43833 -38.43651
  Beta  occ. eigenvalues --  -38.43328 -38.43275  -2.20436  -2.19951  -2.19884
  Beta  occ. eigenvalues --   -2.19617  -2.19532  -2.19246  -2.19148  -1.14116
  Beta  occ. eigenvalues --   -1.14108  -1.14063  -1.13657  -1.13601  -1.13596
  Beta  occ. eigenvalues --   -1.13547  -1.13542  -1.13521  -1.13336  -1.13314
  Beta  occ. eigenvalues --   -1.13247  -1.13234  -1.13202  -1.13153  -1.12991
  Beta  occ. eigenvalues --   -1.12937  -1.12881  -1.12819  -1.12781  -1.12761
  Beta  occ. eigenvalues --   -0.17471  -0.13261  -0.11624
  Beta virt. eigenvalues --   -0.06863  -0.06356  -0.05249  -0.04004  -0.03015
  Beta virt. eigenvalues --   -0.02055  -0.01911  -0.01574  -0.01168  -0.00482
  Beta virt. eigenvalues --   -0.00142   0.00049   0.00348   0.00504   0.00680

 Mulliken charges and spin densities:
               1          2
     1  Na   0.501507   0.016608
     2  Na   0.079326   0.198361
     3  Na   0.059872   0.129396
     4  Na   0.051039   0.070514
     5  Na  -0.393449   0.534735
     6  Na  -0.119342   0.098710
     7  Na  -0.178953  -0.048324
 Sum of Mulliken charges =  -0.00000   1.00000

 Dipole moment (field-independent basis, Debye):
    X=              0.4617    Y=              0.1599    Z=             -0.0226  Tot=              0.4892
 Quadrupole moment (field-independent basis, Debye-Ang):
   XX=            -55.6245   YY=            -63.9844   ZZ=            -73.4636
   XY=             -1.6135   XZ=             -1.7635   YZ=             -1.3723

 Normal termination of Gaussian 16 at Tue Dec  5 22:58:46 2023.
