 Gaussian 16, Revision B.01,
 Gaussian 16:  ES64L-G16RevB.01 20-Dec-2017

 -------------------------
 #P B3LYP/6-311+g(d) force
 -------------------------

 -----
 DPGEN
 -----
 Symbolic Z-matrix:
 Charge =  0 Multiplicity = 2

                         Standard orientation:
 ---------------------------------------------------------------------
 Center     Atomic      Atomic             Coordinates (Angstroms)
 Number     Number       Type             X           Y           Z
 ---------------------------------------------------------------------
      1         11           0        1.116751    2.362231    0.269566
      2         11           0       -2.016415    2.678430   -0.583078
      3         11           0       -3.189554   -0.862243   -0.914886
      4         11           0       -1.019630   -0.255998    1.647115
      5         11           0        2.415417   -0.455534    1.122856
      6         11           0       -1.055677   -2.882469   -0.073253
      7         11           0        3.749107   -0.584417   -1.468321
 ---------------------------------------------------------------------

 SCF Done:  E(UB3LYP) =  -1136.12270910     A.U. after   20 cycles

 The electronic state is 2-A.
 Alpha  occ. eigenvalues --  -38.44202 -38.44165 -38.44122 -38.44047 -38.43884
 Alpha  occ. eigenvalues --  -38.43555 -38.43313  -2.20071  -2.20014  -2.19983
 Alpha  occ. eigenvalues --   -2.19893  -2.19821  -2.19477  -2.19129  -1.13819
 Alpha  occ. eigenvalues --   -1.13746  -1.13738  -1.13706  -1.13680  -1.13633
 Alpha  occ. eigenvalues --   -1.13626  -1.13625  -1.13589  -1.13573  -1.13568
 Alpha  occ. eigenvalues --   -1.13523  -1.13499  -1.13463  -1.13419  -1.13143
 Alpha  occ. eigenvalues --   -1.13134  -1.13106  -1.12803  -1.12779  -1.12775
 Alpha  occ. eigenvalues --   -0.17788  -0.14105  -0.12345  -0.10774
 Alpha virt. eigenvalues --   -0.05900  -0.05401  -0.04640  -0.04080  -0.02721
 Alpha virt. eigenvalues --   -0.02210  -0.01518  -0.00998  -0.00745  -0.00508
 Alpha virt. eigenvalues --   -0.00264   0.00350   0.00426   0.00531   0.00628

  Beta  occ. eigenvalues --  -38.44166 -38.44119 -38.44090 -38.44044 -38.43826
  Beta  occ. eigenvalues --  -38.43541 -38.43304  -2.20005  -2.19979  -2.19890
  Beta  occ. eigenvalues --   -2.19875  -2.19718  -2.19460  -2.19112  -1.13792
  Beta  occ. eigenvalues --   -1.13695  -1.13660  -1.13660  -1.13652  -1.13622
  Beta  occ. eigenvalues --   -1.13578  -1.13570  -1.13546  -1.13538  -1.13530
  Beta  occ. eigenvalues --   -1.13519  -1.13435  -1.13370  -1.13351  -1.13134
  Beta  occ. eigenvalues --   -1.13114  -1.13044  -1.12793  -1.12769  -1.12755
  Beta  occ. eigenvalues --   -0.17163  -0.13609  -0.12148
  Beta virt. eigenvalues --   -0.07221  -0.05675  -0.05111  -0.04077  -0.03970
  Beta virt. eigenvalues --   -0.02299  -0.01537  -0.01346  -0.00850  -0.00745
  Beta virt. eigenvalues --   -0.00332   0.00040   0.00498   0.00574   0.00624

 Mulliken charges and spin densities:
               1          2
     1  Na  -0.484702   0.089484
     2  Na  -0.228524   0.143017
     3  Na  -0.099000   0.306256
     4  Na   1.250654  -0.016718
     5  Na   0.214806   0.031261
     6  Na  -0.564927   0.089587
     7  Na  -0.088307   0.357113
 Sum of Mulliken charges =  -0.00000   1.00000

 Dipole moment (field-independent basis, Debye):
    X=             -0.3833    Y=             -0.4309    Z=             -0.3795  Tot=              0.6904
 Quadrupole moment (field-independent basis, Debye-Ang):
   XX=            -66.0411   YY=            -66.1894   ZZ=            -67.8198
   XY=              0.9647   XZ=              0.0890   YZ=              0.8851

 Normal termination of Gaussian 16 at Tue Nov 28 21:25:28 2023.
