 Gaussian 16, Revision B.01,
 Gaussian 16:  ES64L-G16RevB.01 20-Dec-2017

 -------------------------
 #P B3LYP/6-311+g(d) force
 -------------------------

 -----
 DPGEN
 -----
 Symbolic Z-matrix:
 Charge =  0 Multiplicity = 2

                         Standard orientation:
 ---------------------------------------------------------------------
 Center     Atomic      Atomic             Coordinates (Angstroms)
 Number     Number       Type             X           Y           Z
 ---------------------------------------------------------------------
      1         11           0        1.352714   -3.070494   -0.792727
      2         11           0       -2.564821    2.794602   -0.997611
      3         11           0        0.528463    2.993395   -0.388345
      4         11           0        3.934236    1.553406    1.375138
      5         11           0        3.658411   -1.294827   -0.489469
      6         11           0       -2.667132   -2.704804    0.370996
      7         11           0       -4.241872   -0.271279    0.922017
 ---------------------------------------------------------------------

 SCF Done:  E(UB3LYP) =  -1136.10534350     A.U. after   19 cycles

 The electronic state is 2-A.
 Alpha  occ. eigenvalues --  -38.44730 -38.44716 -38.44557 -38.44517 -38.44465
 Alpha  occ. eigenvalues --  -38.44365 -38.44129  -2.20550  -2.20517  -2.20359
 Alpha  occ. eigenvalues --   -2.20304  -2.20284  -2.20197  -2.19931  -1.14327
 Alpha  occ. eigenvalues --   -1.14197  -1.14172  -1.14168  -1.14157  -1.14138
 Alpha  occ. eigenvalues --   -1.14121  -1.14010  -1.13998  -1.13971  -1.13968
 Alpha  occ. eigenvalues --   -1.13963  -1.13961  -1.13940  -1.13934  -1.13824
 Alpha  occ. eigenvalues --   -1.13812  -1.13774  -1.13586  -1.13577  -1.13559
 Alpha  occ. eigenvalues --   -0.15669  -0.14233  -0.13168  -0.11284
 Alpha virt. eigenvalues --   -0.07115  -0.04953  -0.04330  -0.03644  -0.03607
 Alpha virt. eigenvalues --   -0.02270  -0.02103  -0.01680  -0.01403  -0.01087
 Alpha virt. eigenvalues --   -0.00831  -0.00133  -0.00079   0.00505   0.00712

  Beta  occ. eigenvalues --  -38.44703 -38.44622 -38.44547 -38.44513 -38.44457
  Beta  occ. eigenvalues --  -38.44299 -38.44093  -2.20503  -2.20346  -2.20342
  Beta  occ. eigenvalues --   -2.20300  -2.20282  -2.20077  -2.19866  -1.14289
  Beta  occ. eigenvalues --   -1.14167  -1.14139  -1.14080  -1.14041  -1.14038
  Beta  occ. eigenvalues --   -1.14022  -1.14004  -1.13991  -1.13966  -1.13965
  Beta  occ. eigenvalues --   -1.13964  -1.13937  -1.13922  -1.13910  -1.13744
  Beta  occ. eigenvalues --   -1.13734  -1.13698  -1.13542  -1.13534  -1.13512
  Beta  occ. eigenvalues --   -0.15093  -0.13515  -0.12410
  Beta virt. eigenvalues --   -0.08116  -0.07232  -0.04417  -0.03947  -0.03436
  Beta virt. eigenvalues --   -0.03291  -0.02064  -0.01887  -0.01460  -0.01030
  Beta virt. eigenvalues --   -0.00883  -0.00553   0.00069   0.00135   0.00505

 Mulliken charges and spin densities:
               1          2
     1  Na   0.383246   0.295854
     2  Na   0.095049   0.100944
     3  Na  -0.278280   0.052975
     4  Na   0.111905   0.408609
     5  Na  -0.262858   0.018655
     6  Na  -0.108034   0.045567
     7  Na   0.058974   0.077396
 Sum of Mulliken charges =  -0.00000   1.00000

 Dipole moment (field-independent basis, Debye):
    X=             -0.3648    Y=              0.0500    Z=              0.2915  Tot=              0.4697
 Quadrupole moment (field-independent basis, Debye-Ang):
   XX=            -59.9335   YY=            -70.2925   ZZ=            -71.2407
   XY=             -0.9815   XZ=              0.9733   YZ=              2.0126

 Normal termination of Gaussian 16 at Mon Dec  4 04:53:52 2023.
