 Gaussian 16, Revision B.01,
 Gaussian 16:  ES64L-G16RevB.01 20-Dec-2017

 -------------------------
 #P B3LYP/6-311+g(d) force
 -------------------------

 -----
 DPGEN
 -----
 Symbolic Z-matrix:
 Charge =  0 Multiplicity = 2

                         Standard orientation:
 ---------------------------------------------------------------------
 Center     Atomic      Atomic             Coordinates (Angstroms)
 Number     Number       Type             X           Y           Z
 ---------------------------------------------------------------------
      1         11           0       -2.523680   -1.551067    1.532126
      2         11           0        0.810793    0.315546    1.488526
      3         11           0       -2.301926    0.070419   -1.448009
      4         11           0        0.082412   -2.602769   -0.841051
      5         11           0       -1.275961    3.120852    0.293206
      6         11           0        4.149756   -0.160618    0.276528
      7         11           0        1.058606    0.807637   -1.301326
 ---------------------------------------------------------------------

 SCF Done:  E(UB3LYP) =  -1136.12655642     A.U. after   19 cycles

 The electronic state is 2-A.
 Alpha  occ. eigenvalues --  -38.44687 -38.43988 -38.43975 -38.43856 -38.43813
 Alpha  occ. eigenvalues --  -38.43512 -38.43029  -2.20453  -2.19893  -2.19852
 Alpha  occ. eigenvalues --   -2.19677  -2.19628  -2.19473  -2.18825  -1.14131
 Alpha  occ. eigenvalues --   -1.14115  -1.14077  -1.13754  -1.13555  -1.13525
 Alpha  occ. eigenvalues --   -1.13516  -1.13468  -1.13455  -1.13340  -1.13323
 Alpha  occ. eigenvalues --   -1.13314  -1.13301  -1.13285  -1.13236  -1.13180
 Alpha  occ. eigenvalues --   -1.13106  -1.13028  -1.12494  -1.12489  -1.12464
 Alpha  occ. eigenvalues --   -0.18170  -0.12993  -0.11734  -0.10940
 Alpha virt. eigenvalues --   -0.06477  -0.04817  -0.04304  -0.03368  -0.02691
 Alpha virt. eigenvalues --   -0.02439  -0.02259  -0.01059  -0.00798  -0.00109
 Alpha virt. eigenvalues --    0.00166   0.00222   0.00354   0.00754   0.00826

  Beta  occ. eigenvalues --  -38.44689 -38.43957 -38.43932 -38.43806 -38.43791
  Beta  occ. eigenvalues --  -38.43475 -38.43029  -2.20456  -2.19816  -2.19799
  Beta  occ. eigenvalues --   -2.19591  -2.19583  -2.19408  -2.18827  -1.14130
  Beta  occ. eigenvalues --   -1.14116  -1.14080  -1.13696  -1.13498  -1.13481
  Beta  occ. eigenvalues --   -1.13463  -1.13422  -1.13409  -1.13289  -1.13274
  Beta  occ. eigenvalues --   -1.13256  -1.13246  -1.13237  -1.13207  -1.13138
  Beta  occ. eigenvalues --   -1.13031  -1.12984  -1.12492  -1.12485  -1.12465
  Beta  occ. eigenvalues --   -0.17421  -0.12821  -0.11563
  Beta virt. eigenvalues --   -0.07037  -0.06333  -0.04720  -0.03889  -0.03055
  Beta virt. eigenvalues --   -0.02235  -0.02101  -0.01531  -0.00958  -0.00428
  Beta virt. eigenvalues --   -0.00082   0.00238   0.00255   0.00458   0.00780

 Mulliken charges and spin densities:
               1          2
     1  Na  -0.043643   0.177084
     2  Na  -0.372009   0.467081
     3  Na   0.251506   0.202538
     4  Na  -0.162198   0.011861
     5  Na  -0.033940  -0.092631
     6  Na   0.237550  -0.074475
     7  Na   0.122734   0.308542
 Sum of Mulliken charges =  -0.00000   1.00000

 Dipole moment (field-independent basis, Debye):
    X=              0.6488    Y=             -0.3312    Z=             -0.0445  Tot=              0.7298
 Quadrupole moment (field-independent basis, Debye-Ang):
   XX=            -52.4104   YY=            -68.6710   ZZ=            -70.1352
   XY=             -2.2011   XZ=             -0.1904   YZ=              0.9164

 Normal termination of Gaussian 16 at Thu Dec  7 08:53:29 2023.
