 Gaussian 16, Revision B.01,
 Gaussian 16:  ES64L-G16RevB.01 20-Dec-2017

 -------------------------
 #P B3LYP/6-311+g(d) force
 -------------------------

 -----
 DPGEN
 -----
 Symbolic Z-matrix:
 Charge =  0 Multiplicity = 2

                         Standard orientation:
 ---------------------------------------------------------------------
 Center     Atomic      Atomic             Coordinates (Angstroms)
 Number     Number       Type             X           Y           Z
 ---------------------------------------------------------------------
      1         11           0        3.545910    0.597800   -0.203651
      2         11           0       -2.501893   -1.755716   -0.467232
      3         11           0       -1.727327    0.281242    1.809211
      4         11           0        1.390752   -1.688838    1.380213
      5         11           0        0.638945   -1.403590   -1.821822
      6         11           0       -1.921297    2.028224   -0.930743
      7         11           0        0.574910    1.940878    0.234023
 ---------------------------------------------------------------------

 SCF Done:  E(UB3LYP) =  -1136.12534182     A.U. after   21 cycles

 The electronic state is 2-A.
 Alpha  occ. eigenvalues --  -38.44562 -38.44074 -38.43878 -38.43795 -38.43769
 Alpha  occ. eigenvalues --  -38.43756 -38.42872  -2.20372  -2.19921  -2.19730
 Alpha  occ. eigenvalues --   -2.19699  -2.19692  -2.19634  -2.18848  -1.14047
 Alpha  occ. eigenvalues --   -1.14037  -1.14003  -1.13613  -1.13592  -1.13532
 Alpha  occ. eigenvalues --   -1.13529  -1.13430  -1.13403  -1.13387  -1.13382
 Alpha  occ. eigenvalues --   -1.13352  -1.13350  -1.13296  -1.13280  -1.13257
 Alpha  occ. eigenvalues --   -1.13255  -1.13249  -1.12525  -1.12505  -1.12446
 Alpha  occ. eigenvalues --   -0.18634  -0.13504  -0.11938  -0.11229
 Alpha virt. eigenvalues --   -0.06160  -0.04960  -0.04353  -0.03554  -0.03049
 Alpha virt. eigenvalues --   -0.02690  -0.01818  -0.00771  -0.00421   0.00023
 Alpha virt. eigenvalues --    0.00239   0.00293   0.00423   0.00751   0.00870

  Beta  occ. eigenvalues --  -38.44563 -38.44037 -38.43825 -38.43788 -38.43750
  Beta  occ. eigenvalues --  -38.43700 -38.42861  -2.20376  -2.19855  -2.19659
  Beta  occ. eigenvalues --   -2.19633  -2.19624  -2.19595  -2.18833  -1.14051
  Beta  occ. eigenvalues --   -1.14029  -1.14007  -1.13571  -1.13528  -1.13509
  Beta  occ. eigenvalues --   -1.13484  -1.13389  -1.13344  -1.13330  -1.13309
  Beta  occ. eigenvalues --   -1.13295  -1.13287  -1.13264  -1.13253  -1.13237
  Beta  occ. eigenvalues --   -1.13213  -1.13191  -1.12513  -1.12465  -1.12438
  Beta  occ. eigenvalues --   -0.17900  -0.13387  -0.11686
  Beta virt. eigenvalues --   -0.07328  -0.06061  -0.04798  -0.03832  -0.03308
  Beta virt. eigenvalues --   -0.02393  -0.01772  -0.01722  -0.00706  -0.00131
  Beta virt. eigenvalues --    0.00096   0.00250   0.00355   0.00560   0.00842

 Mulliken charges and spin densities:
               1          2
     1  Na   0.683518  -0.133903
     2  Na   0.008645   0.007500
     3  Na   0.389240   0.278077
     4  Na  -0.215341   0.150435
     5  Na  -0.250725   0.390624
     6  Na   0.209126   0.089046
     7  Na  -0.824464   0.218222
 Sum of Mulliken charges =  -0.00000   1.00000

 Dipole moment (field-independent basis, Debye):
    X=              0.5362    Y=             -0.3753    Z=             -0.1795  Tot=              0.6786
 Quadrupole moment (field-independent basis, Debye-Ang):
   XX=            -53.3003   YY=            -73.7297   ZZ=            -68.0639
   XY=              0.1437   XZ=              0.4756   YZ=             -1.8890

 Normal termination of Gaussian 16 at Tue Dec  5 20:14:58 2023.
