 Gaussian 16, Revision B.01,
 Gaussian 16:  ES64L-G16RevB.01 20-Dec-2017

 -------------------------
 #P B3LYP/6-311+g(d) force
 -------------------------

 -----
 DPGEN
 -----
 Symbolic Z-matrix:
 Charge =  0 Multiplicity = 2

                         Standard orientation:
 ---------------------------------------------------------------------
 Center     Atomic      Atomic             Coordinates (Angstroms)
 Number     Number       Type             X           Y           Z
 ---------------------------------------------------------------------
      1         11           0        2.519980   -0.712310   -1.937234
      2         11           0        0.850416    1.710849   -1.423576
      3         11           0       -2.404075    1.467882   -0.189956
      4         11           0        0.426170    1.597062    1.955489
      5         11           0        2.968262   -1.111419    1.546933
      6         11           0       -0.206712   -1.463182    0.104249
      7         11           0       -4.154040   -1.488883   -0.055905
 ---------------------------------------------------------------------

 SCF Done:  E(UB3LYP) =  -1136.12443667     A.U. after   24 cycles

 The electronic state is 2-A.
 Alpha  occ. eigenvalues --  -38.44629 -38.44432 -38.44233 -38.43820 -38.43592
 Alpha  occ. eigenvalues --  -38.43521 -38.43442  -2.20455  -2.20330  -2.20082
 Alpha  occ. eigenvalues --   -2.19682  -2.19452  -2.19445  -2.19211  -1.14125
 Alpha  occ. eigenvalues --   -1.14103  -1.14078  -1.14058  -1.13975  -1.13913
 Alpha  occ. eigenvalues --   -1.13808  -1.13775  -1.13659  -1.13358  -1.13343
 Alpha  occ. eigenvalues --   -1.13288  -1.13161  -1.13133  -1.13123  -1.13103
 Alpha  occ. eigenvalues --   -1.13060  -1.13028  -1.12884  -1.12881  -1.12842
 Alpha  occ. eigenvalues --   -0.18444  -0.13457  -0.12299  -0.11153
 Alpha virt. eigenvalues --   -0.06355  -0.05197  -0.04512  -0.03445  -0.02907
 Alpha virt. eigenvalues --   -0.02694  -0.02174  -0.01134  -0.00842   0.00084
 Alpha virt. eigenvalues --    0.00130   0.00202   0.00296   0.00506   0.00735

  Beta  occ. eigenvalues --  -38.44580 -38.44369 -38.44220 -38.43766 -38.43592
  Beta  occ. eigenvalues --  -38.43470 -38.43453  -2.20367  -2.20217  -2.20061
  Beta  occ. eigenvalues --   -2.19583  -2.19446  -2.19362  -2.19232  -1.14058
  Beta  occ. eigenvalues --   -1.14041  -1.14014  -1.13964  -1.13900  -1.13834
  Beta  occ. eigenvalues --   -1.13767  -1.13759  -1.13650  -1.13289  -1.13280
  Beta  occ. eigenvalues --   -1.13209  -1.13152  -1.13128  -1.13062  -1.13060
  Beta  occ. eigenvalues --   -1.13034  -1.12965  -1.12897  -1.12895  -1.12854
  Beta  occ. eigenvalues --   -0.17650  -0.13290  -0.11109
  Beta virt. eigenvalues --   -0.08071  -0.06121  -0.04948  -0.03963  -0.03015
  Beta virt. eigenvalues --   -0.02403  -0.02212  -0.01919  -0.01012  -0.00492
  Beta virt. eigenvalues --    0.00085   0.00195   0.00357   0.00420   0.00662

 Mulliken charges and spin densities:
               1          2
     1  Na   0.932091   0.012380
     2  Na  -0.507482   0.283379
     3  Na   0.225206  -0.028789
     4  Na   0.157788   0.248373
     5  Na  -0.005825   0.122357
     6  Na  -0.895318   0.446524
     7  Na   0.093539  -0.084225
 Sum of Mulliken charges =  -0.00000   1.00000

 Dipole moment (field-independent basis, Debye):
    X=              1.0868    Y=              0.2708    Z=              0.3244  Tot=              1.1661
 Quadrupole moment (field-independent basis, Debye-Ang):
   XX=            -57.8829   YY=            -73.7724   ZZ=            -65.0805
   XY=             -2.1019   XZ=              0.9655   YZ=             -0.3281

 Normal termination of Gaussian 16 at Tue Dec  5 13:17:32 2023.
