 Gaussian 16, Revision B.01,
 Gaussian 16:  ES64L-G16RevB.01 20-Dec-2017

 -------------------------
 #P B3LYP/6-311+g(d) force
 -------------------------

 -----
 DPGEN
 -----
 Symbolic Z-matrix:
 Charge =  0 Multiplicity = 2

                         Standard orientation:
 ---------------------------------------------------------------------
 Center     Atomic      Atomic             Coordinates (Angstroms)
 Number     Number       Type             X           Y           Z
 ---------------------------------------------------------------------
      1         11           0       -0.203755   -1.372775   -0.953058
      2         11           0       -0.884038    1.153211    1.697014
      3         11           0        2.438575   -2.156653   -0.409781
      4         11           0       -2.947038    1.029754   -1.685827
      5         11           0        3.689165    0.232601    0.415261
      6         11           0        1.179234    2.655419   -0.254042
      7         11           0       -3.272142   -1.541556    1.190434
 ---------------------------------------------------------------------

 SCF Done:  E(UB3LYP) =  -1136.11123698     A.U. after   21 cycles

 The electronic state is 2-A.
 Alpha  occ. eigenvalues --  -38.45534 -38.44726 -38.44532 -38.44352 -38.44044
 Alpha  occ. eigenvalues --  -38.43812 -38.43146  -2.21376  -2.20522  -2.20333
 Alpha  occ. eigenvalues --   -2.20233  -2.19882  -2.19742  -2.18962  -1.15125
 Alpha  occ. eigenvalues --   -1.15031  -1.14983  -1.14182  -1.14157  -1.14137
 Alpha  occ. eigenvalues --   -1.14028  -1.13994  -1.13984  -1.13952  -1.13893
 Alpha  occ. eigenvalues --   -1.13877  -1.13578  -1.13549  -1.13495  -1.13404
 Alpha  occ. eigenvalues --   -1.13364  -1.13330  -1.12643  -1.12626  -1.12598
 Alpha  occ. eigenvalues --   -0.17669  -0.14228  -0.11777  -0.10646
 Alpha virt. eigenvalues --   -0.07158  -0.05638  -0.04293  -0.03538  -0.02744
 Alpha virt. eigenvalues --   -0.02503  -0.02314  -0.01563  -0.00664  -0.00445
 Alpha virt. eigenvalues --   -0.00187   0.00138   0.00331   0.00428   0.00701

  Beta  occ. eigenvalues --  -38.45539 -38.44645 -38.44477 -38.44338 -38.44012
  Beta  occ. eigenvalues --  -38.43813 -38.43148  -2.21383  -2.20371  -2.20234
  Beta  occ. eigenvalues --   -2.20209  -2.19825  -2.19744  -2.18966  -1.15132
  Beta  occ. eigenvalues --   -1.15034  -1.14989  -1.14071  -1.14053  -1.14041
  Beta  occ. eigenvalues --   -1.14007  -1.13926  -1.13902  -1.13889  -1.13875
  Beta  occ. eigenvalues --   -1.13844  -1.13542  -1.13499  -1.13449  -1.13405
  Beta  occ. eigenvalues --   -1.13362  -1.13328  -1.12646  -1.12628  -1.12594
  Beta  occ. eigenvalues --   -0.17238  -0.13850  -0.11686
  Beta virt. eigenvalues --   -0.07053  -0.06670  -0.05422  -0.04062  -0.03268
  Beta virt. eigenvalues --   -0.02522  -0.02129  -0.01492  -0.01241  -0.00396
  Beta virt. eigenvalues --   -0.00197  -0.00180   0.00223   0.00502   0.00552

 Mulliken charges and spin densities:
               1          2
     1  Na  -0.088848   0.427057
     2  Na  -0.105810   0.257467
     3  Na   0.017461  -0.117408
     4  Na   0.134047   0.297234
     5  Na  -0.306134  -0.044138
     6  Na   0.166359   0.048730
     7  Na   0.182926   0.131059
 Sum of Mulliken charges =  -0.00000   1.00000

 Dipole moment (field-independent basis, Debye):
    X=              0.0402    Y=              0.0443    Z=              0.2429  Tot=              0.2501
 Quadrupole moment (field-independent basis, Debye-Ang):
   XX=            -50.1741   YY=            -72.8718   ZZ=            -73.8166
   XY=              1.5172   XZ=              1.3735   YZ=             -2.8972

 Normal termination of Gaussian 16 at Thu Dec  7 21:25:09 2023.
