 Gaussian 16, Revision B.01,
 Gaussian 16:  ES64L-G16RevB.01 20-Dec-2017

 -------------------------
 #P B3LYP/6-311+g(d) force
 -------------------------

 -----
 DPGEN
 -----
 Symbolic Z-matrix:
 Charge =  0 Multiplicity = 2

                         Standard orientation:
 ---------------------------------------------------------------------
 Center     Atomic      Atomic             Coordinates (Angstroms)
 Number     Number       Type             X           Y           Z
 ---------------------------------------------------------------------
      1         11           0       -0.226703    0.462790   -1.552208
      2         11           0        0.418723   -2.722576    0.386870
      3         11           0        2.883038   -0.447508   -0.829015
      4         11           0       -2.245551    1.204933    1.405464
      5         11           0       -2.762546   -1.009430   -1.201659
      6         11           0        0.958849   -0.344529    2.068271
      7         11           0        0.974190    2.856320   -0.277723
 ---------------------------------------------------------------------

 SCF Done:  E(UB3LYP) =  -1136.12789360     A.U. after   20 cycles

 The electronic state is 2-A.
 Alpha  occ. eigenvalues --  -38.44314 -38.44148 -38.44110 -38.43642 -38.43270
 Alpha  occ. eigenvalues --  -38.43225 -38.43218  -2.20138  -2.20032  -2.19996
 Alpha  occ. eigenvalues --   -2.19510  -2.19258  -2.19139  -2.19069  -1.13817
 Alpha  occ. eigenvalues --   -1.13778  -1.13769  -1.13750  -1.13699  -1.13682
 Alpha  occ. eigenvalues --   -1.13653  -1.13622  -1.13595  -1.13307  -1.13131
 Alpha  occ. eigenvalues --   -1.13119  -1.13012  -1.12897  -1.12866  -1.12852
 Alpha  occ. eigenvalues --   -1.12787  -1.12740  -1.12722  -1.12702  -1.12678
 Alpha  occ. eigenvalues --   -0.18646  -0.12902  -0.12044  -0.11839
 Alpha virt. eigenvalues --   -0.05379  -0.04673  -0.04457  -0.03600  -0.03233
 Alpha virt. eigenvalues --   -0.03131  -0.01296  -0.00883  -0.00440   0.00212
 Alpha virt. eigenvalues --    0.00376   0.00394   0.00678   0.00807   0.00868

  Beta  occ. eigenvalues --  -38.44273 -38.44131 -38.44039 -38.43615 -38.43266
  Beta  occ. eigenvalues --  -38.43227 -38.43166  -2.20063  -2.19966  -2.19901
  Beta  occ. eigenvalues --   -2.19462  -2.19166  -2.19134  -2.19075  -1.13757
  Beta  occ. eigenvalues --   -1.13724  -1.13716  -1.13675  -1.13662  -1.13642
  Beta  occ. eigenvalues --   -1.13579  -1.13561  -1.13535  -1.13256  -1.13097
  Beta  occ. eigenvalues --   -1.13088  -1.12965  -1.12844  -1.12831  -1.12800
  Beta  occ. eigenvalues --   -1.12772  -1.12740  -1.12713  -1.12689  -1.12671
  Beta  occ. eigenvalues --   -0.17898  -0.12684  -0.11815
  Beta virt. eigenvalues --   -0.07860  -0.05243  -0.04402  -0.04209  -0.03270
  Beta virt. eigenvalues --   -0.02479  -0.02201  -0.01196  -0.00799  -0.00202
  Beta virt. eigenvalues --    0.00270   0.00396   0.00444   0.00774   0.00880

 Mulliken charges and spin densities:
               1          2
     1  Na  -0.367402   0.414943
     2  Na  -0.346380  -0.017484
     3  Na   0.159400  -0.067246
     4  Na  -0.400744   0.106781
     5  Na   0.620638   0.055471
     6  Na   0.334235   0.499366
     7  Na   0.000253   0.008171
 Sum of Mulliken charges =  -0.00000   1.00000

 Dipole moment (field-independent basis, Debye):
    X=              0.1615    Y=             -0.0136    Z=              0.3347  Tot=              0.3719
 Quadrupole moment (field-independent basis, Debye-Ang):
   XX=            -60.1071   YY=            -67.2219   ZZ=            -67.7148
   XY=              0.2077   XZ=             -2.2231   YZ=              3.8297

 Normal termination of Gaussian 16 at Sun Dec  3 21:55:02 2023.
