 Gaussian 16, Revision B.01,
 Gaussian 16:  ES64L-G16RevB.01 20-Dec-2017

 -------------------------
 #P B3LYP/6-311+g(d) force
 -------------------------

 -----
 DPGEN
 -----
 Symbolic Z-matrix:
 Charge =  0 Multiplicity = 2

                         Standard orientation:
 ---------------------------------------------------------------------
 Center     Atomic      Atomic             Coordinates (Angstroms)
 Number     Number       Type             X           Y           Z
 ---------------------------------------------------------------------
      1         11           0        1.754981    1.513513   -0.467555
      2         11           0       -1.343623    2.858114    0.193322
      3         11           0       -3.880930    0.772458   -0.408872
      4         11           0        4.722880   -0.425232   -1.094867
      5         11           0       -2.546322   -2.849964   -0.863473
      6         11           0       -1.400992   -0.969008    1.135610
      7         11           0        2.694006   -0.899881    1.505835
 ---------------------------------------------------------------------

 SCF Done:  E(UB3LYP) =  -1136.11870834     A.U. after   22 cycles

 The electronic state is 2-A.
 Alpha  occ. eigenvalues --  -38.44883 -38.44566 -38.44528 -38.43969 -38.43966
 Alpha  occ. eigenvalues --  -38.43654 -38.42662  -2.20708  -2.20398  -2.20359
 Alpha  occ. eigenvalues --   -2.19808  -2.19780  -2.19546  -2.18485  -1.14403
 Alpha  occ. eigenvalues --   -1.14377  -1.14341  -1.14096  -1.14081  -1.14040
 Alpha  occ. eigenvalues --   -1.14017  -1.14001  -1.13959  -1.13546  -1.13461
 Alpha  occ. eigenvalues --   -1.13449  -1.13435  -1.13415  -1.13406  -1.13224
 Alpha  occ. eigenvalues --   -1.13191  -1.13145  -1.12157  -1.12150  -1.12142
 Alpha  occ. eigenvalues --   -0.16985  -0.14657  -0.11683  -0.10507
 Alpha virt. eigenvalues --   -0.06872  -0.05119  -0.04487  -0.03983  -0.02836
 Alpha virt. eigenvalues --   -0.02161  -0.01976  -0.01656  -0.00775  -0.00610
 Alpha virt. eigenvalues --   -0.00279   0.00168   0.00330   0.00487   0.00517

  Beta  occ. eigenvalues --  -38.44866 -38.44557 -38.44476 -38.43972 -38.43892
  Beta  occ. eigenvalues --  -38.43624 -38.42663  -2.20683  -2.20384  -2.20263
  Beta  occ. eigenvalues --   -2.19792  -2.19663  -2.19493  -2.18490  -1.14388
  Beta  occ. eigenvalues --   -1.14365  -1.14282  -1.14088  -1.14059  -1.13983
  Beta  occ. eigenvalues --   -1.13976  -1.13953  -1.13890  -1.13548  -1.13444
  Beta  occ. eigenvalues --   -1.13406  -1.13361  -1.13350  -1.13325  -1.13194
  Beta  occ. eigenvalues --   -1.13146  -1.13093  -1.12162  -1.12152  -1.12128
  Beta  occ. eigenvalues --   -0.16378  -0.14195  -0.11552
  Beta virt. eigenvalues --   -0.07034  -0.06536  -0.04556  -0.04249  -0.03817
  Beta virt. eigenvalues --   -0.02473  -0.02006  -0.01384  -0.01328  -0.00618
  Beta virt. eigenvalues --   -0.00395  -0.00117   0.00321   0.00460   0.00579

 Mulliken charges and spin densities:
               1          2
     1  Na  -1.017199   0.035014
     2  Na   0.317753   0.137850
     3  Na   0.194361   0.383195
     4  Na   0.652361   0.353813
     5  Na   0.420788   0.127098
     6  Na  -0.620075  -0.178781
     7  Na   0.052011   0.141811
 Sum of Mulliken charges =  -0.00000   1.00000

 Dipole moment (field-independent basis, Debye):
    X=              0.3236    Y=             -0.6326    Z=             -0.2644  Tot=              0.7582
 Quadrupole moment (field-independent basis, Debye-Ang):
   XX=            -62.7463   YY=            -70.7490   ZZ=            -65.6871
   XY=             -0.9642   XZ=              2.8147   YZ=              1.1003

 Normal termination of Gaussian 16 at Tue Nov 28 19:41:25 2023.
