 Gaussian 16, Revision B.01,
 Gaussian 16:  ES64L-G16RevB.01 20-Dec-2017

 -------------------------
 #P B3LYP/6-311+g(d) force
 -------------------------

 -----
 DPGEN
 -----
 Symbolic Z-matrix:
 Charge =  0 Multiplicity = 2

                         Standard orientation:
 ---------------------------------------------------------------------
 Center     Atomic      Atomic             Coordinates (Angstroms)
 Number     Number       Type             X           Y           Z
 ---------------------------------------------------------------------
      1         11           0       -2.093865   -0.585400    2.076394
      2         11           0       -2.741014   -1.445624   -1.412820
      3         11           0       -1.840745    1.970283   -0.299700
      4         11           0        0.079395   -0.648563   -0.108303
      5         11           0        2.962680   -1.696189   -0.826145
      6         11           0        2.306458    0.329820    1.656642
      7         11           0        1.327090    2.075673   -1.086069
 ---------------------------------------------------------------------

 SCF Done:  E(UB3LYP) =  -1136.11938224     A.U. after   22 cycles

 The electronic state is 2-A.
 Alpha  occ. eigenvalues --  -38.44744 -38.44293 -38.44200 -38.44098 -38.43154
 Alpha  occ. eigenvalues --  -38.42593 -38.42591  -2.20642  -2.20127  -2.20069
 Alpha  occ. eigenvalues --   -2.19945  -2.19042  -2.18770  -2.18488  -1.14371
 Alpha  occ. eigenvalues --   -1.14271  -1.14249  -1.13814  -1.13778  -1.13765
 Alpha  occ. eigenvalues --   -1.13740  -1.13711  -1.13655  -1.13635  -1.13587
 Alpha  occ. eigenvalues --   -1.13573  -1.12754  -1.12715  -1.12657  -1.12514
 Alpha  occ. eigenvalues --   -1.12446  -1.12393  -1.12167  -1.12143  -1.12097
 Alpha  occ. eigenvalues --   -0.18678  -0.14027  -0.11136  -0.11038
 Alpha virt. eigenvalues --   -0.05828  -0.05507  -0.04705  -0.03196  -0.02390
 Alpha virt. eigenvalues --   -0.02248  -0.01835  -0.01076  -0.00567   0.00055
 Alpha virt. eigenvalues --    0.00274   0.00333   0.00434   0.00538   0.00723

  Beta  occ. eigenvalues --  -38.44717 -38.44251 -38.44140 -38.44087 -38.43147
  Beta  occ. eigenvalues --  -38.42584 -38.42563  -2.20592  -2.20049  -2.19960
  Beta  occ. eigenvalues --   -2.19923  -2.19033  -2.18727  -2.18477  -1.14337
  Beta  occ. eigenvalues --   -1.14230  -1.14212  -1.13757  -1.13709  -1.13706
  Beta  occ. eigenvalues --   -1.13685  -1.13636  -1.13617  -1.13572  -1.13569
  Beta  occ. eigenvalues --   -1.13559  -1.12749  -1.12682  -1.12657  -1.12429
  Beta  occ. eigenvalues --   -1.12395  -1.12374  -1.12156  -1.12127  -1.12090
  Beta  occ. eigenvalues --   -0.17961  -0.13837  -0.10928
  Beta virt. eigenvalues --   -0.07315  -0.05346  -0.05224  -0.04350  -0.02960
  Beta virt. eigenvalues --   -0.01895  -0.01829  -0.01559  -0.00732  -0.00293
  Beta virt. eigenvalues --    0.00237   0.00342   0.00410   0.00546   0.00709

 Mulliken charges and spin densities:
               1          2
     1  Na   0.350771   0.299668
     2  Na   0.673272   0.004878
     3  Na   0.599386   0.505744
     4  Na  -2.298461   0.859216
     5  Na   0.339264  -0.361229
     6  Na   0.690071   0.072459
     7  Na  -0.354303  -0.380734
 Sum of Mulliken charges =  -0.00000   1.00000

 Dipole moment (field-independent basis, Debye):
    X=              0.1155    Y=             -0.1491    Z=              0.2104  Tot=              0.2826
 Quadrupole moment (field-independent basis, Debye-Ang):
   XX=            -52.3771   YY=            -74.7827   ZZ=            -64.4243
   XY=              0.0605   XZ=              0.2603   YZ=              3.9458

 Normal termination of Gaussian 16 at Fri Dec  8 19:53:49 2023.
