 Gaussian 16, Revision B.01,
 Gaussian 16:  ES64L-G16RevB.01 20-Dec-2017

 -------------------------
 #P B3LYP/6-311+g(d) force
 -------------------------

 -----
 DPGEN
 -----
 Symbolic Z-matrix:
 Charge =  0 Multiplicity = 2

                         Standard orientation:
 ---------------------------------------------------------------------
 Center     Atomic      Atomic             Coordinates (Angstroms)
 Number     Number       Type             X           Y           Z
 ---------------------------------------------------------------------
      1         11           0        2.275234   -2.175296    0.562320
      2         11           0        3.331668    0.986972   -1.339352
      3         11           0       -4.036843   -0.457365   -0.875613
      4         11           0       -1.065837    2.414029   -0.140337
      5         11           0        0.094122   -1.190398   -1.288046
      6         11           0       -1.838884   -0.641729    1.364647
      7         11           0        1.240540    1.063788    1.716381
 ---------------------------------------------------------------------

 SCF Done:  E(UB3LYP) =  -1136.12183488     A.U. after   23 cycles

 The electronic state is 2-A.
 Alpha  occ. eigenvalues --  -38.44809 -38.44535 -38.44267 -38.43986 -38.43610
 Alpha  occ. eigenvalues --  -38.43435 -38.42956  -2.20601  -2.20339  -2.20141
 Alpha  occ. eigenvalues --   -2.19902  -2.19466  -2.19258  -2.18852  -1.14268
 Alpha  occ. eigenvalues --   -1.14226  -1.14215  -1.14035  -1.13978  -1.13971
 Alpha  occ. eigenvalues --   -1.13875  -1.13819  -1.13760  -1.13594  -1.13542
 Alpha  occ. eigenvalues --   -1.13522  -1.13148  -1.13118  -1.13083  -1.12952
 Alpha  occ. eigenvalues --   -1.12933  -1.12881  -1.12532  -1.12501  -1.12480
 Alpha  occ. eigenvalues --   -0.18208  -0.13854  -0.11177  -0.10961
 Alpha virt. eigenvalues --   -0.06765  -0.05353  -0.04481  -0.03111  -0.02766
 Alpha virt. eigenvalues --   -0.02424  -0.02295  -0.01195  -0.00825  -0.00303
 Alpha virt. eigenvalues --    0.00073   0.00158   0.00304   0.00585   0.00711

  Beta  occ. eigenvalues --  -38.44733 -38.44513 -38.44258 -38.43960 -38.43595
  Beta  occ. eigenvalues --  -38.43439 -38.42922  -2.20457  -2.20297  -2.20128
  Beta  occ. eigenvalues --   -2.19858  -2.19441  -2.19266  -2.18795  -1.14167
  Beta  occ. eigenvalues --   -1.14131  -1.14118  -1.14009  -1.13948  -1.13942
  Beta  occ. eigenvalues --   -1.13840  -1.13813  -1.13751  -1.13568  -1.13499
  Beta  occ. eigenvalues --   -1.13476  -1.13134  -1.13098  -1.13049  -1.12960
  Beta  occ. eigenvalues --   -1.12924  -1.12889  -1.12492  -1.12447  -1.12433
  Beta  occ. eigenvalues --   -0.17555  -0.13484  -0.11031
  Beta virt. eigenvalues --   -0.07318  -0.06492  -0.04918  -0.04161  -0.03015
  Beta virt. eigenvalues --   -0.02421  -0.02028  -0.01577  -0.00778  -0.00752
  Beta virt. eigenvalues --   -0.00168   0.00155   0.00268   0.00395   0.00701

 Mulliken charges and spin densities:
               1          2
     1  Na   0.274812   0.097016
     2  Na  -0.147652   0.308055
     3  Na   0.040467   0.188957
     4  Na  -0.363259   0.029833
     5  Na  -0.317188   0.184845
     6  Na   0.260996   0.044695
     7  Na   0.251824   0.146599
 Sum of Mulliken charges =  -0.00000   1.00000

 Dipole moment (field-independent basis, Debye):
    X=             -0.2553    Y=              0.0709    Z=             -0.1787  Tot=              0.3196
 Quadrupole moment (field-independent basis, Debye-Ang):
   XX=            -52.8001   YY=            -75.6740   ZZ=            -66.9206
   XY=             -1.0882   XZ=              2.7212   YZ=             -5.1275

 Normal termination of Gaussian 16 at Tue Dec  5 14:10:01 2023.
