 Gaussian 16, Revision B.01,
 Gaussian 16:  ES64L-G16RevB.01 20-Dec-2017

 -------------------------
 #P B3LYP/6-311+g(d) force
 -------------------------

 -----
 DPGEN
 -----
 Symbolic Z-matrix:
 Charge =  0 Multiplicity = 2

                         Standard orientation:
 ---------------------------------------------------------------------
 Center     Atomic      Atomic             Coordinates (Angstroms)
 Number     Number       Type             X           Y           Z
 ---------------------------------------------------------------------
      1         11           0       -1.733526    2.594751    0.273711
      2         11           0        0.361761   -0.619195    2.003908
      3         11           0        1.884904    2.220738   -0.120999
      4         11           0       -3.010557   -0.770866   -0.011564
      5         11           0       -0.447835    0.238131   -1.556731
      6         11           0       -0.107337   -3.008120   -0.329617
      7         11           0        3.052590   -0.655438   -0.258708
 ---------------------------------------------------------------------

 SCF Done:  E(UB3LYP) =  -1136.13678061     A.U. after   19 cycles

 The electronic state is 2-A.
 Alpha  occ. eigenvalues --  -38.44215 -38.43979 -38.43656 -38.43605 -38.43527
 Alpha  occ. eigenvalues --  -38.43367 -38.43051  -2.20054  -2.19827  -2.19487
 Alpha  occ. eigenvalues --   -2.19440  -2.19398  -2.19252  -2.19038  -1.13762
 Alpha  occ. eigenvalues --   -1.13713  -1.13673  -1.13532  -1.13486  -1.13464
 Alpha  occ. eigenvalues --   -1.13178  -1.13145  -1.13125  -1.13122  -1.13115
 Alpha  occ. eigenvalues --   -1.13080  -1.13069  -1.13049  -1.13030  -1.12915
 Alpha  occ. eigenvalues --   -1.12876  -1.12871  -1.12719  -1.12678  -1.12658
 Alpha  occ. eigenvalues --   -0.18556  -0.13134  -0.12558  -0.10433
 Alpha virt. eigenvalues --   -0.05740  -0.05166  -0.04918  -0.03161  -0.02937
 Alpha virt. eigenvalues --   -0.02263  -0.01500  -0.01202  -0.00527  -0.00411
 Alpha virt. eigenvalues --    0.00002   0.00364   0.00806   0.00854   0.00891

  Beta  occ. eigenvalues --  -38.44211 -38.43973 -38.43651 -38.43597 -38.43521
  Beta  occ. eigenvalues --  -38.43279 -38.42995  -2.20049  -2.19820  -2.19479
  Beta  occ. eigenvalues --   -2.19429  -2.19391  -2.19089  -2.18937  -1.13753
  Beta  occ. eigenvalues --   -1.13692  -1.13674  -1.13530  -1.13463  -1.13456
  Beta  occ. eigenvalues --   -1.13171  -1.13126  -1.13123  -1.13115  -1.13081
  Beta  occ. eigenvalues --   -1.13072  -1.13064  -1.13032  -1.13021  -1.12807
  Beta  occ. eigenvalues --   -1.12760  -1.12757  -1.12646  -1.12604  -1.12585
  Beta  occ. eigenvalues --   -0.17856  -0.12903  -0.12339
  Beta virt. eigenvalues --   -0.06582  -0.05715  -0.05136  -0.04825  -0.02401
  Beta virt. eigenvalues --   -0.02186  -0.01415  -0.01257  -0.01123  -0.00575
  Beta virt. eigenvalues --   -0.00446   0.00162   0.00403   0.00828   0.00871

 Mulliken charges and spin densities:
               1          2
     1  Na   0.003555   0.008451
     2  Na  -0.539784   0.768498
     3  Na   0.103630  -0.022662
     4  Na   0.199462  -0.046265
     5  Na  -0.115174   0.427172
     6  Na   0.151262  -0.107365
     7  Na   0.197049  -0.027830
 Sum of Mulliken charges =  -0.00000   1.00000

 Dipole moment (field-independent basis, Debye):
    X=             -0.2053    Y=             -0.1598    Z=              0.1059  Tot=              0.2809
 Quadrupole moment (field-independent basis, Debye-Ang):
   XX=            -56.7957   YY=            -60.8797   ZZ=            -75.5106
   XY=             -0.4804   XZ=             -1.7739   YZ=              1.9958

 Normal termination of Gaussian 16 at Fri Dec  8 01:33:20 2023.
