 Gaussian 16, Revision B.01,
 Gaussian 16:  ES64L-G16RevB.01 20-Dec-2017

 -------------------------
 #P B3LYP/6-311+g(d) force
 -------------------------

 -----
 DPGEN
 -----
 Symbolic Z-matrix:
 Charge =  0 Multiplicity = 2

                         Standard orientation:
 ---------------------------------------------------------------------
 Center     Atomic      Atomic             Coordinates (Angstroms)
 Number     Number       Type             X           Y           Z
 ---------------------------------------------------------------------
      1         11           0       -0.266908   -0.177147    2.227123
      2         11           0       -1.587862    2.888033   -0.205297
      3         11           0       -2.927660   -0.340018   -0.089555
      4         11           0       -1.070641   -2.862137   -0.131522
      5         11           0        0.129562    0.275441   -1.848037
      6         11           0        2.812255    1.871498    0.331106
      7         11           0        2.911254   -1.655670   -0.283818
 ---------------------------------------------------------------------

 SCF Done:  E(UB3LYP) =  -1136.13174545     A.U. after   19 cycles

 The electronic state is 2-A.
 Alpha  occ. eigenvalues --  -38.44557 -38.44329 -38.44166 -38.43818 -38.43812
 Alpha  occ. eigenvalues --  -38.43457 -38.43277  -2.20317  -2.20098  -2.19995
 Alpha  occ. eigenvalues --   -2.19702  -2.19676  -2.19251  -2.19117  -1.13992
 Alpha  occ. eigenvalues --   -1.13972  -1.13960  -1.13777  -1.13754  -1.13734
 Alpha  occ. eigenvalues --   -1.13653  -1.13628  -1.13613  -1.13402  -1.13369
 Alpha  occ. eigenvalues --   -1.13360  -1.13340  -1.13312  -1.13294  -1.12920
 Alpha  occ. eigenvalues --   -1.12908  -1.12902  -1.12793  -1.12771  -1.12758
 Alpha  occ. eigenvalues --   -0.17896  -0.13017  -0.11957  -0.10834
 Alpha virt. eigenvalues --   -0.05866  -0.05548  -0.04708  -0.03381  -0.02884
 Alpha virt. eigenvalues --   -0.02765  -0.01551  -0.01316  -0.00687  -0.00521
 Alpha virt. eigenvalues --   -0.00075   0.00363   0.00706   0.00745   0.00758

  Beta  occ. eigenvalues --  -38.44553 -38.44326 -38.44068 -38.43812 -38.43748
  Beta  occ. eigenvalues --  -38.43457 -38.43274  -2.20311  -2.20095  -2.19813
  Beta  occ. eigenvalues --   -2.19696  -2.19558  -2.19254  -2.19115  -1.13976
  Beta  occ. eigenvalues --   -1.13969  -1.13958  -1.13761  -1.13753  -1.13734
  Beta  occ. eigenvalues --   -1.13532  -1.13502  -1.13483  -1.13395  -1.13351
  Beta  occ. eigenvalues --   -1.13327  -1.13279  -1.13227  -1.13209  -1.12912
  Beta  occ. eigenvalues --   -1.12910  -1.12899  -1.12794  -1.12764  -1.12743
  Beta  occ. eigenvalues --   -0.17156  -0.12857  -0.11770
  Beta virt. eigenvalues --   -0.06961  -0.05817  -0.05387  -0.04649  -0.02656
  Beta virt. eigenvalues --   -0.02145  -0.01803  -0.01449  -0.01212  -0.00730
  Beta virt. eigenvalues --   -0.00564   0.00090   0.00401   0.00761   0.00819

 Mulliken charges and spin densities:
               1          2
     1  Na  -0.389225   0.697030
     2  Na   0.046966  -0.077415
     3  Na   0.334803   0.062745
     4  Na  -0.009284  -0.069476
     5  Na   0.027854   0.504322
     6  Na  -0.055396  -0.040923
     7  Na   0.044281  -0.076282
 Sum of Mulliken charges =  -0.00000   1.00000

 Dipole moment (field-independent basis, Debye):
    X=              0.5696    Y=              0.1202    Z=              0.1031  Tot=              0.5912
 Quadrupole moment (field-independent basis, Debye-Ang):
   XX=            -58.6478   YY=            -62.7021   ZZ=            -73.7251
   XY=              0.0182   XZ=              0.6673   YZ=              1.4898

 Normal termination of Gaussian 16 at Thu Dec  7 18:05:40 2023.
