 Gaussian 16, Revision B.01,
 Gaussian 16:  ES64L-G16RevB.01 20-Dec-2017

 -------------------------
 #P B3LYP/6-311+g(d) force
 -------------------------

 -----
 DPGEN
 -----
 Symbolic Z-matrix:
 Charge =  0 Multiplicity = 2

                         Standard orientation:
 ---------------------------------------------------------------------
 Center     Atomic      Atomic             Coordinates (Angstroms)
 Number     Number       Type             X           Y           Z
 ---------------------------------------------------------------------
      1         11           0       -0.490057   -0.481075   -1.759981
      2         11           0       -1.869401   -2.341039    0.320087
      3         11           0       -3.020876    1.251378    0.003816
      4         11           0        3.059831    0.993511    0.202122
      5         11           0        2.113861   -1.886692   -0.562480
      6         11           0        0.052764    2.598573   -0.410598
      7         11           0        0.153879   -0.134656    2.207034
 ---------------------------------------------------------------------

 SCF Done:  E(UB3LYP) =  -1136.13395459     A.U. after   19 cycles

 The electronic state is 2-A.
 Alpha  occ. eigenvalues --  -38.44226 -38.44196 -38.43935 -38.43711 -38.43580
 Alpha  occ. eigenvalues --  -38.43505 -38.42963  -2.20049  -2.20038  -2.19782
 Alpha  occ. eigenvalues --   -2.19584  -2.19471  -2.19427  -2.18822  -1.13713
 Alpha  occ. eigenvalues --   -1.13708  -1.13699  -1.13681  -1.13678  -1.13669
 Alpha  occ. eigenvalues --   -1.13494  -1.13437  -1.13429  -1.13305  -1.13229
 Alpha  occ. eigenvalues --   -1.13218  -1.13196  -1.13129  -1.13088  -1.13077
 Alpha  occ. eigenvalues --   -1.13046  -1.13032  -1.12515  -1.12487  -1.12448
 Alpha  occ. eigenvalues --   -0.18570  -0.13232  -0.12102  -0.11210
 Alpha virt. eigenvalues --   -0.05821  -0.05320  -0.04122  -0.03484  -0.03012
 Alpha virt. eigenvalues --   -0.02924  -0.01637  -0.01076  -0.00271  -0.00066
 Alpha virt. eigenvalues --   -0.00024   0.00357   0.00742   0.00855   0.00872

  Beta  occ. eigenvalues --  -38.44226 -38.44097 -38.43935 -38.43696 -38.43573
  Beta  occ. eigenvalues --  -38.43442 -38.42955  -2.20041  -2.19867  -2.19783
  Beta  occ. eigenvalues --   -2.19560  -2.19419  -2.19354  -2.18812  -1.13703
  Beta  occ. eigenvalues --   -1.13700  -1.13680  -1.13587  -1.13553  -1.13537
  Beta  occ. eigenvalues --   -1.13495  -1.13433  -1.13417  -1.13271  -1.13197
  Beta  occ. eigenvalues --   -1.13192  -1.13175  -1.13070  -1.13048  -1.13046
  Beta  occ. eigenvalues --   -1.12989  -1.12981  -1.12504  -1.12467  -1.12440
  Beta  occ. eigenvalues --   -0.17827  -0.13046  -0.11857
  Beta virt. eigenvalues --   -0.07251  -0.05753  -0.05279  -0.04037  -0.02754
  Beta virt. eigenvalues --   -0.02209  -0.01900  -0.01552  -0.01004  -0.00278
  Beta virt. eigenvalues --   -0.00072   0.00086   0.00387   0.00841   0.00851

 Mulliken charges and spin densities:
               1          2
     1  Na   0.064749   0.370243
     2  Na   0.081841  -0.035798
     3  Na   0.096544  -0.037507
     4  Na   0.015201   0.027219
     5  Na   0.258822  -0.022504
     6  Na  -0.029435  -0.009601
     7  Na  -0.487722   0.707948
 Sum of Mulliken charges =  -0.00000   1.00000

 Dipole moment (field-independent basis, Debye):
    X=             -0.2460    Y=             -0.0802    Z=              0.3121  Tot=              0.4054
 Quadrupole moment (field-independent basis, Debye-Ang):
   XX=            -55.2499   YY=            -68.1198   ZZ=            -71.7603
   XY=              0.3769   XZ=             -0.9749   YZ=             -0.2878

 Normal termination of Gaussian 16 at Fri Dec  8 05:28:41 2023.
