 Gaussian 16, Revision B.01,
 Gaussian 16:  ES64L-G16RevB.01 20-Dec-2017

 -------------------------
 #P B3LYP/6-311+g(d) force
 -------------------------

 -----
 DPGEN
 -----
 Symbolic Z-matrix:
 Charge =  0 Multiplicity = 2

                         Standard orientation:
 ---------------------------------------------------------------------
 Center     Atomic      Atomic             Coordinates (Angstroms)
 Number     Number       Type             X           Y           Z
 ---------------------------------------------------------------------
      1         11           0       -4.415777    0.761563   -0.434501
      2         11           0        4.510303   -1.182750    0.248754
      3         11           0       -1.213433   -2.341207   -1.291005
      4         11           0       -0.890804    2.339660    0.146758
      5         11           0        0.994508   -0.433681    0.529426
      6         11           0       -2.235035   -1.018815    1.386437
      7         11           0        3.250239    1.875230   -0.585869
 ---------------------------------------------------------------------

 SCF Done:  E(UB3LYP) =  -1136.11779130     A.U. after   24 cycles

 The electronic state is 2-A.
 Alpha  occ. eigenvalues --  -38.44809 -38.44451 -38.44401 -38.43907 -38.43871
 Alpha  occ. eigenvalues --  -38.43199 -38.43127  -2.20601  -2.20347  -2.20215
 Alpha  occ. eigenvalues --   -2.19724  -2.19689  -2.19142  -2.18933  -1.14288
 Alpha  occ. eigenvalues --   -1.14270  -1.14233  -1.14055  -1.14025  -1.13956
 Alpha  occ. eigenvalues --   -1.13868  -1.13857  -1.13827  -1.13400  -1.13382
 Alpha  occ. eigenvalues --   -1.13363  -1.13346  -1.13330  -1.13293  -1.12859
 Alpha  occ. eigenvalues --   -1.12827  -1.12740  -1.12622  -1.12619  -1.12529
 Alpha  occ. eigenvalues --   -0.17432  -0.14445  -0.11191  -0.10858
 Alpha virt. eigenvalues --   -0.06588  -0.05687  -0.04339  -0.03358  -0.02956
 Alpha virt. eigenvalues --   -0.02314  -0.01952  -0.01278  -0.00899  -0.00657
 Alpha virt. eigenvalues --   -0.00377  -0.00059   0.00444   0.00487   0.00555

  Beta  occ. eigenvalues --  -38.44806 -38.44437 -38.44334 -38.43919 -38.43787
  Beta  occ. eigenvalues --  -38.43163 -38.43105  -2.20600  -2.20328  -2.20090
  Beta  occ. eigenvalues --   -2.19747  -2.19533  -2.19081  -2.18896  -1.14291
  Beta  occ. eigenvalues --   -1.14274  -1.14196  -1.14035  -1.13996  -1.13937
  Beta  occ. eigenvalues --   -1.13782  -1.13770  -1.13748  -1.13414  -1.13399
  Beta  occ. eigenvalues --   -1.13369  -1.13236  -1.13222  -1.13195  -1.12821
  Beta  occ. eigenvalues --   -1.12758  -1.12696  -1.12600  -1.12587  -1.12492
  Beta  occ. eigenvalues --   -0.16833  -0.13772  -0.10925
  Beta virt. eigenvalues --   -0.07315  -0.06425  -0.05529  -0.03703  -0.03164
  Beta virt. eigenvalues --   -0.02746  -0.01877  -0.01699  -0.00951  -0.00649
  Beta virt. eigenvalues --   -0.00422  -0.00104   0.00028   0.00538   0.00571

 Mulliken charges and spin densities:
               1          2
     1  Na  -0.352612   0.469927
     2  Na   0.520572   0.287075
     3  Na   0.619796  -0.079010
     4  Na   0.670700   0.072429
     5  Na  -3.477867  -0.016156
     6  Na   1.496928   0.288866
     7  Na   0.522482  -0.023131
 Sum of Mulliken charges =  -0.00000   1.00000

 Dipole moment (field-independent basis, Debye):
    X=              0.9218    Y=             -0.3637    Z=             -0.5166  Tot=              1.1175
 Quadrupole moment (field-independent basis, Debye-Ang):
   XX=            -64.0686   YY=            -72.0967   ZZ=            -63.2412
   XY=              3.7609   XZ=              0.1921   YZ=             -2.2945

 Normal termination of Gaussian 16 at Tue Dec  5 12:44:00 2023.
