 Gaussian 16, Revision B.01,
 Gaussian 16:  ES64L-G16RevB.01 20-Dec-2017

 -------------------------
 #P B3LYP/6-311+g(d) force
 -------------------------

 -----
 DPGEN
 -----
 Symbolic Z-matrix:
 Charge =  0 Multiplicity = 2

                         Standard orientation:
 ---------------------------------------------------------------------
 Center     Atomic      Atomic             Coordinates (Angstroms)
 Number     Number       Type             X           Y           Z
 ---------------------------------------------------------------------
      1         11           0        0.399260    2.584272    0.871003
      2         11           0       -1.143017   -2.223701   -0.951003
      3         11           0        0.538309    0.210614   -0.471355
      4         11           0       -2.091547    0.185470    1.854626
      5         11           0       -2.676022    0.579642   -1.660454
      6         11           0        3.266426    0.341488   -1.509757
      7         11           0        1.706590   -1.677785    1.866941
 ---------------------------------------------------------------------

 SCF Done:  E(UB3LYP) =  -1136.11290209     A.U. after   24 cycles

 The electronic state is 2-A.
 Alpha  occ. eigenvalues --  -38.44808 -38.44745 -38.44391 -38.44371 -38.42952
 Alpha  occ. eigenvalues --  -38.42909 -38.42402  -2.20625  -2.20551  -2.20239
 Alpha  occ. eigenvalues --   -2.20206  -2.18828  -2.18791  -2.18618  -1.14350
 Alpha  occ. eigenvalues --   -1.14242  -1.14229  -1.14226  -1.14174  -1.14168
 Alpha  occ. eigenvalues --   -1.13920  -1.13891  -1.13884  -1.13861  -1.13832
 Alpha  occ. eigenvalues --   -1.13826  -1.12813  -1.12564  -1.12459  -1.12437
 Alpha  occ. eigenvalues --   -1.12401  -1.12396  -1.12293  -1.12217  -1.12151
 Alpha  occ. eigenvalues --   -0.18421  -0.13021  -0.11705  -0.11192
 Alpha virt. eigenvalues --   -0.05766  -0.05329  -0.03875  -0.03107  -0.02918
 Alpha virt. eigenvalues --   -0.02601  -0.01732  -0.01300  -0.00456   0.00118
 Alpha virt. eigenvalues --    0.00303   0.00348   0.00518   0.00726   0.00820

  Beta  occ. eigenvalues --  -38.44767 -38.44680 -38.44355 -38.44337 -38.42954
  Beta  occ. eigenvalues --  -38.42907 -38.42378  -2.20551  -2.20430  -2.20174
  Beta  occ. eigenvalues --   -2.20144  -2.18833  -2.18790  -2.18583  -1.14295
  Beta  occ. eigenvalues --   -1.14193  -1.14177  -1.14144  -1.14092  -1.14078
  Beta  occ. eigenvalues --   -1.13868  -1.13853  -1.13833  -1.13814  -1.13787
  Beta  occ. eigenvalues --   -1.13784  -1.12814  -1.12564  -1.12448  -1.12425
  Beta  occ. eigenvalues --   -1.12402  -1.12385  -1.12213  -1.12193  -1.12143
  Beta  occ. eigenvalues --   -0.17681  -0.12676  -0.11001
  Beta virt. eigenvalues --   -0.07932  -0.05442  -0.04751  -0.03838  -0.02948
  Beta virt. eigenvalues --   -0.02177  -0.02004  -0.01569  -0.00781  -0.00441
  Beta virt. eigenvalues --    0.00292   0.00418   0.00434   0.00573   0.00749

 Mulliken charges and spin densities:
               1          2
     1  Na  -0.664772   0.154165
     2  Na   0.281709   0.130428
     3  Na  -0.906706  -0.025550
     4  Na   0.838238   0.248044
     5  Na   0.455717   0.017303
     6  Na   0.150305   0.100949
     7  Na  -0.154492   0.374660
 Sum of Mulliken charges =  -0.00000   1.00000

 Dipole moment (field-independent basis, Debye):
    X=             -0.0380    Y=             -0.1776    Z=              0.1941  Tot=              0.2658
 Quadrupole moment (field-independent basis, Debye-Ang):
   XX=            -55.2990   YY=            -72.5153   ZZ=            -62.4184
   XY=             -1.0437   XZ=             -0.5618   YZ=             -5.7129

 Normal termination of Gaussian 16 at Thu Dec  7 09:11:28 2023.
