 Gaussian 16, Revision B.01,
 Gaussian 16:  ES64L-G16RevB.01 20-Dec-2017

 -------------------------
 #P B3LYP/6-311+g(d) force
 -------------------------

 -----
 DPGEN
 -----
 Symbolic Z-matrix:
 Charge =  0 Multiplicity = 2

                         Standard orientation:
 ---------------------------------------------------------------------
 Center     Atomic      Atomic             Coordinates (Angstroms)
 Number     Number       Type             X           Y           Z
 ---------------------------------------------------------------------
      1         11           0        3.022605    0.570071   -1.306162
      2         11           0       -2.527251   -2.674131   -0.189058
      3         11           0       -1.575582    2.136335    1.835049
      4         11           0        3.841763   -1.864908    1.084998
      5         11           0        0.767027    3.255192   -0.559489
      6         11           0       -3.657359    0.069832   -0.722045
      7         11           0        0.128797   -1.492390   -0.143293
 ---------------------------------------------------------------------

 SCF Done:  E(UB3LYP) =  -1136.11201949     A.U. after   24 cycles

 The electronic state is 2-A.
 Alpha  occ. eigenvalues --  -38.45944 -38.45021 -38.44188 -38.44166 -38.43777
 Alpha  occ. eigenvalues --  -38.43537 -38.43512  -2.21743  -2.20850  -2.20077
 Alpha  occ. eigenvalues --   -2.19997  -2.19578  -2.19324  -2.19296  -1.15437
 Alpha  occ. eigenvalues --   -1.15408  -1.15372  -1.14573  -1.14544  -1.14481
 Alpha  occ. eigenvalues --   -1.13753  -1.13713  -1.13689  -1.13684  -1.13664
 Alpha  occ. eigenvalues --   -1.13614  -1.13234  -1.13229  -1.13182  -1.13004
 Alpha  occ. eigenvalues --   -1.12988  -1.12969  -1.12966  -1.12937  -1.12913
 Alpha  occ. eigenvalues --   -0.16808  -0.14063  -0.12469  -0.10046
 Alpha virt. eigenvalues --   -0.07142  -0.05458  -0.04588  -0.03599  -0.02981
 Alpha virt. eigenvalues --   -0.02694  -0.01638  -0.01543  -0.01155  -0.00457
 Alpha virt. eigenvalues --   -0.00381  -0.00034   0.00204   0.00408   0.00526

  Beta  occ. eigenvalues --  -38.45941 -38.45016 -38.44159 -38.44147 -38.43707
  Beta  occ. eigenvalues --  -38.43513 -38.43475  -2.21739  -2.20843  -2.20042
  Beta  occ. eigenvalues --   -2.19949  -2.19446  -2.19282  -2.19227  -1.15438
  Beta  occ. eigenvalues --   -1.15401  -1.15355  -1.14567  -1.14529  -1.14474
  Beta  occ. eigenvalues --   -1.13728  -1.13694  -1.13658  -1.13656  -1.13636
  Beta  occ. eigenvalues --   -1.13546  -1.13143  -1.13138  -1.13098  -1.12979
  Beta  occ. eigenvalues --   -1.12962  -1.12923  -1.12918  -1.12886  -1.12869
  Beta  occ. eigenvalues --   -0.16503  -0.13540  -0.11989
  Beta virt. eigenvalues --   -0.07024  -0.06693  -0.05158  -0.04220  -0.03320
  Beta virt. eigenvalues --   -0.02666  -0.02512  -0.01396  -0.01152  -0.00973
  Beta virt. eigenvalues --   -0.00324  -0.00087   0.00147   0.00372   0.00541

 Mulliken charges and spin densities:
               1          2
     1  Na   0.943643   0.249710
     2  Na   0.093632  -0.063688
     3  Na   0.128934   0.281720
     4  Na   0.682931   0.359239
     5  Na  -0.258011   0.012108
     6  Na   0.117195   0.119575
     7  Na  -1.708325   0.041335
 Sum of Mulliken charges =  -0.00000   1.00000

 Dipole moment (field-independent basis, Debye):
    X=             -1.3986    Y=             -0.7347    Z=             -0.4805  Tot=              1.6513
 Quadrupole moment (field-independent basis, Debye-Ang):
   XX=            -58.1993   YY=            -72.4915   ZZ=            -68.9987
   XY=              3.7001   XZ=              3.1961   YZ=             -3.1193

 Normal termination of Gaussian 16 at Mon Dec  4 00:18:00 2023.
