 Gaussian 16, Revision B.01,
 Gaussian 16:  ES64L-G16RevB.01 20-Dec-2017

 -------------------------
 #P B3LYP/6-311+g(d) force
 -------------------------

 -----
 DPGEN
 -----
 Symbolic Z-matrix:
 Charge =  0 Multiplicity = 2

                         Standard orientation:
 ---------------------------------------------------------------------
 Center     Atomic      Atomic             Coordinates (Angstroms)
 Number     Number       Type             X           Y           Z
 ---------------------------------------------------------------------
      1         11           0       -3.179719    0.250566   -0.216257
      2         11           0       -1.505660   -2.421150   -0.132421
      3         11           0       -0.191590   -0.185119    2.026883
      4         11           0        2.896577   -1.572462    0.388480
      5         11           0        2.184557    1.584936   -0.277771
      6         11           0        0.432765   -0.279818   -2.016047
      7         11           0       -0.636930    2.623046    0.227133
 ---------------------------------------------------------------------

 SCF Done:  E(UB3LYP) =  -1136.13227211     A.U. after   20 cycles

 The electronic state is 2-A.
 Alpha  occ. eigenvalues --  -38.44400 -38.44086 -38.44003 -38.43968 -38.43450
 Alpha  occ. eigenvalues --  -38.43425 -38.42616  -2.20238  -2.19911  -2.19896
 Alpha  occ. eigenvalues --   -2.19868  -2.19396  -2.19295  -2.18515  -1.13914
 Alpha  occ. eigenvalues --   -1.13900  -1.13884  -1.13613  -1.13574  -1.13562
 Alpha  occ. eigenvalues --   -1.13557  -1.13542  -1.13535  -1.13513  -1.13506
 Alpha  occ. eigenvalues --   -1.13477  -1.13095  -1.13053  -1.13021  -1.12969
 Alpha  occ. eigenvalues --   -1.12959  -1.12927  -1.12200  -1.12165  -1.12158
 Alpha  occ. eigenvalues --   -0.18771  -0.13399  -0.12049  -0.11271
 Alpha virt. eigenvalues --   -0.05958  -0.05008  -0.04153  -0.03625  -0.02996
 Alpha virt. eigenvalues --   -0.02924  -0.01689  -0.00860  -0.00189  -0.00119
 Alpha virt. eigenvalues --    0.00071   0.00362   0.00766   0.00787   0.00889

  Beta  occ. eigenvalues --  -38.44399 -38.44080 -38.43923 -38.43883 -38.43440
  Beta  occ. eigenvalues --  -38.43419 -38.42611  -2.20237  -2.19887  -2.19763
  Beta  occ. eigenvalues --   -2.19711  -2.19382  -2.19288  -2.18511  -1.13917
  Beta  occ. eigenvalues --   -1.13891  -1.13876  -1.13573  -1.13538  -1.13531
  Beta  occ. eigenvalues --   -1.13504  -1.13455  -1.13435  -1.13408  -1.13401
  Beta  occ. eigenvalues --   -1.13364  -1.13084  -1.13029  -1.12999  -1.12967
  Beta  occ. eigenvalues --   -1.12930  -1.12922  -1.12199  -1.12161  -1.12133
  Beta  occ. eigenvalues --   -0.18002  -0.13186  -0.11807
  Beta virt. eigenvalues --   -0.07354  -0.05865  -0.04971  -0.04087  -0.02859
  Beta virt. eigenvalues --   -0.02177  -0.01942  -0.01575  -0.00781  -0.00251
  Beta virt. eigenvalues --   -0.00015   0.00099   0.00383   0.00876   0.00892

 Mulliken charges and spin densities:
               1          2
     1  Na   0.018314  -0.011990
     2  Na   0.184491  -0.079476
     3  Na  -0.380915   0.663289
     4  Na   0.091056  -0.091131
     5  Na   0.301291   0.134642
     6  Na  -0.255101   0.432372
     7  Na   0.040864  -0.047706
 Sum of Mulliken charges =  -0.00000   1.00000

 Dipole moment (field-independent basis, Debye):
    X=             -0.1386    Y=             -0.4349    Z=              0.0001  Tot=              0.4564
 Quadrupole moment (field-independent basis, Debye-Ang):
   XX=            -56.2751   YY=            -68.3421   ZZ=            -70.9992
   XY=             -1.6665   XZ=              1.3978   YZ=             -0.7269

 Normal termination of Gaussian 16 at Mon Dec  4 00:43:14 2023.
