 Gaussian 16, Revision B.01,
 Gaussian 16:  ES64L-G16RevB.01 20-Dec-2017

 -------------------------
 #P B3LYP/6-311+g(d) force
 -------------------------

 -----
 DPGEN
 -----
 Symbolic Z-matrix:
 Charge =  0 Multiplicity = 2

                         Standard orientation:
 ---------------------------------------------------------------------
 Center     Atomic      Atomic             Coordinates (Angstroms)
 Number     Number       Type             X           Y           Z
 ---------------------------------------------------------------------
      1         11           0       -1.989007    2.032556   -0.070679
      2         11           0        3.393326    0.816080    1.053130
      3         11           0       -0.785420   -1.257470   -1.466396
      4         11           0        1.084034    1.388224   -1.551416
      5         11           0       -0.251624   -0.463618    2.125099
      6         11           0        2.307602   -1.778979   -0.492331
      7         11           0       -3.758911   -0.736793    0.402593
 ---------------------------------------------------------------------

 SCF Done:  E(UB3LYP) =  -1136.12113231     A.U. after   33 cycles

 The electronic state is 2-A.
 Alpha  occ. eigenvalues --  -38.44905 -38.44402 -38.44399 -38.44358 -38.44205
 Alpha  occ. eigenvalues --  -38.43374 -38.42371  -2.20714  -2.20291  -2.20230
 Alpha  occ. eigenvalues --   -2.20216  -2.19971  -2.19306  -2.18267  -1.14396
 Alpha  occ. eigenvalues --   -1.14375  -1.14334  -1.14006  -1.13969  -1.13910
 Alpha  occ. eigenvalues --   -1.13903  -1.13884  -1.13863  -1.13853  -1.13829
 Alpha  occ. eigenvalues --   -1.13826  -1.13683  -1.13680  -1.13561  -1.13007
 Alpha  occ. eigenvalues --   -1.12935  -1.12925  -1.11958  -1.11931  -1.11898
 Alpha  occ. eigenvalues --   -0.18403  -0.14165  -0.11652  -0.10683
 Alpha virt. eigenvalues --   -0.07007  -0.05541  -0.04287  -0.03252  -0.02794
 Alpha virt. eigenvalues --   -0.02446  -0.02425  -0.01151  -0.00688  -0.00375
 Alpha virt. eigenvalues --    0.00123   0.00144   0.00310   0.00649   0.00714

  Beta  occ. eigenvalues --  -38.44895 -38.44363 -38.44362 -38.44310 -38.44217
  Beta  occ. eigenvalues --  -38.43312 -38.42354  -2.20695  -2.20220  -2.20163
  Beta  occ. eigenvalues --   -2.20127  -2.19995  -2.19195  -2.18240  -1.14371
  Beta  occ. eigenvalues --   -1.14365  -1.14323  -1.13942  -1.13919  -1.13868
  Beta  occ. eigenvalues --   -1.13839  -1.13829  -1.13818  -1.13798  -1.13781
  Beta  occ. eigenvalues --   -1.13758  -1.13700  -1.13677  -1.13581  -1.12934
  Beta  occ. eigenvalues --   -1.12849  -1.12839  -1.11943  -1.11889  -1.11873
  Beta  occ. eigenvalues --   -0.17710  -0.13896  -0.10517
  Beta virt. eigenvalues --   -0.07778  -0.06803  -0.04833  -0.04193  -0.02878
  Beta virt. eigenvalues --   -0.02562  -0.01998  -0.01884  -0.00683  -0.00575
  Beta virt. eigenvalues --   -0.00151   0.00173   0.00267   0.00342   0.00707

 Mulliken charges and spin densities:
               1          2
     1  Na   0.028233  -0.056911
     2  Na   0.287027   0.050135
     3  Na  -0.368351   0.237344
     4  Na  -0.202452   0.598187
     5  Na  -0.607008   0.150577
     6  Na   0.276298  -0.012994
     7  Na   0.586252   0.033663
 Sum of Mulliken charges =  -0.00000   1.00000

 Dipole moment (field-independent basis, Debye):
    X=             -0.6214    Y=             -0.0221    Z=              0.0430  Tot=              0.6233
 Quadrupole moment (field-independent basis, Debye-Ang):
   XX=            -50.1661   YY=            -66.0992   ZZ=            -79.4548
   XY=              0.9849   XZ=             -0.1631   YZ=              5.1487

 Normal termination of Gaussian 16 at Fri Dec  8 06:35:55 2023.
