 Gaussian 16, Revision B.01,
 Gaussian 16:  ES64L-G16RevB.01 20-Dec-2017

 -------------------------
 #P B3LYP/6-311+g(d) force
 -------------------------

 -----
 DPGEN
 -----
 Symbolic Z-matrix:
 Charge =  0 Multiplicity = 2

                         Standard orientation:
 ---------------------------------------------------------------------
 Center     Atomic      Atomic             Coordinates (Angstroms)
 Number     Number       Type             X           Y           Z
 ---------------------------------------------------------------------
      1         11           0       -0.019463    0.243462   -1.881443
      2         11           0        2.658370   -1.457964    0.044999
      3         11           0       -3.087770   -0.368939    0.059059
      4         11           0       -1.250819    2.985305    0.035391
      5         11           0        2.589662    1.604554    0.020463
      6         11           0       -0.086529   -0.132983    1.953574
      7         11           0       -0.803451   -2.873435   -0.232043
 ---------------------------------------------------------------------

 SCF Done:  E(UB3LYP) =  -1136.13846773     A.U. after   18 cycles

 The electronic state is 2-A.
 Alpha  occ. eigenvalues --  -38.44169 -38.43903 -38.43677 -38.43631 -38.43599
 Alpha  occ. eigenvalues --  -38.43471 -38.43312  -2.19993  -2.19758  -2.19541
 Alpha  occ. eigenvalues --   -2.19488  -2.19418  -2.19371  -2.19152  -1.13671
 Alpha  occ. eigenvalues --   -1.13662  -1.13624  -1.13489  -1.13420  -1.13398
 Alpha  occ. eigenvalues --   -1.13204  -1.13194  -1.13174  -1.13158  -1.13115
 Alpha  occ. eigenvalues --   -1.13110  -1.13097  -1.13076  -1.13063  -1.13044
 Alpha  occ. eigenvalues --   -1.13002  -1.12988  -1.12820  -1.12815  -1.12795
 Alpha  occ. eigenvalues --   -0.18442  -0.13117  -0.12240  -0.10731
 Alpha virt. eigenvalues --   -0.05689  -0.05171  -0.04839  -0.03301  -0.02864
 Alpha virt. eigenvalues --   -0.02608  -0.01477  -0.01198  -0.00481  -0.00406
 Alpha virt. eigenvalues --   -0.00026   0.00384   0.00792   0.00851   0.00886

  Beta  occ. eigenvalues --  -38.44165 -38.43899 -38.43673 -38.43631 -38.43515
  Beta  occ. eigenvalues --  -38.43393 -38.43306  -2.19989  -2.19754  -2.19538
  Beta  occ. eigenvalues --   -2.19420  -2.19333  -2.19228  -2.19145  -1.13663
  Beta  occ. eigenvalues --   -1.13643  -1.13627  -1.13491  -1.13399  -1.13390
  Beta  occ. eigenvalues --   -1.13195  -1.13176  -1.13167  -1.13086  -1.13078
  Beta  occ. eigenvalues --   -1.13066  -1.13056  -1.13004  -1.12997  -1.12951
  Beta  occ. eigenvalues --   -1.12899  -1.12887  -1.12813  -1.12794  -1.12786
  Beta  occ. eigenvalues --   -0.17692  -0.12898  -0.12029
  Beta virt. eigenvalues --   -0.06838  -0.05671  -0.05141  -0.04784  -0.02483
  Beta virt. eigenvalues --   -0.02118  -0.01577  -0.01379  -0.01118  -0.00542
  Beta virt. eigenvalues --   -0.00467   0.00115   0.00398   0.00831   0.00863

 Mulliken charges and spin densities:
               1          2
     1  Na  -0.212073   0.713728
     2  Na   0.152474  -0.022035
     3  Na   0.132506  -0.098162
     4  Na  -0.027934  -0.168088
     5  Na   0.139711  -0.107446
     6  Na  -0.269892   0.736169
     7  Na   0.085209  -0.054166
 Sum of Mulliken charges =  -0.00000   1.00000

 Dipole moment (field-independent basis, Debye):
    X=             -0.1474    Y=              0.1030    Z=              0.0436  Tot=              0.1850
 Quadrupole moment (field-independent basis, Debye-Ang):
   XX=            -57.7353   YY=            -61.9179   ZZ=            -74.3463
   XY=             -0.0132   XZ=              0.0492   YZ=              0.9181

 Normal termination of Gaussian 16 at Fri Dec  8 02:29:36 2023.
