 Gaussian 16, Revision B.01,
 Gaussian 16:  ES64L-G16RevB.01 20-Dec-2017

 -------------------------
 #P B3LYP/6-311+g(d) force
 -------------------------

 -----
 DPGEN
 -----
 Symbolic Z-matrix:
 Charge =  0 Multiplicity = 2

                         Standard orientation:
 ---------------------------------------------------------------------
 Center     Atomic      Atomic             Coordinates (Angstroms)
 Number     Number       Type             X           Y           Z
 ---------------------------------------------------------------------
      1         11           0       -1.547113    0.344546   -1.652622
      2         11           0       -0.308214   -0.287596    1.822362
      3         11           0       -3.877790   -0.522264    0.558271
      4         11           0        0.540440   -2.289405   -1.001276
      5         11           0        2.900845   -1.092520    0.957417
      6         11           0        1.981202    0.976093   -1.109755
      7         11           0        0.310629    2.871145    0.425603
 ---------------------------------------------------------------------

 SCF Done:  E(UB3LYP) =  -1136.12708481     A.U. after   20 cycles

 The electronic state is 2-A.
 Alpha  occ. eigenvalues --  -38.44707 -38.44153 -38.44014 -38.43655 -38.43586
 Alpha  occ. eigenvalues --  -38.43487 -38.42708  -2.20481  -2.20039  -2.19908
 Alpha  occ. eigenvalues --   -2.19543  -2.19466  -2.19458  -2.18582  -1.14158
 Alpha  occ. eigenvalues --   -1.14137  -1.14116  -1.13725  -1.13686  -1.13667
 Alpha  occ. eigenvalues --   -1.13624  -1.13548  -1.13529  -1.13257  -1.13192
 Alpha  occ. eigenvalues --   -1.13166  -1.13146  -1.13145  -1.13120  -1.13115
 Alpha  occ. eigenvalues --   -1.13089  -1.13069  -1.12260  -1.12235  -1.12205
 Alpha  occ. eigenvalues --   -0.18729  -0.13249  -0.11757  -0.11488
 Alpha virt. eigenvalues --   -0.06534  -0.04557  -0.04140  -0.03449  -0.02993
 Alpha virt. eigenvalues --   -0.02766  -0.02122  -0.00857  -0.00557   0.00065
 Alpha virt. eigenvalues --    0.00253   0.00267   0.00335   0.00837   0.00882

  Beta  occ. eigenvalues --  -38.44705 -38.44083 -38.43999 -38.43609 -38.43553
  Beta  occ. eigenvalues --  -38.43466 -38.42705  -2.20477  -2.19911  -2.19881
  Beta  occ. eigenvalues --   -2.19461  -2.19423  -2.19407  -2.18577  -1.14153
  Beta  occ. eigenvalues --   -1.14131  -1.14112  -1.13642  -1.13608  -1.13596
  Beta  occ. eigenvalues --   -1.13574  -1.13515  -1.13499  -1.13197  -1.13135
  Beta  occ. eigenvalues --   -1.13125  -1.13104  -1.13099  -1.13076  -1.13065
  Beta  occ. eigenvalues --   -1.13043  -1.13033  -1.12258  -1.12223  -1.12196
  Beta  occ. eigenvalues --   -0.17914  -0.13108  -0.11570
  Beta virt. eigenvalues --   -0.07494  -0.06370  -0.04136  -0.04044  -0.03144
  Beta virt. eigenvalues --   -0.02319  -0.02064  -0.01761  -0.00698  -0.00342
  Beta virt. eigenvalues --    0.00089   0.00281   0.00340   0.00481   0.00876

 Mulliken charges and spin densities:
               1          2
     1  Na   0.140622   0.032930
     2  Na  -0.125518   0.451960
     3  Na  -0.035270   0.018396
     4  Na  -0.359404   0.273773
     5  Na   0.420738  -0.064535
     6  Na   0.328526   0.289431
     7  Na  -0.369694  -0.001955
 Sum of Mulliken charges =  -0.00000   1.00000

 Dipole moment (field-independent basis, Debye):
    X=             -0.5231    Y=             -0.4216    Z=              0.3146  Tot=              0.7419
 Quadrupole moment (field-independent basis, Debye-Ang):
   XX=            -53.9787   YY=            -72.2456   ZZ=            -68.0802
   XY=             -0.5958   XZ=             -0.4079   YZ=              0.9103

 Normal termination of Gaussian 16 at Tue Dec  5 20:04:49 2023.
