 Gaussian 16, Revision B.01,
 Gaussian 16:  ES64L-G16RevB.01 20-Dec-2017

 -------------------------
 #P B3LYP/6-311+g(d) force
 -------------------------

 -----
 DPGEN
 -----
 Symbolic Z-matrix:
 Charge =  0 Multiplicity = 2

                         Standard orientation:
 ---------------------------------------------------------------------
 Center     Atomic      Atomic             Coordinates (Angstroms)
 Number     Number       Type             X           Y           Z
 ---------------------------------------------------------------------
      1         11           0        0.045616    0.094828    1.893448
      2         11           0       -2.792279    1.388958   -0.204893
      3         11           0        0.965694   -2.467026   -0.516966
      4         11           0       -2.287007   -2.058344    0.346826
      5         11           0        0.080635    0.151095   -1.682005
      6         11           0        0.532327    2.891136   -0.069921
      7         11           0        3.455014   -0.000648    0.233511
 ---------------------------------------------------------------------

 SCF Done:  E(UB3LYP) =  -1136.13606022     A.U. after   19 cycles

 The electronic state is 2-A.
 Alpha  occ. eigenvalues --  -38.44481 -38.44041 -38.43492 -38.43491 -38.43424
 Alpha  occ. eigenvalues --  -38.43209 -38.43206  -2.20257  -2.19867  -2.19401
 Alpha  occ. eigenvalues --   -2.19340  -2.19270  -2.19204  -2.19111  -1.13932
 Alpha  occ. eigenvalues --   -1.13913  -1.13896  -1.13551  -1.13528  -1.13500
 Alpha  occ. eigenvalues --   -1.13099  -1.13069  -1.13052  -1.13016  -1.12993
 Alpha  occ. eigenvalues --   -1.12991  -1.12949  -1.12935  -1.12927  -1.12920
 Alpha  occ. eigenvalues --   -1.12853  -1.12801  -1.12752  -1.12731  -1.12703
 Alpha  occ. eigenvalues --   -0.18667  -0.12862  -0.12495  -0.10693
 Alpha virt. eigenvalues --   -0.05988  -0.04977  -0.04540  -0.03095  -0.02926
 Alpha virt. eigenvalues --   -0.02460  -0.01844  -0.01108  -0.00361  -0.00221
 Alpha virt. eigenvalues --    0.00019   0.00333   0.00795   0.00830   0.00914

  Beta  occ. eigenvalues --  -38.44479 -38.44036 -38.43487 -38.43418 -38.43410
  Beta  occ. eigenvalues --  -38.43188 -38.43134  -2.20256  -2.19862  -2.19334
  Beta  occ. eigenvalues --   -2.19262  -2.19251  -2.19088  -2.19063  -1.13922
  Beta  occ. eigenvalues --   -1.13907  -1.13897  -1.13540  -1.13515  -1.13496
  Beta  occ. eigenvalues --   -1.13055  -1.13007  -1.12989  -1.12948  -1.12943
  Beta  occ. eigenvalues --   -1.12925  -1.12922  -1.12919  -1.12902  -1.12883
  Beta  occ. eigenvalues --   -1.12762  -1.12719  -1.12716  -1.12686  -1.12659
  Beta  occ. eigenvalues --   -0.17941  -0.12634  -0.12224
  Beta virt. eigenvalues --   -0.06803  -0.05950  -0.04952  -0.04511  -0.02374
  Beta virt. eigenvalues --   -0.02133  -0.01744  -0.01407  -0.01037  -0.00422
  Beta virt. eigenvalues --   -0.00209   0.00123   0.00353   0.00822   0.00844

 Mulliken charges and spin densities:
               1          2
     1  Na  -0.375657   0.811643
     2  Na   0.098597  -0.063119
     3  Na   0.240768   0.013579
     4  Na   0.047922  -0.001085
     5  Na   0.010942   0.459008
     6  Na   0.004968  -0.147360
     7  Na  -0.027540  -0.072666
 Sum of Mulliken charges =  -0.00000   1.00000

 Dipole moment (field-independent basis, Debye):
    X=              0.1908    Y=              0.3021    Z=              0.1845  Tot=              0.4021
 Quadrupole moment (field-independent basis, Debye-Ang):
   XX=            -53.6225   YY=            -63.7408   ZZ=            -74.8578
   XY=              0.3596   XZ=              0.3869   YZ=             -0.0943

 Normal termination of Gaussian 16 at Sat Dec  9 06:22:30 2023.
