 Gaussian 16, Revision B.01,
 Gaussian 16:  ES64L-G16RevB.01 20-Dec-2017

 -------------------------
 #P B3LYP/6-311+g(d) force
 -------------------------

 -----
 DPGEN
 -----
 Symbolic Z-matrix:
 Charge =  0 Multiplicity = 2

                         Standard orientation:
 ---------------------------------------------------------------------
 Center     Atomic      Atomic             Coordinates (Angstroms)
 Number     Number       Type             X           Y           Z
 ---------------------------------------------------------------------
      1         11           0       -1.406881   -1.929572    0.610707
      2         11           0       -4.408972   -2.513069   -0.324800
      3         11           0       -2.732370    0.917410   -0.801020
      4         11           0       -0.946104    3.588781   -0.530605
      5         11           0        0.519979    1.827104    1.360930
      6         11           0        3.031851   -0.821975    0.720819
      7         11           0        5.942496   -1.068678   -1.036030
 ---------------------------------------------------------------------

 SCF Done:  E(UB3LYP) =  -1136.11802434     A.U. after   21 cycles

 The electronic state is 2-A.
 Alpha  occ. eigenvalues --  -38.45033 -38.44847 -38.44749 -38.44381 -38.43929
 Alpha  occ. eigenvalues --  -38.43742 -38.42986  -2.20830  -2.20684  -2.20573
 Alpha  occ. eigenvalues --   -2.20231  -2.19806  -2.19537  -2.18757  -1.14511
 Alpha  occ. eigenvalues --   -1.14491  -1.14463  -1.14390  -1.14375  -1.14287
 Alpha  occ. eigenvalues --   -1.14253  -1.14248  -1.14155  -1.13952  -1.13884
 Alpha  occ. eigenvalues --   -1.13875  -1.13461  -1.13441  -1.13433  -1.13176
 Alpha  occ. eigenvalues --   -1.13176  -1.13154  -1.12451  -1.12450  -1.12397
 Alpha  occ. eigenvalues --   -0.16911  -0.13663  -0.12891  -0.10687
 Alpha virt. eigenvalues --   -0.06598  -0.05363  -0.04868  -0.03843  -0.02572
 Alpha virt. eigenvalues --   -0.02357  -0.02077  -0.01772  -0.01321  -0.00848
 Alpha virt. eigenvalues --   -0.00247  -0.00115   0.00198   0.00232   0.00542

  Beta  occ. eigenvalues --  -38.45028 -38.44815 -38.44724 -38.44352 -38.43916
  Beta  occ. eigenvalues --  -38.43650 -38.42997  -2.20822  -2.20628  -2.20526
  Beta  occ. eigenvalues --   -2.20178  -2.19784  -2.19365  -2.18784  -1.14503
  Beta  occ. eigenvalues --   -1.14486  -1.14455  -1.14346  -1.14337  -1.14248
  Beta  occ. eigenvalues --   -1.14221  -1.14213  -1.14111  -1.13914  -1.13853
  Beta  occ. eigenvalues --   -1.13832  -1.13434  -1.13427  -1.13418  -1.13058
  Beta  occ. eigenvalues --   -1.13058  -1.13043  -1.12476  -1.12475  -1.12362
  Beta  occ. eigenvalues --   -0.16444  -0.13560  -0.12071
  Beta virt. eigenvalues --   -0.07364  -0.06429  -0.04850  -0.04454  -0.03617
  Beta virt. eigenvalues --   -0.02475  -0.02298  -0.01682  -0.01423  -0.01051
  Beta virt. eigenvalues --   -0.00486  -0.00006   0.00095   0.00330   0.00404

 Mulliken charges and spin densities:
               1          2
     1  Na  -0.772699   0.115442
     2  Na   1.581948   0.056678
     3  Na  -0.723939   0.319252
     4  Na   0.951569   0.005396
     5  Na  -0.704914   0.134032
     6  Na  -0.432747  -0.117463
     7  Na   0.100782   0.486663
 Sum of Mulliken charges =  -0.00000   1.00000

 Dipole moment (field-independent basis, Debye):
    X=             -3.0777    Y=             -0.0092    Z=             -0.3221  Tot=              3.0945
 Quadrupole moment (field-independent basis, Debye-Ang):
   XX=            -63.4761   YY=            -61.6804   ZZ=            -70.6631
   XY=             10.2621   XZ=             -0.4720   YZ=              0.6480

 Normal termination of Gaussian 16 at Wed Nov 29 03:49:19 2023.
