 Gaussian 16, Revision B.01,
 Gaussian 16:  ES64L-G16RevB.01 20-Dec-2017

 -------------------------
 #P B3LYP/6-311+g(d) force
 -------------------------

 -----
 DPGEN
 -----
 Symbolic Z-matrix:
 Charge =  0 Multiplicity = 2

                         Standard orientation:
 ---------------------------------------------------------------------
 Center     Atomic      Atomic             Coordinates (Angstroms)
 Number     Number       Type             X           Y           Z
 ---------------------------------------------------------------------
      1         11           0        0.230143   -1.266012   -1.421933
      2         11           0        2.826598    1.891732   -0.041367
      3         11           0        0.734729   -0.105477    1.718368
      4         11           0        3.706924   -1.279226   -0.211912
      5         11           0       -0.869945    2.046798   -0.397146
      6         11           0       -2.129233   -1.793206    0.512396
      7         11           0       -4.499216    0.505391   -0.158405
 ---------------------------------------------------------------------

 SCF Done:  E(UB3LYP) =  -1136.11671623     A.U. after   44 cycles

 The electronic state is 2-A.
 Alpha  occ. eigenvalues --  -38.45242 -38.44738 -38.44088 -38.43781 -38.43717
 Alpha  occ. eigenvalues --  -38.43673 -38.43115  -2.21152  -2.20612  -2.19905
 Alpha  occ. eigenvalues --   -2.19631  -2.19602  -2.19519  -2.18948  -1.14838
 Alpha  occ. eigenvalues --   -1.14811  -1.14762  -1.14302  -1.14273  -1.14243
 Alpha  occ. eigenvalues --   -1.13559  -1.13544  -1.13515  -1.13324  -1.13312
 Alpha  occ. eigenvalues --   -1.13298  -1.13270  -1.13261  -1.13216  -1.13183
 Alpha  occ. eigenvalues --   -1.13145  -1.13137  -1.12660  -1.12628  -1.12538
 Alpha  occ. eigenvalues --   -0.18357  -0.14330  -0.11242  -0.10742
 Alpha virt. eigenvalues --   -0.07498  -0.05503  -0.04089  -0.03266  -0.03165
 Alpha virt. eigenvalues --   -0.02185  -0.02036  -0.01567  -0.00896  -0.00574
 Alpha virt. eigenvalues --   -0.00401   0.00091   0.00334   0.00615   0.00642

  Beta  occ. eigenvalues --  -38.45209 -38.44742 -38.43990 -38.43768 -38.43702
  Beta  occ. eigenvalues --  -38.43618 -38.43102  -2.21093  -2.20623  -2.19723
  Beta  occ. eigenvalues --   -2.19610  -2.19581  -2.19417  -2.18928  -1.14793
  Beta  occ. eigenvalues --   -1.14765  -1.14717  -1.14294  -1.14278  -1.14262
  Beta  occ. eigenvalues --   -1.13434  -1.13420  -1.13395  -1.13315  -1.13298
  Beta  occ. eigenvalues --   -1.13293  -1.13238  -1.13213  -1.13172  -1.13114
  Beta  occ. eigenvalues --   -1.13084  -1.13063  -1.12648  -1.12604  -1.12522
  Beta  occ. eigenvalues --   -0.17869  -0.13487  -0.11045
  Beta virt. eigenvalues --   -0.07382  -0.07151  -0.05319  -0.03441  -0.03094
  Beta virt. eigenvalues --   -0.02929  -0.02060  -0.01556  -0.01416  -0.00462
  Beta virt. eigenvalues --   -0.00263  -0.00077   0.00169   0.00485   0.00669

 Mulliken charges and spin densities:
               1          2
     1  Na  -0.038299  -0.082924
     2  Na  -0.011873   0.130572
     3  Na   0.055568   0.093560
     4  Na   0.082921   0.417362
     5  Na  -0.384543  -0.113787
     6  Na   0.418699   0.021596
     7  Na  -0.122473   0.533622
 Sum of Mulliken charges =  -0.00000   1.00000

 Dipole moment (field-independent basis, Debye):
    X=              0.5754    Y=             -0.2469    Z=              0.4145  Tot=              0.7509
 Quadrupole moment (field-independent basis, Debye-Ang):
   XX=            -69.8013   YY=            -76.2241   ZZ=            -60.6688
   XY=              1.6932   XZ=              0.2302   YZ=             -2.9338

 Normal termination of Gaussian 16 at Tue Dec  5 21:25:23 2023.
