 Gaussian 16, Revision B.01,
 Gaussian 16:  ES64L-G16RevB.01 20-Dec-2017

 -------------------------
 #P B3LYP/6-311+g(d) force
 -------------------------

 -----
 DPGEN
 -----
 Symbolic Z-matrix:
 Charge =  0 Multiplicity = 2

                         Standard orientation:
 ---------------------------------------------------------------------
 Center     Atomic      Atomic             Coordinates (Angstroms)
 Number     Number       Type             X           Y           Z
 ---------------------------------------------------------------------
      1         11           0       -1.722398    1.296276    1.862307
      2         11           0        0.808543   -1.328453    1.498881
      3         11           0       -4.149021   -1.108079   -0.535610
      4         11           0        3.877922   -0.505710    0.785757
      5         11           0        1.749718   -1.169461   -1.902942
      6         11           0       -1.587654    0.062505   -0.690841
      7         11           0        1.022891    2.752922   -1.017552
 ---------------------------------------------------------------------

 SCF Done:  E(UB3LYP) =  -1136.10483034     A.U. after   27 cycles

 The electronic state is 2-A.
 Alpha  occ. eigenvalues --  -38.45021 -38.44903 -38.44803 -38.44421 -38.44290
 Alpha  occ. eigenvalues --  -38.43324 -38.42950  -2.20832  -2.20724  -2.20673
 Alpha  occ. eigenvalues --   -2.20278  -2.20150  -2.19361  -2.18690  -1.14510
 Alpha  occ. eigenvalues --   -1.14475  -1.14466  -1.14435  -1.14415  -1.14354
 Alpha  occ. eigenvalues --   -1.14328  -1.14310  -1.14240  -1.13971  -1.13941
 Alpha  occ. eigenvalues --   -1.13924  -1.13886  -1.13761  -1.13745  -1.13071
 Alpha  occ. eigenvalues --   -1.13027  -1.12927  -1.12388  -1.12356  -1.12347
 Alpha  occ. eigenvalues --   -0.17941  -0.14124  -0.11473  -0.10793
 Alpha virt. eigenvalues --   -0.07212  -0.05405  -0.04155  -0.03267  -0.02903
 Alpha virt. eigenvalues --   -0.02739  -0.02181  -0.01155  -0.00979  -0.00497
 Alpha virt. eigenvalues --   -0.00174   0.00068   0.00339   0.00586   0.00652

  Beta  occ. eigenvalues --  -38.44993 -38.44855 -38.44744 -38.44390 -38.44223
  Beta  occ. eigenvalues --  -38.43301 -38.42993  -2.20780  -2.20634  -2.20565
  Beta  occ. eigenvalues --   -2.20224  -2.20028  -2.19326  -2.18772  -1.14465
  Beta  occ. eigenvalues --   -1.14437  -1.14435  -1.14367  -1.14357  -1.14298
  Beta  occ. eigenvalues --   -1.14256  -1.14222  -1.14171  -1.13925  -1.13906
  Beta  occ. eigenvalues --   -1.13840  -1.13834  -1.13678  -1.13660  -1.13012
  Beta  occ. eigenvalues --   -1.12996  -1.12896  -1.12444  -1.12405  -1.12400
  Beta  occ. eigenvalues --   -0.17284  -0.13639  -0.10795
  Beta virt. eigenvalues --   -0.07647  -0.06878  -0.04922  -0.03817  -0.03278
  Beta virt. eigenvalues --   -0.02627  -0.02133  -0.01821  -0.00824  -0.00599
  Beta virt. eigenvalues --   -0.00182  -0.00067   0.00218   0.00377   0.00624

 Mulliken charges and spin densities:
               1          2
     1  Na   0.461389   0.222909
     2  Na   0.178547   0.335521
     3  Na  -0.232013   0.240450
     4  Na   0.131778   0.140138
     5  Na   0.043620   0.218955
     6  Na  -1.123786   0.222665
     7  Na   0.540465  -0.380638
 Sum of Mulliken charges =  -0.00000   1.00000

 Dipole moment (field-independent basis, Debye):
    X=              0.9623    Y=             -0.2009    Z=              0.5753  Tot=              1.1391
 Quadrupole moment (field-independent basis, Debye-Ang):
   XX=            -55.2750   YY=            -73.7032   ZZ=            -68.2730
   XY=              1.3452   XZ=             -3.3028   YZ=              5.5859

 Normal termination of Gaussian 16 at Thu Dec  7 17:45:24 2023.
