 Gaussian 16, Revision B.01,
 Gaussian 16:  ES64L-G16RevB.01 20-Dec-2017

 -------------------------
 #P B3LYP/6-311+g(d) force
 -------------------------

 -----
 DPGEN
 -----
 Symbolic Z-matrix:
 Charge =  0 Multiplicity = 2

                         Standard orientation:
 ---------------------------------------------------------------------
 Center     Atomic      Atomic             Coordinates (Angstroms)
 Number     Number       Type             X           Y           Z
 ---------------------------------------------------------------------
      1         11           0        2.550230    0.120839    1.033821
      2         11           0        1.652967    3.238895   -0.682196
      3         11           0       -0.900429   -1.315768    1.437467
      4         11           0       -3.863103   -1.223862   -0.907294
      5         11           0        2.953733   -2.605222   -0.527632
      6         11           0       -0.080137    0.111936   -1.334571
      7         11           0       -2.313261    1.673182    0.980404
 ---------------------------------------------------------------------

 SCF Done:  E(UB3LYP) =  -1136.12020388     A.U. after   22 cycles

 The electronic state is 2-A.
 Alpha  occ. eigenvalues --  -38.44903 -38.44425 -38.44366 -38.44160 -38.44125
 Alpha  occ. eigenvalues --  -38.43958 -38.42916  -2.20715  -2.20294  -2.20157
 Alpha  occ. eigenvalues --   -2.20017  -2.19914  -2.19839  -2.18696  -1.14395
 Alpha  occ. eigenvalues --   -1.14379  -1.14324  -1.14042  -1.13937  -1.13901
 Alpha  occ. eigenvalues --   -1.13823  -1.13812  -1.13763  -1.13729  -1.13704
 Alpha  occ. eigenvalues --   -1.13654  -1.13571  -1.13566  -1.13548  -1.13522
 Alpha  occ. eigenvalues --   -1.13490  -1.13421  -1.12370  -1.12358  -1.12331
 Alpha  occ. eigenvalues --   -0.17783  -0.13655  -0.11514  -0.10210
 Alpha virt. eigenvalues --   -0.06478  -0.06156  -0.04564  -0.03352  -0.02555
 Alpha virt. eigenvalues --   -0.02285  -0.01886  -0.01742  -0.00973  -0.00540
 Alpha virt. eigenvalues --    0.00041   0.00129   0.00305   0.00474   0.00538

  Beta  occ. eigenvalues --  -38.44871 -38.44400 -38.44310 -38.44157 -38.44125
  Beta  occ. eigenvalues --  -38.43906 -38.42913  -2.20660  -2.20250  -2.20052
  Beta  occ. eigenvalues --   -2.20014  -2.19915  -2.19746  -2.18690  -1.14354
  Beta  occ. eigenvalues --   -1.14320  -1.14292  -1.13995  -1.13908  -1.13867
  Beta  occ. eigenvalues --   -1.13751  -1.13732  -1.13725  -1.13696  -1.13693
  Beta  occ. eigenvalues --   -1.13646  -1.13570  -1.13566  -1.13523  -1.13490
  Beta  occ. eigenvalues --   -1.13394  -1.13362  -1.12365  -1.12351  -1.12328
  Beta  occ. eigenvalues --   -0.17179  -0.13379  -0.11380
  Beta virt. eigenvalues --   -0.06579  -0.06263  -0.05826  -0.04412  -0.02929
  Beta virt. eigenvalues --   -0.02312  -0.01982  -0.01512  -0.01261  -0.00640
  Beta virt. eigenvalues --   -0.00391   0.00117   0.00238   0.00437   0.00617

 Mulliken charges and spin densities:
               1          2
     1  Na   0.396035   0.130507
     2  Na   0.153876  -0.128625
     3  Na  -0.024943   0.209077
     4  Na  -0.034167   0.302614
     5  Na  -0.101731  -0.104263
     6  Na  -0.557039   0.514122
     7  Na   0.167970   0.076566
 Sum of Mulliken charges =  -0.00000   1.00000

 Dipole moment (field-independent basis, Debye):
    X=             -0.4776    Y=             -0.2540    Z=              0.4856  Tot=              0.7270
 Quadrupole moment (field-independent basis, Debye-Ang):
   XX=            -56.9073   YY=            -65.4686   ZZ=            -73.0262
   XY=             -3.2935   XZ=             -0.7002   YZ=              3.1849

 Normal termination of Gaussian 16 at Thu Dec  7 23:01:23 2023.
