 Gaussian 16, Revision B.01,
 Gaussian 16:  ES64L-G16RevB.01 20-Dec-2017

 -------------------------
 #P B3LYP/6-311+g(d) force
 -------------------------

 -----
 DPGEN
 -----
 Symbolic Z-matrix:
 Charge =  0 Multiplicity = 2

                         Standard orientation:
 ---------------------------------------------------------------------
 Center     Atomic      Atomic             Coordinates (Angstroms)
 Number     Number       Type             X           Y           Z
 ---------------------------------------------------------------------
      1         11           0        4.255287   -0.871636   -0.954533
      2         11           0        1.954269    0.361400    1.581543
      3         11           0        0.022094    2.899333   -0.190123
      4         11           0       -1.834854    0.388946    1.527698
      5         11           0       -2.378081   -2.583860    0.239887
      6         11           0        0.646783   -0.908688   -0.461070
      7         11           0       -2.665499    0.714506   -1.743402
 ---------------------------------------------------------------------

 SCF Done:  E(UB3LYP) =  -1136.12311761     A.U. after   21 cycles

 The electronic state is 2-A.
 Alpha  occ. eigenvalues --  -38.44277 -38.44267 -38.44171 -38.44018 -38.43964
 Alpha  occ. eigenvalues --  -38.43261 -38.43029  -2.20102  -2.20097  -2.20062
 Alpha  occ. eigenvalues --   -2.19967  -2.19889  -2.19093  -2.18841  -1.14119
 Alpha  occ. eigenvalues --   -1.13781  -1.13756  -1.13728  -1.13726  -1.13718
 Alpha  occ. eigenvalues --   -1.13693  -1.13686  -1.13644  -1.13625  -1.13595
 Alpha  occ. eigenvalues --   -1.13560  -1.13552  -1.13499  -1.13491  -1.12768
 Alpha  occ. eigenvalues --   -1.12751  -1.12725  -1.12523  -1.12496  -1.12487
 Alpha  occ. eigenvalues --   -0.18240  -0.13665  -0.11580  -0.10842
 Alpha virt. eigenvalues --   -0.06252  -0.05020  -0.04801  -0.03287  -0.02549
 Alpha virt. eigenvalues --   -0.02211  -0.02203  -0.01133  -0.00804  -0.00278
 Alpha virt. eigenvalues --    0.00118   0.00162   0.00351   0.00535   0.00740

  Beta  occ. eigenvalues --  -38.44237 -38.44193 -38.44142 -38.44012 -38.43932
  Beta  occ. eigenvalues --  -38.43257 -38.43032  -2.20050  -2.19986  -2.19964
  Beta  occ. eigenvalues --   -2.19955  -2.19835  -2.19086  -2.18848  -1.14091
  Beta  occ. eigenvalues --   -1.13693  -1.13688  -1.13673  -1.13668  -1.13666
  Beta  occ. eigenvalues --   -1.13642  -1.13601  -1.13594  -1.13586  -1.13563
  Beta  occ. eigenvalues --   -1.13527  -1.13487  -1.13483  -1.13459  -1.12762
  Beta  occ. eigenvalues --   -1.12743  -1.12716  -1.12529  -1.12504  -1.12473
  Beta  occ. eigenvalues --   -0.17577  -0.13298  -0.11353
  Beta virt. eigenvalues --   -0.07243  -0.05929  -0.04854  -0.04322  -0.03065
  Beta virt. eigenvalues --   -0.02221  -0.01868  -0.01557  -0.01068  -0.00392
  Beta virt. eigenvalues --   -0.00169   0.00224   0.00342   0.00440   0.00647

 Mulliken charges and spin densities:
               1          2
     1  Na  -0.008541   0.196059
     2  Na   0.678289  -0.075046
     3  Na  -0.267396   0.045375
     4  Na   0.531907   0.274595
     5  Na   0.789711  -0.140498
     6  Na  -1.591687   0.290809
     7  Na  -0.132284   0.408705
 Sum of Mulliken charges =  -0.00000   1.00000

 Dipole moment (field-independent basis, Debye):
    X=              0.2314    Y=              0.1801    Z=              0.1140  Tot=              0.3146
 Quadrupole moment (field-independent basis, Debye-Ang):
   XX=            -56.4037   YY=            -70.5232   ZZ=            -66.6258
   XY=              2.3035   XZ=             -1.1864   YZ=              0.9373

 Normal termination of Gaussian 16 at Tue Dec  5 14:40:16 2023.
