 Gaussian 16, Revision B.01,
 Gaussian 16:  ES64L-G16RevB.01 20-Dec-2017

 -------------------------
 #P B3LYP/6-311+g(d) force
 -------------------------

 -----
 DPGEN
 -----
 Symbolic Z-matrix:
 Charge =  0 Multiplicity = 2

                         Standard orientation:
 ---------------------------------------------------------------------
 Center     Atomic      Atomic             Coordinates (Angstroms)
 Number     Number       Type             X           Y           Z
 ---------------------------------------------------------------------
      1         11           0        0.583215    1.586015    1.106212
      2         11           0        2.336319    3.647289   -0.518526
      3         11           0        3.589808   -0.462161   -0.631767
      4         11           0       -0.191027   -1.853752   -0.432406
      5         11           0       -2.446533    0.354533    0.588174
      6         11           0        2.542930   -3.155109    0.387843
      7         11           0       -6.414711   -0.116815   -0.499529
 ---------------------------------------------------------------------

 SCF Done:  E(UB3LYP) =  -1136.11630012     A.U. after   19 cycles

 The electronic state is 2-A.
 Alpha  occ. eigenvalues --  -38.45188 -38.44812 -38.44269 -38.44096 -38.43847
 Alpha  occ. eigenvalues --  -38.43632 -38.43191  -2.20971  -2.20623  -2.20127
 Alpha  occ. eigenvalues --   -2.19965  -2.19635  -2.19494  -2.19015  -1.14595
 Alpha  occ. eigenvalues --   -1.14595  -1.14569  -1.14319  -1.14293  -1.14246
 Alpha  occ. eigenvalues --   -1.13837  -1.13796  -1.13772  -1.13620  -1.13601
 Alpha  occ. eigenvalues --   -1.13585  -1.13344  -1.13296  -1.13270  -1.13176
 Alpha  occ. eigenvalues --   -1.13166  -1.13098  -1.12694  -1.12683  -1.12663
 Alpha  occ. eigenvalues --   -0.16842  -0.13536  -0.12638  -0.11372
 Alpha virt. eigenvalues --   -0.06124  -0.05551  -0.04785  -0.03749  -0.02440
 Alpha virt. eigenvalues --   -0.02321  -0.02034  -0.01657  -0.01590  -0.00834
 Alpha virt. eigenvalues --   -0.00355  -0.00049   0.00207   0.00326   0.00594

  Beta  occ. eigenvalues --  -38.45035 -38.44792 -38.44252 -38.44094 -38.43845
  Beta  occ. eigenvalues --  -38.43620 -38.43193  -2.20685  -2.20585  -2.20096
  Beta  occ. eigenvalues --   -2.19962  -2.19632  -2.19474  -2.19026  -1.14402
  Beta  occ. eigenvalues --   -1.14402  -1.14378  -1.14294  -1.14268  -1.14218
  Beta  occ. eigenvalues --   -1.13821  -1.13776  -1.13746  -1.13612  -1.13598
  Beta  occ. eigenvalues --   -1.13581  -1.13341  -1.13294  -1.13266  -1.13165
  Beta  occ. eigenvalues --   -1.13154  -1.13076  -1.12707  -1.12696  -1.12630
  Beta  occ. eigenvalues --   -0.16568  -0.12943  -0.12182
  Beta virt. eigenvalues --   -0.07482  -0.05919  -0.05441  -0.04309  -0.03609
  Beta virt. eigenvalues --   -0.02276  -0.02078  -0.01563  -0.01328  -0.00987
  Beta virt. eigenvalues --   -0.00309  -0.00185   0.00051   0.00401   0.00472

 Mulliken charges and spin densities:
               1          2
     1  Na  -0.313755  -0.088429
     2  Na   0.577048   0.045770
     3  Na   0.039498   0.177575
     4  Na  -0.472111  -0.064624
     5  Na  -0.204037   0.222245
     6  Na   0.490083   0.052724
     7  Na  -0.116726   0.654738
 Sum of Mulliken charges =  -0.00000   1.00000

 Dipole moment (field-independent basis, Debye):
    X=              1.0458    Y=             -0.6871    Z=             -0.3206  Tot=              1.2917
 Quadrupole moment (field-independent basis, Debye-Ang):
   XX=            -66.9437   YY=            -62.9807   ZZ=            -69.2847
   XY=             -0.8401   XZ=             -0.2599   YZ=             -2.5340

 Normal termination of Gaussian 16 at Tue Nov 28 21:14:44 2023.
