 Gaussian 16, Revision B.01,
 Gaussian 16:  ES64L-G16RevB.01 20-Dec-2017

 -------------------------
 #P B3LYP/6-311+g(d) force
 -------------------------

 -----
 DPGEN
 -----
 Symbolic Z-matrix:
 Charge =  0 Multiplicity = 2

                         Standard orientation:
 ---------------------------------------------------------------------
 Center     Atomic      Atomic             Coordinates (Angstroms)
 Number     Number       Type             X           Y           Z
 ---------------------------------------------------------------------
      1         11           0        3.918045   -0.162645   -1.292511
      2         11           0       -0.367762    2.651547   -1.010113
      3         11           0       -1.210240   -0.314289    2.303559
      4         11           0       -3.270110    1.417762   -0.689891
      5         11           0       -2.626160   -2.495352   -0.581511
      6         11           0        1.261917   -1.774495   -0.757942
      7         11           0        2.294308    0.677472    2.028409
 ---------------------------------------------------------------------

 SCF Done:  E(UB3LYP) =  -1136.11719612     A.U. after   21 cycles

 The electronic state is 2-A.
 Alpha  occ. eigenvalues --  -38.45178 -38.45104 -38.44728 -38.44301 -38.43854
 Alpha  occ. eigenvalues --  -38.43483 -38.43321  -2.20958  -2.20897  -2.20543
 Alpha  occ. eigenvalues --   -2.20108  -2.19660  -2.19244  -2.19102  -1.14641
 Alpha  occ. eigenvalues --   -1.14607  -1.14576  -1.14557  -1.14553  -1.14506
 Alpha  occ. eigenvalues --   -1.14235  -1.14187  -1.14161  -1.13801  -1.13783
 Alpha  occ. eigenvalues --   -1.13714  -1.13345  -1.13326  -1.13285  -1.12921
 Alpha  occ. eigenvalues --   -1.12902  -1.12882  -1.12780  -1.12756  -1.12739
 Alpha  occ. eigenvalues --   -0.16972  -0.13596  -0.11840  -0.11149
 Alpha virt. eigenvalues --   -0.06167  -0.05799  -0.04860  -0.03536  -0.03036
 Alpha virt. eigenvalues --   -0.02550  -0.02053  -0.01372  -0.01046  -0.00475
 Alpha virt. eigenvalues --   -0.00128   0.00038   0.00238   0.00418   0.00506

  Beta  occ. eigenvalues --  -38.45115 -38.45039 -38.44694 -38.44283 -38.43839
  Beta  occ. eigenvalues --  -38.43478 -38.43316  -2.20843  -2.20781  -2.20480
  Beta  occ. eigenvalues --   -2.20078  -2.19632  -2.19234  -2.19095  -1.14560
  Beta  occ. eigenvalues --   -1.14533  -1.14486  -1.14479  -1.14465  -1.14410
  Beta  occ. eigenvalues --   -1.14183  -1.14146  -1.14123  -1.13779  -1.13754
  Beta  occ. eigenvalues --   -1.13688  -1.13323  -1.13308  -1.13264  -1.12911
  Beta  occ. eigenvalues --   -1.12895  -1.12877  -1.12773  -1.12751  -1.12731
  Beta  occ. eigenvalues --   -0.16263  -0.13310  -0.11025
  Beta virt. eigenvalues --   -0.07911  -0.06040  -0.05314  -0.04596  -0.03248
  Beta virt. eigenvalues --   -0.02374  -0.02073  -0.01957  -0.01098  -0.00737
  Beta virt. eigenvalues --   -0.00308   0.00008   0.00138   0.00293   0.00527

 Mulliken charges and spin densities:
               1          2
     1  Na   0.716914   0.098602
     2  Na  -0.147598   0.001539
     3  Na  -0.120547   0.275618
     4  Na   0.044567   0.101544
     5  Na   0.246922   0.019062
     6  Na  -0.841899   0.240247
     7  Na   0.101641   0.263388
 Sum of Mulliken charges =  -0.00000   1.00000

 Dipole moment (field-independent basis, Debye):
    X=              1.1687    Y=             -0.0125    Z=              0.3666  Tot=              1.2250
 Quadrupole moment (field-independent basis, Debye-Ang):
   XX=            -52.6888   YY=            -79.0014   ZZ=            -66.3867
   XY=              4.7157   XZ=             -1.7996   YZ=              2.4879

 Normal termination of Gaussian 16 at Sun Dec  3 23:19:12 2023.
