 Gaussian 16, Revision B.01,
 Gaussian 16:  ES64L-G16RevB.01 20-Dec-2017

 -------------------------
 #P B3LYP/6-311+g(d) force
 -------------------------

 -----
 DPGEN
 -----
 Symbolic Z-matrix:
 Charge =  0 Multiplicity = 2

                         Standard orientation:
 ---------------------------------------------------------------------
 Center     Atomic      Atomic             Coordinates (Angstroms)
 Number     Number       Type             X           Y           Z
 ---------------------------------------------------------------------
      1         11           0       -0.095172    0.280034    1.985609
      2         11           0        1.142012    1.542160   -1.050264
      3         11           0        1.523882   -2.213247    0.348795
      4         11           0       -2.001445    2.261480    0.131477
      5         11           0       -3.314702   -1.203687    0.187797
      6         11           0        3.598474    0.360734    0.084176
      7         11           0       -0.853049   -1.027475   -1.687590
 ---------------------------------------------------------------------

 SCF Done:  E(UB3LYP) =  -1136.12276163     A.U. after   22 cycles

 The electronic state is 2-A.
 Alpha  occ. eigenvalues --  -38.45308 -38.45051 -38.43966 -38.43442 -38.43386
 Alpha  occ. eigenvalues --  -38.43240 -38.43024  -2.21153  -2.20854  -2.19864
 Alpha  occ. eigenvalues --   -2.19313  -2.19309  -2.19087  -2.18977  -1.14876
 Alpha  occ. eigenvalues --   -1.14790  -1.14783  -1.14557  -1.14501  -1.14488
 Alpha  occ. eigenvalues --   -1.13546  -1.13500  -1.13481  -1.13031  -1.12989
 Alpha  occ. eigenvalues --   -1.12975  -1.12956  -1.12937  -1.12907  -1.12768
 Alpha  occ. eigenvalues --   -1.12758  -1.12724  -1.12661  -1.12634  -1.12581
 Alpha  occ. eigenvalues --   -0.18743  -0.13819  -0.11467  -0.11127
 Alpha virt. eigenvalues --   -0.06995  -0.05141  -0.03804  -0.03292  -0.02970
 Alpha virt. eigenvalues --   -0.02579  -0.02371  -0.01087  -0.00367  -0.00153
 Alpha virt. eigenvalues --    0.00132   0.00199   0.00463   0.00723   0.00787

  Beta  occ. eigenvalues --  -38.45308 -38.45054 -38.43882 -38.43427 -38.43328
  Beta  occ. eigenvalues --  -38.43237 -38.42986  -2.21156  -2.20862  -2.19710
  Beta  occ. eigenvalues --   -2.19285  -2.19206  -2.19085  -2.18908  -1.14872
  Beta  occ. eigenvalues --   -1.14794  -1.14774  -1.14553  -1.14505  -1.14489
  Beta  occ. eigenvalues --   -1.13445  -1.13384  -1.13373  -1.12998  -1.12942
  Beta  occ. eigenvalues --   -1.12923  -1.12909  -1.12884  -1.12840  -1.12765
  Beta  occ. eigenvalues --   -1.12733  -1.12726  -1.12609  -1.12590  -1.12522
  Beta  occ. eigenvalues --   -0.17991  -0.13628  -0.11246
  Beta virt. eigenvalues --   -0.07185  -0.06854  -0.05090  -0.03241  -0.03086
  Beta virt. eigenvalues --   -0.02521  -0.02002  -0.01578  -0.00996  -0.00276
  Beta virt. eigenvalues --   -0.00037   0.00161   0.00208   0.00602   0.00774

 Mulliken charges and spin densities:
               1          2
     1  Na  -0.183585   0.518216
     2  Na   0.015190   0.300354
     3  Na   0.004876   0.171449
     4  Na  -0.080369   0.058091
     5  Na  -0.010859  -0.096774
     6  Na   0.016492  -0.102421
     7  Na   0.238255   0.151085
 Sum of Mulliken charges =  -0.00000   1.00000

 Dipole moment (field-independent basis, Debye):
    X=              0.0433    Y=             -0.1476    Z=              0.4854  Tot=              0.5092
 Quadrupole moment (field-independent basis, Debye-Ang):
   XX=            -46.7516   YY=            -74.0503   ZZ=            -72.3052
   XY=              0.1089   XZ=             -0.6521   YZ=             -1.5211

 Normal termination of Gaussian 16 at Tue Dec  5 23:51:29 2023.
