 Gaussian 16, Revision B.01,
 Gaussian 16:  ES64L-G16RevB.01 20-Dec-2017

 -------------------------
 #P B3LYP/6-311+g(d) force
 -------------------------

 -----
 DPGEN
 -----
 Symbolic Z-matrix:
 Charge =  0 Multiplicity = 2

                         Standard orientation:
 ---------------------------------------------------------------------
 Center     Atomic      Atomic             Coordinates (Angstroms)
 Number     Number       Type             X           Y           Z
 ---------------------------------------------------------------------
      1         11           0        3.095650    1.568068   -0.103956
      2         11           0       -0.559403    3.107874   -0.532370
      3         11           0       -2.797776    0.539768   -1.469818
      4         11           0       -2.926526   -0.641835    1.733929
      5         11           0        1.125513   -0.138866    2.139419
      6         11           0       -0.532327   -2.615997   -1.011733
      7         11           0        2.594870   -1.819013   -0.755470
 ---------------------------------------------------------------------

 SCF Done:  E(UB3LYP) =  -1136.12157815     A.U. after   20 cycles

 The electronic state is 2-A.
 Alpha  occ. eigenvalues --  -38.44921 -38.44854 -38.44368 -38.44166 -38.44028
 Alpha  occ. eigenvalues --  -38.43789 -38.43704  -2.20720  -2.20635  -2.20159
 Alpha  occ. eigenvalues --   -2.19967  -2.19778  -2.19624  -2.19499  -1.14386
 Alpha  occ. eigenvalues --   -1.14367  -1.14345  -1.14288  -1.14285  -1.14271
 Alpha  occ. eigenvalues --   -1.13842  -1.13820  -1.13794  -1.13643  -1.13627
 Alpha  occ. eigenvalues --   -1.13600  -1.13459  -1.13441  -1.13405  -1.13322
 Alpha  occ. eigenvalues --   -1.13294  -1.13258  -1.13175  -1.13154  -1.13115
 Alpha  occ. eigenvalues --   -0.16994  -0.13538  -0.11946  -0.11040
 Alpha virt. eigenvalues --   -0.06380  -0.05451  -0.05364  -0.03596  -0.02854
 Alpha virt. eigenvalues --   -0.02740  -0.01722  -0.00928  -0.00737  -0.00616
 Alpha virt. eigenvalues --   -0.00439   0.00126   0.00217   0.00413   0.00520

  Beta  occ. eigenvalues --  -38.44857 -38.44802 -38.44371 -38.44146 -38.44013
  Beta  occ. eigenvalues --  -38.43775 -38.43681  -2.20600  -2.20539  -2.20166
  Beta  occ. eigenvalues --   -2.19930  -2.19752  -2.19599  -2.19460  -1.14307
  Beta  occ. eigenvalues --   -1.14290  -1.14250  -1.14224  -1.14211  -1.14205
  Beta  occ. eigenvalues --   -1.13840  -1.13823  -1.13802  -1.13611  -1.13604
  Beta  occ. eigenvalues --   -1.13571  -1.13436  -1.13425  -1.13384  -1.13302
  Beta  occ. eigenvalues --   -1.13276  -1.13235  -1.13143  -1.13127  -1.13084
  Beta  occ. eigenvalues --   -0.16449  -0.13348  -0.11611
  Beta virt. eigenvalues --   -0.07458  -0.06145  -0.05317  -0.04713  -0.03390
  Beta virt. eigenvalues --   -0.02368  -0.01938  -0.01583  -0.00878  -0.00648
  Beta virt. eigenvalues --   -0.00518  -0.00151   0.00300   0.00438   0.00487

 Mulliken charges and spin densities:
               1          2
     1  Na   0.321060  -0.026879
     2  Na  -0.278802   0.018584
     3  Na   0.162923   0.243723
     4  Na   0.175593   0.216822
     5  Na  -0.263791   0.406120
     6  Na  -0.252981   0.074987
     7  Na   0.135997   0.066643
 Sum of Mulliken charges =  -0.00000   1.00000

 Dipole moment (field-independent basis, Debye):
    X=              0.1481    Y=              0.0861    Z=              0.2107  Tot=              0.2715
 Quadrupole moment (field-independent basis, Debye-Ang):
   XX=            -56.8916   YY=            -72.7635   ZZ=            -69.4791
   XY=              2.4899   XZ=             -1.6400   YZ=             -0.4829

 Normal termination of Gaussian 16 at Sun Dec  3 23:25:20 2023.
