 Gaussian 16, Revision B.01,
 Gaussian 16:  ES64L-G16RevB.01 20-Dec-2017

 -------------------------
 #P B3LYP/6-311+g(d) force
 -------------------------

 -----
 DPGEN
 -----
 Symbolic Z-matrix:
 Charge =  0 Multiplicity = 2

                         Standard orientation:
 ---------------------------------------------------------------------
 Center     Atomic      Atomic             Coordinates (Angstroms)
 Number     Number       Type             X           Y           Z
 ---------------------------------------------------------------------
      1         11           0       -0.047137   -0.150884   -1.635717
      2         11           0       -0.215298    0.249205    1.677234
      3         11           0       -0.991843    2.900373   -0.167359
      4         11           0       -0.889716   -2.774475    0.245866
      5         11           0       -3.054415   -0.054174   -0.103040
      6         11           0        2.820128    1.570006    0.141279
      7         11           0        2.378282   -1.740049   -0.158262
 ---------------------------------------------------------------------

 SCF Done:  E(UB3LYP) =  -1136.13885457     A.U. after   20 cycles

 The electronic state is 2-A.
 Alpha  occ. eigenvalues --  -38.44022 -38.44002 -38.43709 -38.43579 -38.43251
 Alpha  occ. eigenvalues --  -38.42912 -38.42896  -2.19870  -2.19832  -2.19544
 Alpha  occ. eigenvalues --   -2.19455  -2.19136  -2.18899  -2.18895  -1.13550
 Alpha  occ. eigenvalues --   -1.13543  -1.13505  -1.13498  -1.13498  -1.13474
 Alpha  occ. eigenvalues --   -1.13228  -1.13215  -1.13170  -1.13152  -1.13112
 Alpha  occ. eigenvalues --   -1.13089  -1.12827  -1.12803  -1.12770  -1.12635
 Alpha  occ. eigenvalues --   -1.12548  -1.12523  -1.12516  -1.12510  -1.12504
 Alpha  occ. eigenvalues --   -0.18920  -0.13145  -0.12600  -0.10310
 Alpha virt. eigenvalues --   -0.05712  -0.05155  -0.04888  -0.03001  -0.02748
 Alpha virt. eigenvalues --   -0.02046  -0.01572  -0.01256  -0.00509  -0.00339
 Alpha virt. eigenvalues --    0.00044   0.00359   0.00831   0.00848   0.00894

  Beta  occ. eigenvalues --  -38.44021 -38.43995 -38.43704 -38.43573 -38.43242
  Beta  occ. eigenvalues --  -38.42837 -38.42823  -2.19860  -2.19831  -2.19538
  Beta  occ. eigenvalues --   -2.19448  -2.19124  -2.18765  -2.18758  -1.13547
  Beta  occ. eigenvalues --   -1.13509  -1.13504  -1.13490  -1.13482  -1.13476
  Beta  occ. eigenvalues --   -1.13222  -1.13191  -1.13167  -1.13142  -1.13091
  Beta  occ. eigenvalues --   -1.13084  -1.12819  -1.12771  -1.12756  -1.12544
  Beta  occ. eigenvalues --   -1.12453  -1.12426  -1.12419  -1.12415  -1.12402
  Beta  occ. eigenvalues --   -0.18204  -0.12891  -0.12346
  Beta virt. eigenvalues --   -0.06421  -0.05701  -0.05130  -0.04870  -0.02216
  Beta virt. eigenvalues --   -0.01988  -0.01498  -0.01185  -0.01027  -0.00562
  Beta virt. eigenvalues --   -0.00389   0.00174   0.00388   0.00838   0.00866

 Mulliken charges and spin densities:
               1          2
     1  Na  -0.258237   0.632899
     2  Na  -0.346437   0.718128
     3  Na  -0.013654  -0.138370
     4  Na   0.179620  -0.024575
     5  Na   0.268476  -0.047156
     6  Na  -0.016937  -0.110597
     7  Na   0.187170  -0.030329
 Sum of Mulliken charges =  -0.00000   1.00000

 Dipole moment (field-independent basis, Debye):
    X=             -0.0491    Y=              0.2591    Z=              0.0072  Tot=              0.2638
 Quadrupole moment (field-independent basis, Debye-Ang):
   XX=            -55.3434   YY=            -59.3426   ZZ=            -76.7438
   XY=              0.4956   XZ=              0.4258   YZ=             -0.8815

 Normal termination of Gaussian 16 at Thu Dec  7 04:03:34 2023.
