 Gaussian 16, Revision B.01,
 Gaussian 16:  ES64L-G16RevB.01 20-Dec-2017

 -------------------------
 #P B3LYP/6-311+g(d) force
 -------------------------

 -----
 DPGEN
 -----
 Symbolic Z-matrix:
 Charge =  0 Multiplicity = 2

                         Standard orientation:
 ---------------------------------------------------------------------
 Center     Atomic      Atomic             Coordinates (Angstroms)
 Number     Number       Type             X           Y           Z
 ---------------------------------------------------------------------
      1         11           0        1.892100    1.259045    0.003308
      2         11           0        0.095831    0.012527   -1.966122
      3         11           0       -2.779247   -0.007263   -0.000102
      4         11           0        0.104675   -0.011342    1.968064
      5         11           0       -0.602344   -1.574755   -0.006470
      6         11           0        1.904235   -1.251447   -0.010803
      7         11           0       -0.615250    1.573235    0.012125
 ---------------------------------------------------------------------

 SCF Done:  E(UB3LYP) =  -1136.01812411     A.U. after   26 cycles

 The electronic state is 2-A.
 Alpha  occ. eigenvalues --  -38.45674 -38.45671 -38.45335 -38.45329 -38.44502
 Alpha  occ. eigenvalues --  -38.43067 -38.43065  -2.22183  -2.22160  -2.21695
 Alpha  occ. eigenvalues --   -2.21544  -2.20566  -2.19337  -2.19330  -1.16380
 Alpha  occ. eigenvalues --   -1.16283  -1.16063  -1.15860  -1.15829  -1.15791
 Alpha  occ. eigenvalues --   -1.15731  -1.15179  -1.15153  -1.15068  -1.14986
 Alpha  occ. eigenvalues --   -1.14814  -1.14246  -1.14240  -1.14062  -1.13082
 Alpha  occ. eigenvalues --   -1.13074  -1.13025  -1.12984  -1.12820  -1.12812
 Alpha  occ. eigenvalues --   -0.22576  -0.14158  -0.13586  -0.12301
 Alpha virt. eigenvalues --   -0.05505  -0.04317  -0.04231  -0.03491  -0.03195
 Alpha virt. eigenvalues --   -0.02561  -0.01207  -0.00327  -0.00129   0.00286
 Alpha virt. eigenvalues --    0.00768   0.00959   0.01063   0.01199   0.01358

  Beta  occ. eigenvalues --  -38.45582 -38.45580 -38.45283 -38.45277 -38.44496
  Beta  occ. eigenvalues --  -38.43050 -38.43048  -2.22024  -2.22000  -2.21604
  Beta  occ. eigenvalues --   -2.21452  -2.20558  -2.19315  -2.19308  -1.16257
  Beta  occ. eigenvalues --   -1.16152  -1.15972  -1.15785  -1.15715  -1.15672
  Beta  occ. eigenvalues --   -1.15621  -1.15094  -1.15090  -1.14981  -1.14926
  Beta  occ. eigenvalues --   -1.14742  -1.14230  -1.14210  -1.14063  -1.13076
  Beta  occ. eigenvalues --   -1.13069  -1.12937  -1.12896  -1.12816  -1.12808
  Beta  occ. eigenvalues --   -0.21783  -0.13968  -0.11894
  Beta virt. eigenvalues --   -0.09032  -0.05481  -0.03474  -0.03469  -0.03339
  Beta virt. eigenvalues --   -0.02227  -0.02100  -0.01196  -0.00115  -0.00091
  Beta virt. eigenvalues --    0.00311   0.00820   0.01133   0.01146   0.01251

 Mulliken charges and spin densities:
               1          2
     1  Na   0.270006  -0.000008
     2  Na   0.398453   0.160328
     3  Na   0.031318  -0.028261
     4  Na   0.398515   0.159428
     5  Na  -0.690939   0.356644
     6  Na   0.275128   0.000393
     7  Na  -0.682480   0.351477
 Sum of Mulliken charges =  -0.00000   1.00000

 Dipole moment (field-independent basis, Debye):
    X=             -0.2662    Y=             -0.0036    Z=              0.0009  Tot=              0.2662
 Quadrupole moment (field-independent basis, Debye-Ang):
   XX=            -58.5910   YY=            -63.6717   ZZ=            -76.2552
   XY=              0.0049   XZ=             -0.0010   YZ=             -0.0650

 Normal termination of Gaussian 16 at Fri Dec  8 18:36:30 2023.
