 Gaussian 16, Revision B.01,
 Gaussian 16:  ES64L-G16RevB.01 20-Dec-2017

 -------------------------
 #P B3LYP/6-311+g(d) force
 -------------------------

 -----
 DPGEN
 -----
 Symbolic Z-matrix:
 Charge =  0 Multiplicity = 2

                         Standard orientation:
 ---------------------------------------------------------------------
 Center     Atomic      Atomic             Coordinates (Angstroms)
 Number     Number       Type             X           Y           Z
 ---------------------------------------------------------------------
      1         11           0       -3.320343    2.319634    0.583561
      2         11           0        0.274393    3.241842   -0.339330
      3         11           0        3.379042    2.278746    0.079329
      4         11           0        4.073749   -1.271412   -0.505162
      5         11           0        1.584665   -2.821346    0.997001
      6         11           0       -1.902901   -3.000926   -0.500147
      7         11           0       -4.088606   -0.746538   -0.315252
 ---------------------------------------------------------------------

 SCF Done:  E(UB3LYP) =  -1136.10897783     A.U. after   23 cycles

 The electronic state is 2-A.
 Alpha  occ. eigenvalues --  -38.45032 -38.44787 -38.44777 -38.44721 -38.44339
 Alpha  occ. eigenvalues --  -38.43931 -38.43903  -2.20797  -2.20596  -2.20581
 Alpha  occ. eigenvalues --   -2.20489  -2.20138  -2.19750  -2.19715  -1.14476
 Alpha  occ. eigenvalues --   -1.14470  -1.14445  -1.14285  -1.14263  -1.14254
 Alpha  occ. eigenvalues --   -1.14241  -1.14224  -1.14216  -1.14169  -1.14164
 Alpha  occ. eigenvalues --   -1.14131  -1.13800  -1.13790  -1.13768  -1.13404
 Alpha  occ. eigenvalues --   -1.13395  -1.13377  -1.13361  -1.13360  -1.13343
 Alpha  occ. eigenvalues --   -0.15706  -0.14237  -0.13323  -0.10752
 Alpha virt. eigenvalues --   -0.07688  -0.04899  -0.04176  -0.03634  -0.03387
 Alpha virt. eigenvalues --   -0.02733  -0.02273  -0.01977  -0.01088  -0.00594
 Alpha virt. eigenvalues --   -0.00367  -0.00189   0.00151   0.00371   0.00587

  Beta  occ. eigenvalues --  -38.45026 -38.44764 -38.44753 -38.44707 -38.44302
  Beta  occ. eigenvalues --  -38.43871 -38.43832  -2.20789  -2.20581  -2.20520
  Beta  occ. eigenvalues --   -2.20467  -2.20074  -2.19639  -2.19584  -1.14471
  Beta  occ. eigenvalues --   -1.14467  -1.14417  -1.14264  -1.14260  -1.14204
  Beta  occ. eigenvalues --   -1.14201  -1.14186  -1.14165  -1.14158  -1.14154
  Beta  occ. eigenvalues --   -1.14083  -1.13758  -1.13747  -1.13713  -1.13330
  Beta  occ. eigenvalues --   -1.13320  -1.13302  -1.13273  -1.13271  -1.13256
  Beta  occ. eigenvalues --   -0.15185  -0.13458  -0.12539
  Beta virt. eigenvalues --   -0.07890  -0.07626  -0.04529  -0.03672  -0.03427
  Beta virt. eigenvalues --   -0.02999  -0.02469  -0.02101  -0.01724  -0.00969
  Beta virt. eigenvalues --   -0.00290  -0.00210   0.00056   0.00244   0.00414

 Mulliken charges and spin densities:
               1          2
     1  Na   0.159851   0.320080
     2  Na  -0.195756   0.051894
     3  Na   0.005053   0.112774
     4  Na   0.094978   0.150518
     5  Na  -0.184866   0.039697
     6  Na  -0.043695   0.241576
     7  Na   0.164435   0.083461
 Sum of Mulliken charges =  -0.00000   1.00000

 Dipole moment (field-independent basis, Debye):
    X=              0.8424    Y=             -0.2861    Z=              0.0141  Tot=              0.8898
 Quadrupole moment (field-independent basis, Debye-Ang):
   XX=            -59.2071   YY=            -71.7182   ZZ=            -70.6642
   XY=              0.0351   XZ=             -0.9636   YZ=             -0.3907

 Normal termination of Gaussian 16 at Mon Dec  4 00:50:41 2023.
