 Gaussian 16, Revision B.01,
 Gaussian 16:  ES64L-G16RevB.01 20-Dec-2017

 -------------------------
 #P B3LYP/6-311+g(d) force
 -------------------------

 -----
 DPGEN
 -----
 Symbolic Z-matrix:
 Charge =  0 Multiplicity = 2

                         Standard orientation:
 ---------------------------------------------------------------------
 Center     Atomic      Atomic             Coordinates (Angstroms)
 Number     Number       Type             X           Y           Z
 ---------------------------------------------------------------------
      1         11           0        3.657605   -1.462513   -0.011708
      2         11           0       -2.899821   -1.978493    0.424258
      3         11           0       -0.215117    3.673771   -0.454313
      4         11           0       -3.504521    1.021605    0.092286
      5         11           0        0.332343   -3.347228   -0.412403
      6         11           0        2.774429    1.849133    0.578310
      7         11           0       -0.144918    0.243725   -0.216431
 ---------------------------------------------------------------------

 SCF Done:  E(UB3LYP) =  -1136.12802620     A.U. after   22 cycles

 The electronic state is 2-A.
 Alpha  occ. eigenvalues --  -38.44381 -38.44207 -38.43925 -38.43915 -38.43827
 Alpha  occ. eigenvalues --  -38.43798 -38.43387  -2.20200  -2.20063  -2.19812
 Alpha  occ. eigenvalues --   -2.19709  -2.19661  -2.19638  -2.19205  -1.13897
 Alpha  occ. eigenvalues --   -1.13880  -1.13812  -1.13769  -1.13736  -1.13704
 Alpha  occ. eigenvalues --   -1.13549  -1.13470  -1.13440  -1.13381  -1.13356
 Alpha  occ. eigenvalues --   -1.13338  -1.13308  -1.13305  -1.13300  -1.13281
 Alpha  occ. eigenvalues --   -1.13276  -1.13263  -1.12869  -1.12851  -1.12832
 Alpha  occ. eigenvalues --   -0.17082  -0.13945  -0.13096  -0.09954
 Alpha virt. eigenvalues --   -0.06451  -0.05702  -0.04152  -0.03375  -0.02909
 Alpha virt. eigenvalues --   -0.02093  -0.02015  -0.01731  -0.01394  -0.00181
 Alpha virt. eigenvalues --   -0.00060   0.00314   0.00418   0.00567   0.00731

  Beta  occ. eigenvalues --  -38.44362 -38.44190 -38.43931 -38.43874 -38.43789
  Beta  occ. eigenvalues --  -38.43746 -38.43334  -2.20170  -2.20040  -2.19822
  Beta  occ. eigenvalues --   -2.19636  -2.19570  -2.19566  -2.19107  -1.13883
  Beta  occ. eigenvalues --   -1.13865  -1.13751  -1.13744  -1.13727  -1.13645
  Beta  occ. eigenvalues --   -1.13553  -1.13489  -1.13444  -1.13334  -1.13304
  Beta  occ. eigenvalues --   -1.13276  -1.13252  -1.13249  -1.13246  -1.13234
  Beta  occ. eigenvalues --   -1.13218  -1.13201  -1.12802  -1.12785  -1.12766
  Beta  occ. eigenvalues --   -0.16785  -0.13138  -0.12519
  Beta virt. eigenvalues --   -0.06703  -0.06516  -0.05407  -0.04022  -0.02833
  Beta virt. eigenvalues --   -0.02340  -0.01933  -0.01820  -0.01405  -0.01239
  Beta virt. eigenvalues --   -0.00035   0.00275   0.00382   0.00542   0.00655

 Mulliken charges and spin densities:
               1          2
     1  Na   0.333516   0.268844
     2  Na   0.526085   0.051112
     3  Na   1.081203   0.208174
     4  Na   0.671986   0.354966
     5  Na   1.018769   0.189050
     6  Na   0.590029   0.168876
     7  Na  -4.221588  -0.241022
 Sum of Mulliken charges =  -0.00000   1.00000

 Dipole moment (field-independent basis, Debye):
    X=             -0.2156    Y=              0.5002    Z=              0.0494  Tot=              0.5469
 Quadrupole moment (field-independent basis, Debye-Ang):
   XX=            -66.8418   YY=            -57.4886   ZZ=            -72.1449
   XY=             -0.6534   XZ=              0.1222   YZ=             -0.3011

 Normal termination of Gaussian 16 at Wed Nov 29 16:54:36 2023.
