 Gaussian 16, Revision B.01,
 Gaussian 16:  ES64L-G16RevB.01 20-Dec-2017

 -------------------------
 #P B3LYP/6-311+g(d) force
 -------------------------

 -----
 DPGEN
 -----
 Symbolic Z-matrix:
 Charge =  0 Multiplicity = 2

                         Standard orientation:
 ---------------------------------------------------------------------
 Center     Atomic      Atomic             Coordinates (Angstroms)
 Number     Number       Type             X           Y           Z
 ---------------------------------------------------------------------
      1         11           0        1.449315    0.198183    1.872397
      2         11           0       -2.054091   -1.584340    1.191353
      3         11           0        1.059968   -1.731691   -0.837597
      4         11           0        3.830761   -0.033545   -0.117179
      5         11           0        0.613062    2.000690   -1.343373
      6         11           0       -2.455982   -0.547825   -1.802970
      7         11           0       -2.443033    1.698529    1.037369
 ---------------------------------------------------------------------

 SCF Done:  E(UB3LYP) =  -1136.12305803     A.U. after   25 cycles

 The electronic state is 2-A.
 Alpha  occ. eigenvalues --  -38.45275 -38.44687 -38.44566 -38.43656 -38.43385
 Alpha  occ. eigenvalues --  -38.43323 -38.43250  -2.21115  -2.20562  -2.20407
 Alpha  occ. eigenvalues --   -2.19474  -2.19259  -2.19193  -2.19047  -1.14819
 Alpha  occ. eigenvalues --   -1.14771  -1.14737  -1.14245  -1.14201  -1.14174
 Alpha  occ. eigenvalues --   -1.14082  -1.14064  -1.14022  -1.13165  -1.13134
 Alpha  occ. eigenvalues --   -1.13103  -1.12927  -1.12923  -1.12901  -1.12885
 Alpha  occ. eigenvalues --   -1.12864  -1.12801  -1.12738  -1.12706  -1.12661
 Alpha  occ. eigenvalues --   -0.18252  -0.14197  -0.11440  -0.10650
 Alpha virt. eigenvalues --   -0.06633  -0.05490  -0.04701  -0.03155  -0.02839
 Alpha virt. eigenvalues --   -0.02514  -0.02286  -0.01023  -0.00515  -0.00273
 Alpha virt. eigenvalues --    0.00072   0.00221   0.00364   0.00611   0.00688

  Beta  occ. eigenvalues --  -38.45276 -38.44639 -38.44526 -38.43637 -38.43364
  Beta  occ. eigenvalues --  -38.43302 -38.43217  -2.21118  -2.20474  -2.20333
  Beta  occ. eigenvalues --   -2.19442  -2.19223  -2.19159  -2.18989  -1.14812
  Beta  occ. eigenvalues --   -1.14772  -1.14738  -1.14188  -1.14133  -1.14113
  Beta  occ. eigenvalues --   -1.14033  -1.14005  -1.13970  -1.13139  -1.13106
  Beta  occ. eigenvalues --   -1.13079  -1.12908  -1.12893  -1.12875  -1.12847
  Beta  occ. eigenvalues --   -1.12815  -1.12778  -1.12697  -1.12654  -1.12624
  Beta  occ. eigenvalues --   -0.17537  -0.14013  -0.10482
  Beta virt. eigenvalues --   -0.07633  -0.06432  -0.04907  -0.04460  -0.02889
  Beta virt. eigenvalues --   -0.02295  -0.02161  -0.01801  -0.00601  -0.00395
  Beta virt. eigenvalues --   -0.00155   0.00223   0.00248   0.00391   0.00728

 Mulliken charges and spin densities:
               1          2
     1  Na  -0.129056   0.103480
     2  Na   0.216023   0.233852
     3  Na  -0.270650   0.222486
     4  Na   0.604536   0.034014
     5  Na  -0.473308   0.189041
     6  Na   0.140919   0.203424
     7  Na  -0.088463   0.013703
 Sum of Mulliken charges =  -0.00000   1.00000

 Dipole moment (field-independent basis, Debye):
    X=              1.1247    Y=             -0.0300    Z=             -0.0451  Tot=              1.1260
 Quadrupole moment (field-independent basis, Debye-Ang):
   XX=            -48.0589   YY=            -81.1780   ZZ=            -65.2357
   XY=              0.3666   XZ=             -0.0339   YZ=              0.6515

 Normal termination of Gaussian 16 at Thu Dec  7 16:45:54 2023.
