 Gaussian 16, Revision B.01,
 Gaussian 16:  ES64L-G16RevB.01 20-Dec-2017

 -------------------------
 #P B3LYP/6-311+g(d) force
 -------------------------

 -----
 DPGEN
 -----
 Symbolic Z-matrix:
 Charge =  0 Multiplicity = 2

                         Standard orientation:
 ---------------------------------------------------------------------
 Center     Atomic      Atomic             Coordinates (Angstroms)
 Number     Number       Type             X           Y           Z
 ---------------------------------------------------------------------
      1         11           0        0.247267    2.361979   -0.452345
      2         11           0       -5.917755   -0.213800   -0.326678
      3         11           0       -2.499444    1.162029    0.985290
      4         11           0       -2.882763   -1.805727   -0.018489
      5         11           0        0.561566   -0.877408    0.095459
      6         11           0        3.826824   -0.183765   -0.853575
      7         11           0        6.664305   -0.443310    0.570338
 ---------------------------------------------------------------------

 SCF Done:  E(UB3LYP) =  -1136.11702987     A.U. after   21 cycles

 The electronic state is 2-A.
 Alpha  occ. eigenvalues --  -38.44814 -38.44566 -38.44236 -38.44119 -38.44103
 Alpha  occ. eigenvalues --  -38.43748 -38.43697  -2.20677  -2.20343  -2.20004
 Alpha  occ. eigenvalues --   -2.19993  -2.19945  -2.19625  -2.19511  -1.14391
 Alpha  occ. eigenvalues --   -1.14367  -1.14270  -1.14012  -1.14007  -1.13962
 Alpha  occ. eigenvalues --   -1.13691  -1.13671  -1.13665  -1.13665  -1.13659
 Alpha  occ. eigenvalues --   -1.13600  -1.13597  -1.13585  -1.13579  -1.13301
 Alpha  occ. eigenvalues --   -1.13282  -1.13253  -1.13186  -1.13177  -1.13127
 Alpha  occ. eigenvalues --   -0.17229  -0.13969  -0.12049  -0.10921
 Alpha virt. eigenvalues --   -0.07316  -0.05200  -0.04081  -0.03962  -0.02975
 Alpha virt. eigenvalues --   -0.02351  -0.02023  -0.01887  -0.01100  -0.00693
 Alpha virt. eigenvalues --   -0.00252  -0.00014   0.00109   0.00325   0.00597

  Beta  occ. eigenvalues --  -38.44781 -38.44548 -38.44245 -38.44072 -38.44056
  Beta  occ. eigenvalues --  -38.43701 -38.43694  -2.20620  -2.20308  -2.20020
  Beta  occ. eigenvalues --   -2.19908  -2.19860  -2.19540  -2.19504  -1.14339
  Beta  occ. eigenvalues --   -1.14318  -1.14226  -1.13987  -1.13981  -1.13941
  Beta  occ. eigenvalues --   -1.13681  -1.13676  -1.13675  -1.13639  -1.13606
  Beta  occ. eigenvalues --   -1.13546  -1.13541  -1.13514  -1.13488  -1.13247
  Beta  occ. eigenvalues --   -1.13224  -1.13185  -1.13171  -1.13169  -1.13124
  Beta  occ. eigenvalues --   -0.16497  -0.13916  -0.11800
  Beta virt. eigenvalues --   -0.07211  -0.06971  -0.04731  -0.03935  -0.03669
  Beta virt. eigenvalues --   -0.02377  -0.02224  -0.01889  -0.01530  -0.00755
  Beta virt. eigenvalues --   -0.00559  -0.00145   0.00199   0.00340   0.00466

 Mulliken charges and spin densities:
               1          2
     1  Na   0.120842   0.241913
     2  Na   0.283388   0.111371
     3  Na  -0.059380   0.232245
     4  Na  -0.173917   0.008060
     5  Na  -0.497714   0.458153
     6  Na   0.135682   0.005030
     7  Na   0.191098  -0.056774
 Sum of Mulliken charges =  -0.00000   1.00000

 Dipole moment (field-independent basis, Debye):
    X=             -1.1812    Y=              0.3656    Z=              0.0176  Tot=              1.2366
 Quadrupole moment (field-independent basis, Debye-Ang):
   XX=            -53.4460   YY=            -71.2838   ZZ=            -68.9211
   XY=              0.9231   XZ=              4.7737   YZ=             -0.7309

 Normal termination of Gaussian 16 at Tue Nov 28 23:46:42 2023.
