 Gaussian 16, Revision B.01,
 Gaussian 16:  ES64L-G16RevB.01 20-Dec-2017

 -------------------------
 #P B3LYP/6-311+g(d) force
 -------------------------

 -----
 DPGEN
 -----
 Symbolic Z-matrix:
 Charge =  0 Multiplicity = 2

                         Standard orientation:
 ---------------------------------------------------------------------
 Center     Atomic      Atomic             Coordinates (Angstroms)
 Number     Number       Type             X           Y           Z
 ---------------------------------------------------------------------
      1         11           0        2.433433    0.437115    1.096385
      2         11           0        3.342600   -3.114330    0.608681
      3         11           0       -2.928486   -0.932132   -0.413696
      4         11           0        2.598641    3.863125   -0.153295
      5         11           0       -5.677825    0.566331    0.928351
      6         11           0        0.150450   -2.024523   -1.110595
      7         11           0        0.081188    1.204413   -0.955831
 ---------------------------------------------------------------------

 SCF Done:  E(UB3LYP) =  -1136.12126846     A.U. after   19 cycles

 The electronic state is 2-A.
 Alpha  occ. eigenvalues --  -38.44588 -38.44539 -38.44528 -38.44257 -38.43953
 Alpha  occ. eigenvalues --  -38.43730 -38.43424  -2.20401  -2.20387  -2.20365
 Alpha  occ. eigenvalues --   -2.20023  -2.19820  -2.19512  -2.19247  -1.14174
 Alpha  occ. eigenvalues --   -1.14095  -1.14061  -1.14051  -1.14020  -1.14019
 Alpha  occ. eigenvalues --   -1.14004  -1.13968  -1.13919  -1.13696  -1.13695
 Alpha  occ. eigenvalues --   -1.13636  -1.13523  -1.13494  -1.13412  -1.13173
 Alpha  occ. eigenvalues --   -1.13168  -1.13129  -1.12935  -1.12931  -1.12892
 Alpha  occ. eigenvalues --   -0.17008  -0.13697  -0.12307  -0.11390
 Alpha virt. eigenvalues --   -0.06112  -0.05339  -0.04709  -0.03689  -0.02655
 Alpha virt. eigenvalues --   -0.02304  -0.01973  -0.01836  -0.01142  -0.01029
 Alpha virt. eigenvalues --   -0.00515  -0.00068   0.00261   0.00540   0.00567

  Beta  occ. eigenvalues --  -38.44524 -38.44498 -38.44480 -38.44255 -38.43923
  Beta  occ. eigenvalues --  -38.43688 -38.43426  -2.20348  -2.20338  -2.20188
  Beta  occ. eigenvalues --   -2.20019  -2.19769  -2.19434  -2.19260  -1.14148
  Beta  occ. eigenvalues --   -1.14063  -1.14040  -1.14026  -1.13925  -1.13887
  Beta  occ. eigenvalues --   -1.13884  -1.13883  -1.13873  -1.13694  -1.13691
  Beta  occ. eigenvalues --   -1.13634  -1.13490  -1.13461  -1.13359  -1.13121
  Beta  occ. eigenvalues --   -1.13111  -1.13080  -1.12952  -1.12949  -1.12837
  Beta  occ. eigenvalues --   -0.16501  -0.12927  -0.11876
  Beta virt. eigenvalues --   -0.07983  -0.06024  -0.04989  -0.04280  -0.03479
  Beta virt. eigenvalues --   -0.02305  -0.02196  -0.01708  -0.01387  -0.00813
  Beta virt. eigenvalues --   -0.00747  -0.00209   0.00028   0.00414   0.00592

 Mulliken charges and spin densities:
               1          2
     1  Na  -0.265501   0.130053
     2  Na   0.441358   0.241368
     3  Na  -0.456910   0.195745
     4  Na   0.439476  -0.003090
     5  Na   0.265329   0.353391
     6  Na   0.149456  -0.058484
     7  Na  -0.573209   0.141018
 Sum of Mulliken charges =  -0.00000   1.00000

 Dipole moment (field-independent basis, Debye):
    X=              0.5930    Y=              0.8589    Z=             -0.0765  Tot=              1.0465
 Quadrupole moment (field-independent basis, Debye-Ang):
   XX=            -65.6650   YY=            -60.0498   ZZ=            -69.6128
   XY=              0.8045   XZ=             -1.0408   YZ=              0.7723

 Normal termination of Gaussian 16 at Wed Nov 29 02:39:18 2023.
