 Gaussian 16, Revision B.01,
 Gaussian 16:  ES64L-G16RevB.01 20-Dec-2017

 -------------------------
 #P B3LYP/6-311+g(d) force
 -------------------------

 -----
 DPGEN
 -----
 Symbolic Z-matrix:
 Charge =  0 Multiplicity = 2

                         Standard orientation:
 ---------------------------------------------------------------------
 Center     Atomic      Atomic             Coordinates (Angstroms)
 Number     Number       Type             X           Y           Z
 ---------------------------------------------------------------------
      1         11           0       -1.175445    0.343820    0.046874
      2         11           0       -4.884599   -0.567100   -1.504160
      3         11           0        4.459336    0.821131   -0.569727
      4         11           0       -6.454062   -0.403649    0.944655
      5         11           0        1.127550    2.324833   -0.418634
      6         11           0        2.237354   -0.228250    2.129278
      7         11           0        4.689865   -2.290785   -0.628285
 ---------------------------------------------------------------------

 SCF Done:  E(UB3LYP) =  -1136.10564389     A.U. after   22 cycles

 The electronic state is 2-A.
 Alpha  occ. eigenvalues --  -38.45237 -38.44946 -38.44812 -38.44350 -38.44119
 Alpha  occ. eigenvalues --  -38.43228 -38.43092  -2.21042  -2.20726  -2.20632
 Alpha  occ. eigenvalues --   -2.20134  -2.19918  -2.19089  -2.18957  -1.14790
 Alpha  occ. eigenvalues --   -1.14685  -1.14680  -1.14414  -1.14377  -1.14326
 Alpha  occ. eigenvalues --   -1.14277  -1.14268  -1.14265  -1.13820  -1.13796
 Alpha  occ. eigenvalues --   -1.13765  -1.13614  -1.13593  -1.13542  -1.12768
 Alpha  occ. eigenvalues --   -1.12746  -1.12712  -1.12629  -1.12601  -1.12585
 Alpha  occ. eigenvalues --   -0.16170  -0.14374  -0.11974  -0.09892
 Alpha virt. eigenvalues --   -0.07318  -0.05704  -0.04284  -0.03590  -0.02894
 Alpha virt. eigenvalues --   -0.02578  -0.02123  -0.01933  -0.01117  -0.00925
 Alpha virt. eigenvalues --   -0.00539  -0.00009   0.00205   0.00420   0.00443

  Beta  occ. eigenvalues --  -38.45236 -38.44882 -38.44812 -38.44347 -38.44115
  Beta  occ. eigenvalues --  -38.43184 -38.43045  -2.21041  -2.20632  -2.20608
  Beta  occ. eigenvalues --   -2.20127  -2.19912  -2.19010  -2.18872  -1.14790
  Beta  occ. eigenvalues --   -1.14685  -1.14679  -1.14321  -1.14296  -1.14277
  Beta  occ. eigenvalues --   -1.14268  -1.14264  -1.14241  -1.13813  -1.13792
  Beta  occ. eigenvalues --   -1.13756  -1.13606  -1.13590  -1.13533  -1.12718
  Beta  occ. eigenvalues --   -1.12696  -1.12632  -1.12575  -1.12546  -1.12507
  Beta  occ. eigenvalues --   -0.15526  -0.14272  -0.11941
  Beta virt. eigenvalues --   -0.07115  -0.06009  -0.05597  -0.03960  -0.03452
  Beta virt. eigenvalues --   -0.02787  -0.02131  -0.01832  -0.01457  -0.00850
  Beta virt. eigenvalues --   -0.00671  -0.00342   0.00076   0.00392   0.00466

 Mulliken charges and spin densities:
               1          2
     1  Na  -1.116138   0.004365
     2  Na  -0.205099   0.010644
     3  Na  -0.295535   0.171086
     4  Na   0.179389   0.008174
     5  Na   1.117191   0.320508
     6  Na  -0.054264   0.424915
     7  Na   0.374457   0.060307
 Sum of Mulliken charges =  -0.00000   1.00000

 Dipole moment (field-independent basis, Debye):
    X=             -2.3600    Y=             -1.0758    Z=              0.1894  Tot=              2.6005
 Quadrupole moment (field-independent basis, Debye-Ang):
   XX=            -58.4365   YY=            -70.9914   ZZ=            -64.4615
   XY=             -3.0186   XZ=             -3.2289   YZ=              5.6291

 Normal termination of Gaussian 16 at Sun Dec  3 17:10:34 2023.
