 Gaussian 16, Revision B.01,
 Gaussian 16:  ES64L-G16RevB.01 20-Dec-2017

 -------------------------
 #P B3LYP/6-311+g(d) force
 -------------------------

 -----
 DPGEN
 -----
 Symbolic Z-matrix:
 Charge =  0 Multiplicity = 2

                         Standard orientation:
 ---------------------------------------------------------------------
 Center     Atomic      Atomic             Coordinates (Angstroms)
 Number     Number       Type             X           Y           Z
 ---------------------------------------------------------------------
      1         11           0        0.946282    3.001867    0.345147
      2         11           0       -1.981918   -1.931563    1.102208
      3         11           0       -4.659600   -0.630849   -1.556966
      4         11           0        1.042956   -0.758296    1.809727
      5         11           0        3.121271    0.918969   -1.148127
      6         11           0       -2.019509    1.715438    0.312559
      7         11           0        3.550518   -2.315566   -0.864548
 ---------------------------------------------------------------------

 SCF Done:  E(UB3LYP) =  -1136.11958871     A.U. after   21 cycles

 The electronic state is 2-A.
 Alpha  occ. eigenvalues --  -38.44870 -38.44785 -38.44560 -38.44384 -38.44218
 Alpha  occ. eigenvalues --  -38.44074 -38.42644  -2.20643  -2.20601  -2.20351
 Alpha  occ. eigenvalues --   -2.20211  -2.20014  -2.19857  -2.18484  -1.14293
 Alpha  occ. eigenvalues --   -1.14291  -1.14289  -1.14242  -1.14239  -1.14218
 Alpha  occ. eigenvalues --   -1.14050  -1.14032  -1.13972  -1.13889  -1.13868
 Alpha  occ. eigenvalues --   -1.13847  -1.13697  -1.13688  -1.13633  -1.13525
 Alpha  occ. eigenvalues --   -1.13512  -1.13490  -1.12155  -1.12148  -1.12136
 Alpha  occ. eigenvalues --   -0.16761  -0.13859  -0.11899  -0.11476
 Alpha virt. eigenvalues --   -0.06406  -0.05569  -0.04235  -0.03900  -0.03043
 Alpha virt. eigenvalues --   -0.02590  -0.01829  -0.01375  -0.00954  -0.00661
 Alpha virt. eigenvalues --   -0.00358  -0.00102   0.00228   0.00303   0.00579

  Beta  occ. eigenvalues --  -38.44779 -38.44719 -38.44560 -38.44358 -38.44195
  Beta  occ. eigenvalues --  -38.44065 -38.42646  -2.20483  -2.20473  -2.20353
  Beta  occ. eigenvalues --   -2.20162  -2.19978  -2.19843  -2.18488  -1.14210
  Beta  occ. eigenvalues --   -1.14177  -1.14171  -1.14155  -1.14132  -1.14126
  Beta  occ. eigenvalues --   -1.14052  -1.14022  -1.13972  -1.13857  -1.13839
  Beta  occ. eigenvalues --   -1.13811  -1.13673  -1.13663  -1.13580  -1.13514
  Beta  occ. eigenvalues --   -1.13493  -1.13485  -1.12157  -1.12150  -1.12137
  Beta  occ. eigenvalues --   -0.16205  -0.13272  -0.11623
  Beta virt. eigenvalues --   -0.07886  -0.06253  -0.04987  -0.04137  -0.03726
  Beta virt. eigenvalues --   -0.02483  -0.02063  -0.01586  -0.01173  -0.00913
  Beta virt. eigenvalues --   -0.00294  -0.00156   0.00060   0.00362   0.00419

 Mulliken charges and spin densities:
               1          2
     1  Na   0.265527  -0.009041
     2  Na   0.129706   0.084529
     3  Na   0.391930   0.441701
     4  Na  -0.289956   0.188010
     5  Na  -0.214870   0.175601
     6  Na  -0.487144   0.087238
     7  Na   0.204808   0.031962
 Sum of Mulliken charges =  -0.00000   1.00000

 Dipole moment (field-independent basis, Debye):
    X=             -0.1767    Y=             -0.6938    Z=             -0.3425  Tot=              0.7936
 Quadrupole moment (field-independent basis, Debye-Ang):
   XX=            -62.4686   YY=            -67.8957   ZZ=            -67.7654
   XY=              0.2607   XZ=              1.6852   YZ=              1.0760

 Normal termination of Gaussian 16 at Mon Dec  4 04:25:39 2023.
