 Gaussian 16, Revision B.01,
 Gaussian 16:  ES64L-G16RevB.01 20-Dec-2017

 -------------------------
 #P B3LYP/6-311+g(d) force
 -------------------------

 -----
 DPGEN
 -----
 Symbolic Z-matrix:
 Charge =  0 Multiplicity = 2

                         Standard orientation:
 ---------------------------------------------------------------------
 Center     Atomic      Atomic             Coordinates (Angstroms)
 Number     Number       Type             X           Y           Z
 ---------------------------------------------------------------------
      1         11           0        0.020086   -0.615589    2.259916
      2         11           0        3.161900    1.120689   -1.269548
      3         11           0        0.734682    3.003308    0.287887
      4         11           0       -2.132055    1.630816    0.113323
      5         11           0       -4.206730   -0.814121   -0.886996
      6         11           0       -0.796408   -2.051102   -0.471130
      7         11           0        3.218525   -2.274001   -0.033451
 ---------------------------------------------------------------------

 SCF Done:  E(UB3LYP) =  -1136.12136912     A.U. after   21 cycles

 The electronic state is 2-A.
 Alpha  occ. eigenvalues --  -38.44963 -38.44478 -38.44424 -38.44378 -38.44210
 Alpha  occ. eigenvalues --  -38.43887 -38.42987  -2.20794  -2.20281  -2.20172
 Alpha  occ. eigenvalues --   -2.20162  -2.20027  -2.19737  -2.18811  -1.14481
 Alpha  occ. eigenvalues --   -1.14419  -1.14392  -1.13994  -1.13971  -1.13868
 Alpha  occ. eigenvalues --   -1.13855  -1.13842  -1.13833  -1.13812  -1.13806
 Alpha  occ. eigenvalues --   -1.13775  -1.13688  -1.13675  -1.13643  -1.13429
 Alpha  occ. eigenvalues --   -1.13414  -1.13369  -1.12491  -1.12465  -1.12462
 Alpha  occ. eigenvalues --   -0.17167  -0.13572  -0.12142  -0.11109
 Alpha virt. eigenvalues --   -0.06271  -0.05807  -0.04645  -0.03420  -0.03106
 Alpha virt. eigenvalues --   -0.02300  -0.02135  -0.01403  -0.00939  -0.00464
 Alpha virt. eigenvalues --   -0.00386   0.00207   0.00324   0.00491   0.00645

  Beta  occ. eigenvalues --  -38.44867 -38.44476 -38.44423 -38.44330 -38.44150
  Beta  occ. eigenvalues --  -38.43880 -38.42989  -2.20616  -2.20283  -2.20172
  Beta  occ. eigenvalues --   -2.20073  -2.19915  -2.19729  -2.18816  -1.14363
  Beta  occ. eigenvalues --   -1.14301  -1.14264  -1.13978  -1.13967  -1.13870
  Beta  occ. eigenvalues --   -1.13856  -1.13832  -1.13800  -1.13773  -1.13754
  Beta  occ. eigenvalues --   -1.13716  -1.13611  -1.13596  -1.13573  -1.13428
  Beta  occ. eigenvalues --   -1.13391  -1.13351  -1.12497  -1.12471  -1.12450
  Beta  occ. eigenvalues --   -0.16543  -0.12872  -0.12038
  Beta virt. eigenvalues --   -0.07702  -0.06127  -0.05300  -0.04318  -0.03101
  Beta virt. eigenvalues --   -0.02522  -0.02064  -0.01682  -0.01296  -0.00782
  Beta virt. eigenvalues --   -0.00349  -0.00132   0.00298   0.00531   0.00628

 Mulliken charges and spin densities:
               1          2
     1  Na   0.247729   0.194175
     2  Na  -0.074051   0.153400
     3  Na  -0.258916   0.106642
     4  Na  -0.228579   0.103799
     5  Na   0.830329   0.161340
     6  Na  -0.594892   0.121829
     7  Na   0.078380   0.158814
 Sum of Mulliken charges =  -0.00000   1.00000

 Dipole moment (field-independent basis, Debye):
    X=             -0.1631    Y=             -0.8667    Z=              0.4247  Tot=              0.9788
 Quadrupole moment (field-independent basis, Debye-Ang):
   XX=            -61.2635   YY=            -69.6397   ZZ=            -68.0760
   XY=             -1.3370   XZ=              0.7561   YZ=              0.8119

 Normal termination of Gaussian 16 at Sun Dec  3 14:48:54 2023.
