 Gaussian 16, Revision B.01,
 Gaussian 16:  ES64L-G16RevB.01 20-Dec-2017

 -------------------------
 #P B3LYP/6-311+g(d) force
 -------------------------

 -----
 DPGEN
 -----
 Symbolic Z-matrix:
 Charge =  0 Multiplicity = 2

                         Standard orientation:
 ---------------------------------------------------------------------
 Center     Atomic      Atomic             Coordinates (Angstroms)
 Number     Number       Type             X           Y           Z
 ---------------------------------------------------------------------
      1         11           0        4.565878   -0.732009   -0.012824
      2         11           0       -3.237684   -0.938160   -1.433822
      3         11           0        1.103199   -2.025391   -0.884426
      4         11           0       -1.057185   -2.471073    1.455829
      5         11           0       -3.704362    1.121296    0.934061
      6         11           0        2.877608    1.997802    0.396772
      7         11           0       -0.547453    3.047534   -0.455589
 ---------------------------------------------------------------------

 SCF Done:  E(UB3LYP) =  -1136.11180043     A.U. after   20 cycles

 The electronic state is 2-A.
 Alpha  occ. eigenvalues --  -38.45379 -38.44408 -38.44391 -38.44193 -38.44059
 Alpha  occ. eigenvalues --  -38.43632 -38.43629  -2.21174  -2.20207  -2.20187
 Alpha  occ. eigenvalues --   -2.19981  -2.19843  -2.19456  -2.19406  -1.14853
 Alpha  occ. eigenvalues --   -1.14834  -1.14788  -1.13877  -1.13874  -1.13866
 Alpha  occ. eigenvalues --   -1.13844  -1.13839  -1.13814  -1.13665  -1.13655
 Alpha  occ. eigenvalues --   -1.13585  -1.13530  -1.13513  -1.13502  -1.13102
 Alpha  occ. eigenvalues --   -1.13095  -1.13076  -1.13075  -1.13060  -1.13016
 Alpha  occ. eigenvalues --   -0.16154  -0.13945  -0.12332  -0.10315
 Alpha virt. eigenvalues --   -0.06578  -0.06131  -0.04069  -0.03446  -0.03049
 Alpha virt. eigenvalues --   -0.02603  -0.02178  -0.01420  -0.00926  -0.00703
 Alpha virt. eigenvalues --   -0.00498  -0.00241   0.00261   0.00369   0.00650

  Beta  occ. eigenvalues --  -38.45345 -38.44392 -38.44365 -38.44185 -38.44053
  Beta  occ. eigenvalues --  -38.43569 -38.43561  -2.21113  -2.20179  -2.20142
  Beta  occ. eigenvalues --   -2.19970  -2.19839  -2.19329  -2.19292  -1.14804
  Beta  occ. eigenvalues --   -1.14798  -1.14736  -1.13852  -1.13849  -1.13837
  Beta  occ. eigenvalues --   -1.13814  -1.13811  -1.13785  -1.13658  -1.13646
  Beta  occ. eigenvalues --   -1.13566  -1.13534  -1.13518  -1.13446  -1.13016
  Beta  occ. eigenvalues --   -1.13009  -1.12998  -1.12994  -1.12983  -1.12934
  Beta  occ. eigenvalues --   -0.15732  -0.13253  -0.11649
  Beta virt. eigenvalues --   -0.07098  -0.06423  -0.06193  -0.03588  -0.03161
  Beta virt. eigenvalues --   -0.02763  -0.02352  -0.01728  -0.01233  -0.00835
  Beta virt. eigenvalues --   -0.00526  -0.00211   0.00048   0.00296   0.00421

 Mulliken charges and spin densities:
               1          2
     1  Na   0.283895   0.319577
     2  Na   0.274764   0.205795
     3  Na  -0.404915  -0.006985
     4  Na   0.136617   0.069220
     5  Na  -0.033754   0.124187
     6  Na  -0.002511   0.060808
     7  Na  -0.254098   0.227399
 Sum of Mulliken charges =  -0.00000   1.00000

 Dipole moment (field-independent basis, Debye):
    X=             -1.2525    Y=             -1.0811    Z=              0.1161  Tot=              1.6586
 Quadrupole moment (field-independent basis, Debye-Ang):
   XX=            -69.0919   YY=            -74.5817   ZZ=            -60.4277
   XY=              0.3362   XZ=             -1.0073   YZ=              2.2979

 Normal termination of Gaussian 16 at Sun Dec  3 17:52:20 2023.
