 Gaussian 16, Revision B.01,
 Gaussian 16:  ES64L-G16RevB.01 20-Dec-2017

 -------------------------
 #P B3LYP/6-311+g(d) force
 -------------------------

 -----
 DPGEN
 -----
 Symbolic Z-matrix:
 Charge =  0 Multiplicity = 2

                         Standard orientation:
 ---------------------------------------------------------------------
 Center     Atomic      Atomic             Coordinates (Angstroms)
 Number     Number       Type             X           Y           Z
 ---------------------------------------------------------------------
      1         11           0       -0.190989   -2.233531    0.055982
      2         11           0       -3.997417   -2.334674    0.083350
      3         11           0        4.021079    0.337498    1.533461
      4         11           0        3.866390   -1.676812   -1.050589
      5         11           0       -4.181529    0.795199    0.318329
      6         11           0       -0.917456    3.652767   -0.382964
      7         11           0        1.399922    1.459552   -0.557570
 ---------------------------------------------------------------------

 SCF Done:  E(UB3LYP) =  -1136.11099934     A.U. after   21 cycles

 The electronic state is 2-A.
 Alpha  occ. eigenvalues --  -38.45696 -38.45167 -38.44700 -38.44449 -38.43750
 Alpha  occ. eigenvalues --  -38.43625 -38.42902  -2.21464  -2.20987  -2.20487
 Alpha  occ. eigenvalues --   -2.20222  -2.19546  -2.19454  -2.18688  -1.15150
 Alpha  occ. eigenvalues --   -1.15124  -1.15107  -1.14638  -1.14633  -1.14601
 Alpha  occ. eigenvalues --   -1.14151  -1.14142  -1.14113  -1.13891  -1.13875
 Alpha  occ. eigenvalues --   -1.13810  -1.13222  -1.13212  -1.13188  -1.13158
 Alpha  occ. eigenvalues --   -1.13135  -1.13070  -1.12353  -1.12348  -1.12336
 Alpha  occ. eigenvalues --   -0.16350  -0.14018  -0.11824  -0.10694
 Alpha virt. eigenvalues --   -0.06984  -0.05529  -0.05141  -0.03188  -0.02866
 Alpha virt. eigenvalues --   -0.02512  -0.01993  -0.01588  -0.01063  -0.00897
 Alpha virt. eigenvalues --   -0.00460  -0.00255   0.00243   0.00348   0.00440

  Beta  occ. eigenvalues --  -38.45701 -38.45108 -38.44648 -38.44355 -38.43754
  Beta  occ. eigenvalues --  -38.43614 -38.42906  -2.21478  -2.20877  -2.20391
  Beta  occ. eigenvalues --   -2.20048  -2.19558  -2.19434  -2.18695  -1.15161
  Beta  occ. eigenvalues --   -1.15126  -1.15097  -1.14561  -1.14553  -1.14533
  Beta  occ. eigenvalues --   -1.14086  -1.14081  -1.14040  -1.13772  -1.13755
  Beta  occ. eigenvalues --   -1.13696  -1.13224  -1.13220  -1.13181  -1.13144
  Beta  occ. eigenvalues --   -1.13107  -1.13062  -1.12356  -1.12351  -1.12341
  Beta  occ. eigenvalues --   -0.15742  -0.13486  -0.11645
  Beta virt. eigenvalues --   -0.07201  -0.06775  -0.05204  -0.04803  -0.02833
  Beta virt. eigenvalues --   -0.02629  -0.02049  -0.01853  -0.01459  -0.00887
  Beta virt. eigenvalues --   -0.00716  -0.00157  -0.00011   0.00404   0.00476

 Mulliken charges and spin densities:
               1          2
     1  Na  -0.333162   0.355612
     2  Na   0.148394   0.012612
     3  Na   0.825298   0.380608
     4  Na   1.174011   0.014104
     5  Na  -0.266080   0.276475
     6  Na  -0.047153  -0.076183
     7  Na  -1.501307   0.036771
 Sum of Mulliken charges =  -0.00000   1.00000

 Dipole moment (field-independent basis, Debye):
    X=              1.6161    Y=             -1.1138    Z=              0.2132  Tot=              1.9743
 Quadrupole moment (field-independent basis, Debye-Ang):
   XX=            -61.5701   YY=            -68.4661   ZZ=            -67.3373
   XY=             -5.4269   XZ=             -1.4654   YZ=              4.3593

 Normal termination of Gaussian 16 at Sun Dec  3 21:40:04 2023.
