 Gaussian 16, Revision B.01,
 Gaussian 16:  ES64L-G16RevB.01 20-Dec-2017

 -------------------------
 #P B3LYP/6-311+g(d) force
 -------------------------

 -----
 DPGEN
 -----
 Symbolic Z-matrix:
 Charge =  0 Multiplicity = 2

                         Standard orientation:
 ---------------------------------------------------------------------
 Center     Atomic      Atomic             Coordinates (Angstroms)
 Number     Number       Type             X           Y           Z
 ---------------------------------------------------------------------
      1         11           0       -3.508799    0.473564   -1.332293
      2         11           0        0.094847    1.648450   -0.141185
      3         11           0        1.110911   -1.480625    1.824371
      4         11           0       -2.403728    0.074449    1.919307
      5         11           0        2.881145   -1.542360   -1.029600
      6         11           0        2.652672    2.430202   -0.038563
      7         11           0       -0.827048   -1.603680   -1.202037
 ---------------------------------------------------------------------

 SCF Done:  E(UB3LYP) =  -1136.12125538     A.U. after   20 cycles

 The electronic state is 2-A.
 Alpha  occ. eigenvalues --  -38.44692 -38.44645 -38.44482 -38.44120 -38.44023
 Alpha  occ. eigenvalues --  -38.42967 -38.42905  -2.20528  -2.20471  -2.20278
 Alpha  occ. eigenvalues --   -2.19956  -2.19882  -2.18923  -2.18767  -1.14196
 Alpha  occ. eigenvalues --   -1.14174  -1.14166  -1.14135  -1.14120  -1.14079
 Alpha  occ. eigenvalues --   -1.13965  -1.13926  -1.13903  -1.13636  -1.13609
 Alpha  occ. eigenvalues --   -1.13591  -1.13576  -1.13549  -1.13469  -1.12935
 Alpha  occ. eigenvalues --   -1.12577  -1.12561  -1.12381  -1.12362  -1.12260
 Alpha  occ. eigenvalues --   -0.18139  -0.13678  -0.11514  -0.11320
 Alpha virt. eigenvalues --   -0.06310  -0.05334  -0.04791  -0.03221  -0.02834
 Alpha virt. eigenvalues --   -0.02376  -0.02193  -0.01208  -0.00871  -0.00022
 Alpha virt. eigenvalues --    0.00132   0.00176   0.00375   0.00546   0.00756

  Beta  occ. eigenvalues --  -38.44632 -38.44612 -38.44469 -38.44079 -38.43989
  Beta  occ. eigenvalues --  -38.42959 -38.42909  -2.20419  -2.20411  -2.20254
  Beta  occ. eigenvalues --   -2.19883  -2.19822  -2.18913  -2.18774  -1.14120
  Beta  occ. eigenvalues --   -1.14106  -1.14093  -1.14079  -1.14075  -1.14027
  Beta  occ. eigenvalues --   -1.13945  -1.13910  -1.13887  -1.13588  -1.13560
  Beta  occ. eigenvalues --   -1.13552  -1.13507  -1.13494  -1.13421  -1.12938
  Beta  occ. eigenvalues --   -1.12559  -1.12541  -1.12381  -1.12367  -1.12263
  Beta  occ. eigenvalues --   -0.17429  -0.13476  -0.11240
  Beta virt. eigenvalues --   -0.07565  -0.06140  -0.04711  -0.04539  -0.03088
  Beta virt. eigenvalues --   -0.02122  -0.01968  -0.01906  -0.00830  -0.00669
  Beta virt. eigenvalues --    0.00144   0.00184   0.00278   0.00447   0.00646

 Mulliken charges and spin densities:
               1          2
     1  Na   0.877603   0.084934
     2  Na  -1.057264   0.240140
     3  Na   0.095689   0.222311
     4  Na   0.207541   0.219225
     5  Na   0.328312   0.089811
     6  Na   0.053836  -0.132200
     7  Na  -0.505718   0.275779
 Sum of Mulliken charges =  -0.00000   1.00000

 Dipole moment (field-independent basis, Debye):
    X=             -0.8363    Y=             -0.9334    Z=              0.0025  Tot=              1.2533
 Quadrupole moment (field-independent basis, Debye-Ang):
   XX=            -49.9292   YY=            -79.0104   ZZ=            -65.6274
   XY=             -4.6697   XZ=             -0.5168   YZ=              0.1733

 Normal termination of Gaussian 16 at Thu Dec  7 17:59:21 2023.
