 Gaussian 16, Revision B.01,
 Gaussian 16:  ES64L-G16RevB.01 20-Dec-2017

 -------------------------
 #P B3LYP/6-311+g(d) force
 -------------------------

 -----
 DPGEN
 -----
 Symbolic Z-matrix:
 Charge =  0 Multiplicity = 2

                         Standard orientation:
 ---------------------------------------------------------------------
 Center     Atomic      Atomic             Coordinates (Angstroms)
 Number     Number       Type             X           Y           Z
 ---------------------------------------------------------------------
      1         11           0        3.610746   -0.049881    0.657980
      2         11           0       -2.454239    2.422153    0.169228
      3         11           0        1.419139    2.058603   -0.779448
      4         11           0       -0.283941    0.219837    1.849017
      5         11           0        1.478980   -1.968462   -0.857750
      6         11           0       -1.382798   -0.226812   -1.533993
      7         11           0       -2.387888   -2.455437    0.494966
 ---------------------------------------------------------------------

 SCF Done:  E(UB3LYP) =  -1136.13158430     A.U. after   21 cycles

 The electronic state is 2-A.
 Alpha  occ. eigenvalues --  -38.44202 -38.44050 -38.43907 -38.43858 -38.43849
 Alpha  occ. eigenvalues --  -38.43727 -38.42974  -2.20032  -2.19876  -2.19713
 Alpha  occ. eigenvalues --   -2.19699  -2.19660  -2.19602  -2.18930  -1.13714
 Alpha  occ. eigenvalues --   -1.13697  -1.13678  -1.13564  -1.13554  -1.13477
 Alpha  occ. eigenvalues --   -1.13398  -1.13393  -1.13379  -1.13369  -1.13354
 Alpha  occ. eigenvalues --   -1.13343  -1.13319  -1.13305  -1.13289  -1.13282
 Alpha  occ. eigenvalues --   -1.13222  -1.13221  -1.12622  -1.12585  -1.12532
 Alpha  occ. eigenvalues --   -0.18247  -0.13379  -0.11917  -0.10607
 Alpha virt. eigenvalues --   -0.05965  -0.05783  -0.04228  -0.03358  -0.02791
 Alpha virt. eigenvalues --   -0.02411  -0.01808  -0.01423  -0.00648  -0.00063
 Alpha virt. eigenvalues --    0.00059   0.00285   0.00644   0.00721   0.00751

  Beta  occ. eigenvalues --  -38.44196 -38.44034 -38.43906 -38.43843 -38.43837
  Beta  occ. eigenvalues --  -38.43653 -38.42922  -2.20022  -2.19848  -2.19715
  Beta  occ. eigenvalues --   -2.19664  -2.19651  -2.19465  -2.18838  -1.13708
  Beta  occ. eigenvalues --   -1.13690  -1.13661  -1.13548  -1.13511  -1.13462
  Beta  occ. eigenvalues --   -1.13396  -1.13368  -1.13365  -1.13348  -1.13342
  Beta  occ. eigenvalues --   -1.13326  -1.13300  -1.13288  -1.13279  -1.13190
  Beta  occ. eigenvalues --   -1.13127  -1.13123  -1.12559  -1.12508  -1.12466
  Beta  occ. eigenvalues --   -0.17524  -0.13221  -0.11708
  Beta virt. eigenvalues --   -0.06761  -0.05853  -0.05676  -0.04053  -0.02845
  Beta virt. eigenvalues --   -0.02147  -0.01765  -0.01407  -0.01341  -0.00398
  Beta virt. eigenvalues --   -0.00082   0.00142   0.00324   0.00693   0.00782

 Mulliken charges and spin densities:
               1          2
     1  Na   0.434892   0.012092
     2  Na   0.257176  -0.069738
     3  Na  -0.153359   0.061457
     4  Na  -0.554935   0.690623
     5  Na  -0.245130   0.064692
     6  Na   0.108017   0.296787
     7  Na   0.153338  -0.055913
 Sum of Mulliken charges =  -0.00000   1.00000

 Dipole moment (field-independent basis, Debye):
    X=              0.2463    Y=              0.1469    Z=              0.2359  Tot=              0.3714
 Quadrupole moment (field-independent basis, Debye-Ang):
   XX=            -53.3726   YY=            -65.8597   ZZ=            -73.4023
   XY=             -0.2537   XZ=              0.0366   YZ=             -1.1609

 Normal termination of Gaussian 16 at Tue Dec  5 17:10:31 2023.
