 Gaussian 16, Revision B.01,
 Gaussian 16:  ES64L-G16RevB.01 20-Dec-2017

 -------------------------
 #P B3LYP/6-311+g(d) force
 -------------------------

 -----
 DPGEN
 -----
 Symbolic Z-matrix:
 Charge =  0 Multiplicity = 2

                         Standard orientation:
 ---------------------------------------------------------------------
 Center     Atomic      Atomic             Coordinates (Angstroms)
 Number     Number       Type             X           Y           Z
 ---------------------------------------------------------------------
      1         11           0        1.850705    3.242747   -0.133337
      2         11           0       -3.833386    0.676550    0.072637
      3         11           0        3.227642   -2.239579   -0.303980
      4         11           0        0.054829   -3.624122   -0.368202
      5         11           0       -3.757825   -2.393265    0.382507
      6         11           0       -1.744375    3.901733   -0.250811
      7         11           0        4.202409    0.435937    0.601186
 ---------------------------------------------------------------------

 SCF Done:  E(UB3LYP) =  -1136.10548190     A.U. after   23 cycles

 The electronic state is 2-A.
 Alpha  occ. eigenvalues --  -38.45586 -38.45001 -38.44871 -38.44650 -38.44355
 Alpha  occ. eigenvalues --  -38.44113 -38.44103  -2.21308  -2.20793  -2.20649
 Alpha  occ. eigenvalues --   -2.20470  -2.20161  -2.19953  -2.19874  -1.15004
 Alpha  occ. eigenvalues --   -1.14990  -1.14933  -1.14476  -1.14460  -1.14437
 Alpha  occ. eigenvalues --   -1.14306  -1.14302  -1.14268  -1.14193  -1.14133
 Alpha  occ. eigenvalues --   -1.14120  -1.13825  -1.13812  -1.13792  -1.13605
 Alpha  occ. eigenvalues --   -1.13587  -1.13572  -1.13536  -1.13524  -1.13504
 Alpha  occ. eigenvalues --   -0.15534  -0.14170  -0.13418  -0.11047
 Alpha virt. eigenvalues --   -0.07848  -0.04740  -0.04516  -0.03633  -0.03471
 Alpha virt. eigenvalues --   -0.02510  -0.02130  -0.02100  -0.01662  -0.00725
 Alpha virt. eigenvalues --   -0.00436  -0.00137  -0.00011   0.00330   0.00431

  Beta  occ. eigenvalues --  -38.45590 -38.44975 -38.44792 -38.44648 -38.44329
  Beta  occ. eigenvalues --  -38.44063 -38.44057  -2.21319  -2.20749  -2.20506
  Beta  occ. eigenvalues --   -2.20473  -2.20116  -2.19858  -2.19789  -1.15016
  Beta  occ. eigenvalues --   -1.15002  -1.14911  -1.14440  -1.14434  -1.14388
  Beta  occ. eigenvalues --   -1.14211  -1.14208  -1.14180  -1.14163  -1.14141
  Beta  occ. eigenvalues --   -1.14093  -1.13788  -1.13785  -1.13754  -1.13551
  Beta  occ. eigenvalues --   -1.13522  -1.13507  -1.13478  -1.13468  -1.13446
  Beta  occ. eigenvalues --   -0.14962  -0.13541  -0.12604
  Beta virt. eigenvalues --   -0.07989  -0.07882  -0.04306  -0.03973  -0.03429
  Beta virt. eigenvalues --   -0.03130  -0.02346  -0.02003  -0.01895  -0.01481
  Beta virt. eigenvalues --   -0.00370  -0.00168   0.00126   0.00252   0.00315

 Mulliken charges and spin densities:
               1          2
     1  Na  -0.221763   0.011702
     2  Na  -0.495203   0.222086
     3  Na   0.019843  -0.073979
     4  Na   0.111983   0.379138
     5  Na   0.464512  -0.001765
     6  Na   0.283032   0.269244
     7  Na  -0.162404   0.193574
 Sum of Mulliken charges =  -0.00000   1.00000

 Dipole moment (field-independent basis, Debye):
    X=             -0.1052    Y=             -0.0998    Z=              0.0242  Tot=              0.1470
 Quadrupole moment (field-independent basis, Debye-Ang):
   XX=            -62.7135   YY=            -63.7958   ZZ=            -74.0677
   XY=              1.8226   XZ=              0.1982   YZ=             -0.3454

 Normal termination of Gaussian 16 at Sun Dec  3 16:02:56 2023.
