 Gaussian 16, Revision B.01,
 Gaussian 16:  ES64L-G16RevB.01 20-Dec-2017

 -------------------------
 #P B3LYP/6-311+g(d) force
 -------------------------

 -----
 DPGEN
 -----
 Symbolic Z-matrix:
 Charge =  0 Multiplicity = 2

                         Standard orientation:
 ---------------------------------------------------------------------
 Center     Atomic      Atomic             Coordinates (Angstroms)
 Number     Number       Type             X           Y           Z
 ---------------------------------------------------------------------
      1         11           0       -2.239289   -2.482021   -0.856904
      2         11           0        4.644562    0.379663   -0.676550
      3         11           0       -3.599293    0.285661   -0.609715
      4         11           0       -1.650614    3.060718   -0.197359
      5         11           0       -0.821986   -0.356049    2.103197
      6         11           0        1.808180   -2.317716    0.182054
      7         11           0        1.858440    1.429744    0.055276
 ---------------------------------------------------------------------

 SCF Done:  E(UB3LYP) =  -1136.12033009     A.U. after   20 cycles

 The electronic state is 2-A.
 Alpha  occ. eigenvalues --  -38.45035 -38.44834 -38.44297 -38.44013 -38.43932
 Alpha  occ. eigenvalues --  -38.43803 -38.43497  -2.20832  -2.20588  -2.20128
 Alpha  occ. eigenvalues --   -2.19872  -2.19767  -2.19620  -2.19276  -1.14505
 Alpha  occ. eigenvalues --   -1.14476  -1.14442  -1.14284  -1.14265  -1.14196
 Alpha  occ. eigenvalues --   -1.13829  -1.13766  -1.13740  -1.13582  -1.13532
 Alpha  occ. eigenvalues --   -1.13496  -1.13458  -1.13444  -1.13381  -1.13287
 Alpha  occ. eigenvalues --   -1.13272  -1.13232  -1.12953  -1.12936  -1.12919
 Alpha  occ. eigenvalues --   -0.17014  -0.14132  -0.11797  -0.11003
 Alpha virt. eigenvalues --   -0.06426  -0.05885  -0.04411  -0.03564  -0.02739
 Alpha virt. eigenvalues --   -0.02451  -0.01971  -0.01463  -0.01324  -0.00645
 Alpha virt. eigenvalues --   -0.00509   0.00170   0.00376   0.00558   0.00663

  Beta  occ. eigenvalues --  -38.44966 -38.44828 -38.44238 -38.43964 -38.43926
  Beta  occ. eigenvalues --  -38.43776 -38.43498  -2.20706  -2.20578  -2.20019
  Beta  occ. eigenvalues --   -2.19783  -2.19762  -2.19574  -2.19278  -1.14413
  Beta  occ. eigenvalues --   -1.14391  -1.14351  -1.14279  -1.14250  -1.14186
  Beta  occ. eigenvalues --   -1.13759  -1.13691  -1.13668  -1.13518  -1.13475
  Beta  occ. eigenvalues --   -1.13460  -1.13430  -1.13422  -1.13356  -1.13257
  Beta  occ. eigenvalues --   -1.13240  -1.13182  -1.12954  -1.12938  -1.12914
  Beta  occ. eigenvalues --   -0.16381  -0.13477  -0.11636
  Beta virt. eigenvalues --   -0.07487  -0.06184  -0.05679  -0.04032  -0.03243
  Beta virt. eigenvalues --   -0.02211  -0.02123  -0.01475  -0.01361  -0.01249
  Beta virt. eigenvalues --   -0.00479  -0.00187   0.00320   0.00468   0.00648

 Mulliken charges and spin densities:
               1          2
     1  Na   0.289674   0.040829
     2  Na   0.748377   0.334857
     3  Na  -0.299189   0.312600
     4  Na   0.495542  -0.131677
     5  Na  -0.113098   0.424443
     6  Na  -0.047904  -0.015127
     7  Na  -1.073401   0.034076
 Sum of Mulliken charges =  -0.00000   1.00000

 Dipole moment (field-independent basis, Debye):
    X=              0.7357    Y=             -0.6394    Z=              0.3432  Tot=              1.0334
 Quadrupole moment (field-independent basis, Debye-Ang):
   XX=            -61.7126   YY=            -68.3478   ZZ=            -68.9111
   XY=             -4.3063   XZ=             -2.4653   YZ=              0.6506

 Normal termination of Gaussian 16 at Mon Dec  4 00:36:24 2023.
