 Gaussian 16, Revision B.01,
 Gaussian 16:  ES64L-G16RevB.01 20-Dec-2017

 -------------------------
 #P B3LYP/6-311+g(d) force
 -------------------------

 -----
 DPGEN
 -----
 Symbolic Z-matrix:
 Charge =  0 Multiplicity = 2

                         Standard orientation:
 ---------------------------------------------------------------------
 Center     Atomic      Atomic             Coordinates (Angstroms)
 Number     Number       Type             X           Y           Z
 ---------------------------------------------------------------------
      1         11           0       -0.315349    1.249464   -0.340172
      2         11           0        2.353906    3.365251    0.072458
      3         11           0        3.398787    0.487606    0.308175
      4         11           0        3.571781   -2.413020   -0.352347
      5         11           0        0.449108   -2.192770    0.007435
      6         11           0       -3.381359   -0.964020    0.660367
      7         11           0       -6.076872    0.467489   -0.355915
 ---------------------------------------------------------------------

 SCF Done:  E(UB3LYP) =  -1136.12200356     A.U. after   20 cycles

 The electronic state is 2-A.
 Alpha  occ. eigenvalues --  -38.44649 -38.44625 -38.44130 -38.44097 -38.43918
 Alpha  occ. eigenvalues --  -38.43544 -38.43394  -2.20459  -2.20440  -2.20053
 Alpha  occ. eigenvalues --   -2.19942  -2.19709  -2.19436  -2.19243  -1.14134
 Alpha  occ. eigenvalues --   -1.14130  -1.14098  -1.14091  -1.14087  -1.14022
 Alpha  occ. eigenvalues --   -1.13771  -1.13717  -1.13696  -1.13625  -1.13617
 Alpha  occ. eigenvalues --   -1.13569  -1.13396  -1.13389  -1.13354  -1.13108
 Alpha  occ. eigenvalues --   -1.13061  -1.13055  -1.12921  -1.12888  -1.12872
 Alpha  occ. eigenvalues --   -0.17083  -0.14149  -0.12526  -0.11472
 Alpha virt. eigenvalues --   -0.05741  -0.05260  -0.04662  -0.04072  -0.02967
 Alpha virt. eigenvalues --   -0.02277  -0.01763  -0.01532  -0.01119  -0.00650
 Alpha virt. eigenvalues --   -0.00598   0.00077   0.00325   0.00486   0.00742

  Beta  occ. eigenvalues --  -38.44585 -38.44556 -38.44094 -38.44065 -38.43924
  Beta  occ. eigenvalues --  -38.43521 -38.43390  -2.20368  -2.20286  -2.19988
  Beta  occ. eigenvalues --   -2.19884  -2.19728  -2.19394  -2.19236  -1.14087
  Beta  occ. eigenvalues --   -1.14078  -1.13983  -1.13973  -1.13970  -1.13967
  Beta  occ. eigenvalues --   -1.13718  -1.13675  -1.13648  -1.13588  -1.13580
  Beta  occ. eigenvalues --   -1.13516  -1.13416  -1.13408  -1.13309  -1.13068
  Beta  occ. eigenvalues --   -1.13034  -1.13032  -1.12910  -1.12884  -1.12868
  Beta  occ. eigenvalues --   -0.16493  -0.13250  -0.12462
  Beta virt. eigenvalues --   -0.07981  -0.05321  -0.04944  -0.04259  -0.03873
  Beta virt. eigenvalues --   -0.02643  -0.01977  -0.01546  -0.01306  -0.00943
  Beta virt. eigenvalues --   -0.00340  -0.00204   0.00217   0.00452   0.00620

 Mulliken charges and spin densities:
               1          2
     1  Na  -0.828109   0.023999
     2  Na   0.973476   0.072611
     3  Na  -0.658755   0.354171
     4  Na   0.878770   0.076697
     5  Na  -0.696434   0.039419
     6  Na   0.004058   0.042697
     7  Na   0.326995   0.390406
 Sum of Mulliken charges =  -0.00000   1.00000

 Dipole moment (field-independent basis, Debye):
    X=             -0.0589    Y=              0.2908    Z=             -0.2661  Tot=              0.3985
 Quadrupole moment (field-independent basis, Debye-Ang):
   XX=            -61.6720   YY=            -63.6799   ZZ=            -71.5871
   XY=             -2.1449   XZ=              1.7360   YZ=             -1.0475

 Normal termination of Gaussian 16 at Wed Nov 29 00:16:25 2023.
