 Gaussian 16, Revision B.01,
 Gaussian 16:  ES64L-G16RevB.01 20-Dec-2017

 -------------------------
 #P B3LYP/6-311+g(d) force
 -------------------------

 -----
 DPGEN
 -----
 Symbolic Z-matrix:
 Charge =  0 Multiplicity = 2

                         Standard orientation:
 ---------------------------------------------------------------------
 Center     Atomic      Atomic             Coordinates (Angstroms)
 Number     Number       Type             X           Y           Z
 ---------------------------------------------------------------------
      1         11           0       -2.644664   -1.228100    0.304450
      2         11           0        0.664006   -2.786542    0.229509
      3         11           0       -0.214822   -0.396686   -1.767797
      4         11           0        1.605564    2.588541    0.074044
      5         11           0        2.813420   -0.522258   -0.227441
      6         11           0       -2.171613    1.909639   -0.408543
      7         11           0       -0.051890    0.435405    1.795778
 ---------------------------------------------------------------------

 SCF Done:  E(UB3LYP) =  -1136.13870763     A.U. after   19 cycles

 The electronic state is 2-A.
 Alpha  occ. eigenvalues --  -38.43684 -38.43671 -38.43604 -38.43442 -38.43253
 Alpha  occ. eigenvalues --  -38.43240 -38.43209  -2.19569  -2.19564  -2.19502
 Alpha  occ. eigenvalues --   -2.19293  -2.19227  -2.19179  -2.19148  -1.13306
 Alpha  occ. eigenvalues --   -1.13249  -1.13232  -1.13226  -1.13214  -1.13201
 Alpha  occ. eigenvalues --   -1.13179  -1.13151  -1.13149  -1.13004  -1.12946
 Alpha  occ. eigenvalues --   -1.12927  -1.12926  -1.12878  -1.12847  -1.12844
 Alpha  occ. eigenvalues --   -1.12815  -1.12794  -1.12788  -1.12781  -1.12772
 Alpha  occ. eigenvalues --   -0.19138  -0.13243  -0.12602  -0.10848
 Alpha virt. eigenvalues --   -0.05242  -0.05196  -0.04710  -0.03291  -0.02966
 Alpha virt. eigenvalues --   -0.02435  -0.01290  -0.01097  -0.00220  -0.00104
 Alpha virt. eigenvalues --    0.00022   0.00375   0.00873   0.00906   0.00939

  Beta  occ. eigenvalues --  -38.43672 -38.43661 -38.43598 -38.43440 -38.43247
  Beta  occ. eigenvalues --  -38.43165 -38.43133  -2.19552  -2.19548  -2.19494
  Beta  occ. eigenvalues --   -2.19292  -2.19141  -2.19091  -2.19039  -1.13297
  Beta  occ. eigenvalues --   -1.13221  -1.13220  -1.13198  -1.13195  -1.13183
  Beta  occ. eigenvalues --   -1.13168  -1.13141  -1.13127  -1.12987  -1.12936
  Beta  occ. eigenvalues --   -1.12925  -1.12868  -1.12799  -1.12795  -1.12764
  Beta  occ. eigenvalues --   -1.12751  -1.12748  -1.12718  -1.12702  -1.12688
  Beta  occ. eigenvalues --   -0.18396  -0.12977  -0.12364
  Beta virt. eigenvalues --   -0.06911  -0.05234  -0.05159  -0.04668  -0.02463
  Beta virt. eigenvalues --   -0.02212  -0.01404  -0.01197  -0.01016  -0.00244
  Beta virt. eigenvalues --   -0.00150   0.00142   0.00398   0.00909   0.00923

 Mulliken charges and spin densities:
               1          2
     1  Na   0.233497  -0.005250
     2  Na   0.115410  -0.020186
     3  Na  -0.303533   0.549286
     4  Na   0.113411  -0.091713
     5  Na   0.105670  -0.041427
     6  Na   0.145671  -0.044165
     7  Na  -0.410127   0.653455
 Sum of Mulliken charges =  -0.00000   1.00000

 Dipole moment (field-independent basis, Debye):
    X=             -0.1563    Y=              0.0923    Z=              0.0030  Tot=              0.1815
 Quadrupole moment (field-independent basis, Debye-Ang):
   XX=            -58.7660   YY=            -61.5205   ZZ=            -73.6645
   XY=              0.2131   XZ=             -0.5426   YZ=             -2.0167

 Normal termination of Gaussian 16 at Thu Dec  7 15:51:18 2023.
