 Gaussian 16, Revision B.01,
 Gaussian 16:  ES64L-G16RevB.01 20-Dec-2017

 -------------------------
 #P B3LYP/6-311+g(d) force
 -------------------------

 -----
 DPGEN
 -----
 Symbolic Z-matrix:
 Charge =  0 Multiplicity = 2

                         Standard orientation:
 ---------------------------------------------------------------------
 Center     Atomic      Atomic             Coordinates (Angstroms)
 Number     Number       Type             X           Y           Z
 ---------------------------------------------------------------------
      1         11           0       -1.860931    2.141693   -0.342503
      2         11           0        3.263800   -0.517850    0.170314
      3         11           0        0.302766   -2.800392   -0.167390
      4         11           0        0.276865   -0.282328   -1.634338
      5         11           0       -3.015250   -1.049911   -0.013233
      6         11           0        1.364151    2.516821   -0.042130
      7         11           0       -0.331401   -0.008034    2.029281
 ---------------------------------------------------------------------

 SCF Done:  E(UB3LYP) =  -1136.13691028     A.U. after   19 cycles

 The electronic state is 2-A.
 Alpha  occ. eigenvalues --  -38.44320 -38.44046 -38.43556 -38.43505 -38.43298
 Alpha  occ. eigenvalues --  -38.43229 -38.43187  -2.20120  -2.19873  -2.19451
 Alpha  occ. eigenvalues --   -2.19386  -2.19189  -2.19184  -2.19098  -1.13795
 Alpha  occ. eigenvalues --   -1.13776  -1.13763  -1.13544  -1.13541  -1.13513
 Alpha  occ. eigenvalues --   -1.13221  -1.13124  -1.13087  -1.13067  -1.13029
 Alpha  occ. eigenvalues --   -1.12976  -1.12900  -1.12854  -1.12841  -1.12832
 Alpha  occ. eigenvalues --   -1.12811  -1.12779  -1.12757  -1.12748  -1.12716
 Alpha  occ. eigenvalues --   -0.18765  -0.12988  -0.12548  -0.10714
 Alpha virt. eigenvalues --   -0.05898  -0.04936  -0.04634  -0.03167  -0.02906
 Alpha virt. eigenvalues --   -0.02514  -0.01727  -0.01014  -0.00357  -0.00204
 Alpha virt. eigenvalues --   -0.00017   0.00348   0.00816   0.00870   0.00921

  Beta  occ. eigenvalues --  -38.44318 -38.44044 -38.43495 -38.43464 -38.43288
  Beta  occ. eigenvalues --  -38.43225 -38.43121  -2.20120  -2.19871  -2.19373
  Beta  occ. eigenvalues --   -2.19281  -2.19170  -2.19094  -2.19070  -1.13785
  Beta  occ. eigenvalues --   -1.13770  -1.13765  -1.13543  -1.13521  -1.13512
  Beta  occ. eigenvalues --   -1.13190  -1.13023  -1.13000  -1.12973  -1.12958
  Beta  occ. eigenvalues --   -1.12943  -1.12881  -1.12836  -1.12805  -1.12787
  Beta  occ. eigenvalues --   -1.12757  -1.12735  -1.12714  -1.12706  -1.12691
  Beta  occ. eigenvalues --   -0.18032  -0.12784  -0.12281
  Beta virt. eigenvalues --   -0.06800  -0.05848  -0.04952  -0.04586  -0.02412
  Beta virt. eigenvalues --   -0.02102  -0.01633  -0.01446  -0.00947  -0.00409
  Beta virt. eigenvalues --   -0.00251   0.00126   0.00371   0.00855   0.00876

 Mulliken charges and spin densities:
               1          2
     1  Na   0.150522  -0.009325
     2  Na   0.070488  -0.046474
     3  Na   0.241950  -0.121858
     4  Na  -0.229415   0.467534
     5  Na   0.243372  -0.046510
     6  Na   0.083529  -0.051833
     7  Na  -0.560446   0.808466
 Sum of Mulliken charges =  -0.00000   1.00000

 Dipole moment (field-independent basis, Debye):
    X=              0.1286    Y=             -0.2394    Z=              0.2075  Tot=              0.3419
 Quadrupole moment (field-independent basis, Debye-Ang):
   XX=            -54.3216   YY=            -64.2245   ZZ=            -74.5040
   XY=              0.3546   XZ=              1.4881   YZ=             -0.6846

 Normal termination of Gaussian 16 at Tue Dec  5 19:14:00 2023.
