 Gaussian 16, Revision B.01,
 Gaussian 16:  ES64L-G16RevB.01 20-Dec-2017

 -------------------------
 #P B3LYP/6-311+g(d) force
 -------------------------

 -----
 DPGEN
 -----
 Symbolic Z-matrix:
 Charge =  0 Multiplicity = 2

                         Standard orientation:
 ---------------------------------------------------------------------
 Center     Atomic      Atomic             Coordinates (Angstroms)
 Number     Number       Type             X           Y           Z
 ---------------------------------------------------------------------
      1         11           0       -2.814059   -0.946403    0.075231
      2         11           0       -1.875706    2.455763    0.015559
      3         11           0        2.144479    2.251930   -0.097189
      4         11           0        0.055449    0.152275   -1.629453
      5         11           0        2.757351   -1.138831    0.293785
      6         11           0       -0.179765   -0.022522    1.658870
      7         11           0       -0.087750   -2.752212   -0.316803
 ---------------------------------------------------------------------

 SCF Done:  E(UB3LYP) =  -1136.13816873     A.U. after   20 cycles

 The electronic state is 2-A.
 Alpha  occ. eigenvalues --  -38.43858 -38.43790 -38.43744 -38.43676 -38.43057
 Alpha  occ. eigenvalues --  -38.42939 -38.42833  -2.19688  -2.19640  -2.19626
 Alpha  occ. eigenvalues --   -2.19551  -2.18989  -2.18953  -2.18857  -1.13375
 Alpha  occ. eigenvalues --   -1.13352  -1.13345  -1.13325  -1.13310  -1.13303
 Alpha  occ. eigenvalues --   -1.13298  -1.13277  -1.13240  -1.13230  -1.13213
 Alpha  occ. eigenvalues --   -1.13184  -1.12730  -1.12667  -1.12638  -1.12622
 Alpha  occ. eigenvalues --   -1.12573  -1.12556  -1.12525  -1.12468  -1.12466
 Alpha  occ. eigenvalues --   -0.19166  -0.13174  -0.12672  -0.10447
 Alpha virt. eigenvalues --   -0.05560  -0.05260  -0.04670  -0.03032  -0.02777
 Alpha virt. eigenvalues --   -0.02083  -0.01477  -0.01275  -0.00378  -0.00202
 Alpha virt. eigenvalues --    0.00060   0.00361   0.00834   0.00884   0.00914

  Beta  occ. eigenvalues --  -38.43855 -38.43786 -38.43737 -38.43668 -38.43045
  Beta  occ. eigenvalues --  -38.42864 -38.42758  -2.19685  -2.19631  -2.19623
  Beta  occ. eigenvalues --   -2.19538  -2.18972  -2.18818  -2.18720  -1.13368
  Beta  occ. eigenvalues --   -1.13338  -1.13334  -1.13326  -1.13308  -1.13282
  Beta  occ. eigenvalues --   -1.13272  -1.13263  -1.13238  -1.13222  -1.13183
  Beta  occ. eigenvalues --   -1.13176  -1.12700  -1.12618  -1.12602  -1.12567
  Beta  occ. eigenvalues --   -1.12476  -1.12462  -1.12432  -1.12371  -1.12367
  Beta  occ. eigenvalues --   -0.18444  -0.12905  -0.12400
  Beta virt. eigenvalues --   -0.06533  -0.05564  -0.05223  -0.04664  -0.02233
  Beta virt. eigenvalues --   -0.01998  -0.01393  -0.01233  -0.01042  -0.00429
  Beta virt. eigenvalues --   -0.00239   0.00176   0.00387   0.00844   0.00907

 Mulliken charges and spin densities:
               1          2
     1  Na   0.278232  -0.031967
     2  Na  -0.018047  -0.155340
     3  Na  -0.010954  -0.132645
     4  Na  -0.322134   0.624233
     5  Na   0.126619   0.007280
     6  Na  -0.341936   0.648899
     7  Na   0.288220   0.039539
 Sum of Mulliken charges =  -0.00000   1.00000

 Dipole moment (field-independent basis, Debye):
    X=             -0.0049    Y=              0.3508    Z=              0.0427  Tot=              0.3534
 Quadrupole moment (field-independent basis, Debye-Ang):
   XX=            -55.7508   YY=            -59.7638   ZZ=            -76.1257
   XY=             -0.0286   XZ=              0.5959   YZ=              0.3034

 Normal termination of Gaussian 16 at Wed Nov 29 00:38:27 2023.
