 Gaussian 16, Revision B.01,
 Gaussian 16:  ES64L-G16RevB.01 20-Dec-2017

 -------------------------
 #P B3LYP/6-311+g(d) force
 -------------------------

 -----
 DPGEN
 -----
 Symbolic Z-matrix:
 Charge =  0 Multiplicity = 2

                         Standard orientation:
 ---------------------------------------------------------------------
 Center     Atomic      Atomic             Coordinates (Angstroms)
 Number     Number       Type             X           Y           Z
 ---------------------------------------------------------------------
      1         11           0        0.815066   -1.767511   -0.494590
      2         11           0       -2.992597   -0.465304   -0.196110
      3         11           0        4.041987   -1.214858   -0.835133
      4         11           0        2.707792    1.855379    0.915182
      5         11           0       -2.258355   -3.036637    0.640227
      6         11           0       -0.156771    1.530728    1.047703
      7         11           0       -2.157123    3.098201   -1.077281
 ---------------------------------------------------------------------

 SCF Done:  E(UB3LYP) =  -1136.11783182     A.U. after   21 cycles

 The electronic state is 2-A.
 Alpha  occ. eigenvalues --  -38.44567 -38.44558 -38.44357 -38.44088 -38.43932
 Alpha  occ. eigenvalues --  -38.43572 -38.43536  -2.20457  -2.20375  -2.20222
 Alpha  occ. eigenvalues --   -2.19970  -2.19749  -2.19457  -2.19386  -1.14245
 Alpha  occ. eigenvalues --   -1.14122  -1.14107  -1.14078  -1.14069  -1.13990
 Alpha  occ. eigenvalues --   -1.13983  -1.13854  -1.13801  -1.13613  -1.13589
 Alpha  occ. eigenvalues --   -1.13570  -1.13405  -1.13398  -1.13364  -1.13132
 Alpha  occ. eigenvalues --   -1.13117  -1.13111  -1.13040  -1.13025  -1.12991
 Alpha  occ. eigenvalues --   -0.17296  -0.14039  -0.12997  -0.10467
 Alpha virt. eigenvalues --   -0.06509  -0.05262  -0.04559  -0.03419  -0.03031
 Alpha virt. eigenvalues --   -0.02498  -0.01697  -0.01289  -0.01067  -0.00871
 Alpha virt. eigenvalues --   -0.00085   0.00091   0.00548   0.00630   0.00701

  Beta  occ. eigenvalues --  -38.44558 -38.44545 -38.44292 -38.44077 -38.43877
  Beta  occ. eigenvalues --  -38.43526 -38.43507  -2.20445  -2.20355  -2.20107
  Beta  occ. eigenvalues --   -2.19949  -2.19648  -2.19412  -2.19300  -1.14213
  Beta  occ. eigenvalues --   -1.14118  -1.14104  -1.14067  -1.14049  -1.13954
  Beta  occ. eigenvalues --   -1.13895  -1.13777  -1.13721  -1.13597  -1.13574
  Beta  occ. eigenvalues --   -1.13557  -1.13331  -1.13326  -1.13302  -1.13104
  Beta  occ. eigenvalues --   -1.13093  -1.13040  -1.12980  -1.12961  -1.12934
  Beta  occ. eigenvalues --   -0.16965  -0.13483  -0.12318
  Beta virt. eigenvalues --   -0.07037  -0.06422  -0.05086  -0.04342  -0.02981
  Beta virt. eigenvalues --   -0.02559  -0.02322  -0.01439  -0.01012  -0.00798
  Beta virt. eigenvalues --   -0.00525   0.00158   0.00242   0.00684   0.00717

 Mulliken charges and spin densities:
               1          2
     1  Na  -1.360107   0.136954
     2  Na   0.188049   0.160236
     3  Na   0.324767   0.128908
     4  Na  -0.086204   0.210805
     5  Na   1.075827   0.109528
     6  Na  -0.413332   0.033567
     7  Na   0.271000   0.220000
 Sum of Mulliken charges =  -0.00000   1.00000

 Dipole moment (field-independent basis, Debye):
    X=              0.0549    Y=             -0.3057    Z=             -0.0501  Tot=              0.3146
 Quadrupole moment (field-independent basis, Debye-Ang):
   XX=            -58.6201   YY=            -66.4941   ZZ=            -71.8864
   XY=              5.7904   XZ=             -0.2665   YZ=             -3.9224

 Normal termination of Gaussian 16 at Sun Dec  3 17:01:04 2023.
