 Gaussian 16, Revision B.01,
 Gaussian 16:  ES64L-G16RevB.01 20-Dec-2017

 -------------------------
 #P B3LYP/6-311+g(d) force
 -------------------------

 -----
 DPGEN
 -----
 Symbolic Z-matrix:
 Charge =  0 Multiplicity = 2

                         Standard orientation:
 ---------------------------------------------------------------------
 Center     Atomic      Atomic             Coordinates (Angstroms)
 Number     Number       Type             X           Y           Z
 ---------------------------------------------------------------------
      1         11           0        0.407477   -0.415020   -1.576660
      2         11           0       -1.060530   -2.737822   -0.091841
      3         11           0       -1.014887    2.491166   -0.091973
      4         11           0        2.272848    2.140424   -0.035220
      5         11           0        3.010052   -1.513075    0.168289
      6         11           0       -3.149136    0.186565   -0.291909
      7         11           0       -0.465824   -0.152238    1.919314
 ---------------------------------------------------------------------

 SCF Done:  E(UB3LYP) =  -1136.13424804     A.U. after   20 cycles

 The electronic state is 2-A.
 Alpha  occ. eigenvalues --  -38.44586 -38.44201 -38.43840 -38.43650 -38.43249
 Alpha  occ. eigenvalues --  -38.43054 -38.42986  -2.20371  -2.20061  -2.19664
 Alpha  occ. eigenvalues --   -2.19517  -2.19176  -2.19028  -2.18898  -1.14054
 Alpha  occ. eigenvalues --   -1.14027  -1.14008  -1.13752  -1.13718  -1.13695
 Alpha  occ. eigenvalues --   -1.13346  -1.13328  -1.13303  -1.13237  -1.13192
 Alpha  occ. eigenvalues --   -1.13127  -1.12856  -1.12809  -1.12787  -1.12711
 Alpha  occ. eigenvalues --   -1.12670  -1.12647  -1.12569  -1.12554  -1.12541
 Alpha  occ. eigenvalues --   -0.18713  -0.13154  -0.12496  -0.10413
 Alpha virt. eigenvalues --   -0.06115  -0.05324  -0.04474  -0.03137  -0.02777
 Alpha virt. eigenvalues --   -0.02245  -0.01808  -0.01219  -0.00538  -0.00230
 Alpha virt. eigenvalues --   -0.00000   0.00333   0.00746   0.00826   0.00910

  Beta  occ. eigenvalues --  -38.44587 -38.44192 -38.43839 -38.43641 -38.43159
  Beta  occ. eigenvalues --  -38.42996 -38.42978  -2.20374  -2.20049  -2.19665
  Beta  occ. eigenvalues --   -2.19504  -2.19010  -2.18922  -2.18887  -1.14046
  Beta  occ. eigenvalues --   -1.14024  -1.14012  -1.13747  -1.13693  -1.13679
  Beta  occ. eigenvalues --   -1.13345  -1.13314  -1.13307  -1.13226  -1.13152
  Beta  occ. eigenvalues --   -1.13122  -1.12748  -1.12692  -1.12669  -1.12636
  Beta  occ. eigenvalues --   -1.12598  -1.12568  -1.12555  -1.12543  -1.12505
  Beta  occ. eigenvalues --   -0.17991  -0.12953  -0.12246
  Beta virt. eigenvalues --   -0.06522  -0.06079  -0.05278  -0.04459  -0.02406
  Beta virt. eigenvalues --   -0.01999  -0.01725  -0.01192  -0.01158  -0.00595
  Beta virt. eigenvalues --   -0.00261   0.00152   0.00371   0.00766   0.00869

 Mulliken charges and spin densities:
               1          2
     1  Na  -0.229624   0.468148
     2  Na   0.237541  -0.106176
     3  Na   0.078495  -0.011180
     4  Na   0.000074  -0.056363
     5  Na   0.090247  -0.110897
     6  Na   0.294581   0.057769
     7  Na  -0.471313   0.758698
 Sum of Mulliken charges =  -0.00000   1.00000

 Dipole moment (field-independent basis, Debye):
    X=              0.3402    Y=             -0.3834    Z=              0.1072  Tot=              0.5236
 Quadrupole moment (field-independent basis, Debye-Ang):
   XX=            -53.0795   YY=            -63.2222   ZZ=            -76.0132
   XY=              0.0015   XZ=              2.0741   YZ=             -0.6067

 Normal termination of Gaussian 16 at Tue Dec  5 23:58:09 2023.
