 Gaussian 16, Revision B.01,
 Gaussian 16:  ES64L-G16RevB.01 20-Dec-2017

 -------------------------
 #P B3LYP/6-311+g(d) force
 -------------------------

 -----
 DPGEN
 -----
 Symbolic Z-matrix:
 Charge =  0 Multiplicity = 2

                         Standard orientation:
 ---------------------------------------------------------------------
 Center     Atomic      Atomic             Coordinates (Angstroms)
 Number     Number       Type             X           Y           Z
 ---------------------------------------------------------------------
      1         11           0        3.747233   -1.349672   -0.429226
      2         11           0       -2.377695   -1.265697    1.499512
      3         11           0       -3.337720   -0.051406   -1.605442
      4         11           0        1.113140    0.106665    1.881198
      5         11           0       -1.274819    1.966054    0.558078
      6         11           0       -0.223293   -1.112476   -1.130774
      7         11           0        2.353154    1.706532   -0.773347
 ---------------------------------------------------------------------

 SCF Done:  E(UB3LYP) =  -1136.12589351     A.U. after   26 cycles

 The electronic state is 2-A.
 Alpha  occ. eigenvalues --  -38.44559 -38.44558 -38.44213 -38.44006 -38.43693
 Alpha  occ. eigenvalues --  -38.43082 -38.42855  -2.20426  -2.20409  -2.20082
 Alpha  occ. eigenvalues --   -2.19803  -2.19545  -2.18991  -2.18745  -1.14114
 Alpha  occ. eigenvalues --   -1.14092  -1.14075  -1.14073  -1.14027  -1.14012
 Alpha  occ. eigenvalues --   -1.13799  -1.13768  -1.13683  -1.13475  -1.13466
 Alpha  occ. eigenvalues --   -1.13434  -1.13209  -1.13197  -1.13174  -1.12701
 Alpha  occ. eigenvalues --   -1.12650  -1.12608  -1.12429  -1.12398  -1.12368
 Alpha  occ. eigenvalues --   -0.18477  -0.14245  -0.11171  -0.10778
 Alpha virt. eigenvalues --   -0.06535  -0.05584  -0.04806  -0.03005  -0.02614
 Alpha virt. eigenvalues --   -0.02344  -0.02158  -0.01184  -0.00945  -0.00256
 Alpha virt. eigenvalues --    0.00142   0.00237   0.00383   0.00525   0.00585

  Beta  occ. eigenvalues --  -38.44525 -38.44505 -38.44199 -38.44002 -38.43667
  Beta  occ. eigenvalues --  -38.43060 -38.42832  -2.20347  -2.20328  -2.20061
  Beta  occ. eigenvalues --   -2.19795  -2.19497  -2.18955  -2.18705  -1.14046
  Beta  occ. eigenvalues --   -1.14039  -1.14037  -1.14011  -1.13962  -1.13952
  Beta  occ. eigenvalues --   -1.13762  -1.13739  -1.13675  -1.13464  -1.13462
  Beta  occ. eigenvalues --   -1.13429  -1.13173  -1.13161  -1.13143  -1.12681
  Beta  occ. eigenvalues --   -1.12599  -1.12582  -1.12404  -1.12351  -1.12337
  Beta  occ. eigenvalues --   -0.17780  -0.14045  -0.10591
  Beta virt. eigenvalues --   -0.07397  -0.06347  -0.04909  -0.04653  -0.02738
  Beta virt. eigenvalues --   -0.02425  -0.01897  -0.01564  -0.00861  -0.00605
  Beta virt. eigenvalues --   -0.00098   0.00181   0.00376   0.00439   0.00593

 Mulliken charges and spin densities:
               1          2
     1  Na   0.273880  -0.016521
     2  Na   0.153292   0.006317
     3  Na   0.456329  -0.069635
     4  Na   0.022459   0.273199
     5  Na  -0.217375   0.402656
     6  Na  -0.808814   0.437330
     7  Na   0.120227  -0.033347
 Sum of Mulliken charges =  -0.00000   1.00000

 Dipole moment (field-independent basis, Debye):
    X=              0.0172    Y=              0.1724    Z=              0.2947  Tot=              0.3419
 Quadrupole moment (field-independent basis, Debye-Ang):
   XX=            -52.6125   YY=            -70.7458   ZZ=            -72.0866
   XY=             -0.0159   XZ=             -1.3952   YZ=             -6.7622

 Normal termination of Gaussian 16 at Tue Dec  5 22:21:12 2023.
