 Gaussian 16, Revision B.01,
 Gaussian 16:  ES64L-G16RevB.01 20-Dec-2017

 -------------------------
 #P B3LYP/6-311+g(d) force
 -------------------------

 -----
 DPGEN
 -----
 Symbolic Z-matrix:
 Charge =  0 Multiplicity = 2

                         Standard orientation:
 ---------------------------------------------------------------------
 Center     Atomic      Atomic             Coordinates (Angstroms)
 Number     Number       Type             X           Y           Z
 ---------------------------------------------------------------------
      1         11           0       -1.035012    3.881279    0.702652
      2         11           0        2.634534    2.215939   -0.284613
      3         11           0       -0.795555   -3.050295    0.182524
      4         11           0        2.463444   -3.062018    0.262986
      5         11           0       -4.350393   -1.958354   -0.098282
      6         11           0        4.736649    0.236744   -0.268066
      7         11           0       -3.653667    1.736705   -0.497201
 ---------------------------------------------------------------------

 SCF Done:  E(UB3LYP) =  -1136.10601177     A.U. after   21 cycles

 The electronic state is 2-A.
 Alpha  occ. eigenvalues --  -38.45285 -38.45000 -38.44629 -38.44518 -38.44454
 Alpha  occ. eigenvalues --  -38.44342 -38.44200  -2.21012  -2.20808  -2.20423
 Alpha  occ. eigenvalues --   -2.20358  -2.20236  -2.20112  -2.19971  -1.14708
 Alpha  occ. eigenvalues --   -1.14692  -1.14642  -1.14564  -1.14464  -1.14451
 Alpha  occ. eigenvalues --   -1.14092  -1.14079  -1.14044  -1.14004  -1.13990
 Alpha  occ. eigenvalues --   -1.13968  -1.13890  -1.13870  -1.13866  -1.13795
 Alpha  occ. eigenvalues --   -1.13792  -1.13739  -1.13629  -1.13616  -1.13599
 Alpha  occ. eigenvalues --   -0.15411  -0.13999  -0.13306  -0.11248
 Alpha virt. eigenvalues --   -0.07348  -0.04922  -0.04505  -0.03594  -0.03456
 Alpha virt. eigenvalues --   -0.02575  -0.02155  -0.02152  -0.01438  -0.00818
 Alpha virt. eigenvalues --   -0.00618  -0.00351   0.00046   0.00425   0.00507

  Beta  occ. eigenvalues --  -38.45292 -38.44983 -38.44571 -38.44485 -38.44384
  Beta  occ. eigenvalues --  -38.44335 -38.44144  -2.21028  -2.20780  -2.20319
  Beta  occ. eigenvalues --   -2.20298  -2.20109  -2.20103  -2.19867  -1.14724
  Beta  occ. eigenvalues --   -1.14707  -1.14620  -1.14521  -1.14449  -1.14430
  Beta  occ. eigenvalues --   -1.14017  -1.14010  -1.13970  -1.13958  -1.13951
  Beta  occ. eigenvalues --   -1.13925  -1.13802  -1.13797  -1.13793  -1.13788
  Beta  occ. eigenvalues --   -1.13776  -1.13694  -1.13559  -1.13547  -1.13530
  Beta  occ. eigenvalues --   -0.14861  -0.13290  -0.12415
  Beta virt. eigenvalues --   -0.08198  -0.07506  -0.04467  -0.04016  -0.03396
  Beta virt. eigenvalues --   -0.03157  -0.02374  -0.01980  -0.01870  -0.01195
  Beta virt. eigenvalues --   -0.00481  -0.00237  -0.00161   0.00186   0.00401

 Mulliken charges and spin densities:
               1          2
     1  Na  -0.086940   0.265489
     2  Na  -0.722684   0.124969
     3  Na  -0.494344   0.156188
     4  Na   0.244225  -0.046016
     5  Na   0.424192   0.449132
     6  Na   0.888494   0.065314
     7  Na  -0.252943  -0.015077
 Sum of Mulliken charges =  -0.00000   1.00000

 Dipole moment (field-independent basis, Debye):
    X=              0.5067    Y=             -0.0551    Z=             -0.0610  Tot=              0.5134
 Quadrupole moment (field-independent basis, Debye-Ang):
   XX=            -55.2996   YY=            -69.1531   ZZ=            -74.0059
   XY=             -2.7033   XZ=              1.2703   YZ=              0.2972

 Normal termination of Gaussian 16 at Mon Dec  4 04:59:58 2023.
