 Gaussian 16, Revision B.01,
 Gaussian 16:  ES64L-G16RevB.01 20-Dec-2017

 -------------------------
 #P B3LYP/6-311+g(d) force
 -------------------------

 -----
 DPGEN
 -----
 Symbolic Z-matrix:
 Charge =  0 Multiplicity = 2

                         Standard orientation:
 ---------------------------------------------------------------------
 Center     Atomic      Atomic             Coordinates (Angstroms)
 Number     Number       Type             X           Y           Z
 ---------------------------------------------------------------------
      1         11           0        2.682889   -1.042146    0.108216
      2         11           0        1.977648    2.185982    0.057408
      3         11           0        0.206073   -0.272461   -1.737616
      4         11           0        0.067925   -2.990666   -0.125818
      5         11           0       -0.011988    0.157331    1.935063
      6         11           0       -3.529178   -0.687215    0.161357
      7         11           0       -1.393368    2.649175   -0.398610
 ---------------------------------------------------------------------

 SCF Done:  E(UB3LYP) =  -1136.13397211     A.U. after   20 cycles

 The electronic state is 2-A.
 Alpha  occ. eigenvalues --  -38.44482 -38.43847 -38.43680 -38.43572 -38.43533
 Alpha  occ. eigenvalues --  -38.43345 -38.43306  -2.20214  -2.19664  -2.19540
 Alpha  occ. eigenvalues --   -2.19473  -2.19462  -2.19311  -2.19195  -1.13895
 Alpha  occ. eigenvalues --   -1.13870  -1.13854  -1.13345  -1.13335  -1.13292
 Alpha  occ. eigenvalues --   -1.13279  -1.13218  -1.13182  -1.13176  -1.13153
 Alpha  occ. eigenvalues --   -1.13122  -1.13102  -1.13078  -1.13075  -1.12977
 Alpha  occ. eigenvalues --   -1.12935  -1.12920  -1.12857  -1.12850  -1.12833
 Alpha  occ. eigenvalues --   -0.18677  -0.12845  -0.12463  -0.10716
 Alpha virt. eigenvalues --   -0.05951  -0.05062  -0.04765  -0.03118  -0.02900
 Alpha virt. eigenvalues --   -0.02494  -0.01597  -0.01207  -0.00474  -0.00358
 Alpha virt. eigenvalues --   -0.00015   0.00338   0.00768   0.00862   0.00882

  Beta  occ. eigenvalues --  -38.44485 -38.43838 -38.43675 -38.43523 -38.43487
  Beta  occ. eigenvalues --  -38.43299 -38.43272  -2.20222  -2.19649  -2.19533
  Beta  occ. eigenvalues --   -2.19448  -2.19317  -2.19187  -2.19179  -1.13891
  Beta  occ. eigenvalues --   -1.13878  -1.13859  -1.13331  -1.13313  -1.13284
  Beta  occ. eigenvalues --   -1.13265  -1.13200  -1.13165  -1.13160  -1.13087
  Beta  occ. eigenvalues --   -1.13070  -1.13042  -1.12996  -1.12966  -1.12896
  Beta  occ. eigenvalues --   -1.12863  -1.12837  -1.12832  -1.12824  -1.12801
  Beta  occ. eigenvalues --   -0.17916  -0.12592  -0.12252
  Beta virt. eigenvalues --   -0.06808  -0.05917  -0.04971  -0.04765  -0.02339
  Beta virt. eigenvalues --   -0.02183  -0.01611  -0.01365  -0.01118  -0.00501
  Beta virt. eigenvalues --   -0.00419   0.00122   0.00367   0.00789   0.00880

 Mulliken charges and spin densities:
               1          2
     1  Na   0.402852   0.048880
     2  Na   0.241946   0.005004
     3  Na  -0.156748   0.518716
     4  Na   0.095612  -0.119599
     5  Na  -0.408314   0.732321
     6  Na  -0.153789  -0.118297
     7  Na  -0.021560  -0.067027
 Sum of Mulliken charges =  -0.00000   1.00000

 Dipole moment (field-independent basis, Debye):
    X=             -0.3403    Y=             -0.0719    Z=              0.0765  Tot=              0.3562
 Quadrupole moment (field-independent basis, Debye-Ang):
   XX=            -57.6952   YY=            -61.0202   ZZ=            -74.6424
   XY=              0.4160   XZ=              0.4478   YZ=             -1.0294

 Normal termination of Gaussian 16 at Tue Dec  5 12:30:25 2023.
