 Gaussian 16, Revision B.01,
 Gaussian 16:  ES64L-G16RevB.01 20-Dec-2017

 -------------------------
 #P B3LYP/6-311+g(d) force
 -------------------------

 -----
 DPGEN
 -----
 Symbolic Z-matrix:
 Charge =  0 Multiplicity = 2

                         Standard orientation:
 ---------------------------------------------------------------------
 Center     Atomic      Atomic             Coordinates (Angstroms)
 Number     Number       Type             X           Y           Z
 ---------------------------------------------------------------------
      1         11           0        1.684676    2.775361   -0.770040
      2         11           0        4.312412    0.652328   -0.383647
      3         11           0       -4.105833    1.082816   -0.141117
      4         11           0       -1.973395    3.479444    0.847702
      5         11           0        3.594031   -1.923140    0.847623
      6         11           0       -0.311643   -3.004902   -0.097969
      7         11           0       -3.200248   -3.061907   -0.302552
 ---------------------------------------------------------------------

 SCF Done:  E(UB3LYP) =  -1136.10384181     A.U. after   20 cycles

 The electronic state is 2-A.
 Alpha  occ. eigenvalues --  -38.45052 -38.44804 -38.44612 -38.44548 -38.44402
 Alpha  occ. eigenvalues --  -38.44266 -38.44147  -2.20817  -2.20610  -2.20450
 Alpha  occ. eigenvalues --   -2.20341  -2.20157  -2.20109  -2.19978  -1.14482
 Alpha  occ. eigenvalues --   -1.14467  -1.14443  -1.14343  -1.14265  -1.14256
 Alpha  occ. eigenvalues --   -1.14215  -1.14111  -1.14107  -1.13992  -1.13979
 Alpha  occ. eigenvalues --   -1.13946  -1.13835  -1.13822  -1.13805  -1.13737
 Alpha  occ. eigenvalues --   -1.13734  -1.13723  -1.13638  -1.13614  -1.13601
 Alpha  occ. eigenvalues --   -0.15609  -0.14087  -0.13282  -0.10948
 Alpha virt. eigenvalues --   -0.07450  -0.05040  -0.04341  -0.03644  -0.03362
 Alpha virt. eigenvalues --   -0.02536  -0.02353  -0.01898  -0.01300  -0.00984
 Alpha virt. eigenvalues --   -0.00530  -0.00199   0.00030   0.00424   0.00568

  Beta  occ. eigenvalues --  -38.45005 -38.44795 -38.44611 -38.44453 -38.44413
  Beta  occ. eigenvalues --  -38.44199 -38.44129  -2.20732  -2.20597  -2.20457
  Beta  occ. eigenvalues --   -2.20180  -2.20165  -2.19983  -2.19947  -1.14424
  Beta  occ. eigenvalues --   -1.14411  -1.14379  -1.14315  -1.14258  -1.14248
  Beta  occ. eigenvalues --   -1.14185  -1.14119  -1.14087  -1.13873  -1.13863
  Beta  occ. eigenvalues --   -1.13854  -1.13843  -1.13830  -1.13797  -1.13661
  Beta  occ. eigenvalues --   -1.13648  -1.13638  -1.13613  -1.13593  -1.13580
  Beta  occ. eigenvalues --   -0.15009  -0.13511  -0.12697
  Beta virt. eigenvalues --   -0.07666  -0.07384  -0.04729  -0.03888  -0.03410
  Beta virt. eigenvalues --   -0.02928  -0.02378  -0.02195  -0.01700  -0.01222
  Beta virt. eigenvalues --   -0.00569  -0.00249  -0.00009   0.00231   0.00476

 Mulliken charges and spin densities:
               1          2
     1  Na  -0.243722   0.429009
     2  Na   0.432719   0.028947
     3  Na  -0.095164   0.246316
     4  Na   0.078673  -0.078902
     5  Na  -0.000731   0.321624
     6  Na  -0.651585   0.094546
     7  Na   0.479810  -0.041539
 Sum of Mulliken charges =  -0.00000   1.00000

 Dipole moment (field-independent basis, Debye):
    X=             -0.5190    Y=             -0.1386    Z=              0.0258  Tot=              0.5378
 Quadrupole moment (field-independent basis, Debye-Ang):
   XX=            -59.0250   YY=            -70.2772   ZZ=            -72.5942
   XY=              3.3627   XZ=              1.0501   YZ=              0.6852

 Normal termination of Gaussian 16 at Sun Dec  3 21:13:41 2023.
