 Gaussian 16, Revision B.01,
 Gaussian 16:  ES64L-G16RevB.01 20-Dec-2017

 -------------------------
 #P B3LYP/6-311+g(d) force
 -------------------------

 -----
 DPGEN
 -----
 Symbolic Z-matrix:
 Charge =  0 Multiplicity = 2

                         Standard orientation:
 ---------------------------------------------------------------------
 Center     Atomic      Atomic             Coordinates (Angstroms)
 Number     Number       Type             X           Y           Z
 ---------------------------------------------------------------------
      1         11           0        3.412258   -0.257885    0.276509
      2         11           0        1.639639    2.276008   -0.070160
      3         11           0       -0.522586   -0.560566    2.252548
      4         11           0       -3.723402   -0.767074    0.340003
      5         11           0        1.281191   -2.469170   -0.308629
      6         11           0       -0.743452   -0.745621   -2.225937
      7         11           0       -1.343649    2.524308   -0.264335
 ---------------------------------------------------------------------

 SCF Done:  E(UB3LYP) =  -1136.12015592     A.U. after   21 cycles

 The electronic state is 2-A.
 Alpha  occ. eigenvalues --  -38.45270 -38.44961 -38.44582 -38.44421 -38.43542
 Alpha  occ. eigenvalues --  -38.43439 -38.42940  -2.21007  -2.20753  -2.20428
 Alpha  occ. eigenvalues --   -2.20248  -2.19377  -2.19302  -2.18813  -1.14679
 Alpha  occ. eigenvalues --   -1.14674  -1.14646  -1.14409  -1.14401  -1.14364
 Alpha  occ. eigenvalues --   -1.14114  -1.14092  -1.14069  -1.13917  -1.13880
 Alpha  occ. eigenvalues --   -1.13861  -1.13108  -1.13036  -1.13000  -1.12979
 Alpha  occ. eigenvalues --   -1.12956  -1.12950  -1.12489  -1.12463  -1.12455
 Alpha  occ. eigenvalues --   -0.17751  -0.13185  -0.12036  -0.11342
 Alpha virt. eigenvalues --   -0.06822  -0.05126  -0.04169  -0.03557  -0.03366
 Alpha virt. eigenvalues --   -0.02925  -0.02211  -0.00895  -0.00416  -0.00265
 Alpha virt. eigenvalues --   -0.00048   0.00167   0.00235   0.00637   0.00771

  Beta  occ. eigenvalues --  -38.45273 -38.44878 -38.44580 -38.44328 -38.43538
  Beta  occ. eigenvalues --  -38.43428 -38.42940  -2.21015  -2.20600  -2.20425
  Beta  occ. eigenvalues --   -2.20077  -2.19369  -2.19287  -2.18815  -1.14682
  Beta  occ. eigenvalues --   -1.14665  -1.14654  -1.14307  -1.14295  -1.14253
  Beta  occ. eigenvalues --   -1.14114  -1.14091  -1.14059  -1.13801  -1.13759
  Beta  occ. eigenvalues --   -1.13742  -1.13107  -1.13015  -1.12999  -1.12965
  Beta  occ. eigenvalues --   -1.12947  -1.12917  -1.12491  -1.12465  -1.12444
  Beta  occ. eigenvalues --   -0.17055  -0.13034  -0.11795
  Beta virt. eigenvalues --   -0.07485  -0.06658  -0.05025  -0.03900  -0.03024
  Beta virt. eigenvalues --   -0.02512  -0.02247  -0.01976  -0.00878  -0.00429
  Beta virt. eigenvalues --   -0.00079  -0.00043   0.00277   0.00435   0.00769

 Mulliken charges and spin densities:
               1          2
     1  Na  -0.089323   0.011695
     2  Na  -0.009109  -0.043247
     3  Na  -0.261207   0.507342
     4  Na   0.140660  -0.056495
     5  Na   0.331755   0.134949
     6  Na  -0.127102   0.356586
     7  Na   0.014326   0.089170
 Sum of Mulliken charges =  -0.00000   1.00000

 Dipole moment (field-independent basis, Debye):
    X=             -0.8182    Y=             -0.5465    Z=              0.2458  Tot=              1.0142
 Quadrupole moment (field-independent basis, Debye-Ang):
   XX=            -52.8601   YY=            -73.9667   ZZ=            -70.5166
   XY=             -0.3813   XZ=              1.0132   YZ=             -0.2329

 Normal termination of Gaussian 16 at Sun Dec  3 15:46:33 2023.
