 Gaussian 16, Revision B.01,
 Gaussian 16:  ES64L-G16RevB.01 20-Dec-2017

 -------------------------
 #P B3LYP/6-311+g(d) force
 -------------------------

 -----
 DPGEN
 -----
 Symbolic Z-matrix:
 Charge =  0 Multiplicity = 2

                         Standard orientation:
 ---------------------------------------------------------------------
 Center     Atomic      Atomic             Coordinates (Angstroms)
 Number     Number       Type             X           Y           Z
 ---------------------------------------------------------------------
      1         11           0       -3.303347   -0.259252    0.025804
      2         11           0        0.197630    0.242321   -1.520351
      3         11           0       -1.083710    2.908161    0.062736
      4         11           0       -0.021493   -0.068163    1.661689
      5         11           0        2.637237    1.481778   -0.118842
      6         11           0       -0.990756   -2.637707   -0.305910
      7         11           0        2.564439   -1.667138    0.194874
 ---------------------------------------------------------------------

 SCF Done:  E(UB3LYP) =  -1136.13461224     A.U. after   20 cycles

 The electronic state is 2-A.
 Alpha  occ. eigenvalues --  -38.44568 -38.44049 -38.43726 -38.43503 -38.43181
 Alpha  occ. eigenvalues --  -38.42906 -38.42820  -2.20376  -2.19945  -2.19612
 Alpha  occ. eigenvalues --   -2.19322  -2.19063  -2.18896  -2.18856  -1.14049
 Alpha  occ. eigenvalues --   -1.14037  -1.14014  -1.13667  -1.13606  -1.13575
 Alpha  occ. eigenvalues --   -1.13281  -1.13265  -1.13252  -1.13006  -1.12993
 Alpha  occ. eigenvalues --   -1.12952  -1.12770  -1.12731  -1.12691  -1.12650
 Alpha  occ. eigenvalues --   -1.12518  -1.12506  -1.12502  -1.12483  -1.12455
 Alpha  occ. eigenvalues --   -0.18975  -0.13406  -0.12396  -0.10182
 Alpha virt. eigenvalues --   -0.06036  -0.05233  -0.04622  -0.03086  -0.02554
 Alpha virt. eigenvalues --   -0.01900  -0.01849  -0.01236  -0.00495  -0.00342
 Alpha virt. eigenvalues --    0.00046   0.00339   0.00761   0.00835   0.00901

  Beta  occ. eigenvalues --  -38.44568 -38.44039 -38.43718 -38.43500 -38.43171
  Beta  occ. eigenvalues --  -38.42830 -38.42752  -2.20377  -2.19932  -2.19600
  Beta  occ. eigenvalues --   -2.19321  -2.19048  -2.18756  -2.18733  -1.14043
  Beta  occ. eigenvalues --   -1.14030  -1.14017  -1.13657  -1.13581  -1.13556
  Beta  occ. eigenvalues --   -1.13274  -1.13249  -1.13226  -1.13002  -1.12975
  Beta  occ. eigenvalues --   -1.12952  -1.12756  -1.12693  -1.12681  -1.12561
  Beta  occ. eigenvalues --   -1.12424  -1.12411  -1.12399  -1.12389  -1.12366
  Beta  occ. eigenvalues --   -0.18265  -0.13151  -0.12133
  Beta virt. eigenvalues --   -0.06300  -0.06008  -0.05217  -0.04610  -0.02296
  Beta virt. eigenvalues --   -0.01821  -0.01763  -0.01177  -0.00917  -0.00531
  Beta virt. eigenvalues --   -0.00379   0.00183   0.00376   0.00797   0.00834

 Mulliken charges and spin densities:
               1          2
     1  Na  -0.000708  -0.090801
     2  Na  -0.353354   0.550341
     3  Na  -0.051203  -0.154128
     4  Na  -0.389735   0.707261
     5  Na   0.359765  -0.048618
     6  Na   0.125068  -0.018598
     7  Na   0.310168   0.054543
 Sum of Mulliken charges =  -0.00000   1.00000

 Dipole moment (field-independent basis, Debye):
    X=             -0.2445    Y=              0.1315    Z=              0.0890  Tot=              0.2915
 Quadrupole moment (field-independent basis, Debye-Ang):
   XX=            -51.6462   YY=            -61.5491   ZZ=            -77.5037
   XY=             -0.5653   XZ=              0.3585   YZ=              0.6055

 Normal termination of Gaussian 16 at Thu Dec  7 02:16:59 2023.
