 Gaussian 16, Revision B.01,
 Gaussian 16:  ES64L-G16RevB.01 20-Dec-2017

 -------------------------
 #P B3LYP/6-311+g(d) force
 -------------------------

 -----
 DPGEN
 -----
 Symbolic Z-matrix:
 Charge =  0 Multiplicity = 2

                         Standard orientation:
 ---------------------------------------------------------------------
 Center     Atomic      Atomic             Coordinates (Angstroms)
 Number     Number       Type             X           Y           Z
 ---------------------------------------------------------------------
      1         11           0        0.001825    0.994749   -0.547930
      2         11           0       -2.512030    3.665231    0.437236
      3         11           0       -3.072445    0.653703   -0.313779
      4         11           0       -0.305290   -2.127588    1.475091
      5         11           0        2.940248   -0.934188    0.066632
      6         11           0       -2.467031   -3.235890   -0.816989
      7         11           0        5.414721    0.983983   -0.300263
 ---------------------------------------------------------------------

 SCF Done:  E(UB3LYP) =  -1136.11929188     A.U. after   21 cycles

 The electronic state is 2-A.
 Alpha  occ. eigenvalues --  -38.45052 -38.44911 -38.44496 -38.44213 -38.43660
 Alpha  occ. eigenvalues --  -38.43481 -38.42954  -2.20895  -2.20713  -2.20370
 Alpha  occ. eigenvalues --   -2.20033  -2.19463  -2.19304  -2.18798  -1.14613
 Alpha  occ. eigenvalues --   -1.14583  -1.14482  -1.14402  -1.14373  -1.14342
 Alpha  occ. eigenvalues --   -1.14085  -1.14042  -1.13934  -1.13721  -1.13688
 Alpha  occ. eigenvalues --   -1.13665  -1.13122  -1.13113  -1.13088  -1.12961
 Alpha  occ. eigenvalues --   -1.12935  -1.12929  -1.12483  -1.12469  -1.12443
 Alpha  occ. eigenvalues --   -0.17089  -0.13759  -0.12711  -0.10298
 Alpha virt. eigenvalues --   -0.06649  -0.05436  -0.04770  -0.03403  -0.02733
 Alpha virt. eigenvalues --   -0.02344  -0.02248  -0.01695  -0.01091  -0.00545
 Alpha virt. eigenvalues --   -0.00353  -0.00239   0.00394   0.00491   0.00566

  Beta  occ. eigenvalues --  -38.45024 -38.44911 -38.44479 -38.44194 -38.43615
  Beta  occ. eigenvalues --  -38.43393 -38.42950  -2.20846  -2.20714  -2.20341
  Beta  occ. eigenvalues --   -2.20001  -2.19378  -2.19140  -2.18800  -1.14589
  Beta  occ. eigenvalues --   -1.14546  -1.14438  -1.14399  -1.14373  -1.14341
  Beta  occ. eigenvalues --   -1.14063  -1.14021  -1.13907  -1.13703  -1.13671
  Beta  occ. eigenvalues --   -1.13616  -1.13065  -1.13052  -1.13032  -1.12856
  Beta  occ. eigenvalues --   -1.12823  -1.12819  -1.12493  -1.12479  -1.12378
  Beta  occ. eigenvalues --   -0.16636  -0.13309  -0.12148
  Beta virt. eigenvalues --   -0.06947  -0.06528  -0.05123  -0.04385  -0.03100
  Beta virt. eigenvalues --   -0.02506  -0.02213  -0.01960  -0.01386  -0.00853
  Beta virt. eigenvalues --   -0.00191  -0.00153   0.00030   0.00459   0.00597

 Mulliken charges and spin densities:
               1          2
     1  Na  -1.126924  -0.142317
     2  Na   0.593232  -0.053279
     3  Na   0.183130   0.348203
     4  Na   0.292111   0.071480
     5  Na  -0.454207   0.203416
     6  Na   0.210552   0.268435
     7  Na   0.302108   0.304064
 Sum of Mulliken charges =  -0.00000   1.00000

 Dipole moment (field-independent basis, Debye):
    X=             -1.8056    Y=              1.3695    Z=              0.5771  Tot=              2.3385
 Quadrupole moment (field-independent basis, Debye-Ang):
   XX=            -76.6576   YY=            -57.5127   ZZ=            -67.8727
   XY=             -5.0768   XZ=             -0.7053   YZ=              1.1207

 Normal termination of Gaussian 16 at Tue Nov 28 22:06:51 2023.
