 Gaussian 16, Revision B.01,
 Gaussian 16:  ES64L-G16RevB.01 20-Dec-2017

 -------------------------
 #P B3LYP/6-311+g(d) force
 -------------------------

 -----
 DPGEN
 -----
 Symbolic Z-matrix:
 Charge =  0 Multiplicity = 2

                         Standard orientation:
 ---------------------------------------------------------------------
 Center     Atomic      Atomic             Coordinates (Angstroms)
 Number     Number       Type             X           Y           Z
 ---------------------------------------------------------------------
      1         11           0       -2.384434    0.120828    1.119982
      2         11           0        0.950361   -0.852621    2.304118
      3         11           0       -0.116249   -0.262579   -1.134084
      4         11           0       -0.716034    2.874643   -0.174944
      5         11           0        2.100857    1.576840   -0.492359
      6         11           0        3.554436   -1.714214   -0.610830
      7         11           0       -3.388938   -1.742897   -1.011883
 ---------------------------------------------------------------------

 SCF Done:  E(UB3LYP) =  -1136.12240287     A.U. after   22 cycles

 The electronic state is 2-A.
 Alpha  occ. eigenvalues --  -38.44470 -38.44139 -38.44005 -38.43831 -38.43828
 Alpha  occ. eigenvalues --  -38.43736 -38.42773  -2.20292  -2.19990  -2.19910
 Alpha  occ. eigenvalues --   -2.19761  -2.19677  -2.19671  -2.18659  -1.13956
 Alpha  occ. eigenvalues --   -1.13938  -1.13884  -1.13747  -1.13709  -1.13612
 Alpha  occ. eigenvalues --   -1.13586  -1.13575  -1.13534  -1.13518  -1.13434
 Alpha  occ. eigenvalues --   -1.13403  -1.13353  -1.13327  -1.13314  -1.13306
 Alpha  occ. eigenvalues --   -1.13253  -1.13253  -1.12324  -1.12319  -1.12302
 Alpha  occ. eigenvalues --   -0.18384  -0.13658  -0.11776  -0.11175
 Alpha virt. eigenvalues --   -0.06034  -0.05476  -0.04392  -0.03328  -0.02775
 Alpha virt. eigenvalues --   -0.02361  -0.02059  -0.01373  -0.00495  -0.00202
 Alpha virt. eigenvalues --    0.00133   0.00220   0.00422   0.00657   0.00747

  Beta  occ. eigenvalues --  -38.44369 -38.44135 -38.43979 -38.43810 -38.43803
  Beta  occ. eigenvalues --  -38.43722 -38.42772  -2.20106  -2.19945  -2.19903
  Beta  occ. eigenvalues --   -2.19732  -2.19648  -2.19626  -2.18659  -1.13832
  Beta  occ. eigenvalues --   -1.13813  -1.13747  -1.13714  -1.13661  -1.13584
  Beta  occ. eigenvalues --   -1.13580  -1.13562  -1.13532  -1.13484  -1.13412
  Beta  occ. eigenvalues --   -1.13375  -1.13332  -1.13297  -1.13275  -1.13270
  Beta  occ. eigenvalues --   -1.13242  -1.13217  -1.12325  -1.12321  -1.12290
  Beta  occ. eigenvalues --   -0.17701  -0.13410  -0.11544
  Beta virt. eigenvalues --   -0.07301  -0.05861  -0.05259  -0.03963  -0.02951
  Beta virt. eigenvalues --   -0.02192  -0.01966  -0.01667  -0.01251  -0.00287
  Beta virt. eigenvalues --   -0.00075   0.00236   0.00278   0.00586   0.00754

 Mulliken charges and spin densities:
               1          2
     1  Na   0.681380   0.046127
     2  Na  -0.443745   0.463496
     3  Na  -1.919246   0.096356
     4  Na  -0.293278   0.113092
     5  Na   1.495178   0.050748
     6  Na   0.460193   0.019991
     7  Na   0.019519   0.210189
 Sum of Mulliken charges =  -0.00000   1.00000

 Dipole moment (field-independent basis, Debye):
    X=              0.2834    Y=             -0.2382    Z=              0.1141  Tot=              0.3874
 Quadrupole moment (field-independent basis, Debye-Ang):
   XX=            -56.8101   YY=            -68.0962   ZZ=            -69.6264
   XY=             -1.7105   XZ=             -0.3933   YZ=              3.0959

 Normal termination of Gaussian 16 at Thu Dec  7 20:26:41 2023.
