 Gaussian 16, Revision B.01,
 Gaussian 16:  ES64L-G16RevB.01 20-Dec-2017

 -------------------------
 #P B3LYP/6-311+g(d) force
 -------------------------

 -----
 DPGEN
 -----
 Symbolic Z-matrix:
 Charge =  0 Multiplicity = 2

                         Standard orientation:
 ---------------------------------------------------------------------
 Center     Atomic      Atomic             Coordinates (Angstroms)
 Number     Number       Type             X           Y           Z
 ---------------------------------------------------------------------
      1         11           0       -1.732209    0.708973    2.159155
      2         11           0        1.201287    2.603007    0.067714
      3         11           0        0.663858   -1.801853    1.643104
      4         11           0       -1.636613    1.811557   -1.170156
      5         11           0        0.552995   -1.068190   -1.800891
      6         11           0        3.528932   -0.484224   -0.109525
      7         11           0       -2.578250   -1.769270   -0.789402
 ---------------------------------------------------------------------

 SCF Done:  E(UB3LYP) =  -1136.13258271     A.U. after   20 cycles

 The electronic state is 2-A.
 Alpha  occ. eigenvalues --  -38.44647 -38.44159 -38.44013 -38.43836 -38.43708
 Alpha  occ. eigenvalues --  -38.43352 -38.43216  -2.20473  -2.19986  -2.19889
 Alpha  occ. eigenvalues --   -2.19632  -2.19520  -2.19220  -2.19022  -1.14149
 Alpha  occ. eigenvalues --   -1.14106  -1.14082  -1.13672  -1.13645  -1.13601
 Alpha  occ. eigenvalues --   -1.13566  -1.13537  -1.13517  -1.13311  -1.13278
 Alpha  occ. eigenvalues --   -1.13274  -1.13196  -1.13171  -1.13157  -1.12923
 Alpha  occ. eigenvalues --   -1.12881  -1.12853  -1.12698  -1.12685  -1.12640
 Alpha  occ. eigenvalues --   -0.17999  -0.12781  -0.11998  -0.11811
 Alpha virt. eigenvalues --   -0.05542  -0.04936  -0.04668  -0.03539  -0.03384
 Alpha virt. eigenvalues --   -0.03197  -0.01461  -0.00791  -0.00525  -0.00071
 Alpha virt. eigenvalues --    0.00214   0.00364   0.00391   0.00774   0.00784

  Beta  occ. eigenvalues --  -38.44571 -38.44110 -38.43964 -38.43837 -38.43695
  Beta  occ. eigenvalues --  -38.43334 -38.43217  -2.20332  -2.19899  -2.19800
  Beta  occ. eigenvalues --   -2.19636  -2.19499  -2.19189  -2.19025  -1.14044
  Beta  occ. eigenvalues --   -1.14015  -1.13981  -1.13614  -1.13576  -1.13537
  Beta  occ. eigenvalues --   -1.13509  -1.13474  -1.13444  -1.13306  -1.13280
  Beta  occ. eigenvalues --   -1.13277  -1.13167  -1.13160  -1.13138  -1.12904
  Beta  occ. eigenvalues --   -1.12852  -1.12827  -1.12690  -1.12686  -1.12643
  Beta  occ. eigenvalues --   -0.17222  -0.12634  -0.11643
  Beta virt. eigenvalues --   -0.07931  -0.05399  -0.04888  -0.04075  -0.03339
  Beta virt. eigenvalues --   -0.02626  -0.02342  -0.01389  -0.00731  -0.00173
  Beta virt. eigenvalues --   -0.00026   0.00236   0.00416   0.00565   0.00857

 Mulliken charges and spin densities:
               1          2
     1  Na  -0.029829   0.369051
     2  Na  -0.197581  -0.042823
     3  Na  -0.198766   0.261626
     4  Na   0.046683   0.161321
     5  Na  -0.254080   0.363087
     6  Na   0.316687  -0.042819
     7  Na   0.316887  -0.069442
 Sum of Mulliken charges =  -0.00000   1.00000

 Dipole moment (field-independent basis, Debye):
    X=             -0.0427    Y=             -0.3210    Z=              0.2843  Tot=              0.4309
 Quadrupole moment (field-independent basis, Debye-Ang):
   XX=            -58.3219   YY=            -72.7707   ZZ=            -65.5236
   XY=              0.7094   XZ=              0.2796   YZ=              0.3768

 Normal termination of Gaussian 16 at Mon Dec  4 01:37:30 2023.
