 Gaussian 16, Revision B.01,
 Gaussian 16:  ES64L-G16RevB.01 20-Dec-2017

 -------------------------
 #P B3LYP/6-311+g(d) force
 -------------------------

 -----
 DPGEN
 -----
 Symbolic Z-matrix:
 Charge =  0 Multiplicity = 2

                         Standard orientation:
 ---------------------------------------------------------------------
 Center     Atomic      Atomic             Coordinates (Angstroms)
 Number     Number       Type             X           Y           Z
 ---------------------------------------------------------------------
      1         11           0       -3.660303    0.478119   -0.433373
      2         11           0       -0.446615    0.176331    1.437609
      3         11           0        3.709512   -1.818997   -0.165186
      4         11           0       -2.427423   -2.366796    0.395053
      5         11           0        0.372088   -0.764778   -1.250921
      6         11           0       -0.462792    2.785323   -0.309007
      7         11           0        2.915533    1.510798    0.325824
 ---------------------------------------------------------------------

 SCF Done:  E(UB3LYP) =  -1136.12015840     A.U. after   24 cycles

 The electronic state is 2-A.
 Alpha  occ. eigenvalues --  -38.45225 -38.44758 -38.43948 -38.43816 -38.43500
 Alpha  occ. eigenvalues --  -38.43434 -38.43031  -2.21103  -2.20572  -2.19816
 Alpha  occ. eigenvalues --   -2.19806  -2.19302  -2.19294  -2.18889  -1.14874
 Alpha  occ. eigenvalues --   -1.14747  -1.14693  -1.14278  -1.14233  -1.14183
 Alpha  occ. eigenvalues --   -1.13543  -1.13493  -1.13478  -1.13455  -1.13450
 Alpha  occ. eigenvalues --   -1.13379  -1.12968  -1.12954  -1.12950  -1.12931
 Alpha  occ. eigenvalues --   -1.12926  -1.12912  -1.12574  -1.12567  -1.12503
 Alpha  occ. eigenvalues --   -0.18360  -0.14098  -0.11949  -0.09784
 Alpha virt. eigenvalues --   -0.06946  -0.05919  -0.04431  -0.03111  -0.02938
 Alpha virt. eigenvalues --   -0.02258  -0.01999  -0.01207  -0.01043  -0.00421
 Alpha virt. eigenvalues --   -0.00264   0.00037   0.00520   0.00549   0.00625

  Beta  occ. eigenvalues --  -38.45220 -38.44750 -38.43935 -38.43760 -38.43467
  Beta  occ. eigenvalues --  -38.43351 -38.43029  -2.21100  -2.20561  -2.19787
  Beta  occ. eigenvalues --   -2.19716  -2.19240  -2.19139  -2.18886  -1.14848
  Beta  occ. eigenvalues --   -1.14745  -1.14700  -1.14271  -1.14228  -1.14155
  Beta  occ. eigenvalues --   -1.13486  -1.13472  -1.13458  -1.13407  -1.13380
  Beta  occ. eigenvalues --   -1.13313  -1.12927  -1.12900  -1.12895  -1.12848
  Beta  occ. eigenvalues --   -1.12821  -1.12805  -1.12571  -1.12566  -1.12488
  Beta  occ. eigenvalues --   -0.17876  -0.13568  -0.11673
  Beta virt. eigenvalues --   -0.06800  -0.06242  -0.05747  -0.04196  -0.02864
  Beta virt. eigenvalues --   -0.02436  -0.02031  -0.01614  -0.01003  -0.00789
  Beta virt. eigenvalues --   -0.00222  -0.00043   0.00249   0.00656   0.00666

 Mulliken charges and spin densities:
               1          2
     1  Na  -0.171647   0.670360
     2  Na   0.237593  -0.068837
     3  Na   0.088750   0.185548
     4  Na   0.258221   0.007577
     5  Na  -0.252061   0.043843
     6  Na  -0.399987   0.083194
     7  Na   0.239131   0.078316
 Sum of Mulliken charges =  -0.00000   1.00000

 Dipole moment (field-independent basis, Debye):
    X=              0.6722    Y=             -0.2421    Z=              0.6065  Tot=              0.9372
 Quadrupole moment (field-independent basis, Debye-Ang):
   XX=            -73.2790   YY=            -65.6336   ZZ=            -66.2824
   XY=              6.7474   XZ=              0.1986   YZ=             -0.1838

 Normal termination of Gaussian 16 at Thu Dec  7 04:26:53 2023.
