 Gaussian 16, Revision B.01,
 Gaussian 16:  ES64L-G16RevB.01 20-Dec-2017

 -------------------------
 #P B3LYP/6-311+g(d) force
 -------------------------

 -----
 DPGEN
 -----
 Symbolic Z-matrix:
 Charge =  0 Multiplicity = 2

                         Standard orientation:
 ---------------------------------------------------------------------
 Center     Atomic      Atomic             Coordinates (Angstroms)
 Number     Number       Type             X           Y           Z
 ---------------------------------------------------------------------
      1         11           0        0.118119   -1.908753   -0.822330
      2         11           0        3.498300   -3.134392    0.553413
      3         11           0        3.085142    0.285573   -0.030569
      4         11           0        0.050402    1.588233    0.919547
      5         11           0       -2.807622   -0.327931   -0.773638
      6         11           0        2.076871    3.749840   -0.375185
      7         11           0       -6.021212   -0.252571    0.528762
 ---------------------------------------------------------------------

 SCF Done:  E(UB3LYP) =  -1136.12397449     A.U. after   19 cycles

 The electronic state is 2-A.
 Alpha  occ. eigenvalues --  -38.44751 -38.44346 -38.44237 -38.44235 -38.44063
 Alpha  occ. eigenvalues --  -38.43903 -38.42949  -2.20587  -2.20148  -2.20073
 Alpha  occ. eigenvalues --   -2.20045  -2.19890  -2.19687  -2.18773  -1.14290
 Alpha  occ. eigenvalues --   -1.14267  -1.14192  -1.13790  -1.13778  -1.13778
 Alpha  occ. eigenvalues --   -1.13777  -1.13760  -1.13713  -1.13704  -1.13679
 Alpha  occ. eigenvalues --   -1.13633  -1.13580  -1.13564  -1.13490  -1.13352
 Alpha  occ. eigenvalues --   -1.13348  -1.13303  -1.12460  -1.12449  -1.12426
 Alpha  occ. eigenvalues --   -0.16833  -0.13611  -0.12659  -0.11001
 Alpha virt. eigenvalues --   -0.06002  -0.05714  -0.04602  -0.03737  -0.02576
 Alpha virt. eigenvalues --   -0.02197  -0.02007  -0.01695  -0.01517  -0.00700
 Alpha virt. eigenvalues --   -0.00452  -0.00034   0.00272   0.00493   0.00522

  Beta  occ. eigenvalues --  -38.44741 -38.44229 -38.44225 -38.44225 -38.44024
  Beta  occ. eigenvalues --  -38.43881 -38.42946  -2.20569  -2.20052  -2.20035
  Beta  occ. eigenvalues --   -2.19922  -2.19821  -2.19646  -2.18778  -1.14282
  Beta  occ. eigenvalues --   -1.14256  -1.14168  -1.13776  -1.13758  -1.13705
  Beta  occ. eigenvalues --   -1.13697  -1.13670  -1.13625  -1.13624  -1.13617
  Beta  occ. eigenvalues --   -1.13611  -1.13535  -1.13517  -1.13431  -1.13324
  Beta  occ. eigenvalues --   -1.13316  -1.13279  -1.12470  -1.12462  -1.12364
  Beta  occ. eigenvalues --   -0.16430  -0.12740  -0.12417
  Beta virt. eigenvalues --   -0.07466  -0.05796  -0.05566  -0.04088  -0.03552
  Beta virt. eigenvalues --   -0.02386  -0.02044  -0.01823  -0.01210  -0.01029
  Beta virt. eigenvalues --   -0.00372  -0.00256   0.00169   0.00450   0.00544

 Mulliken charges and spin densities:
               1          2
     1  Na  -0.114934  -0.007858
     2  Na   0.603881   0.092031
     3  Na  -0.493960   0.265177
     4  Na  -0.785202  -0.095243
     5  Na  -0.046223   0.095416
     6  Na   0.853654   0.048242
     7  Na  -0.017216   0.602235
 Sum of Mulliken charges =  -0.00000   1.00000

 Dipole moment (field-independent basis, Debye):
    X=              1.3197    Y=              0.6991    Z=              0.1508  Tot=              1.5011
 Quadrupole moment (field-independent basis, Debye-Ang):
   XX=            -69.9950   YY=            -59.5545   ZZ=            -68.8996
   XY=              0.0998   XZ=             -2.4086   YZ=             -2.1751

 Normal termination of Gaussian 16 at Wed Nov 29 01:56:50 2023.
