 Gaussian 16, Revision B.01,
 Gaussian 16:  ES64L-G16RevB.01 20-Dec-2017

 -------------------------
 #P B3LYP/6-311+g(d) force
 -------------------------

 -----
 DPGEN
 -----
 Symbolic Z-matrix:
 Charge =  0 Multiplicity = 2

                         Standard orientation:
 ---------------------------------------------------------------------
 Center     Atomic      Atomic             Coordinates (Angstroms)
 Number     Number       Type             X           Y           Z
 ---------------------------------------------------------------------
      1         11           0       -2.223642    0.634080   -1.310896
      2         11           0        1.068217    0.815777    1.028171
      3         11           0        2.437578   -1.895884   -0.772819
      4         11           0       -1.265416   -1.866701    1.334795
      5         11           0       -4.271134   -1.280256   -0.222554
      6         11           0        4.926665   -0.045536   -0.255239
      7         11           0       -0.672267    3.638520    0.198541
 ---------------------------------------------------------------------

 SCF Done:  E(UB3LYP) =  -1136.12150725     A.U. after   20 cycles

 The electronic state is 2-A.
 Alpha  occ. eigenvalues --  -38.44612 -38.44447 -38.44320 -38.44056 -38.43697
 Alpha  occ. eigenvalues --  -38.43660 -38.42841  -2.20424  -2.20264  -2.20179
 Alpha  occ. eigenvalues --   -2.19892  -2.19542  -2.19521  -2.18633  -1.14119
 Alpha  occ. eigenvalues --   -1.14103  -1.14078  -1.13906  -1.13903  -1.13895
 Alpha  occ. eigenvalues --   -1.13865  -1.13841  -1.13802  -1.13567  -1.13555
 Alpha  occ. eigenvalues --   -1.13504  -1.13242  -1.13227  -1.13194  -1.13160
 Alpha  occ. eigenvalues --   -1.13139  -1.13133  -1.12299  -1.12298  -1.12270
 Alpha  occ. eigenvalues --   -0.17024  -0.14165  -0.11741  -0.10968
 Alpha virt. eigenvalues --   -0.06374  -0.05032  -0.04495  -0.03725  -0.03187
 Alpha virt. eigenvalues --   -0.02238  -0.01661  -0.01336  -0.01107  -0.00672
 Alpha virt. eigenvalues --   -0.00245  -0.00174   0.00387   0.00593   0.00692

  Beta  occ. eigenvalues --  -38.44615 -38.44388 -38.44285 -38.43997 -38.43671
  Beta  occ. eigenvalues --  -38.43629 -38.42840  -2.20436  -2.20153  -2.20118
  Beta  occ. eigenvalues --   -2.19785  -2.19499  -2.19465  -2.18631  -1.14118
  Beta  occ. eigenvalues --   -1.14117  -1.14053  -1.13847  -1.13830  -1.13826
  Beta  occ. eigenvalues --   -1.13802  -1.13796  -1.13749  -1.13494  -1.13482
  Beta  occ. eigenvalues --   -1.13416  -1.13216  -1.13171  -1.13145  -1.13122
  Beta  occ. eigenvalues --   -1.13115  -1.13098  -1.12298  -1.12295  -1.12270
  Beta  occ. eigenvalues --   -0.16338  -0.13629  -0.11630
  Beta virt. eigenvalues --   -0.07353  -0.06122  -0.04843  -0.03999  -0.03393
  Beta virt. eigenvalues --   -0.02821  -0.02101  -0.01355  -0.01126  -0.00658
  Beta virt. eigenvalues --   -0.00371  -0.00154   0.00031   0.00464   0.00657

 Mulliken charges and spin densities:
               1          2
     1  Na  -0.284035   0.257184
     2  Na  -0.831822   0.107256
     3  Na   0.050388   0.056213
     4  Na   0.153125   0.196119
     5  Na   0.247115   0.152507
     6  Na   0.243755   0.263014
     7  Na   0.421474  -0.032292
 Sum of Mulliken charges =  -0.00000   1.00000

 Dipole moment (field-independent basis, Debye):
    X=              0.4779    Y=             -0.6397    Z=              0.0173  Tot=              0.7987
 Quadrupole moment (field-independent basis, Debye-Ang):
   XX=            -61.4160   YY=            -68.1431   ZZ=            -67.9818
   XY=              3.5437   XZ=             -0.1350   YZ=              1.1964

 Normal termination of Gaussian 16 at Tue Nov 28 18:52:43 2023.
