 Gaussian 16, Revision B.01,
 Gaussian 16:  ES64L-G16RevB.01 20-Dec-2017

 -------------------------
 #P B3LYP/6-311+g(d) force
 -------------------------

 -----
 DPGEN
 -----
 Symbolic Z-matrix:
 Charge =  0 Multiplicity = 2

                         Standard orientation:
 ---------------------------------------------------------------------
 Center     Atomic      Atomic             Coordinates (Angstroms)
 Number     Number       Type             X           Y           Z
 ---------------------------------------------------------------------
      1         11           0       -2.506323    3.465335   -0.515977
      2         11           0       -3.343813   -2.756980    0.215949
      3         11           0        0.321850   -2.209107   -0.544232
      4         11           0        3.070063   -0.015366    1.022267
      5         11           0        5.705572    0.105070   -0.950600
      6         11           0        0.378154    1.184137    1.171524
      7         11           0       -3.625504    0.226912   -0.398931
 ---------------------------------------------------------------------

 SCF Done:  E(UB3LYP) =  -1136.11293372     A.U. after   21 cycles

 The electronic state is 2-A.
 Alpha  occ. eigenvalues --  -38.45456 -38.45367 -38.44680 -38.44038 -38.43907
 Alpha  occ. eigenvalues --  -38.43641 -38.43243  -2.21203  -2.21183  -2.20519
 Alpha  occ. eigenvalues --   -2.19915  -2.19745  -2.19461  -2.19017  -1.14900
 Alpha  occ. eigenvalues --   -1.14879  -1.14810  -1.14804  -1.14801  -1.14799
 Alpha  occ. eigenvalues --   -1.14227  -1.14176  -1.14155  -1.13609  -1.13569
 Alpha  occ. eigenvalues --   -1.13545  -1.13453  -1.13415  -1.13394  -1.13121
 Alpha  occ. eigenvalues --   -1.13111  -1.13073  -1.12687  -1.12680  -1.12653
 Alpha  occ. eigenvalues --   -0.16623  -0.14379  -0.11883  -0.11650
 Alpha virt. eigenvalues --   -0.06759  -0.05078  -0.04546  -0.03860  -0.03003
 Alpha virt. eigenvalues --   -0.02256  -0.02167  -0.01896  -0.01018  -0.00845
 Alpha virt. eigenvalues --   -0.00551   0.00005   0.00130   0.00276   0.00621

  Beta  occ. eigenvalues --  -38.45438 -38.45236 -38.44638 -38.44029 -38.43883
  Beta  occ. eigenvalues --  -38.43630 -38.43242  -2.21171  -2.20940  -2.20443
  Beta  occ. eigenvalues --   -2.19911  -2.19702  -2.19441  -2.19015  -1.14879
  Beta  occ. eigenvalues --   -1.14852  -1.14777  -1.14646  -1.14639  -1.14638
  Beta  occ. eigenvalues --   -1.14178  -1.14126  -1.14091  -1.13590  -1.13569
  Beta  occ. eigenvalues --   -1.13497  -1.13422  -1.13387  -1.13363  -1.13103
  Beta  occ. eigenvalues --   -1.13096  -1.13062  -1.12686  -1.12675  -1.12653
  Beta  occ. eigenvalues --   -0.15997  -0.13523  -0.11654
  Beta virt. eigenvalues --   -0.08138  -0.06450  -0.04661  -0.04354  -0.03600
  Beta virt. eigenvalues --   -0.02740  -0.01923  -0.01621  -0.01518  -0.00961
  Beta virt. eigenvalues --   -0.00449  -0.00342   0.00131   0.00273   0.00414

 Mulliken charges and spin densities:
               1          2
     1  Na   0.652071   0.034020
     2  Na   0.244344   0.041040
     3  Na  -0.056231   0.013846
     4  Na  -0.236161  -0.019597
     5  Na   0.265267   0.617173
     6  Na  -0.449503   0.117183
     7  Na  -0.419786   0.196336
 Sum of Mulliken charges =  -0.00000   1.00000

 Dipole moment (field-independent basis, Debye):
    X=              1.3622    Y=             -0.7471    Z=             -0.3672  Tot=              1.5965
 Quadrupole moment (field-independent basis, Debye-Ang):
   XX=            -63.1678   YY=            -67.9654   ZZ=            -68.8144
   XY=              0.9776   XZ=             -3.2805   YZ=             -0.3713

 Normal termination of Gaussian 16 at Mon Dec  4 03:33:15 2023.
