 Gaussian 16, Revision B.01,
 Gaussian 16:  ES64L-G16RevB.01 20-Dec-2017

 -------------------------
 #P B3LYP/6-311+g(d) force
 -------------------------

 -----
 DPGEN
 -----
 Symbolic Z-matrix:
 Charge =  0 Multiplicity = 2

                         Standard orientation:
 ---------------------------------------------------------------------
 Center     Atomic      Atomic             Coordinates (Angstroms)
 Number     Number       Type             X           Y           Z
 ---------------------------------------------------------------------
      1         11           0        2.364358   -1.895694   -0.329903
      2         11           0       -1.481846    0.294542    2.255140
      3         11           0       -3.961118   -1.020334   -0.223048
      4         11           0       -2.585615    2.207084   -0.662799
      5         11           0        1.651760    1.405596   -1.049875
      6         11           0       -0.657012   -1.669059   -0.602592
      7         11           0        4.669474    0.677864    0.613077
 ---------------------------------------------------------------------

 SCF Done:  E(UB3LYP) =  -1136.10792542     A.U. after   31 cycles

 The electronic state is 2-A.
 Alpha  occ. eigenvalues --  -38.47723 -38.44397 -38.44130 -38.44117 -38.43703
 Alpha  occ. eigenvalues --  -38.43462 -38.42194  -2.23460  -2.20245  -2.19924
 Alpha  occ. eigenvalues --   -2.19915  -2.19573  -2.19284  -2.18107  -1.17136
 Alpha  occ. eigenvalues --   -1.17109  -1.17097  -1.13919  -1.13875  -1.13858
 Alpha  occ. eigenvalues --   -1.13610  -1.13607  -1.13593  -1.13569  -1.13560
 Alpha  occ. eigenvalues --   -1.13541  -1.13278  -1.13247  -1.13191  -1.12934
 Alpha  occ. eigenvalues --   -1.12930  -1.12896  -1.11802  -1.11764  -1.11754
 Alpha  occ. eigenvalues --   -0.17541  -0.14511  -0.10922  -0.10379
 Alpha virt. eigenvalues --   -0.07911  -0.05771  -0.04432  -0.03210  -0.03096
 Alpha virt. eigenvalues --   -0.02201  -0.01997  -0.01857  -0.01199  -0.00741
 Alpha virt. eigenvalues --   -0.00575   0.00047   0.00197   0.00446   0.00556

  Beta  occ. eigenvalues --  -38.47734 -38.44323 -38.44106 -38.44103 -38.43699
  Beta  occ. eigenvalues --  -38.43388 -38.42186  -2.23481  -2.20107  -2.19899
  Beta  occ. eigenvalues --   -2.19876  -2.19569  -2.19144  -2.18098  -1.17143
  Beta  occ. eigenvalues --   -1.17118  -1.17113  -1.13825  -1.13780  -1.13767
  Beta  occ. eigenvalues --   -1.13604  -1.13578  -1.13578  -1.13538  -1.13508
  Beta  occ. eigenvalues --   -1.13503  -1.13256  -1.13246  -1.13188  -1.12838
  Beta  occ. eigenvalues --   -1.12832  -1.12809  -1.11787  -1.11761  -1.11729
  Beta  occ. eigenvalues --   -0.17019  -0.13963  -0.10572
  Beta virt. eigenvalues --   -0.07706  -0.06950  -0.05618  -0.03933  -0.02941
  Beta virt. eigenvalues --   -0.02808  -0.02066  -0.01835  -0.01352  -0.00638
  Beta virt. eigenvalues --   -0.00559  -0.00242   0.00116   0.00304   0.00518

 Mulliken charges and spin densities:
               1          2
     1  Na  -0.417637  -0.003492
     2  Na   0.116181  -0.067900
     3  Na   1.208730   0.590806
     4  Na  -0.145376   0.153349
     5  Na  -0.258605   0.032893
     6  Na  -0.654440  -0.125831
     7  Na   0.151147   0.420174
 Sum of Mulliken charges =  -0.00000   1.00000

 Dipole moment (field-independent basis, Debye):
    X=             -1.2201    Y=              0.1975    Z=              1.6072  Tot=              2.0275
 Quadrupole moment (field-independent basis, Debye-Ang):
   XX=            -69.1653   YY=            -79.7136   ZZ=            -57.4121
   XY=             -3.3034   XZ=              1.1563   YZ=             -1.2667

 Normal termination of Gaussian 16 at Fri Dec  8 18:19:08 2023.
