 Gaussian 16, Revision B.01,
 Gaussian 16:  ES64L-G16RevB.01 20-Dec-2017

 -------------------------
 #P B3LYP/6-311+g(d) force
 -------------------------

 -----
 DPGEN
 -----
 Symbolic Z-matrix:
 Charge =  0 Multiplicity = 2

                         Standard orientation:
 ---------------------------------------------------------------------
 Center     Atomic      Atomic             Coordinates (Angstroms)
 Number     Number       Type             X           Y           Z
 ---------------------------------------------------------------------
      1         11           0       -0.281673   -0.910026   -1.161738
      2         11           0       -1.775599   -0.240378    2.038692
      3         11           0        3.912919   -0.273025   -1.240433
      4         11           0       -1.297311    2.609762   -0.482174
      5         11           0       -4.050295   -1.090619   -1.034666
      6         11           0        1.617615    1.819328    0.756486
      7         11           0        1.874344   -1.915043    1.123833
 ---------------------------------------------------------------------

 SCF Done:  E(UB3LYP) =  -1136.12245726     A.U. after   21 cycles

 The electronic state is 2-A.
 Alpha  occ. eigenvalues --  -38.44839 -38.44742 -38.44723 -38.44170 -38.43894
 Alpha  occ. eigenvalues --  -38.43139 -38.43021  -2.20634  -2.20554  -2.20533
 Alpha  occ. eigenvalues --   -2.19937  -2.19736  -2.18980  -2.18843  -1.14317
 Alpha  occ. eigenvalues --   -1.14279  -1.14273  -1.14259  -1.14226  -1.14198
 Alpha  occ. eigenvalues --   -1.14184  -1.14159  -1.14147  -1.13602  -1.13593
 Alpha  occ. eigenvalues --   -1.13552  -1.13430  -1.13399  -1.13340  -1.12681
 Alpha  occ. eigenvalues --   -1.12660  -1.12618  -1.12522  -1.12487  -1.12464
 Alpha  occ. eigenvalues --   -0.17714  -0.13571  -0.11195  -0.10831
 Alpha virt. eigenvalues --   -0.06786  -0.05399  -0.04878  -0.03107  -0.02699
 Alpha virt. eigenvalues --   -0.02382  -0.02268  -0.01527  -0.00886  -0.00417
 Alpha virt. eigenvalues --    0.00023   0.00159   0.00245   0.00445   0.00583

  Beta  occ. eigenvalues --  -38.44792 -38.44716 -38.44702 -38.44130 -38.43862
  Beta  occ. eigenvalues --  -38.43139 -38.43015  -2.20549  -2.20545  -2.20457
  Beta  occ. eigenvalues --   -2.19862  -2.19681  -2.18984  -2.18831  -1.14266
  Beta  occ. eigenvalues --   -1.14231  -1.14222  -1.14210  -1.14193  -1.14156
  Beta  occ. eigenvalues --   -1.14145  -1.14130  -1.14102  -1.13548  -1.13540
  Beta  occ. eigenvalues --   -1.13505  -1.13397  -1.13361  -1.13279  -1.12684
  Beta  occ. eigenvalues --   -1.12646  -1.12618  -1.12510  -1.12480  -1.12456
  Beta  occ. eigenvalues --   -0.17115  -0.13219  -0.11011
  Beta virt. eigenvalues --   -0.07302  -0.06480  -0.04973  -0.04585  -0.02950
  Beta virt. eigenvalues --   -0.02424  -0.01994  -0.01654  -0.01157  -0.00683
  Beta virt. eigenvalues --   -0.00271   0.00089   0.00278   0.00346   0.00567

 Mulliken charges and spin densities:
               1          2
     1  Na  -0.594694   0.039122
     2  Na   0.016908   0.226111
     3  Na   0.324851   0.166849
     4  Na  -0.087635  -0.009350
     5  Na   0.201448   0.215725
     6  Na  -0.162536   0.121428
     7  Na   0.301658   0.240114
 Sum of Mulliken charges =  -0.00000   1.00000

 Dipole moment (field-independent basis, Debye):
    X=              0.2829    Y=             -0.2149    Z=              0.2338  Tot=              0.4253
 Quadrupole moment (field-independent basis, Debye-Ang):
   XX=            -53.0768   YY=            -77.1973   ZZ=            -65.3836
   XY=             -2.1074   XZ=             -2.6559   YZ=             -1.1508

 Normal termination of Gaussian 16 at Wed Dec  6 00:29:49 2023.
