 Gaussian 16, Revision B.01,
 Gaussian 16:  ES64L-G16RevB.01 20-Dec-2017

 -------------------------
 #P B3LYP/6-311+g(d) force
 -------------------------

 -----
 DPGEN
 -----
 Symbolic Z-matrix:
 Charge =  0 Multiplicity = 2

                         Standard orientation:
 ---------------------------------------------------------------------
 Center     Atomic      Atomic             Coordinates (Angstroms)
 Number     Number       Type             X           Y           Z
 ---------------------------------------------------------------------
      1         11           0        0.250976   -0.079654   -1.878953
      2         11           0       -2.081155    1.958457    0.296686
      3         11           0       -2.514788   -1.125003   -0.513753
      4         11           0        1.231134    2.495060   -0.154976
      5         11           0        0.039181   -2.741476    0.374217
      6         11           0        3.055058   -0.555993   -0.020951
      7         11           0        0.019594    0.048610    1.897731
 ---------------------------------------------------------------------

 SCF Done:  E(UB3LYP) =  -1136.13822653     A.U. after   17 cycles

 The electronic state is 2-A.
 Alpha  occ. eigenvalues --  -38.43807 -38.43541 -38.43539 -38.43371 -38.43356
 Alpha  occ. eigenvalues --  -38.43262 -38.43248  -2.19642  -2.19520  -2.19512
 Alpha  occ. eigenvalues --   -2.19284  -2.19261  -2.19159  -2.19155  -1.13330
 Alpha  occ. eigenvalues --   -1.13310  -1.13279  -1.13215  -1.13188  -1.13179
 Alpha  occ. eigenvalues --   -1.13174  -1.13138  -1.13131  -1.12986  -1.12966
 Alpha  occ. eigenvalues --   -1.12943  -1.12932  -1.12928  -1.12885  -1.12831
 Alpha  occ. eigenvalues --   -1.12824  -1.12800  -1.12794  -1.12778  -1.12755
 Alpha  occ. eigenvalues --   -0.19261  -0.12983  -0.12668  -0.11297
 Alpha virt. eigenvalues --   -0.05322  -0.04777  -0.04526  -0.03331  -0.03158
 Alpha virt. eigenvalues --   -0.02858  -0.01297  -0.00941  -0.00121   0.00068
 Alpha virt. eigenvalues --    0.00138   0.00379   0.00898   0.00956   0.00979

  Beta  occ. eigenvalues --  -38.43805 -38.43458 -38.43456 -38.43364 -38.43343
  Beta  occ. eigenvalues --  -38.43255 -38.43237  -2.19642  -2.19366  -2.19361
  Beta  occ. eigenvalues --   -2.19263  -2.19253  -2.19150  -2.19140  -1.13318
  Beta  occ. eigenvalues --   -1.13301  -1.13276  -1.13126  -1.13088  -1.13080
  Beta  occ. eigenvalues --   -1.13067  -1.13035  -1.13027  -1.12976  -1.12946
  Beta  occ. eigenvalues --   -1.12926  -1.12900  -1.12886  -1.12877  -1.12810
  Beta  occ. eigenvalues --   -1.12802  -1.12778  -1.12776  -1.12768  -1.12746
  Beta  occ. eigenvalues --   -0.18495  -0.12721  -0.12392
  Beta virt. eigenvalues --   -0.07324  -0.05314  -0.04747  -0.04510  -0.02506
  Beta virt. eigenvalues --   -0.02336  -0.01777  -0.01224  -0.00870  -0.00040
  Beta virt. eigenvalues --    0.00020   0.00148   0.00391   0.00911   0.00959

 Mulliken charges and spin densities:
               1          2
     1  Na  -0.310721   0.574599
     2  Na   0.143554  -0.015267
     3  Na   0.210166   0.061017
     4  Na   0.123368  -0.082818
     5  Na   0.166542  -0.029019
     6  Na   0.026967  -0.125769
     7  Na  -0.359876   0.617257
 Sum of Mulliken charges =  -0.00000   1.00000

 Dipole moment (field-independent basis, Debye):
    X=              0.3557    Y=              0.0176    Z=             -0.0040  Tot=              0.3561
 Quadrupole moment (field-independent basis, Debye-Ang):
   XX=            -59.3749   YY=            -63.8340   ZZ=            -71.5471
   XY=             -0.4913   XZ=              0.6051   YZ=             -0.2153

 Normal termination of Gaussian 16 at Tue Dec  5 12:21:20 2023.
