 Gaussian 16, Revision B.01,
 Gaussian 16:  ES64L-G16RevB.01 20-Dec-2017

 -------------------------
 #P B3LYP/6-311+g(d) force
 -------------------------

 -----
 DPGEN
 -----
 Symbolic Z-matrix:
 Charge =  0 Multiplicity = 2

                         Standard orientation:
 ---------------------------------------------------------------------
 Center     Atomic      Atomic             Coordinates (Angstroms)
 Number     Number       Type             X           Y           Z
 ---------------------------------------------------------------------
      1         11           0        0.855850   -2.156943   -0.254303
      2         11           0        2.172348    1.170290    0.268030
      3         11           0       -1.195232    1.156246    0.710322
      4         11           0       -2.467188   -2.306817    0.444090
      5         11           0       -4.243670    0.109467   -0.656638
      6         11           0        0.754813    3.830362   -0.267926
      7         11           0        4.123079   -1.802606   -0.243575
 ---------------------------------------------------------------------

 SCF Done:  E(UB3LYP) =  -1136.12906381     A.U. after   20 cycles

 The electronic state is 2-A.
 Alpha  occ. eigenvalues --  -38.44530 -38.44352 -38.43990 -38.43979 -38.43462
 Alpha  occ. eigenvalues --  -38.43204 -38.43180  -2.20383  -2.20191  -2.19888
 Alpha  occ. eigenvalues --   -2.19844  -2.19322  -2.19054  -2.19039  -1.14102
 Alpha  occ. eigenvalues --   -1.14094  -1.13976  -1.13906  -1.13840  -1.13817
 Alpha  occ. eigenvalues --   -1.13600  -1.13579  -1.13523  -1.13510  -1.13489
 Alpha  occ. eigenvalues --   -1.13456  -1.12972  -1.12956  -1.12937  -1.12747
 Alpha  occ. eigenvalues --   -1.12733  -1.12727  -1.12686  -1.12680  -1.12615
 Alpha  occ. eigenvalues --   -0.17344  -0.14120  -0.13131  -0.10136
 Alpha virt. eigenvalues --   -0.06298  -0.05344  -0.04763  -0.03482  -0.02525
 Alpha virt. eigenvalues --   -0.02217  -0.01785  -0.01600  -0.01258  -0.00767
 Alpha virt. eigenvalues --   -0.00049   0.00142   0.00580   0.00598   0.00656

  Beta  occ. eigenvalues --  -38.44523 -38.44359 -38.43985 -38.43950 -38.43383
  Beta  occ. eigenvalues --  -38.43153 -38.43145  -2.20373  -2.20203  -2.19882
  Beta  occ. eigenvalues --   -2.19799  -2.19174  -2.18995  -2.18945  -1.14092
  Beta  occ. eigenvalues --   -1.14065  -1.13976  -1.13913  -1.13848  -1.13823
  Beta  occ. eigenvalues --   -1.13590  -1.13576  -1.13495  -1.13469  -1.13445
  Beta  occ. eigenvalues --   -1.13423  -1.12870  -1.12854  -1.12845  -1.12707
  Beta  occ. eigenvalues --   -1.12699  -1.12664  -1.12621  -1.12611  -1.12545
  Beta  occ. eigenvalues --   -0.16917  -0.13600  -0.12724
  Beta virt. eigenvalues --   -0.06531  -0.06102  -0.05251  -0.04486  -0.02960
  Beta virt. eigenvalues --   -0.02333  -0.01994  -0.01718  -0.01163  -0.00985
  Beta virt. eigenvalues --   -0.00391   0.00226   0.00423   0.00618   0.00713

 Mulliken charges and spin densities:
               1          2
     1  Na  -0.621963   0.215435
     2  Na  -1.014057   0.043718
     3  Na  -0.941822   0.055308
     4  Na   0.305291  -0.033894
     5  Na   0.519316   0.380388
     6  Na   1.025445  -0.023131
     7  Na   0.727789   0.362176
 Sum of Mulliken charges =  -0.00000   1.00000

 Dipole moment (field-independent basis, Debye):
    X=              0.0648    Y=              0.9899    Z=             -0.1158  Tot=              0.9987
 Quadrupole moment (field-independent basis, Debye-Ang):
   XX=            -69.9476   YY=            -57.9647   ZZ=            -70.3989
   XY=              4.6578   XZ=             -0.1945   YZ=             -1.5533

 Normal termination of Gaussian 16 at Tue Nov 28 22:33:17 2023.
