 Gaussian 16, Revision B.01,
 Gaussian 16:  ES64L-G16RevB.01 20-Dec-2017

 -------------------------
 #P B3LYP/6-311+g(d) force
 -------------------------

 -----
 DPGEN
 -----
 Symbolic Z-matrix:
 Charge =  0 Multiplicity = 2

                         Standard orientation:
 ---------------------------------------------------------------------
 Center     Atomic      Atomic             Coordinates (Angstroms)
 Number     Number       Type             X           Y           Z
 ---------------------------------------------------------------------
      1         11           0        0.123384   -1.999676    0.251518
      2         11           0        3.091074   -3.138647   -0.170499
      3         11           0        3.341395    0.525898   -0.164962
      4         11           0        1.455344    3.540408   -0.760868
      5         11           0        0.212307    1.696012    1.510458
      6         11           0       -2.556009   -0.275687   -0.623081
      7         11           0       -5.667494   -0.348309   -0.042566
 ---------------------------------------------------------------------

 SCF Done:  E(UB3LYP) =  -1136.12093079     A.U. after   19 cycles

 The electronic state is 2-A.
 Alpha  occ. eigenvalues --  -38.44844 -38.44678 -38.44614 -38.43887 -38.43780
 Alpha  occ. eigenvalues --  -38.43642 -38.43035  -2.20672  -2.20476  -2.20424
 Alpha  occ. eigenvalues --   -2.19706  -2.19589  -2.19503  -2.18874  -1.14370
 Alpha  occ. eigenvalues --   -1.14339  -1.14293  -1.14180  -1.14152  -1.14089
 Alpha  occ. eigenvalues --   -1.14079  -1.14065  -1.14032  -1.13351  -1.13335
 Alpha  occ. eigenvalues --   -1.13333  -1.13293  -1.13251  -1.13227  -1.13187
 Alpha  occ. eigenvalues --   -1.13162  -1.13100  -1.12565  -1.12544  -1.12521
 Alpha  occ. eigenvalues --   -0.16923  -0.13504  -0.12874  -0.10648
 Alpha virt. eigenvalues --   -0.06216  -0.05943  -0.04556  -0.03468  -0.02792
 Alpha virt. eigenvalues --   -0.02342  -0.01762  -0.01536  -0.01162  -0.00761
 Alpha virt. eigenvalues --   -0.00536  -0.00074   0.00393   0.00423   0.00498

  Beta  occ. eigenvalues --  -38.44817 -38.44640 -38.44607 -38.43790 -38.43775
  Beta  occ. eigenvalues --  -38.43609 -38.43036  -2.20623  -2.20413  -2.20404
  Beta  occ. eigenvalues --   -2.19580  -2.19526  -2.19444  -2.18886  -1.14339
  Beta  occ. eigenvalues --   -1.14309  -1.14247  -1.14132  -1.14102  -1.14077
  Beta  occ. eigenvalues --   -1.14063  -1.14044  -1.13994  -1.13283  -1.13245
  Beta  occ. eigenvalues --   -1.13235  -1.13214  -1.13212  -1.13210  -1.13150
  Beta  occ. eigenvalues --   -1.13118  -1.13061  -1.12567  -1.12560  -1.12477
  Beta  occ. eigenvalues --   -0.16389  -0.12929  -0.12523
  Beta virt. eigenvalues --   -0.07294  -0.06004  -0.05555  -0.04157  -0.03112
  Beta virt. eigenvalues --   -0.02587  -0.02164  -0.01666  -0.01169  -0.00880
  Beta virt. eigenvalues --   -0.00391  -0.00279   0.00142   0.00443   0.00586

 Mulliken charges and spin densities:
               1          2
     1  Na  -0.868305  -0.004213
     2  Na   0.864813   0.140471
     3  Na  -0.256060   0.313375
     4  Na   0.171911   0.041300
     5  Na   0.061384   0.159849
     6  Na  -0.123177  -0.113768
     7  Na   0.149434   0.462986
 Sum of Mulliken charges =  -0.00000   1.00000

 Dipole moment (field-independent basis, Debye):
    X=              1.3205    Y=              1.0818    Z=              0.2564  Tot=              1.7262
 Quadrupole moment (field-independent basis, Debye-Ang):
   XX=            -71.4235   YY=            -61.0519   ZZ=            -67.3748
   XY=             -2.1781   XZ=             -2.6418   YZ=             -1.8341

 Normal termination of Gaussian 16 at Wed Nov 29 02:19:55 2023.
