 Gaussian 16, Revision B.01,
 Gaussian 16:  ES64L-G16RevB.01 20-Dec-2017

 -------------------------
 #P B3LYP/6-311+g(d) force
 -------------------------

 -----
 DPGEN
 -----
 Symbolic Z-matrix:
 Charge =  0 Multiplicity = 2

                         Standard orientation:
 ---------------------------------------------------------------------
 Center     Atomic      Atomic             Coordinates (Angstroms)
 Number     Number       Type             X           Y           Z
 ---------------------------------------------------------------------
      1         11           0       -0.400025   -0.902670   -1.301360
      2         11           0        1.654723   -2.825012   -0.349550
      3         11           0        1.570070    2.721950   -0.419704
      4         11           0       -1.253363    2.038243   -0.399140
      5         11           0       -0.613625   -0.042373    1.875014
      6         11           0       -3.690945   -0.821084    0.040230
      7         11           0        2.733164   -0.169054    0.554512
 ---------------------------------------------------------------------

 SCF Done:  E(UB3LYP) =  -1136.12285502     A.U. after   19 cycles

 The electronic state is 2-A.
 Alpha  occ. eigenvalues --  -38.44860 -38.43999 -38.43755 -38.43652 -38.43634
 Alpha  occ. eigenvalues --  -38.43407 -38.43314  -2.20643  -2.19906  -2.19678
 Alpha  occ. eigenvalues --   -2.19623  -2.19534  -2.19308  -2.19289  -1.14313
 Alpha  occ. eigenvalues --   -1.14311  -1.14267  -1.13622  -1.13568  -1.13562
 Alpha  occ. eigenvalues --   -1.13441  -1.13360  -1.13341  -1.13316  -1.13276
 Alpha  occ. eigenvalues --   -1.13259  -1.13235  -1.13167  -1.13146  -1.12988
 Alpha  occ. eigenvalues --   -1.12944  -1.12938  -1.12914  -1.12904  -1.12882
 Alpha  occ. eigenvalues --   -0.18871  -0.13487  -0.12622  -0.10478
 Alpha virt. eigenvalues --   -0.06345  -0.05138  -0.04549  -0.03241  -0.02735
 Alpha virt. eigenvalues --   -0.02263  -0.02098  -0.01100  -0.00416  -0.00115
 Alpha virt. eigenvalues --    0.00099   0.00253   0.00661   0.00790   0.00867

  Beta  occ. eigenvalues --  -38.44861 -38.43985 -38.43670 -38.43631 -38.43626
  Beta  occ. eigenvalues --  -38.43401 -38.43262  -2.20645  -2.19883  -2.19589
  Beta  occ. eigenvalues --   -2.19524  -2.19519  -2.19282  -2.19216  -1.14316
  Beta  occ. eigenvalues --   -1.14298  -1.14270  -1.13614  -1.13555  -1.13519
  Beta  occ. eigenvalues --   -1.13384  -1.13320  -1.13282  -1.13251  -1.13236
  Beta  occ. eigenvalues --   -1.13168  -1.13162  -1.13135  -1.13125  -1.12938
  Beta  occ. eigenvalues --   -1.12918  -1.12902  -1.12887  -1.12871  -1.12822
  Beta  occ. eigenvalues --   -0.18175  -0.13283  -0.12353
  Beta virt. eigenvalues --   -0.06645  -0.06268  -0.05047  -0.04370  -0.02575
  Beta virt. eigenvalues --   -0.02155  -0.02049  -0.01211  -0.00996  -0.00430
  Beta virt. eigenvalues --    0.00025   0.00192   0.00299   0.00752   0.00812

 Mulliken charges and spin densities:
               1          2
     1  Na  -0.454224   0.253974
     2  Na   0.164970  -0.039669
     3  Na  -0.351083  -0.114053
     4  Na   0.447032   0.271971
     5  Na  -0.466667   0.429768
     6  Na   0.434175   0.011910
     7  Na   0.225798   0.186098
 Sum of Mulliken charges =  -0.00000   1.00000

 Dipole moment (field-independent basis, Debye):
    X=             -0.7985    Y=             -0.4445    Z=              0.2091  Tot=              0.9374
 Quadrupole moment (field-independent basis, Debye-Ang):
   XX=            -51.6851   YY=            -65.2285   ZZ=            -75.7014
   XY=              1.8295   XZ=              0.6434   YZ=             -0.7001

 Normal termination of Gaussian 16 at Tue Dec  5 17:28:16 2023.
