 Gaussian 16, Revision B.01,
 Gaussian 16:  ES64L-G16RevB.01 20-Dec-2017

 -------------------------
 #P B3LYP/6-311+g(d) force
 -------------------------

 -----
 DPGEN
 -----
 Symbolic Z-matrix:
 Charge =  0 Multiplicity = 2

                         Standard orientation:
 ---------------------------------------------------------------------
 Center     Atomic      Atomic             Coordinates (Angstroms)
 Number     Number       Type             X           Y           Z
 ---------------------------------------------------------------------
      1         11           0        4.309847   -0.149044    0.863341
      2         11           0       -4.029198   -0.278528    0.357419
      3         11           0       -1.819641    2.251000    0.070282
      4         11           0        2.038203   -1.355779   -1.144624
      5         11           0       -0.917055   -1.353552    1.903998
      6         11           0        1.914916    1.894631   -0.335125
      7         11           0       -1.497072   -1.008728   -1.715292
 ---------------------------------------------------------------------

 SCF Done:  E(UB3LYP) =  -1136.11371258     A.U. after   33 cycles

 The electronic state is 2-A.
 Alpha  occ. eigenvalues --  -38.45506 -38.45144 -38.44794 -38.44194 -38.43766
 Alpha  occ. eigenvalues --  -38.43572 -38.42698  -2.21264  -2.20986  -2.20630
 Alpha  occ. eigenvalues --   -2.20053  -2.19629  -2.19391  -2.18513  -1.14949
 Alpha  occ. eigenvalues --   -1.14908  -1.14894  -1.14670  -1.14627  -1.14603
 Alpha  occ. eigenvalues --   -1.14288  -1.14268  -1.14262  -1.13730  -1.13698
 Alpha  occ. eigenvalues --   -1.13676  -1.13327  -1.13292  -1.13259  -1.13085
 Alpha  occ. eigenvalues --   -1.13078  -1.13003  -1.12202  -1.12184  -1.12149
 Alpha  occ. eigenvalues --   -0.17676  -0.14751  -0.10980  -0.10587
 Alpha virt. eigenvalues --   -0.07542  -0.05276  -0.05055  -0.03222  -0.03053
 Alpha virt. eigenvalues --   -0.02339  -0.02201  -0.01531  -0.01109  -0.00424
 Alpha virt. eigenvalues --   -0.00166   0.00107   0.00169   0.00574   0.00643

  Beta  occ. eigenvalues --  -38.45484 -38.45115 -38.44744 -38.44140 -38.43739
  Beta  occ. eigenvalues --  -38.43570 -38.42695  -2.21224  -2.20933  -2.20535
  Beta  occ. eigenvalues --   -2.19957  -2.19585  -2.19390  -2.18509  -1.14922
  Beta  occ. eigenvalues --   -1.14880  -1.14858  -1.14631  -1.14592  -1.14564
  Beta  occ. eigenvalues --   -1.14225  -1.14204  -1.14199  -1.13658  -1.13619
  Beta  occ. eigenvalues --   -1.13610  -1.13297  -1.13261  -1.13197  -1.13086
  Beta  occ. eigenvalues --   -1.13069  -1.12989  -1.12201  -1.12180  -1.12136
  Beta  occ. eigenvalues --   -0.17070  -0.14359  -0.10453
  Beta virt. eigenvalues --   -0.07353  -0.07212  -0.05253  -0.04386  -0.02946
  Beta virt. eigenvalues --   -0.02901  -0.01906  -0.01655  -0.01089  -0.00867
  Beta virt. eigenvalues --   -0.00363  -0.00051   0.00162   0.00291   0.00667

 Mulliken charges and spin densities:
               1          2
     1  Na   0.742176   0.258757
     2  Na   0.932528   0.324652
     3  Na  -0.484264  -0.027837
     4  Na  -0.213127   0.078590
     5  Na  -0.244655   0.093442
     6  Na  -0.518564   0.022802
     7  Na  -0.214095   0.249595
 Sum of Mulliken charges =  -0.00000   1.00000

 Dipole moment (field-independent basis, Debye):
    X=             -0.1949    Y=             -0.9816    Z=              0.5904  Tot=              1.1620
 Quadrupole moment (field-independent basis, Debye-Ang):
   XX=            -48.5488   YY=            -82.5894   ZZ=            -66.2464
   XY=              0.6747   XZ=              4.0561   YZ=              1.2697

 Normal termination of Gaussian 16 at Fri Dec  8 04:29:59 2023.
