 Gaussian 16, Revision B.01,
 Gaussian 16:  ES64L-G16RevB.01 20-Dec-2017

 -------------------------
 #P B3LYP/6-311+g(d) force
 -------------------------

 -----
 DPGEN
 -----
 Symbolic Z-matrix:
 Charge =  0 Multiplicity = 2

                         Standard orientation:
 ---------------------------------------------------------------------
 Center     Atomic      Atomic             Coordinates (Angstroms)
 Number     Number       Type             X           Y           Z
 ---------------------------------------------------------------------
      1         11           0       -2.470192   -2.554043    0.473388
      2         11           0        1.274009   -2.629537   -0.529513
      3         11           0        4.362571   -1.412835    0.302378
      4         11           0        3.704656    1.730222   -0.374157
      5         11           0        0.472559    2.993141    0.681810
      6         11           0       -2.779261    2.201364   -0.526290
      7         11           0       -4.564343   -0.328311   -0.027616
 ---------------------------------------------------------------------

 SCF Done:  E(UB3LYP) =  -1136.10811510     A.U. after   25 cycles

 The electronic state is 2-A.
 Alpha  occ. eigenvalues --  -38.45261 -38.45228 -38.45065 -38.44436 -38.44354
 Alpha  occ. eigenvalues --  -38.43832 -38.43379  -2.21057  -2.21008  -2.20853
 Alpha  occ. eigenvalues --   -2.20204  -2.20171  -2.19708  -2.19163  -1.14734
 Alpha  occ. eigenvalues --   -1.14722  -1.14706  -1.14689  -1.14671  -1.14646
 Alpha  occ. eigenvalues --   -1.14532  -1.14521  -1.14500  -1.13887  -1.13873
 Alpha  occ. eigenvalues --   -1.13852  -1.13829  -1.13826  -1.13782  -1.13375
 Alpha  occ. eigenvalues --   -1.13347  -1.13335  -1.12824  -1.12820  -1.12801
 Alpha  occ. eigenvalues --   -0.15980  -0.14569  -0.12765  -0.10617
 Alpha virt. eigenvalues --   -0.07749  -0.04886  -0.04354  -0.03581  -0.03365
 Alpha virt. eigenvalues --   -0.02947  -0.02140  -0.01759  -0.00720  -0.00584
 Alpha virt. eigenvalues --   -0.00369  -0.00087  -0.00037   0.00422   0.00690

  Beta  occ. eigenvalues --  -38.45234 -38.45209 -38.45043 -38.44401 -38.44331
  Beta  occ. eigenvalues --  -38.43786 -38.43344  -2.21013  -2.20978  -2.20817
  Beta  occ. eigenvalues --   -2.20143  -2.20130  -2.19623  -2.19098  -1.14709
  Beta  occ. eigenvalues --   -1.14698  -1.14671  -1.14655  -1.14633  -1.14602
  Beta  occ. eigenvalues --   -1.14509  -1.14500  -1.14446  -1.13850  -1.13833
  Beta  occ. eigenvalues --   -1.13815  -1.13802  -1.13784  -1.13739  -1.13312
  Beta  occ. eigenvalues --   -1.13296  -1.13278  -1.12780  -1.12776  -1.12754
  Beta  occ. eigenvalues --   -0.15424  -0.14088  -0.12073
  Beta virt. eigenvalues --   -0.07941  -0.07300  -0.04497  -0.03686  -0.03394
  Beta virt. eigenvalues --   -0.02890  -0.02802  -0.02047  -0.01627  -0.00639
  Beta virt. eigenvalues --   -0.00273  -0.00058   0.00097   0.00150   0.00449

 Mulliken charges and spin densities:
               1          2
     1  Na  -0.073139   0.132695
     2  Na  -0.316738   0.108935
     3  Na   0.271473   0.152053
     4  Na   0.023935   0.120234
     5  Na  -0.298636   0.095471
     6  Na  -0.131895   0.201562
     7  Na   0.525000   0.189050
 Sum of Mulliken charges =  -0.00000   1.00000

 Dipole moment (field-independent basis, Debye):
    X=              0.1948    Y=             -0.2121    Z=             -0.0905  Tot=              0.3019
 Quadrupole moment (field-independent basis, Debye-Ang):
   XX=            -58.9050   YY=            -69.5452   ZZ=            -71.0418
   XY=              0.4293   XZ=              0.2208   YZ=             -2.7360

 Normal termination of Gaussian 16 at Mon Dec  4 01:56:43 2023.
