 Gaussian 16, Revision B.01,
 Gaussian 16:  ES64L-G16RevB.01 20-Dec-2017

 -------------------------
 #P B3LYP/6-311+g(d) force
 -------------------------

 -----
 DPGEN
 -----
 Symbolic Z-matrix:
 Charge =  0 Multiplicity = 2

                         Standard orientation:
 ---------------------------------------------------------------------
 Center     Atomic      Atomic             Coordinates (Angstroms)
 Number     Number       Type             X           Y           Z
 ---------------------------------------------------------------------
      1         11           0       -3.134575   -1.402889    0.201915
      2         11           0        1.877100    1.532777   -1.017656
      3         11           0        3.387657   -0.995202    0.376069
      4         11           0       -1.281353    0.860264   -1.489842
      5         11           0        0.121297   -0.874024    2.084236
      6         11           0       -0.033742   -2.073652   -1.149445
      7         11           0       -0.936384    2.952725    0.994724
 ---------------------------------------------------------------------

 SCF Done:  E(UB3LYP) =  -1136.13229408     A.U. after   20 cycles

 The electronic state is 2-A.
 Alpha  occ. eigenvalues --  -38.44248 -38.44235 -38.43823 -38.43773 -38.43593
 Alpha  occ. eigenvalues --  -38.43495 -38.43080  -2.20069  -2.20060  -2.19707
 Alpha  occ. eigenvalues --   -2.19582  -2.19451  -2.19305  -2.19037  -1.13742
 Alpha  occ. eigenvalues --   -1.13734  -1.13719  -1.13711  -1.13704  -1.13676
 Alpha  occ. eigenvalues --   -1.13428  -1.13371  -1.13293  -1.13281  -1.13243
 Alpha  occ. eigenvalues --   -1.13217  -1.13160  -1.13109  -1.13053  -1.12982
 Alpha  occ. eigenvalues --   -1.12961  -1.12934  -1.12740  -1.12687  -1.12635
 Alpha  occ. eigenvalues --   -0.18250  -0.12892  -0.12119  -0.11264
 Alpha virt. eigenvalues --   -0.05927  -0.04935  -0.04369  -0.03410  -0.03237
 Alpha virt. eigenvalues --   -0.02862  -0.01744  -0.00931  -0.00496   0.00056
 Alpha virt. eigenvalues --    0.00184   0.00344   0.00602   0.00779   0.00847

  Beta  occ. eigenvalues --  -38.44248 -38.44156 -38.43791 -38.43775 -38.43576
  Beta  occ. eigenvalues --  -38.43472 -38.43043  -2.20064  -2.19921  -2.19652
  Beta  occ. eigenvalues --   -2.19587  -2.19422  -2.19262  -2.18973  -1.13737
  Beta  occ. eigenvalues --   -1.13711  -1.13704  -1.13642  -1.13604  -1.13574
  Beta  occ. eigenvalues --   -1.13385  -1.13311  -1.13284  -1.13259  -1.13235
  Beta  occ. eigenvalues --   -1.13220  -1.13131  -1.13083  -1.13037  -1.12955
  Beta  occ. eigenvalues --   -1.12925  -1.12902  -1.12691  -1.12632  -1.12586
  Beta  occ. eigenvalues --   -0.17483  -0.12747  -0.11937
  Beta virt. eigenvalues --   -0.07355  -0.05807  -0.04708  -0.04160  -0.02878
  Beta virt. eigenvalues --   -0.02687  -0.01885  -0.01662  -0.00847  -0.00212
  Beta virt. eigenvalues --    0.00043   0.00254   0.00377   0.00699   0.00846

 Mulliken charges and spin densities:
               1          2
     1  Na   0.178808  -0.002095
     2  Na  -0.414462   0.154473
     3  Na   0.450562  -0.136963
     4  Na   0.708481   0.093807
     5  Na  -0.460374   0.663043
     6  Na  -0.276748   0.189881
     7  Na  -0.186267   0.037854
 Sum of Mulliken charges =  -0.00000   1.00000

 Dipole moment (field-independent basis, Debye):
    X=             -0.2647    Y=             -0.4351    Z=              0.3915  Tot=              0.6424
 Quadrupole moment (field-independent basis, Debye-Ang):
   XX=            -56.7313   YY=            -68.5840   ZZ=            -69.2695
   XY=              0.5338   XZ=             -1.6548   YZ=              1.9706

 Normal termination of Gaussian 16 at Tue Dec  5 18:45:36 2023.
