 Gaussian 16, Revision B.01,
 Gaussian 16:  ES64L-G16RevB.01 20-Dec-2017

 -------------------------
 #P B3LYP/6-311+g(d) force
 -------------------------

 -----
 DPGEN
 -----
 Symbolic Z-matrix:
 Charge =  0 Multiplicity = 2

                         Standard orientation:
 ---------------------------------------------------------------------
 Center     Atomic      Atomic             Coordinates (Angstroms)
 Number     Number       Type             X           Y           Z
 ---------------------------------------------------------------------
      1         11           0        2.909131    1.132403   -0.358072
      2         11           0       -3.488578    0.097269   -0.484911
      3         11           0       -1.462317   -2.504420    0.287339
      4         11           0        2.563645   -2.111960    0.065844
      5         11           0       -0.368147    3.212874    0.353530
      6         11           0       -0.003944    0.040660   -1.700605
      7         11           0       -0.149789    0.133174    1.836875
 ---------------------------------------------------------------------

 SCF Done:  E(UB3LYP) =  -1136.13409916     A.U. after   21 cycles

 The electronic state is 2-A.
 Alpha  occ. eigenvalues --  -38.44633 -38.44109 -38.43771 -38.43751 -38.43499
 Alpha  occ. eigenvalues --  -38.43317 -38.43310  -2.20425  -2.19946  -2.19649
 Alpha  occ. eigenvalues --   -2.19577  -2.19353  -2.19225  -2.19105  -1.14092
 Alpha  occ. eigenvalues --   -1.14075  -1.14063  -1.13636  -1.13619  -1.13568
 Alpha  occ. eigenvalues --   -1.13351  -1.13287  -1.13266  -1.13251  -1.13231
 Alpha  occ. eigenvalues --   -1.13219  -1.13057  -1.13021  -1.12973  -1.12903
 Alpha  occ. eigenvalues --   -1.12854  -1.12848  -1.12770  -1.12755  -1.12744
 Alpha  occ. eigenvalues --   -0.18190  -0.13212  -0.12041  -0.10500
 Alpha virt. eigenvalues --   -0.06096  -0.05179  -0.04798  -0.03202  -0.02696
 Alpha virt. eigenvalues --   -0.02323  -0.01987  -0.01267  -0.00610  -0.00469
 Alpha virt. eigenvalues --   -0.00038   0.00303   0.00725   0.00789   0.00846

  Beta  occ. eigenvalues --  -38.44616 -38.44099 -38.43772 -38.43695 -38.43488
  Beta  occ. eigenvalues --  -38.43304 -38.43232  -2.20394  -2.19930  -2.19584
  Beta  occ. eigenvalues --   -2.19545  -2.19338  -2.19096  -2.19069  -1.14061
  Beta  occ. eigenvalues --   -1.14052  -1.14044  -1.13618  -1.13602  -1.13555
  Beta  occ. eigenvalues --   -1.13277  -1.13257  -1.13236  -1.13217  -1.13213
  Beta  occ. eigenvalues --   -1.13182  -1.13037  -1.12999  -1.12954  -1.12805
  Beta  occ. eigenvalues --   -1.12777  -1.12751  -1.12747  -1.12740  -1.12698
  Beta  occ. eigenvalues --   -0.17508  -0.12942  -0.11796
  Beta virt. eigenvalues --   -0.06755  -0.05925  -0.05152  -0.04728  -0.02526
  Beta virt. eigenvalues --   -0.02021  -0.01819  -0.01375  -0.01179  -0.00621
  Beta virt. eigenvalues --   -0.00482   0.00100   0.00355   0.00789   0.00804

 Mulliken charges and spin densities:
               1          2
     1  Na   0.213697   0.003871
     2  Na   0.066099   0.055563
     3  Na   0.093908  -0.013292
     4  Na  -0.088270  -0.070270
     5  Na  -0.093535  -0.081439
     6  Na  -0.115867   0.482091
     7  Na  -0.076031   0.623476
 Sum of Mulliken charges =  -0.00000   1.00000

 Dipole moment (field-independent basis, Debye):
    X=             -0.2357    Y=              0.0120    Z=             -0.0995  Tot=              0.2561
 Quadrupole moment (field-independent basis, Debye-Ang):
   XX=            -54.3615   YY=            -63.0095   ZZ=            -75.4672
   XY=             -0.8729   XZ=              0.5932   YZ=             -0.7267

 Normal termination of Gaussian 16 at Sat Dec  9 05:38:44 2023.
