 Gaussian 16, Revision B.01,
 Gaussian 16:  ES64L-G16RevB.01 20-Dec-2017

 -------------------------
 #P B3LYP/6-311+g(d) force
 -------------------------

 -----
 DPGEN
 -----
 Symbolic Z-matrix:
 Charge =  0 Multiplicity = 2

                         Standard orientation:
 ---------------------------------------------------------------------
 Center     Atomic      Atomic             Coordinates (Angstroms)
 Number     Number       Type             X           Y           Z
 ---------------------------------------------------------------------
      1         11           0        0.760481   -2.430319    0.187239
      2         11           0       -1.969523    2.605085   -0.411419
      3         11           0       -2.391698   -1.624706   -1.110732
      4         11           0        0.112285    0.530285   -1.456856
      5         11           0       -1.540713   -0.721231    2.196870
      6         11           0        3.552896   -0.240760   -0.452238
      7         11           0        1.476272    1.881645    1.047136
 ---------------------------------------------------------------------

 SCF Done:  E(UB3LYP) =  -1136.13333870     A.U. after   19 cycles

 The electronic state is 2-A.
 Alpha  occ. eigenvalues --  -38.44062 -38.43940 -38.43877 -38.43818 -38.43522
 Alpha  occ. eigenvalues --  -38.43445 -38.43123  -2.19896  -2.19784  -2.19733
 Alpha  occ. eigenvalues --   -2.19639  -2.19336  -2.19295  -2.19124  -1.13563
 Alpha  occ. eigenvalues --   -1.13531  -1.13511  -1.13476  -1.13455  -1.13428
 Alpha  occ. eigenvalues --   -1.13405  -1.13392  -1.13365  -1.13305  -1.13287
 Alpha  occ. eigenvalues --   -1.13264  -1.13063  -1.12997  -1.12984  -1.12978
 Alpha  occ. eigenvalues --   -1.12968  -1.12900  -1.12809  -1.12765  -1.12728
 Alpha  occ. eigenvalues --   -0.18264  -0.13041  -0.12118  -0.11091
 Alpha virt. eigenvalues --   -0.05525  -0.05305  -0.04402  -0.03533  -0.02892
 Alpha virt. eigenvalues --   -0.02785  -0.01576  -0.01113  -0.00513   0.00041
 Alpha virt. eigenvalues --    0.00103   0.00326   0.00598   0.00808   0.00862

  Beta  occ. eigenvalues --  -38.43974 -38.43917 -38.43858 -38.43818 -38.43521
  Beta  occ. eigenvalues --  -38.43438 -38.43077  -2.19744  -2.19733  -2.19697
  Beta  occ. eigenvalues --   -2.19640  -2.19336  -2.19286  -2.19042  -1.13449
  Beta  occ. eigenvalues --   -1.13443  -1.13434  -1.13426  -1.13400  -1.13391
  Beta  occ. eigenvalues --   -1.13365  -1.13357  -1.13348  -1.13300  -1.13286
  Beta  occ. eigenvalues --   -1.13258  -1.13052  -1.12993  -1.12982  -1.12963
  Beta  occ. eigenvalues --   -1.12942  -1.12899  -1.12750  -1.12700  -1.12671
  Beta  occ. eigenvalues --   -0.17577  -0.12830  -0.11944
  Beta virt. eigenvalues --   -0.07156  -0.05431  -0.05201  -0.04105  -0.03079
  Beta virt. eigenvalues --   -0.02254  -0.01816  -0.01500  -0.01061  -0.00193
  Beta virt. eigenvalues --    0.00084   0.00119   0.00376   0.00770   0.00832

 Mulliken charges and spin densities:
               1          2
     1  Na  -0.074303   0.170196
     2  Na   0.028843  -0.011522
     3  Na   0.181646  -0.003043
     4  Na   0.057125   0.142670
     5  Na  -0.293244   0.508239
     6  Na   0.239878  -0.081044
     7  Na  -0.139945   0.274504
 Sum of Mulliken charges =  -0.00000   1.00000

 Dipole moment (field-independent basis, Debye):
    X=             -0.0408    Y=             -0.0733    Z=              0.1525  Tot=              0.1740
 Quadrupole moment (field-independent basis, Debye-Ang):
   XX=            -55.6884   YY=            -67.8316   ZZ=            -70.2202
   XY=             -0.6992   XZ=              0.6035   YZ=              2.2732

 Normal termination of Gaussian 16 at Tue Dec  5 15:22:30 2023.
