 Gaussian 16, Revision B.01,
 Gaussian 16:  ES64L-G16RevB.01 20-Dec-2017

 -------------------------
 #P B3LYP/6-311+g(d) force
 -------------------------

 -----
 DPGEN
 -----
 Symbolic Z-matrix:
 Charge =  0 Multiplicity = 2

                         Standard orientation:
 ---------------------------------------------------------------------
 Center     Atomic      Atomic             Coordinates (Angstroms)
 Number     Number       Type             X           Y           Z
 ---------------------------------------------------------------------
      1         11           0        0.597547    2.824765    0.186638
      2         11           0        1.237812   -2.491859   -0.150931
      3         11           0       -2.059453   -1.900827    0.039039
      4         11           0       -2.881289    1.042852   -0.420181
      5         11           0        3.217504    0.128264    0.105197
      6         11           0       -0.439189    0.072892    1.921040
      7         11           0        0.327068    0.323913   -1.680802
 ---------------------------------------------------------------------

 SCF Done:  E(UB3LYP) =  -1136.13596891     A.U. after   19 cycles

 The electronic state is 2-A.
 Alpha  occ. eigenvalues --  -38.44390 -38.44095 -38.43388 -38.43337 -38.43314
 Alpha  occ. eigenvalues --  -38.43204 -38.43068  -2.20219  -2.19963  -2.19333
 Alpha  occ. eigenvalues --   -2.19264  -2.19192  -2.19174  -2.18955  -1.13895
 Alpha  occ. eigenvalues --   -1.13886  -1.13854  -1.13665  -1.13620  -1.13594
 Alpha  occ. eigenvalues --   -1.13059  -1.12999  -1.12952  -1.12947  -1.12917
 Alpha  occ. eigenvalues --   -1.12911  -1.12889  -1.12866  -1.12832  -1.12811
 Alpha  occ. eigenvalues --   -1.12783  -1.12775  -1.12629  -1.12613  -1.12589
 Alpha  occ. eigenvalues --   -0.19013  -0.13350  -0.12407  -0.10780
 Alpha virt. eigenvalues --   -0.05943  -0.04875  -0.04517  -0.03341  -0.02835
 Alpha virt. eigenvalues --   -0.02455  -0.01704  -0.00933  -0.00304  -0.00110
 Alpha virt. eigenvalues --    0.00004   0.00362   0.00839   0.00885   0.00951

  Beta  occ. eigenvalues --  -38.44390 -38.44082 -38.43329 -38.43307 -38.43300
  Beta  occ. eigenvalues --  -38.43139 -38.43063  -2.20221  -2.19944  -2.19255
  Beta  occ. eigenvalues --   -2.19171  -2.19165  -2.19073  -2.18950  -1.13893
  Beta  occ. eigenvalues --   -1.13877  -1.13854  -1.13656  -1.13585  -1.13578
  Beta  occ. eigenvalues --   -1.12996  -1.12931  -1.12913  -1.12888  -1.12877
  Beta  occ. eigenvalues --   -1.12838  -1.12822  -1.12792  -1.12785  -1.12783
  Beta  occ. eigenvalues --   -1.12724  -1.12711  -1.12619  -1.12601  -1.12573
  Beta  occ. eigenvalues --   -0.18277  -0.13117  -0.12146
  Beta virt. eigenvalues --   -0.06859  -0.05893  -0.04865  -0.04491  -0.02555
  Beta virt. eigenvalues --   -0.02048  -0.01608  -0.01402  -0.00867  -0.00349
  Beta virt. eigenvalues --   -0.00143   0.00135   0.00390   0.00868   0.00901

 Mulliken charges and spin densities:
               1          2
     1  Na   0.071093  -0.118130
     2  Na   0.087663  -0.067582
     3  Na   0.297911   0.061669
     4  Na   0.239627  -0.019449
     5  Na   0.096700  -0.060135
     6  Na  -0.455664   0.678786
     7  Na  -0.337331   0.524841
 Sum of Mulliken charges =  -0.00000   1.00000

 Dipole moment (field-independent basis, Debye):
    X=              0.2144    Y=              0.2962    Z=              0.0841  Tot=              0.3752
 Quadrupole moment (field-independent basis, Debye-Ang):
   XX=            -54.7518   YY=            -64.8084   ZZ=            -74.0123
   XY=             -0.1732   XZ=              1.8013   YZ=              0.3958

 Normal termination of Gaussian 16 at Thu Dec  7 15:51:38 2023.
