 Gaussian 16, Revision B.01,
 Gaussian 16:  ES64L-G16RevB.01 20-Dec-2017

 -------------------------
 #P B3LYP/6-311+g(d) force
 -------------------------

 -----
 DPGEN
 -----
 Symbolic Z-matrix:
 Charge =  0 Multiplicity = 2

                         Standard orientation:
 ---------------------------------------------------------------------
 Center     Atomic      Atomic             Coordinates (Angstroms)
 Number     Number       Type             X           Y           Z
 ---------------------------------------------------------------------
      1         11           0       -0.009395    0.382599   -1.711194
      2         11           0       -2.690641   -1.613200   -0.233533
      3         11           0       -2.527095    1.889903   -0.024470
      4         11           0        0.059884   -0.234283    2.231320
      5         11           0        1.373481    2.607099    0.163092
      6         11           0        3.127585   -0.450075   -0.317145
      7         11           0        0.666180   -2.582043   -0.108069
 ---------------------------------------------------------------------

 SCF Done:  E(UB3LYP) =  -1136.13804452     A.U. after   18 cycles

 The electronic state is 2-A.
 Alpha  occ. eigenvalues --  -38.44005 -38.43945 -38.43939 -38.43817 -38.43483
 Alpha  occ. eigenvalues --  -38.43397 -38.42925  -2.19849  -2.19800  -2.19754
 Alpha  occ. eigenvalues --   -2.19637  -2.19351  -2.19321  -2.18821  -1.13527
 Alpha  occ. eigenvalues --   -1.13508  -1.13493  -1.13458  -1.13440  -1.13431
 Alpha  occ. eigenvalues --   -1.13420  -1.13413  -1.13391  -1.13312  -1.13293
 Alpha  occ. eigenvalues --   -1.13277  -1.13083  -1.13023  -1.12984  -1.12975
 Alpha  occ. eigenvalues --   -1.12943  -1.12939  -1.12505  -1.12488  -1.12452
 Alpha  occ. eigenvalues --   -0.18540  -0.13008  -0.12288  -0.10989
 Alpha virt. eigenvalues --   -0.05636  -0.05351  -0.04384  -0.03223  -0.03039
 Alpha virt. eigenvalues --   -0.02811  -0.01557  -0.01108  -0.00381  -0.00180
 Alpha virt. eigenvalues --   -0.00053   0.00356   0.00756   0.00866   0.00926

  Beta  occ. eigenvalues --  -38.43999 -38.43944 -38.43834 -38.43815 -38.43478
  Beta  occ. eigenvalues --  -38.43340 -38.42917  -2.19841  -2.19755  -2.19635
  Beta  occ. eigenvalues --   -2.19605  -2.19315  -2.19246  -2.18811  -1.13520
  Beta  occ. eigenvalues --   -1.13491  -1.13483  -1.13434  -1.13413  -1.13392
  Beta  occ. eigenvalues --   -1.13330  -1.13302  -1.13290  -1.13288  -1.13278
  Beta  occ. eigenvalues --   -1.13273  -1.13049  -1.12966  -1.12953  -1.12943
  Beta  occ. eigenvalues --   -1.12897  -1.12880  -1.12501  -1.12453  -1.12443
  Beta  occ. eigenvalues --   -0.17798  -0.12800  -0.12071
  Beta virt. eigenvalues --   -0.07024  -0.05607  -0.05334  -0.04322  -0.02474
  Beta virt. eigenvalues --   -0.02221  -0.01748  -0.01460  -0.01049  -0.00433
  Beta virt. eigenvalues --   -0.00219   0.00103   0.00383   0.00834   0.00859

 Mulliken charges and spin densities:
               1          2
     1  Na  -0.195527   0.388285
     2  Na   0.088639  -0.058047
     3  Na   0.122745  -0.062127
     4  Na  -0.617625   0.744153
     5  Na   0.117302  -0.027244
     6  Na   0.233958  -0.011446
     7  Na   0.250509   0.026427
 Sum of Mulliken charges =  -0.00000   1.00000

 Dipole moment (field-independent basis, Debye):
    X=             -0.0996    Y=              0.2079    Z=              0.1376  Tot=              0.2685
 Quadrupole moment (field-independent basis, Debye-Ang):
   XX=            -56.1080   YY=            -65.2776   ZZ=            -72.8637
   XY=              0.1089   XZ=             -0.3411   YZ=              1.4749

 Normal termination of Gaussian 16 at Wed Dec  6 00:12:32 2023.
