 Gaussian 16, Revision B.01,
 Gaussian 16:  ES64L-G16RevB.01 20-Dec-2017

 -------------------------
 #P B3LYP/6-311+g(d) force
 -------------------------

 -----
 DPGEN
 -----
 Symbolic Z-matrix:
 Charge =  0 Multiplicity = 2

                         Standard orientation:
 ---------------------------------------------------------------------
 Center     Atomic      Atomic             Coordinates (Angstroms)
 Number     Number       Type             X           Y           Z
 ---------------------------------------------------------------------
      1         11           0        1.828445   -2.376381   -0.348012
      2         11           0       -4.286287   -0.168335    0.051005
      3         11           0        1.520691    1.292402   -1.520399
      4         11           0       -0.729162    2.394711    0.393066
      5         11           0       -1.246762   -0.908244   -1.137938
      6         11           0       -0.592215   -0.754788    1.695337
      7         11           0        3.505289    0.520635    0.866941
 ---------------------------------------------------------------------

 SCF Done:  E(UB3LYP) =  -1136.11552886     A.U. after   30 cycles

 The electronic state is 2-A.
 Alpha  occ. eigenvalues --  -38.46139 -38.44993 -38.44908 -38.43230 -38.43123
 Alpha  occ. eigenvalues --  -38.42966 -38.42796  -2.21888  -2.20872  -2.20721
 Alpha  occ. eigenvalues --   -2.19103  -2.19080  -2.18883  -2.18635  -1.15575
 Alpha  occ. eigenvalues --   -1.15545  -1.15507  -1.14645  -1.14522  -1.14446
 Alpha  occ. eigenvalues --   -1.14407  -1.14355  -1.14342  -1.12853  -1.12799
 Alpha  occ. eigenvalues --   -1.12771  -1.12730  -1.12698  -1.12681  -1.12554
 Alpha  occ. eigenvalues --   -1.12533  -1.12493  -1.12302  -1.12300  -1.12283
 Alpha  occ. eigenvalues --   -0.18388  -0.13733  -0.11292  -0.10488
 Alpha virt. eigenvalues --   -0.07822  -0.04657  -0.04106  -0.03260  -0.03193
 Alpha virt. eigenvalues --   -0.02392  -0.02119  -0.01119  -0.00848  -0.00310
 Alpha virt. eigenvalues --   -0.00082   0.00139   0.00311   0.00713   0.00823

  Beta  occ. eigenvalues --  -38.46138 -38.44964 -38.44865 -38.43219 -38.43073
  Beta  occ. eigenvalues --  -38.42929 -38.42789  -2.21888  -2.20820  -2.20640
  Beta  occ. eigenvalues --   -2.19064  -2.19014  -2.18818  -2.18626  -1.15571
  Beta  occ. eigenvalues --   -1.15545  -1.15505  -1.14601  -1.14481  -1.14408
  Beta  occ. eigenvalues --   -1.14351  -1.14298  -1.14287  -1.12803  -1.12781
  Beta  occ. eigenvalues --   -1.12734  -1.12684  -1.12642  -1.12626  -1.12496
  Beta  occ. eigenvalues --   -1.12487  -1.12442  -1.12301  -1.12288  -1.12256
  Beta  occ. eigenvalues --   -0.17690  -0.13495  -0.11096
  Beta virt. eigenvalues --   -0.07610  -0.06728  -0.04610  -0.03587  -0.03140
  Beta virt. eigenvalues --   -0.02964  -0.01834  -0.01288  -0.00959  -0.00571
  Beta virt. eigenvalues --   -0.00254  -0.00009   0.00170   0.00464   0.00774

 Mulliken charges and spin densities:
               1          2
     1  Na  -0.019870  -0.027004
     2  Na   0.305860   0.039895
     3  Na   0.288417   0.173820
     4  Na  -0.181119  -0.120808
     5  Na  -0.208588   0.190444
     6  Na  -0.119330   0.537770
     7  Na  -0.065371   0.205884
 Sum of Mulliken charges =  -0.00000   1.00000

 Dipole moment (field-independent basis, Debye):
    X=             -1.4755    Y=              0.0707    Z=              0.2424  Tot=              1.4970
 Quadrupole moment (field-independent basis, Debye-Ang):
   XX=            -43.5510   YY=            -76.5148   ZZ=            -70.5589
   XY=             -0.5930   XZ=              0.1516   YZ=              1.5604

 Normal termination of Gaussian 16 at Thu Dec  7 02:17:46 2023.
