 Gaussian 16, Revision B.01,
 Gaussian 16:  ES64L-G16RevB.01 20-Dec-2017

 -------------------------
 #P B3LYP/6-311+g(d) force
 -------------------------

 -----
 DPGEN
 -----
 Symbolic Z-matrix:
 Charge =  0 Multiplicity = 2

                         Standard orientation:
 ---------------------------------------------------------------------
 Center     Atomic      Atomic             Coordinates (Angstroms)
 Number     Number       Type             X           Y           Z
 ---------------------------------------------------------------------
      1         11           0        0.892343   -3.033180    1.212891
      2         11           0        3.560253    1.646607   -0.375921
      3         11           0       -4.022366   -0.047117   -0.516759
      4         11           0        0.888273    2.730459    0.533775
      5         11           0       -2.604108   -2.718910   -0.339974
      6         11           0        3.591490   -1.623036   -0.740543
      7         11           0       -2.305885    3.045177    0.226530
 ---------------------------------------------------------------------

 SCF Done:  E(UB3LYP) =  -1136.10743258     A.U. after   23 cycles

 The electronic state is 2-A.
 Alpha  occ. eigenvalues --  -38.45534 -38.44555 -38.44548 -38.44500 -38.44272
 Alpha  occ. eigenvalues --  -38.44036 -38.43925  -2.21301  -2.20386  -2.20358
 Alpha  occ. eigenvalues --   -2.20324  -2.20050  -2.19851  -2.19790  -1.14982
 Alpha  occ. eigenvalues --   -1.14970  -1.14948  -1.14149  -1.14109  -1.14048
 Alpha  occ. eigenvalues --   -1.14040  -1.14020  -1.13998  -1.13972  -1.13951
 Alpha  occ. eigenvalues --   -1.13902  -1.13706  -1.13694  -1.13675  -1.13508
 Alpha  occ. eigenvalues --   -1.13500  -1.13483  -1.13449  -1.13419  -1.13412
 Alpha  occ. eigenvalues --   -0.16000  -0.14244  -0.13407  -0.10709
 Alpha virt. eigenvalues --   -0.07704  -0.04741  -0.04156  -0.03745  -0.03587
 Alpha virt. eigenvalues --   -0.02360  -0.02002  -0.01931  -0.01122  -0.00931
 Alpha virt. eigenvalues --   -0.00444  -0.00030   0.00128   0.00422   0.00705

  Beta  occ. eigenvalues --  -38.45532 -38.44545 -38.44523 -38.44464 -38.44205
  Beta  occ. eigenvalues --  -38.43991 -38.43875  -2.21303  -2.20375  -2.20317
  Beta  occ. eigenvalues --   -2.20263  -2.19927  -2.19769  -2.19695  -1.14988
  Beta  occ. eigenvalues --   -1.14974  -1.14913  -1.14095  -1.14061  -1.14041
  Beta  occ. eigenvalues --   -1.14038  -1.13996  -1.13963  -1.13935  -1.13912
  Beta  occ. eigenvalues --   -1.13841  -1.13622  -1.13612  -1.13591  -1.13448
  Beta  occ. eigenvalues --   -1.13445  -1.13429  -1.13389  -1.13354  -1.13350
  Beta  occ. eigenvalues --   -0.15497  -0.13557  -0.12579
  Beta virt. eigenvalues --   -0.07871  -0.07554  -0.04369  -0.03696  -0.03422
  Beta virt. eigenvalues --   -0.03233  -0.02171  -0.01855  -0.01667  -0.00962
  Beta virt. eigenvalues --   -0.00635  -0.00226   0.00208   0.00308   0.00418

 Mulliken charges and spin densities:
               1          2
     1  Na  -0.333098   0.326658
     2  Na   0.946556   0.269633
     3  Na   0.184057   0.145536
     4  Na  -0.609882   0.077565
     5  Na  -0.286905   0.060613
     6  Na  -0.117606   0.021864
     7  Na   0.216878   0.098131
 Sum of Mulliken charges =  -0.00000   1.00000

 Dipole moment (field-independent basis, Debye):
    X=              0.3304    Y=             -0.3132    Z=             -0.2804  Tot=              0.5347
 Quadrupole moment (field-independent basis, Debye-Ang):
   XX=            -60.8303   YY=            -69.4707   ZZ=            -70.8346
   XY=             -4.1956   XZ=             -1.8419   YZ=              1.0904

 Normal termination of Gaussian 16 at Sun Dec  3 16:12:25 2023.
