 Gaussian 16, Revision B.01,
 Gaussian 16:  ES64L-G16RevB.01 20-Dec-2017

 -------------------------
 #P B3LYP/6-311+g(d) force
 -------------------------

 -----
 DPGEN
 -----
 Symbolic Z-matrix:
 Charge =  0 Multiplicity = 2

                         Standard orientation:
 ---------------------------------------------------------------------
 Center     Atomic      Atomic             Coordinates (Angstroms)
 Number     Number       Type             X           Y           Z
 ---------------------------------------------------------------------
      1         11           0        2.212130   -2.094135    0.028787
      2         11           0       -1.553038   -2.542376   -0.334796
      3         11           0        2.940770    1.191139   -0.106293
      4         11           0       -0.398618    3.040278    0.043151
      5         11           0       -3.075275    0.548564   -0.187571
      6         11           0        0.145169    0.099014   -1.632763
      7         11           0       -0.271138   -0.242484    2.189485
 ---------------------------------------------------------------------

 SCF Done:  E(UB3LYP) =  -1136.13947421     A.U. after   19 cycles

 The electronic state is 2-A.
 Alpha  occ. eigenvalues --  -38.44029 -38.43954 -38.43775 -38.43666 -38.43450
 Alpha  occ. eigenvalues --  -38.43446 -38.43215  -2.19855  -2.19779  -2.19627
 Alpha  occ. eigenvalues --   -2.19502  -2.19295  -2.19256  -2.19175  -1.13531
 Alpha  occ. eigenvalues --   -1.13520  -1.13494  -1.13465  -1.13443  -1.13416
 Alpha  occ. eigenvalues --   -1.13284  -1.13253  -1.13247  -1.13180  -1.13165
 Alpha  occ. eigenvalues --   -1.13136  -1.12986  -1.12954  -1.12946  -1.12927
 Alpha  occ. eigenvalues --   -1.12923  -1.12890  -1.12854  -1.12801  -1.12797
 Alpha  occ. eigenvalues --   -0.18391  -0.13006  -0.12314  -0.10747
 Alpha virt. eigenvalues --   -0.05604  -0.05252  -0.04816  -0.03184  -0.02872
 Alpha virt. eigenvalues --   -0.02671  -0.01490  -0.01149  -0.00510  -0.00451
 Alpha virt. eigenvalues --   -0.00033   0.00361   0.00778   0.00864   0.00879

  Beta  occ. eigenvalues --  -38.44025 -38.43953 -38.43672 -38.43663 -38.43444
  Beta  occ. eigenvalues --  -38.43441 -38.43157  -2.19850  -2.19778  -2.19499
  Beta  occ. eigenvalues --   -2.19436  -2.19283  -2.19255  -2.19070  -1.13522
  Beta  occ. eigenvalues --   -1.13504  -1.13492  -1.13460  -1.13432  -1.13419
  Beta  occ. eigenvalues --   -1.13179  -1.13157  -1.13148  -1.13136  -1.13120
  Beta  occ. eigenvalues --   -1.13107  -1.12970  -1.12939  -1.12931  -1.12918
  Beta  occ. eigenvalues --   -1.12909  -1.12893  -1.12784  -1.12725  -1.12723
  Beta  occ. eigenvalues --   -0.17670  -0.12796  -0.12107
  Beta virt. eigenvalues --   -0.06801  -0.05575  -0.05269  -0.04728  -0.02416
  Beta virt. eigenvalues --   -0.02112  -0.01591  -0.01399  -0.01074  -0.00559
  Beta virt. eigenvalues --   -0.00515   0.00129   0.00391   0.00847   0.00857

 Mulliken charges and spin densities:
               1          2
     1  Na   0.167827  -0.024555
     2  Na   0.208169  -0.016345
     3  Na   0.117840  -0.053063
     4  Na   0.016439  -0.069489
     5  Na   0.178305  -0.029835
     6  Na  -0.103091   0.381595
     7  Na  -0.585489   0.811692
 Sum of Mulliken charges =  -0.00000   1.00000

 Dipole moment (field-independent basis, Debye):
    X=              0.0118    Y=              0.0279    Z=              0.1230  Tot=              0.1266
 Quadrupole moment (field-independent basis, Debye-Ang):
   XX=            -56.9860   YY=            -62.2115   ZZ=            -74.4780
   XY=              0.0086   XZ=              0.8475   YZ=              0.7629

 Normal termination of Gaussian 16 at Thu Dec  7 19:29:23 2023.
