 Gaussian 16, Revision B.01,
 Gaussian 16:  ES64L-G16RevB.01 20-Dec-2017

 -------------------------
 #P B3LYP/6-311+g(d) force
 -------------------------

 -----
 DPGEN
 -----
 Symbolic Z-matrix:
 Charge =  0 Multiplicity = 2

                         Standard orientation:
 ---------------------------------------------------------------------
 Center     Atomic      Atomic             Coordinates (Angstroms)
 Number     Number       Type             X           Y           Z
 ---------------------------------------------------------------------
      1         11           0        0.988844    3.273031   -0.360571
      2         11           0       -4.752311    0.203198    0.161058
      3         11           0        0.856479   -3.161802   -0.833914
      4         11           0        4.041768    1.352165    1.229525
      5         11           0       -2.552963   -2.160461    1.113542
      6         11           0        3.577164   -1.652207   -0.543559
      7         11           0       -2.158981    2.146076   -0.766080
 ---------------------------------------------------------------------

 SCF Done:  E(UB3LYP) =  -1136.10882395     A.U. after   23 cycles

 The electronic state is 2-A.
 Alpha  occ. eigenvalues --  -38.45861 -38.44736 -38.44677 -38.44308 -38.44203
 Alpha  occ. eigenvalues --  -38.44135 -38.43581  -2.21605  -2.20550  -2.20474
 Alpha  occ. eigenvalues --   -2.20113  -2.19994  -2.19901  -2.19389  -1.15289
 Alpha  occ. eigenvalues --   -1.15271  -1.15236  -1.14213  -1.14205  -1.14186
 Alpha  occ. eigenvalues --   -1.14163  -1.14149  -1.14123  -1.13788  -1.13785
 Alpha  occ. eigenvalues --   -1.13740  -1.13645  -1.13632  -1.13617  -1.13578
 Alpha  occ. eigenvalues --   -1.13571  -1.13526  -1.13050  -1.13036  -1.13021
 Alpha  occ. eigenvalues --   -0.15747  -0.14205  -0.12882  -0.10835
 Alpha virt. eigenvalues --   -0.07597  -0.04831  -0.04602  -0.03694  -0.03404
 Alpha virt. eigenvalues --   -0.02484  -0.02042  -0.01496  -0.01169  -0.00915
 Alpha virt. eigenvalues --   -0.00815  -0.00294  -0.00005   0.00425   0.00580

  Beta  occ. eigenvalues --  -38.45852 -38.44710 -38.44670 -38.44271 -38.44124
  Beta  occ. eigenvalues --  -38.44118 -38.43536  -2.21590  -2.20504  -2.20468
  Beta  occ. eigenvalues --   -2.20048  -2.19876  -2.19847  -2.19306  -1.15282
  Beta  occ. eigenvalues --   -1.15263  -1.15206  -1.14182  -1.14173  -1.14152
  Beta  occ. eigenvalues --   -1.14150  -1.14149  -1.14086  -1.13744  -1.13742
  Beta  occ. eigenvalues --   -1.13678  -1.13565  -1.13555  -1.13546  -1.13531
  Beta  occ. eigenvalues --   -1.13521  -1.13480  -1.12997  -1.12979  -1.12965
  Beta  occ. eigenvalues --   -0.15288  -0.13520  -0.12125
  Beta virt. eigenvalues --   -0.07772  -0.07618  -0.04364  -0.04123  -0.03528
  Beta virt. eigenvalues --   -0.03086  -0.02265  -0.01850  -0.01271  -0.00843
  Beta virt. eigenvalues --   -0.00760  -0.00613  -0.00113   0.00218   0.00461

 Mulliken charges and spin densities:
               1          2
     1  Na  -0.221541  -0.114073
     2  Na   0.863788   0.218898
     3  Na  -0.044026   0.200361
     4  Na   0.041627   0.370451
     5  Na  -0.295654   0.046727
     6  Na  -0.047652   0.095415
     7  Na  -0.296540   0.182220
 Sum of Mulliken charges =  -0.00000   1.00000

 Dipole moment (field-independent basis, Debye):
    X=             -1.4390    Y=             -0.3229    Z=              0.4408  Tot=              1.5392
 Quadrupole moment (field-independent basis, Debye-Ang):
   XX=            -57.8350   YY=            -71.5462   ZZ=            -70.3138
   XY=              0.7231   XZ=             -0.0598   YZ=             -0.9599

 Normal termination of Gaussian 16 at Sun Dec  3 23:49:05 2023.
