 Gaussian 16, Revision B.01,
 Gaussian 16:  ES64L-G16RevB.01 20-Dec-2017

 -------------------------
 #P B3LYP/6-311+g(d) force
 -------------------------

 -----
 DPGEN
 -----
 Symbolic Z-matrix:
 Charge =  0 Multiplicity = 2

                         Standard orientation:
 ---------------------------------------------------------------------
 Center     Atomic      Atomic             Coordinates (Angstroms)
 Number     Number       Type             X           Y           Z
 ---------------------------------------------------------------------
      1         11           0       -1.189412   -1.872909   -1.957633
      2         11           0        2.459508   -0.604241    2.021822
      3         11           0        3.269039    0.004623   -1.064156
      4         11           0        0.354430    0.020213    0.023057
      5         11           0       -2.139637   -1.690490    0.761288
      6         11           0       -2.264584    1.325779    1.180761
      7         11           0       -0.489345    2.817026   -0.965140
 ---------------------------------------------------------------------

 SCF Done:  E(UB3LYP) =  -1136.11048054     A.U. after   22 cycles

 The electronic state is 2-A.
 Alpha  occ. eigenvalues --  -38.44839 -38.44625 -38.43732 -38.43512 -38.43411
 Alpha  occ. eigenvalues --  -38.43034 -38.42533  -2.20671  -2.20494  -2.19637
 Alpha  occ. eigenvalues --   -2.19451  -2.19387  -2.18903  -2.18750  -1.14371
 Alpha  occ. eigenvalues --   -1.14325  -1.14310  -1.14207  -1.14110  -1.14078
 Alpha  occ. eigenvalues --   -1.13422  -1.13295  -1.13247  -1.13223  -1.13122
 Alpha  occ. eigenvalues --   -1.13084  -1.13036  -1.12976  -1.12959  -1.12642
 Alpha  occ. eigenvalues --   -1.12537  -1.12523  -1.12481  -1.12402  -1.12342
 Alpha  occ. eigenvalues --   -0.18604  -0.13723  -0.11736  -0.11296
 Alpha virt. eigenvalues --   -0.05973  -0.05027  -0.03942  -0.03299  -0.03014
 Alpha virt. eigenvalues --   -0.02616  -0.01701  -0.00695  -0.00547   0.00038
 Alpha virt. eigenvalues --    0.00364   0.00454   0.00628   0.00765   0.00834

  Beta  occ. eigenvalues --  -38.44838 -38.44575 -38.43684 -38.43488 -38.43397
  Beta  occ. eigenvalues --  -38.43015 -38.42500  -2.20671  -2.20399  -2.19547
  Beta  occ. eigenvalues --   -2.19408  -2.19364  -2.18866  -2.18703  -1.14370
  Beta  occ. eigenvalues --   -1.14314  -1.14305  -1.14142  -1.14045  -1.14017
  Beta  occ. eigenvalues --   -1.13375  -1.13226  -1.13198  -1.13175  -1.13097
  Beta  occ. eigenvalues --   -1.13044  -1.13019  -1.12958  -1.12912  -1.12609
  Beta  occ. eigenvalues --   -1.12512  -1.12494  -1.12388  -1.12352  -1.12319
  Beta  occ. eigenvalues --   -0.17834  -0.13502  -0.11573
  Beta virt. eigenvalues --   -0.07573  -0.05512  -0.04523  -0.03664  -0.03108
  Beta virt. eigenvalues --   -0.02624  -0.01915  -0.01588  -0.00550  -0.00304
  Beta virt. eigenvalues --    0.00298   0.00398   0.00612   0.00632   0.00885

 Mulliken charges and spin densities:
               1          2
     1  Na   0.480742  -0.032781
     2  Na   0.115578  -0.203405
     3  Na   0.523240  -0.265116
     4  Na  -3.163417   1.135277
     5  Na   0.875848   0.215158
     6  Na   0.886081   0.275854
     7  Na   0.281927  -0.124987
 Sum of Mulliken charges =  -0.00000   1.00000

 Dipole moment (field-independent basis, Debye):
    X=              1.0826    Y=             -0.1366    Z=             -0.1232  Tot=              1.0981
 Quadrupole moment (field-independent basis, Debye-Ang):
   XX=            -57.5616   YY=            -73.4606   ZZ=            -61.3541
   XY=              0.3898   XZ=             -3.5552   YZ=             -2.2326

 Normal termination of Gaussian 16 at Thu Dec  7 06:14:32 2023.
