 Gaussian 16, Revision B.01,
 Gaussian 16:  ES64L-G16RevB.01 20-Dec-2017

 -------------------------
 #P B3LYP/6-311+g(d) force
 -------------------------

 -----
 DPGEN
 -----
 Symbolic Z-matrix:
 Charge =  0 Multiplicity = 2

                         Standard orientation:
 ---------------------------------------------------------------------
 Center     Atomic      Atomic             Coordinates (Angstroms)
 Number     Number       Type             X           Y           Z
 ---------------------------------------------------------------------
      1         11           0       -0.164992    0.033486    1.909133
      2         11           0        2.135447   -1.946310    0.154129
      3         11           0        0.198075   -0.182975   -1.771018
      4         11           0       -0.487030    2.721640    0.275780
      5         11           0       -1.267574   -2.487387    0.117572
      6         11           0        2.468854    1.445729   -0.253460
      7         11           0       -2.882781    0.415817   -0.432135
 ---------------------------------------------------------------------

 SCF Done:  E(UB3LYP) =  -1136.13967236     A.U. after   17 cycles

 The electronic state is 2-A.
 Alpha  occ. eigenvalues --  -38.43497 -38.43470 -38.43427 -38.43408 -38.43328
 Alpha  occ. eigenvalues --  -38.43295 -38.43210  -2.19446  -2.19375  -2.19316
 Alpha  occ. eigenvalues --   -2.19311  -2.19304  -2.19235  -2.19120  -1.13144
 Alpha  occ. eigenvalues --   -1.13123  -1.13093  -1.13067  -1.13062  -1.13039
 Alpha  occ. eigenvalues --   -1.13030  -1.13019  -1.12986  -1.12978  -1.12962
 Alpha  occ. eigenvalues --   -1.12954  -1.12924  -1.12918  -1.12898  -1.12892
 Alpha  occ. eigenvalues --   -1.12868  -1.12843  -1.12793  -1.12765  -1.12738
 Alpha  occ. eigenvalues --   -0.19356  -0.12969  -0.12837  -0.11153
 Alpha virt. eigenvalues --   -0.05046  -0.04945  -0.04715  -0.03217  -0.03159
 Alpha virt. eigenvalues --   -0.02691  -0.01177  -0.01023  -0.00094   0.00038
 Alpha virt. eigenvalues --    0.00091   0.00378   0.00922   0.00961   0.00973

  Beta  occ. eigenvalues --  -38.43487 -38.43421 -38.43401 -38.43382 -38.43320
  Beta  occ. eigenvalues --  -38.43219 -38.43201  -2.19359  -2.19310  -2.19301
  Beta  occ. eigenvalues --   -2.19285  -2.19226  -2.19169  -2.19109  -1.13076
  Beta  occ. eigenvalues --   -1.13059  -1.13036  -1.13023  -1.13013  -1.13000
  Beta  occ. eigenvalues --   -1.12993  -1.12984  -1.12961  -1.12933  -1.12928
  Beta  occ. eigenvalues --   -1.12919  -1.12908  -1.12866  -1.12860  -1.12836
  Beta  occ. eigenvalues --   -1.12813  -1.12798  -1.12771  -1.12736  -1.12733
  Beta  occ. eigenvalues --   -0.18601  -0.12692  -0.12561
  Beta virt. eigenvalues --   -0.07190  -0.05045  -0.04921  -0.04693  -0.02405
  Beta virt. eigenvalues --   -0.02318  -0.01617  -0.01096  -0.00955  -0.00057
  Beta virt. eigenvalues --   -0.00021   0.00136   0.00390   0.00940   0.00960

 Mulliken charges and spin densities:
               1          2
     1  Na  -0.437249   0.640196
     2  Na   0.150657  -0.077632
     3  Na  -0.407034   0.583412
     4  Na   0.224717  -0.007671
     5  Na   0.207790  -0.057989
     6  Na   0.172283  -0.060645
     7  Na   0.088835  -0.019670
 Sum of Mulliken charges =  -0.00000   1.00000

 Dipole moment (field-independent basis, Debye):
    X=              0.0001    Y=             -0.1000    Z=              0.0437  Tot=              0.1092
 Quadrupole moment (field-independent basis, Debye-Ang):
   XX=            -59.8687   YY=            -62.2844   ZZ=            -72.2694
   XY=             -0.2317   XZ=              0.9035   YZ=             -0.5987

 Normal termination of Gaussian 16 at Thu Dec  7 22:02:58 2023.
