 Gaussian 16, Revision B.01,
 Gaussian 16:  ES64L-G16RevB.01 20-Dec-2017

 -------------------------
 #P B3LYP/6-311+g(d) force
 -------------------------

 -----
 DPGEN
 -----
 Symbolic Z-matrix:
 Charge =  0 Multiplicity = 2

                         Standard orientation:
 ---------------------------------------------------------------------
 Center     Atomic      Atomic             Coordinates (Angstroms)
 Number     Number       Type             X           Y           Z
 ---------------------------------------------------------------------
      1         11           0        3.076175   -1.410310   -0.017557
      2         11           0       -0.650264   -2.819328   -0.494077
      3         11           0       -1.751676    2.781784   -0.225145
      4         11           0        2.469197    2.301055   -0.166112
      5         11           0       -0.032996   -0.226364    2.140314
      6         11           0       -0.004727   -0.083252   -1.297635
      7         11           0       -3.105708   -0.543585    0.060213
 ---------------------------------------------------------------------

 SCF Done:  E(UB3LYP) =  -1136.13069360     A.U. after   20 cycles

 The electronic state is 2-A.
 Alpha  occ. eigenvalues --  -38.44494 -38.44380 -38.44122 -38.43782 -38.43520
 Alpha  occ. eigenvalues --  -38.43372 -38.43009  -2.20268  -2.20141  -2.19968
 Alpha  occ. eigenvalues --   -2.19566  -2.19381  -2.19266  -2.19025  -1.13947
 Alpha  occ. eigenvalues --   -1.13923  -1.13909  -1.13823  -1.13797  -1.13774
 Alpha  occ. eigenvalues --   -1.13645  -1.13632  -1.13607  -1.13245  -1.13223
 Alpha  occ. eigenvalues --   -1.13206  -1.13084  -1.13052  -1.13000  -1.12989
 Alpha  occ. eigenvalues --   -1.12897  -1.12873  -1.12713  -1.12640  -1.12629
 Alpha  occ. eigenvalues --   -0.18249  -0.12990  -0.12209  -0.10328
 Alpha virt. eigenvalues --   -0.05905  -0.05741  -0.04710  -0.02998  -0.02543
 Alpha virt. eigenvalues --   -0.02330  -0.01792  -0.01424  -0.00820  -0.00610
 Alpha virt. eigenvalues --   -0.00012   0.00302   0.00720   0.00748   0.00832

  Beta  occ. eigenvalues --  -38.44493 -38.44379 -38.44117 -38.43781 -38.43412
  Beta  occ. eigenvalues --  -38.43355 -38.42964  -2.20269  -2.20141  -2.19962
  Beta  occ. eigenvalues --   -2.19564  -2.19240  -2.19180  -2.18947  -1.13933
  Beta  occ. eigenvalues --   -1.13923  -1.13913  -1.13813  -1.13798  -1.13776
  Beta  occ. eigenvalues --   -1.13641  -1.13610  -1.13601  -1.13236  -1.13218
  Beta  occ. eigenvalues --   -1.13207  -1.13052  -1.12922  -1.12869  -1.12860
  Beta  occ. eigenvalues --   -1.12847  -1.12845  -1.12646  -1.12583  -1.12574
  Beta  occ. eigenvalues --   -0.17547  -0.12814  -0.11984
  Beta virt. eigenvalues --   -0.06374  -0.05917  -0.05670  -0.04654  -0.02285
  Beta virt. eigenvalues --   -0.01879  -0.01700  -0.01387  -0.01213  -0.00854
  Beta virt. eigenvalues --   -0.00632   0.00162   0.00354   0.00748   0.00782

 Mulliken charges and spin densities:
               1          2
     1  Na   0.129225  -0.016596
     2  Na   0.441464   0.094480
     3  Na  -0.044241  -0.032781
     4  Na  -0.035052  -0.042054
     5  Na  -0.439365   0.771928
     6  Na  -0.432619   0.126743
     7  Na   0.380588   0.098280
 Sum of Mulliken charges =  -0.00000   1.00000

 Dipole moment (field-independent basis, Debye):
    X=              0.3379    Y=              0.0516    Z=              0.1986  Tot=              0.3953
 Quadrupole moment (field-independent basis, Debye-Ang):
   XX=            -53.2146   YY=            -60.8121   ZZ=            -77.4173
   XY=             -0.1840   XZ=             -0.0453   YZ=              0.2575

 Normal termination of Gaussian 16 at Tue Dec  5 22:26:04 2023.
