 Gaussian 16, Revision B.01,
 Gaussian 16:  ES64L-G16RevB.01 20-Dec-2017

 -------------------------
 #P B3LYP/6-311+g(d) force
 -------------------------

 -----
 DPGEN
 -----
 Symbolic Z-matrix:
 Charge =  0 Multiplicity = 2

                         Standard orientation:
 ---------------------------------------------------------------------
 Center     Atomic      Atomic             Coordinates (Angstroms)
 Number     Number       Type             X           Y           Z
 ---------------------------------------------------------------------
      1         11           0       -1.066033    2.621332    0.350181
      2         11           0        0.405957   -0.912953    2.076044
      3         11           0       -3.327598    0.221345   -1.135043
      4         11           0        2.189531    1.818432    0.381387
      5         11           0        3.146423   -1.891692    0.340931
      6         11           0       -5.693004   -1.388558   -0.258413
      7         11           0        4.344725   -0.467906   -1.755086
 ---------------------------------------------------------------------

 SCF Done:  E(UB3LYP) =  -1136.11169933     A.U. after   19 cycles

 The electronic state is 2-A.
 Alpha  occ. eigenvalues --  -38.44923 -38.44771 -38.44204 -38.44130 -38.43972
 Alpha  occ. eigenvalues --  -38.43935 -38.43717  -2.20750  -2.20588  -2.20111
 Alpha  occ. eigenvalues --   -2.19999  -2.19771  -2.19739  -2.19542  -1.14411
 Alpha  occ. eigenvalues --   -1.14400  -1.14342  -1.14285  -1.14259  -1.14197
 Alpha  occ. eigenvalues --   -1.14010  -1.13760  -1.13746  -1.13618  -1.13608
 Alpha  occ. eigenvalues --   -1.13535  -1.13511  -1.13420  -1.13419  -1.13410
 Alpha  occ. eigenvalues --   -1.13397  -1.13369  -1.13202  -1.13193  -1.13149
 Alpha  occ. eigenvalues --   -0.16994  -0.13992  -0.11937  -0.11572
 Alpha virt. eigenvalues --   -0.06825  -0.04797  -0.04567  -0.03849  -0.03151
 Alpha virt. eigenvalues --   -0.02510  -0.02259  -0.01487  -0.00969  -0.00644
 Alpha virt. eigenvalues --   -0.00340  -0.00153   0.00117   0.00462   0.00558

  Beta  occ. eigenvalues --  -38.44817 -38.44751 -38.44185 -38.44092 -38.43974
  Beta  occ. eigenvalues --  -38.43915 -38.43715  -2.20558  -2.20551  -2.20082
  Beta  occ. eigenvalues --   -2.19930  -2.19775  -2.19703  -2.19538  -1.14279
  Beta  occ. eigenvalues --   -1.14273  -1.14256  -1.14227  -1.14196  -1.14169
  Beta  occ. eigenvalues --   -1.13958  -1.13746  -1.13725  -1.13570  -1.13555
  Beta  occ. eigenvalues --   -1.13512  -1.13484  -1.13422  -1.13421  -1.13385
  Beta  occ. eigenvalues --   -1.13367  -1.13349  -1.13199  -1.13192  -1.13147
  Beta  occ. eigenvalues --   -0.16231  -0.13840  -0.11771
  Beta virt. eigenvalues --   -0.07604  -0.06627  -0.04462  -0.04187  -0.03578
  Beta virt. eigenvalues --   -0.02554  -0.02163  -0.02072  -0.01411  -0.00910
  Beta virt. eigenvalues --   -0.00268  -0.00033   0.00029   0.00290   0.00490

 Mulliken charges and spin densities:
               1          2
     1  Na   0.239463   0.127876
     2  Na   0.008983   0.463222
     3  Na  -0.742881  -0.002115
     4  Na  -0.313454   0.220836
     5  Na   0.093833   0.054095
     6  Na   0.425758  -0.006948
     7  Na   0.288298   0.143035
 Sum of Mulliken charges =  -0.00000   1.00000

 Dipole moment (field-independent basis, Debye):
    X=              0.5563    Y=             -0.0144    Z=              0.3374  Tot=              0.6508
 Quadrupole moment (field-independent basis, Debye-Ang):
   XX=            -65.1573   YY=            -67.6701   ZZ=            -68.5661
   XY=              3.5754   XZ=             -5.2434   YZ=             -1.6202

 Normal termination of Gaussian 16 at Mon Dec  4 03:36:03 2023.
