 Gaussian 16, Revision B.01,
 Gaussian 16:  ES64L-G16RevB.01 20-Dec-2017

 -------------------------
 #P B3LYP/6-311+g(d) force
 -------------------------

 -----
 DPGEN
 -----
 Symbolic Z-matrix:
 Charge =  0 Multiplicity = 2

                         Standard orientation:
 ---------------------------------------------------------------------
 Center     Atomic      Atomic             Coordinates (Angstroms)
 Number     Number       Type             X           Y           Z
 ---------------------------------------------------------------------
      1         11           0       -0.804521    1.628304   -0.810016
      2         11           0        1.918678    3.325997    0.694079
      3         11           0        2.999123    0.368629   -0.566311
      4         11           0        0.658373   -1.810200   -0.469895
      5         11           0       -3.067542   -0.921482   -0.823178
      6         11           0        4.066379   -2.314227    0.904540
      7         11           0       -5.770491   -0.277021    1.070780
 ---------------------------------------------------------------------

 SCF Done:  E(UB3LYP) =  -1136.12393848     A.U. after   19 cycles

 The electronic state is 2-A.
 Alpha  occ. eigenvalues --  -38.44603 -38.44488 -38.44209 -38.44191 -38.43986
 Alpha  occ. eigenvalues --  -38.43409 -38.43338  -2.20406  -2.20327  -2.20015
 Alpha  occ. eigenvalues --   -2.20007  -2.19880  -2.19231  -2.19148  -1.14056
 Alpha  occ. eigenvalues --   -1.14039  -1.14038  -1.14024  -1.14012  -1.13894
 Alpha  occ. eigenvalues --   -1.13706  -1.13704  -1.13688  -1.13675  -1.13638
 Alpha  occ. eigenvalues --   -1.13612  -1.13596  -1.13562  -1.13445  -1.12923
 Alpha  occ. eigenvalues --   -1.12910  -1.12876  -1.12815  -1.12807  -1.12771
 Alpha  occ. eigenvalues --   -0.16937  -0.14040  -0.12198  -0.11245
 Alpha virt. eigenvalues --   -0.05915  -0.05210  -0.04950  -0.03778  -0.02502
 Alpha virt. eigenvalues --   -0.02375  -0.02228  -0.01470  -0.00975  -0.00594
 Alpha virt. eigenvalues --   -0.00440  -0.00048   0.00009   0.00387   0.00668

  Beta  occ. eigenvalues --  -38.44494 -38.44448 -38.44195 -38.44178 -38.43973
  Beta  occ. eigenvalues --  -38.43410 -38.43318  -2.20254  -2.20203  -2.19989
  Beta  occ. eigenvalues --   -2.19985  -2.19859  -2.19242  -2.19110  -1.14012
  Beta  occ. eigenvalues --   -1.13965  -1.13900  -1.13899  -1.13890  -1.13824
  Beta  occ. eigenvalues --   -1.13691  -1.13683  -1.13667  -1.13657  -1.13623
  Beta  occ. eigenvalues --   -1.13595  -1.13567  -1.13549  -1.13430  -1.12940
  Beta  occ. eigenvalues --   -1.12926  -1.12818  -1.12785  -1.12781  -1.12749
  Beta  occ. eigenvalues --   -0.16418  -0.13326  -0.11925
  Beta virt. eigenvalues --   -0.07758  -0.05637  -0.04941  -0.04512  -0.03600
  Beta virt. eigenvalues --   -0.02302  -0.02131  -0.01610  -0.01268  -0.00801
  Beta virt. eigenvalues --   -0.00348  -0.00134   0.00101   0.00193   0.00517

 Mulliken charges and spin densities:
               1          2
     1  Na  -0.339690  -0.037027
     2  Na   0.418345   0.118910
     3  Na  -0.458908   0.106266
     4  Na  -0.273894   0.218516
     5  Na  -0.085219  -0.065245
     6  Na   0.574321   0.119057
     7  Na   0.165045   0.539524
 Sum of Mulliken charges =  -0.00000   1.00000

 Dipole moment (field-independent basis, Debye):
    X=              0.8009    Y=             -0.3563    Z=              0.6526  Tot=              1.0928
 Quadrupole moment (field-independent basis, Debye-Ang):
   XX=            -61.6387   YY=            -66.7496   ZZ=            -67.9421
   XY=             -4.3450   XZ=              1.2791   YZ=             -0.1988

 Normal termination of Gaussian 16 at Wed Nov 29 01:15:48 2023.
