 Gaussian 16, Revision B.01,
 Gaussian 16:  ES64L-G16RevB.01 20-Dec-2017

 -------------------------
 #P B3LYP/6-311+g(d) force
 -------------------------

 -----
 DPGEN
 -----
 Symbolic Z-matrix:
 Charge =  0 Multiplicity = 2

                         Standard orientation:
 ---------------------------------------------------------------------
 Center     Atomic      Atomic             Coordinates (Angstroms)
 Number     Number       Type             X           Y           Z
 ---------------------------------------------------------------------
      1         11           0        1.813032   -0.837379    1.835203
      2         11           0        0.883712   -0.802031   -2.067298
      3         11           0       -2.989962   -0.159295   -1.437388
      4         11           0       -1.580461   -2.340824    0.763759
      5         11           0       -1.850572    1.531044    1.765841
      6         11           0        3.820559    0.289931   -0.358973
      7         11           0       -0.096309    2.318555   -0.501142
 ---------------------------------------------------------------------

 SCF Done:  E(UB3LYP) =  -1136.12190749     A.U. after   23 cycles

 The electronic state is 2-A.
 Alpha  occ. eigenvalues --  -38.44876 -38.44760 -38.44750 -38.44684 -38.43469
 Alpha  occ. eigenvalues --  -38.43146 -38.42852  -2.20668  -2.20566  -2.20561
 Alpha  occ. eigenvalues --   -2.20504  -2.19322  -2.18949  -2.18710  -1.14349
 Alpha  occ. eigenvalues --   -1.14324  -1.14292  -1.14291  -1.14248  -1.14229
 Alpha  occ. eigenvalues --   -1.14210  -1.14207  -1.14156  -1.14154  -1.14141
 Alpha  occ. eigenvalues --   -1.14108  -1.13048  -1.12962  -1.12947  -1.12620
 Alpha  occ. eigenvalues --   -1.12609  -1.12593  -1.12391  -1.12376  -1.12323
 Alpha  occ. eigenvalues --   -0.17771  -0.13516  -0.11784  -0.11036
 Alpha virt. eigenvalues --   -0.06514  -0.05431  -0.04330  -0.03333  -0.03227
 Alpha virt. eigenvalues --   -0.02876  -0.02117  -0.01118  -0.00492  -0.00223
 Alpha virt. eigenvalues --   -0.00027   0.00248   0.00310   0.00635   0.00792

  Beta  occ. eigenvalues --  -38.44863 -38.44762 -38.44686 -38.44628 -38.43445
  Beta  occ. eigenvalues --  -38.43130 -38.42844  -2.20646  -2.20570  -2.20445
  Beta  occ. eigenvalues --   -2.20400  -2.19276  -2.18921  -2.18698  -1.14323
  Beta  occ. eigenvalues --   -1.14308  -1.14280  -1.14276  -1.14222  -1.14207
  Beta  occ. eigenvalues --   -1.14166  -1.14125  -1.14085  -1.14076  -1.14068
  Beta  occ. eigenvalues --   -1.14045  -1.13021  -1.12922  -1.12915  -1.12599
  Beta  occ. eigenvalues --   -1.12591  -1.12562  -1.12383  -1.12345  -1.12319
  Beta  occ. eigenvalues --   -0.16993  -0.13416  -0.10893
  Beta virt. eigenvalues --   -0.07965  -0.06264  -0.04701  -0.04149  -0.03098
  Beta virt. eigenvalues --   -0.02673  -0.02250  -0.01964  -0.00665  -0.00409
  Beta virt. eigenvalues --   -0.00112   0.00136   0.00256   0.00353   0.00778

 Mulliken charges and spin densities:
               1          2
     1  Na  -0.227904   0.236255
     2  Na  -0.179126   0.424627
     3  Na   0.275293   0.042581
     4  Na  -0.180498   0.113766
     5  Na   0.124491   0.166806
     6  Na   0.468373  -0.013829
     7  Na  -0.280629   0.029792
 Sum of Mulliken charges =  -0.00000   1.00000

 Dipole moment (field-independent basis, Debye):
    X=              0.7386    Y=             -0.0787    Z=             -0.4372  Tot=              0.8619
 Quadrupole moment (field-independent basis, Debye-Ang):
   XX=            -52.8013   YY=            -80.2622   ZZ=            -63.7672
   XY=              0.7798   XZ=              0.2019   YZ=             -3.0221

 Normal termination of Gaussian 16 at Mon Dec  4 05:27:14 2023.
