 Gaussian 16, Revision B.01,
 Gaussian 16:  ES64L-G16RevB.01 20-Dec-2017

 -------------------------
 #P B3LYP/6-311+g(d) force
 -------------------------

 -----
 DPGEN
 -----
 Symbolic Z-matrix:
 Charge =  0 Multiplicity = 2

                         Standard orientation:
 ---------------------------------------------------------------------
 Center     Atomic      Atomic             Coordinates (Angstroms)
 Number     Number       Type             X           Y           Z
 ---------------------------------------------------------------------
      1         11           0       -0.318782   -1.680525   -0.575587
      2         11           0        1.877201    0.451494   -1.396741
      3         11           0       -1.825693    1.331425   -1.327969
      4         11           0        3.168474   -1.734295    0.272048
      5         11           0       -0.089624    0.010592    1.819821
      6         11           0       -3.629738   -1.172920    0.376257
      7         11           0        0.818162    2.794229    0.832172
 ---------------------------------------------------------------------

 SCF Done:  E(UB3LYP) =  -1136.12729730     A.U. after   20 cycles

 The electronic state is 2-A.
 Alpha  occ. eigenvalues --  -38.44340 -38.44033 -38.43878 -38.43832 -38.43554
 Alpha  occ. eigenvalues --  -38.43517 -38.42717  -2.20135  -2.19869  -2.19793
 Alpha  occ. eigenvalues --   -2.19735  -2.19528  -2.19479  -2.18589  -1.13808
 Alpha  occ. eigenvalues --   -1.13799  -1.13769  -1.13604  -1.13595  -1.13512
 Alpha  occ. eigenvalues --   -1.13500  -1.13443  -1.13430  -1.13392  -1.13370
 Alpha  occ. eigenvalues --   -1.13332  -1.13275  -1.13214  -1.13147  -1.13122
 Alpha  occ. eigenvalues --   -1.13075  -1.13044  -1.12281  -1.12242  -1.12206
 Alpha  occ. eigenvalues --   -0.18809  -0.13384  -0.11902  -0.11067
 Alpha virt. eigenvalues --   -0.06290  -0.05024  -0.03782  -0.03303  -0.02858
 Alpha virt. eigenvalues --   -0.02605  -0.02170  -0.01242  -0.00425   0.00047
 Alpha virt. eigenvalues --    0.00206   0.00342   0.00729   0.00793   0.00840

  Beta  occ. eigenvalues --  -38.44343 -38.44035 -38.43836 -38.43746 -38.43533
  Beta  occ. eigenvalues --  -38.43478 -38.42703  -2.20141  -2.19876  -2.19659
  Beta  occ. eigenvalues --   -2.19636  -2.19495  -2.19408  -2.18567  -1.13814
  Beta  occ. eigenvalues --   -1.13793  -1.13774  -1.13599  -1.13514  -1.13510
  Beta  occ. eigenvalues --   -1.13495  -1.13379  -1.13334  -1.13320  -1.13283
  Beta  occ. eigenvalues --   -1.13262  -1.13232  -1.13147  -1.13096  -1.13063
  Beta  occ. eigenvalues --   -1.13042  -1.13011  -1.12253  -1.12228  -1.12183
  Beta  occ. eigenvalues --   -0.18033  -0.13242  -0.11647
  Beta virt. eigenvalues --   -0.07101  -0.06153  -0.04839  -0.03724  -0.02814
  Beta virt. eigenvalues --   -0.02177  -0.02120  -0.01647  -0.00998  -0.00184
  Beta virt. eigenvalues --    0.00053   0.00242   0.00408   0.00766   0.00840

 Mulliken charges and spin densities:
               1          2
     1  Na  -0.527689   0.233292
     2  Na   0.409667   0.356463
     3  Na  -0.305304   0.138590
     4  Na   0.159250  -0.139283
     5  Na  -0.050200   0.563055
     6  Na   0.553589  -0.024972
     7  Na  -0.239313  -0.127145
 Sum of Mulliken charges =  -0.00000   1.00000

 Dipole moment (field-independent basis, Debye):
    X=             -0.4036    Y=             -0.1907    Z=              0.1291  Tot=              0.4647
 Quadrupole moment (field-independent basis, Debye-Ang):
   XX=            -51.3727   YY=            -69.4372   ZZ=            -71.1657
   XY=             -0.3572   XZ=              0.6590   YZ=             -2.3574

 Normal termination of Gaussian 16 at Thu Dec  7 12:23:04 2023.
