 Gaussian 16, Revision B.01,
 Gaussian 16:  ES64L-G16RevB.01 20-Dec-2017

 -------------------------
 #P B3LYP/6-311+g(d) force
 -------------------------

 -----
 DPGEN
 -----
 Symbolic Z-matrix:
 Charge =  0 Multiplicity = 2

                         Standard orientation:
 ---------------------------------------------------------------------
 Center     Atomic      Atomic             Coordinates (Angstroms)
 Number     Number       Type             X           Y           Z
 ---------------------------------------------------------------------
      1         11           0       -1.499340   -1.331315    1.374995
      2         11           0       -1.608638    2.484328   -0.787302
      3         11           0       -3.888265    0.723242    0.232329
      4         11           0       -1.156814   -2.866866   -1.184365
      5         11           0        2.191289   -2.322570    0.292424
      6         11           0        1.928773    3.220480    0.286314
      7         11           0        4.032997    0.092700   -0.214394
 ---------------------------------------------------------------------

 SCF Done:  E(UB3LYP) =  -1136.11297046     A.U. after   21 cycles

 The electronic state is 2-A.
 Alpha  occ. eigenvalues --  -38.45260 -38.44552 -38.44521 -38.44089 -38.43684
 Alpha  occ. eigenvalues --  -38.43637 -38.43595  -2.21110  -2.20393  -2.20322
 Alpha  occ. eigenvalues --   -2.19924  -2.19512  -2.19462  -2.19417  -1.14838
 Alpha  occ. eigenvalues --   -1.14774  -1.14726  -1.14055  -1.14034  -1.14009
 Alpha  occ. eigenvalues --   -1.14004  -1.13997  -1.13980  -1.13622  -1.13607
 Alpha  occ. eigenvalues --   -1.13547  -1.13170  -1.13152  -1.13135  -1.13125
 Alpha  occ. eigenvalues --   -1.13104  -1.13090  -1.13086  -1.13071  -1.13031
 Alpha  occ. eigenvalues --   -0.16727  -0.13836  -0.13114  -0.10151
 Alpha virt. eigenvalues --   -0.06699  -0.05970  -0.04293  -0.03094  -0.02833
 Alpha virt. eigenvalues --   -0.02515  -0.02285  -0.01636  -0.00972  -0.00837
 Alpha virt. eigenvalues --   -0.00103   0.00003   0.00229   0.00523   0.00681

  Beta  occ. eigenvalues --  -38.45258 -38.44515 -38.44514 -38.44055 -38.43619
  Beta  occ. eigenvalues --  -38.43590 -38.43559  -2.21110  -2.20324  -2.20317
  Beta  occ. eigenvalues --   -2.19867  -2.19424  -2.19356  -2.19342  -1.14831
  Beta  occ. eigenvalues --   -1.14776  -1.14716  -1.14009  -1.14006  -1.13997
  Beta  occ. eigenvalues --   -1.13986  -1.13960  -1.13940  -1.13582  -1.13574
  Beta  occ. eigenvalues --   -1.13474  -1.13114  -1.13093  -1.13075  -1.13045
  Beta  occ. eigenvalues --   -1.13040  -1.13032  -1.13023  -1.13006  -1.12972
  Beta  occ. eigenvalues --   -0.16416  -0.13100  -0.12377
  Beta virt. eigenvalues --   -0.06890  -0.06682  -0.05856  -0.03952  -0.02809
  Beta virt. eigenvalues --   -0.02564  -0.02174  -0.01755  -0.01460  -0.00829
  Beta virt. eigenvalues --   -0.00719   0.00224   0.00236   0.00313   0.00577

 Mulliken charges and spin densities:
               1          2
     1  Na   0.016583   0.015766
     2  Na  -0.421954   0.078863
     3  Na   0.479603   0.211580
     4  Na   0.165786   0.094877
     5  Na  -0.153343   0.263706
     6  Na   0.002407   0.285650
     7  Na  -0.089082   0.049558
 Sum of Mulliken charges =  -0.00000   1.00000

 Dipole moment (field-independent basis, Debye):
    X=             -1.3215    Y=             -1.2281    Z=             -0.1991  Tot=              1.8151
 Quadrupole moment (field-independent basis, Debye-Ang):
   XX=            -69.0062   YY=            -72.2191   ZZ=            -64.1241
   XY=              3.9668   XZ=              0.9265   YZ=              0.8796

 Normal termination of Gaussian 16 at Sun Dec  3 16:23:57 2023.
