 Gaussian 16, Revision B.01,
 Gaussian 16:  ES64L-G16RevB.01 20-Dec-2017

 -------------------------
 #P B3LYP/6-311+g(d) force
 -------------------------

 -----
 DPGEN
 -----
 Symbolic Z-matrix:
 Charge =  0 Multiplicity = 2

                         Standard orientation:
 ---------------------------------------------------------------------
 Center     Atomic      Atomic             Coordinates (Angstroms)
 Number     Number       Type             X           Y           Z
 ---------------------------------------------------------------------
      1         11           0       -1.629959   -0.151165    2.277186
      2         11           0        6.042024   -1.084657   -0.092926
      3         11           0       -0.199166    2.570173    0.043357
      4         11           0       -0.276413   -0.988133   -1.158675
      5         11           0       -3.958043   -1.994857   -0.059590
      6         11           0        2.930288    0.590101    0.135254
      7         11           0       -2.908732    1.058539   -1.144606
 ---------------------------------------------------------------------

 SCF Done:  E(UB3LYP) =  -1136.11163015     A.U. after   29 cycles

 The electronic state is 2-A.
 Alpha  occ. eigenvalues --  -38.46547 -38.44758 -38.44435 -38.44392 -38.43807
 Alpha  occ. eigenvalues --  -38.43771 -38.43317  -2.22347  -2.20650  -2.20227
 Alpha  occ. eigenvalues --   -2.20183  -2.19606  -2.19551  -2.19155  -1.16047
 Alpha  occ. eigenvalues --   -1.16011  -1.15951  -1.14335  -1.14310  -1.14261
 Alpha  occ. eigenvalues --   -1.13896  -1.13859  -1.13845  -1.13845  -1.13816
 Alpha  occ. eigenvalues --   -1.13807  -1.13291  -1.13261  -1.13258  -1.13244
 Alpha  occ. eigenvalues --   -1.13244  -1.13152  -1.12845  -1.12815  -1.12799
 Alpha  occ. eigenvalues --   -0.18015  -0.13418  -0.11415  -0.11029
 Alpha virt. eigenvalues --   -0.07892  -0.05883  -0.03978  -0.03325  -0.03044
 Alpha virt. eigenvalues --   -0.02616  -0.02286  -0.02037  -0.01184  -0.00949
 Alpha virt. eigenvalues --   -0.00735   0.00066   0.00137   0.00447   0.00539

  Beta  occ. eigenvalues --  -38.46525 -38.44718 -38.44413 -38.44279 -38.43807
  Beta  occ. eigenvalues --  -38.43776 -38.43323  -2.22310  -2.20580  -2.20141
  Beta  occ. eigenvalues --   -2.20017  -2.19609  -2.19561  -2.19170  -1.15997
  Beta  occ. eigenvalues --   -1.15987  -1.15929  -1.14278  -1.14253  -1.14217
  Beta  occ. eigenvalues --   -1.13816  -1.13816  -1.13780  -1.13755  -1.13720
  Beta  occ. eigenvalues --   -1.13665  -1.13295  -1.13267  -1.13250  -1.13249
  Beta  occ. eigenvalues --   -1.13242  -1.13151  -1.12862  -1.12810  -1.12799
  Beta  occ. eigenvalues --   -0.17349  -0.13211  -0.11282
  Beta virt. eigenvalues --   -0.07818  -0.06941  -0.05713  -0.03947  -0.02925
  Beta virt. eigenvalues --   -0.02620  -0.02126  -0.01800  -0.01686  -0.00890
  Beta virt. eigenvalues --   -0.00711  -0.00594   0.00072   0.00344   0.00488

 Mulliken charges and spin densities:
               1          2
     1  Na  -0.411952   0.603560
     2  Na  -0.139156   0.098156
     3  Na   0.935152  -0.094104
     4  Na  -0.223941   0.059173
     5  Na   0.242255  -0.034370
     6  Na  -0.921214   0.099889
     7  Na   0.518856   0.267695
 Sum of Mulliken charges =  -0.00000   1.00000

 Dipole moment (field-independent basis, Debye):
    X=             -1.0353    Y=             -0.1234    Z=             -0.4232  Tot=              1.1253
 Quadrupole moment (field-independent basis, Debye-Ang):
   XX=            -60.4377   YY=            -65.4948   ZZ=            -75.2170
   XY=             -3.7362   XZ=              0.6685   YZ=              1.8660

 Normal termination of Gaussian 16 at Thu Dec  7 05:48:22 2023.
