 Gaussian 16, Revision B.01,
 Gaussian 16:  ES64L-G16RevB.01 20-Dec-2017

 -------------------------
 #P B3LYP/6-311+g(d) force
 -------------------------

 -----
 DPGEN
 -----
 Symbolic Z-matrix:
 Charge =  0 Multiplicity = 2

                         Standard orientation:
 ---------------------------------------------------------------------
 Center     Atomic      Atomic             Coordinates (Angstroms)
 Number     Number       Type             X           Y           Z
 ---------------------------------------------------------------------
      1         11           0        1.509220   -2.283011   -0.153389
      2         11           0        3.175335    0.593382   -0.226443
      3         11           0       -0.171072    0.183881   -1.576659
      4         11           0        0.375253    2.855516    0.269696
      5         11           0       -0.050070   -0.435313    1.970171
      6         11           0       -2.861947    1.477724   -0.133407
      7         11           0       -1.976720   -2.392179   -0.149969
 ---------------------------------------------------------------------

 SCF Done:  E(UB3LYP) =  -1136.13873801     A.U. after   20 cycles

 The electronic state is 2-A.
 Alpha  occ. eigenvalues --  -38.44013 -38.43751 -38.43715 -38.43568 -38.43381
 Alpha  occ. eigenvalues --  -38.43353 -38.43016  -2.19829  -2.19578  -2.19555
 Alpha  occ. eigenvalues --   -2.19414  -2.19296  -2.19271  -2.19011  -1.13515
 Alpha  occ. eigenvalues --   -1.13485  -1.13464  -1.13254  -1.13241  -1.13231
 Alpha  occ. eigenvalues --   -1.13227  -1.13226  -1.13192  -1.13110  -1.13083
 Alpha  occ. eigenvalues --   -1.13036  -1.13032  -1.12981  -1.12924  -1.12906
 Alpha  occ. eigenvalues --   -1.12881  -1.12870  -1.12696  -1.12647  -1.12626
 Alpha  occ. eigenvalues --   -0.18740  -0.12872  -0.12694  -0.10562
 Alpha virt. eigenvalues --   -0.05539  -0.05295  -0.04770  -0.03020  -0.02900
 Alpha virt. eigenvalues --   -0.02362  -0.01532  -0.01271  -0.00393  -0.00290
 Alpha virt. eigenvalues --    0.00003   0.00349   0.00798   0.00863   0.00903

  Beta  occ. eigenvalues --  -38.44010 -38.43748 -38.43710 -38.43561 -38.43370
  Beta  occ. eigenvalues --  -38.43260 -38.42955  -2.19827  -2.19575  -2.19549
  Beta  occ. eigenvalues --   -2.19404  -2.19282  -2.19100  -2.18901  -1.13505
  Beta  occ. eigenvalues --   -1.13474  -1.13466  -1.13253  -1.13231  -1.13227
  Beta  occ. eigenvalues --   -1.13218  -1.13202  -1.13186  -1.13102  -1.13054
  Beta  occ. eigenvalues --   -1.13030  -1.13007  -1.12934  -1.12899  -1.12819
  Beta  occ. eigenvalues --   -1.12769  -1.12753  -1.12618  -1.12567  -1.12544
  Beta  occ. eigenvalues --   -0.18014  -0.12630  -0.12464
  Beta virt. eigenvalues --   -0.06653  -0.05523  -0.05270  -0.04717  -0.02228
  Beta virt. eigenvalues --   -0.02167  -0.01453  -0.01310  -0.01214  -0.00421
  Beta virt. eigenvalues --   -0.00338   0.00145   0.00375   0.00834   0.00860

 Mulliken charges and spin densities:
               1          2
     1  Na   0.391481   0.009490
     2  Na   0.035413  -0.031175
     3  Na  -0.324655   0.509621
     4  Na   0.079565  -0.011422
     5  Na  -0.469170   0.738402
     6  Na   0.094198  -0.105807
     7  Na   0.193168  -0.109108
 Sum of Mulliken charges =  -0.00000   1.00000

 Dipole moment (field-independent basis, Debye):
    X=             -0.2731    Y=              0.0928    Z=              0.1052  Tot=              0.3070
 Quadrupole moment (field-independent basis, Debye-Ang):
   XX=            -55.8832   YY=            -61.3106   ZZ=            -75.3108
   XY=              0.8530   XZ=             -0.2622   YZ=              1.3418

 Normal termination of Gaussian 16 at Tue Dec  5 14:10:46 2023.
