 Gaussian 16, Revision B.01,
 Gaussian 16:  ES64L-G16RevB.01 20-Dec-2017

 -------------------------
 #P B3LYP/6-311+g(d) force
 -------------------------

 -----
 DPGEN
 -----
 Symbolic Z-matrix:
 Charge =  0 Multiplicity = 2

                         Standard orientation:
 ---------------------------------------------------------------------
 Center     Atomic      Atomic             Coordinates (Angstroms)
 Number     Number       Type             X           Y           Z
 ---------------------------------------------------------------------
      1         11           0       -1.588488   -2.102648    0.695013
      2         11           0       -0.613794    3.032802    0.347019
      3         11           0       -0.046048   -0.061155   -1.392070
      4         11           0        0.643223   -0.124282    2.274421
      5         11           0        2.243376   -2.140915   -0.628587
      6         11           0        2.706235    1.333899   -0.517901
      7         11           0       -3.344505    0.062298   -0.777895
 ---------------------------------------------------------------------

 SCF Done:  E(UB3LYP) =  -1136.13269518     A.U. after   19 cycles

 The electronic state is 2-A.
 Alpha  occ. eigenvalues --  -38.44161 -38.44059 -38.43975 -38.43591 -38.43404
 Alpha  occ. eigenvalues --  -38.43373 -38.43164  -2.20027  -2.19905  -2.19813
 Alpha  occ. eigenvalues --   -2.19436  -2.19264  -2.19186  -2.19181  -1.13698
 Alpha  occ. eigenvalues --   -1.13654  -1.13631  -1.13617  -1.13566  -1.13511
 Alpha  occ. eigenvalues --   -1.13494  -1.13484  -1.13436  -1.13151  -1.13081
 Alpha  occ. eigenvalues --   -1.13063  -1.12970  -1.12928  -1.12886  -1.12870
 Alpha  occ. eigenvalues --   -1.12861  -1.12847  -1.12821  -1.12814  -1.12795
 Alpha  occ. eigenvalues --   -0.18441  -0.13186  -0.11914  -0.11283
 Alpha virt. eigenvalues --   -0.05606  -0.05054  -0.04512  -0.03318  -0.03001
 Alpha virt. eigenvalues --   -0.02808  -0.01603  -0.01098  -0.00483  -0.00033
 Alpha virt. eigenvalues --    0.00053   0.00349   0.00738   0.00777   0.00861

  Beta  occ. eigenvalues --  -38.44054 -38.44048 -38.43961 -38.43579 -38.43403
  Beta  occ. eigenvalues --  -38.43357 -38.43124  -2.19889  -2.19830  -2.19787
  Beta  occ. eigenvalues --   -2.19416  -2.19240  -2.19184  -2.19110  -1.13599
  Beta  occ. eigenvalues --   -1.13564  -1.13558  -1.13514  -1.13495  -1.13485
  Beta  occ. eigenvalues --   -1.13481  -1.13457  -1.13420  -1.13129  -1.13070
  Beta  occ. eigenvalues --   -1.13038  -1.12953  -1.12890  -1.12862  -1.12856
  Beta  occ. eigenvalues --   -1.12850  -1.12820  -1.12805  -1.12764  -1.12745
  Beta  occ. eigenvalues --   -0.17727  -0.12901  -0.11711
  Beta virt. eigenvalues --   -0.07319  -0.05530  -0.04983  -0.04337  -0.02728
  Beta virt. eigenvalues --   -0.02220  -0.01846  -0.01482  -0.01062  -0.00366
  Beta virt. eigenvalues --    0.00027   0.00101   0.00397   0.00823   0.00879

 Mulliken charges and spin densities:
               1          2
     1  Na   0.005545   0.171948
     2  Na  -0.295324   0.064413
     3  Na   0.053254   0.079448
     4  Na  -0.165078   0.587841
     5  Na   0.135680   0.059019
     6  Na   0.081745   0.025316
     7  Na   0.184178   0.012016
 Sum of Mulliken charges =  -0.00000   1.00000

 Dipole moment (field-independent basis, Debye):
    X=              0.2067    Y=              0.0452    Z=              0.1745  Tot=              0.2743
 Quadrupole moment (field-independent basis, Debye-Ang):
   XX=            -56.4193   YY=            -66.0132   ZZ=            -71.2838
   XY=             -0.9638   XZ=              0.0899   YZ=              0.0976

 Normal termination of Gaussian 16 at Thu Dec  7 15:58:14 2023.
