 Gaussian 16, Revision B.01,
 Gaussian 16:  ES64L-G16RevB.01 20-Dec-2017

 -------------------------
 #P B3LYP/6-311+g(d) force
 -------------------------

 -----
 DPGEN
 -----
 Symbolic Z-matrix:
 Charge =  0 Multiplicity = 2

                         Standard orientation:
 ---------------------------------------------------------------------
 Center     Atomic      Atomic             Coordinates (Angstroms)
 Number     Number       Type             X           Y           Z
 ---------------------------------------------------------------------
      1         11           0       -3.917868   -0.127435   -0.672517
      2         11           0       -1.309197    2.194511    0.392535
      3         11           0       -0.021803   -0.339951   -1.932232
      4         11           0        3.357991   -1.519750   -0.697765
      5         11           0        2.455046    1.952880   -0.041881
      6         11           0        1.097123   -0.331188    1.880339
      7         11           0       -1.661291   -1.829067    1.071521
 ---------------------------------------------------------------------

 SCF Done:  E(UB3LYP) =  -1136.12360463     A.U. after   26 cycles

 The electronic state is 2-A.
 Alpha  occ. eigenvalues --  -38.45228 -38.45169 -38.44162 -38.43784 -38.43765
 Alpha  occ. eigenvalues --  -38.43549 -38.42854  -2.21034  -2.20963  -2.19949
 Alpha  occ. eigenvalues --   -2.19681  -2.19617  -2.19412  -2.18667  -1.14724
 Alpha  occ. eigenvalues --   -1.14682  -1.14642  -1.14636  -1.14617  -1.14595
 Alpha  occ. eigenvalues --   -1.13618  -1.13612  -1.13591  -1.13400  -1.13363
 Alpha  occ. eigenvalues --   -1.13292  -1.13280  -1.13253  -1.13225  -1.13092
 Alpha  occ. eigenvalues --   -1.13060  -1.13035  -1.12359  -1.12353  -1.12282
 Alpha  occ. eigenvalues --   -0.18160  -0.13877  -0.11387  -0.10876
 Alpha virt. eigenvalues --   -0.06996  -0.05339  -0.04504  -0.03143  -0.02844
 Alpha virt. eigenvalues --   -0.02533  -0.02416  -0.01189  -0.00883  -0.00248
 Alpha virt. eigenvalues --    0.00115   0.00175   0.00264   0.00589   0.00693

  Beta  occ. eigenvalues --  -38.45172 -38.45162 -38.44157 -38.43775 -38.43685
  Beta  occ. eigenvalues --  -38.43507 -38.42854  -2.20949  -2.20931  -2.19942
  Beta  occ. eigenvalues --   -2.19603  -2.19536  -2.19340  -2.18670  -1.14652
  Beta  occ. eigenvalues --   -1.14624  -1.14613  -1.14609  -1.14585  -1.14559
  Beta  occ. eigenvalues --   -1.13610  -1.13601  -1.13586  -1.13326  -1.13285
  Beta  occ. eigenvalues --   -1.13265  -1.13219  -1.13192  -1.13173  -1.13037
  Beta  occ. eigenvalues --   -1.13003  -1.12973  -1.12364  -1.12339  -1.12283
  Beta  occ. eigenvalues --   -0.17425  -0.13737  -0.10660
  Beta virt. eigenvalues --   -0.07455  -0.06727  -0.05325  -0.03979  -0.02871
  Beta virt. eigenvalues --   -0.02454  -0.01920  -0.01785  -0.01106  -0.00574
  Beta virt. eigenvalues --   -0.00199   0.00158   0.00179   0.00424   0.00668

 Mulliken charges and spin densities:
               1          2
     1  Na   0.531904   0.110503
     2  Na  -0.414621  -0.039055
     3  Na  -0.329370   0.484659
     4  Na   0.028833   0.029429
     5  Na   0.162498   0.035611
     6  Na   0.266050   0.335711
     7  Na  -0.245295   0.043141
 Sum of Mulliken charges =  -0.00000   1.00000

 Dipole moment (field-independent basis, Debye):
    X=             -0.4456    Y=             -0.0101    Z=             -0.6643  Tot=              0.7999
 Quadrupole moment (field-independent basis, Debye-Ang):
   XX=            -47.4555   YY=            -76.9688   ZZ=            -69.8954
   XY=              0.3313   XZ=              1.4074   YZ=             -0.1532

 Normal termination of Gaussian 16 at Thu Dec  7 14:45:12 2023.
