 Gaussian 16, Revision B.01,
 Gaussian 16:  ES64L-G16RevB.01 20-Dec-2017

 -------------------------
 #P B3LYP/6-311+g(d) force
 -------------------------

 -----
 DPGEN
 -----
 Symbolic Z-matrix:
 Charge =  0 Multiplicity = 2

                         Standard orientation:
 ---------------------------------------------------------------------
 Center     Atomic      Atomic             Coordinates (Angstroms)
 Number     Number       Type             X           Y           Z
 ---------------------------------------------------------------------
      1         11           0       -1.872520   -0.951948    2.057529
      2         11           0        4.846318    1.063676   -0.416754
      3         11           0        0.203848    1.600314    0.389681
      4         11           0       -3.102198    1.914486   -0.087859
      5         11           0        3.071736   -1.344241    0.286577
      6         11           0       -0.124114   -1.412551   -0.723965
      7         11           0       -3.023071   -0.869737   -1.505208
 ---------------------------------------------------------------------

 SCF Done:  E(UB3LYP) =  -1136.10602565     A.U. after   28 cycles

 The electronic state is 2-A.
 Alpha  occ. eigenvalues --  -38.45819 -38.45124 -38.44569 -38.44310 -38.44293
 Alpha  occ. eigenvalues --  -38.42947 -38.42894  -2.21644  -2.20968  -2.20361
 Alpha  occ. eigenvalues --   -2.20224  -2.20154  -2.18904  -2.18767  -1.15313
 Alpha  occ. eigenvalues --   -1.15293  -1.15263  -1.14686  -1.14620  -1.14553
 Alpha  occ. eigenvalues --   -1.14083  -1.14014  -1.13998  -1.13906  -1.13855
 Alpha  occ. eigenvalues --   -1.13837  -1.13831  -1.13808  -1.13765  -1.12594
 Alpha  occ. eigenvalues --   -1.12574  -1.12533  -1.12448  -1.12431  -1.12407
 Alpha  occ. eigenvalues --   -0.18448  -0.14298  -0.11327  -0.10920
 Alpha virt. eigenvalues --   -0.07698  -0.05659  -0.03930  -0.03230  -0.03006
 Alpha virt. eigenvalues --   -0.02462  -0.02371  -0.01769  -0.01213  -0.00500
 Alpha virt. eigenvalues --   -0.00192   0.00149   0.00263   0.00540   0.00602

  Beta  occ. eigenvalues --  -38.45775 -38.45077 -38.44563 -38.44310 -38.44195
  Beta  occ. eigenvalues --  -38.42941 -38.42882  -2.21565  -2.20884  -2.20349
  Beta  occ. eigenvalues --   -2.20155  -2.20043  -2.18897  -2.18750  -1.15244
  Beta  occ. eigenvalues --   -1.15239  -1.15205  -1.14633  -1.14547  -1.14496
  Beta  occ. eigenvalues --   -1.14074  -1.14006  -1.13991  -1.13834  -1.13805
  Beta  occ. eigenvalues --   -1.13783  -1.13764  -1.13737  -1.13704  -1.12595
  Beta  occ. eigenvalues --   -1.12550  -1.12510  -1.12431  -1.12423  -1.12370
  Beta  occ. eigenvalues --   -0.17709  -0.14038  -0.10668
  Beta virt. eigenvalues --   -0.07620  -0.07248  -0.05597  -0.03393  -0.03109
  Beta virt. eigenvalues --   -0.02787  -0.01983  -0.01795  -0.01352  -0.00776
  Beta virt. eigenvalues --   -0.00421  -0.00109   0.00166   0.00385   0.00571

 Mulliken charges and spin densities:
               1          2
     1  Na   0.075423   0.258898
     2  Na   0.114442   0.015861
     3  Na  -0.467007   0.274343
     4  Na   0.037284  -0.021198
     5  Na   0.178022   0.078315
     6  Na  -0.585905  -0.021746
     7  Na   0.647740   0.415527
 Sum of Mulliken charges =  -0.00000   1.00000

 Dipole moment (field-independent basis, Debye):
    X=              0.2207    Y=             -0.4373    Z=              1.2147  Tot=              1.3097
 Quadrupole moment (field-independent basis, Debye-Ang):
   XX=            -58.5865   YY=            -74.7622   ZZ=            -66.9804
   XY=              5.0210   XZ=             -5.3537   YZ=             -3.7352

 Normal termination of Gaussian 16 at Thu Dec  7 02:53:13 2023.
