 Gaussian 16, Revision B.01,
 Gaussian 16:  ES64L-G16RevB.01 20-Dec-2017

 -------------------------
 #P B3LYP/6-311+g(d) force
 -------------------------

 -----
 DPGEN
 -----
 Symbolic Z-matrix:
 Charge =  0 Multiplicity = 2

                         Standard orientation:
 ---------------------------------------------------------------------
 Center     Atomic      Atomic             Coordinates (Angstroms)
 Number     Number       Type             X           Y           Z
 ---------------------------------------------------------------------
      1         11           0       -0.061502    0.316388   -1.504583
      2         11           0        3.296630    1.165278    0.033712
      3         11           0       -1.380471   -2.457600   -0.681648
      4         11           0       -3.332963    0.497851   -0.000374
      5         11           0        2.359058   -1.963089   -0.029099
      6         11           0       -0.487441   -0.380507    2.327251
      7         11           0       -0.393310    2.821679   -0.145259
 ---------------------------------------------------------------------

 SCF Done:  E(UB3LYP) =  -1136.12909770     A.U. after   19 cycles

 The electronic state is 2-A.
 Alpha  occ. eigenvalues --  -38.44881 -38.44450 -38.44110 -38.43732 -38.43334
 Alpha  occ. eigenvalues --  -38.43302 -38.43203  -2.20678  -2.20237  -2.19935
 Alpha  occ. eigenvalues --   -2.19550  -2.19337  -2.19157  -2.19058  -1.14353
 Alpha  occ. eigenvalues --   -1.14332  -1.14320  -1.13913  -1.13907  -1.13870
 Alpha  occ. eigenvalues --   -1.13583  -1.13560  -1.13554  -1.13226  -1.13218
 Alpha  occ. eigenvalues --   -1.13194  -1.13186  -1.13014  -1.12935  -1.12803
 Alpha  occ. eigenvalues --   -1.12793  -1.12745  -1.12732  -1.12702  -1.12678
 Alpha  occ. eigenvalues --   -0.18215  -0.13174  -0.11997  -0.10832
 Alpha virt. eigenvalues --   -0.06365  -0.05191  -0.04258  -0.03272  -0.02915
 Alpha virt. eigenvalues --   -0.02625  -0.02023  -0.01114  -0.00432  -0.00383
 Alpha virt. eigenvalues --   -0.00085   0.00305   0.00684   0.00763   0.00831

  Beta  occ. eigenvalues --  -38.44879 -38.44452 -38.44003 -38.43731 -38.43297
  Beta  occ. eigenvalues --  -38.43281 -38.43183  -2.20677  -2.20242  -2.19736
  Beta  occ. eigenvalues --   -2.19551  -2.19243  -2.19150  -2.19026  -1.14335
  Beta  occ. eigenvalues --   -1.14326  -1.14323  -1.13918  -1.13903  -1.13874
  Beta  occ. eigenvalues --   -1.13449  -1.13425  -1.13412  -1.13225  -1.13204
  Beta  occ. eigenvalues --   -1.13191  -1.13140  -1.12952  -1.12868  -1.12780
  Beta  occ. eigenvalues --   -1.12766  -1.12742  -1.12700  -1.12665  -1.12659
  Beta  occ. eigenvalues --   -0.17518  -0.13026  -0.11768
  Beta virt. eigenvalues --   -0.06848  -0.06248  -0.05205  -0.04200  -0.02597
  Beta virt. eigenvalues --   -0.02065  -0.01924  -0.01622  -0.01059  -0.00456
  Beta virt. eigenvalues --   -0.00410   0.00106   0.00344   0.00815   0.00837

 Mulliken charges and spin densities:
               1          2
     1  Na   0.049188   0.164948
     2  Na  -0.021098  -0.023363
     3  Na   0.173000   0.040902
     4  Na   0.237076   0.053896
     5  Na   0.089790  -0.010852
     6  Na  -0.625077   0.783544
     7  Na   0.097121  -0.009076
 Sum of Mulliken charges =  -0.00000   1.00000

 Dipole moment (field-independent basis, Debye):
    X=             -0.2017    Y=              0.1262    Z=              0.3028  Tot=              0.3851
 Quadrupole moment (field-independent basis, Debye-Ang):
   XX=            -51.7893   YY=            -67.0019   ZZ=            -74.6461
   XY=              0.2513   XZ=              0.8669   YZ=              1.5012

 Normal termination of Gaussian 16 at Thu Dec  7 02:26:34 2023.
