 Gaussian 16, Revision B.01,
 Gaussian 16:  ES64L-G16RevB.01 20-Dec-2017

 -------------------------
 #P B3LYP/6-311+g(d) force
 -------------------------

 -----
 DPGEN
 -----
 Symbolic Z-matrix:
 Charge =  0 Multiplicity = 2

                         Standard orientation:
 ---------------------------------------------------------------------
 Center     Atomic      Atomic             Coordinates (Angstroms)
 Number     Number       Type             X           Y           Z
 ---------------------------------------------------------------------
      1         11           0        0.320412    0.266092   -1.379366
      2         11           0        1.442284    2.783413   -0.100721
      3         11           0        3.289096   -0.665226   -0.169177
      4         11           0       -2.716353    1.905395    0.052336
      5         11           0        0.297042   -2.612525   -0.069273
      6         11           0        0.077197   -0.181032    2.088821
      7         11           0       -2.709677   -1.496117   -0.422619
 ---------------------------------------------------------------------

 SCF Done:  E(UB3LYP) =  -1136.13159171     A.U. after   20 cycles

 The electronic state is 2-A.
 Alpha  occ. eigenvalues --  -38.44619 -38.44269 -38.43904 -38.43727 -38.43428
 Alpha  occ. eigenvalues --  -38.43036 -38.42941  -2.20428  -2.20049  -2.19724
 Alpha  occ. eigenvalues --   -2.19580  -2.19321  -2.19059  -2.18874  -1.14109
 Alpha  occ. eigenvalues --   -1.14079  -1.14064  -1.13723  -1.13713  -1.13689
 Alpha  occ. eigenvalues --   -1.13462  -1.13376  -1.13334  -1.13258  -1.13237
 Alpha  occ. eigenvalues --   -1.13223  -1.13006  -1.12946  -1.12926  -1.12774
 Alpha  occ. eigenvalues --   -1.12732  -1.12663  -1.12549  -1.12528  -1.12489
 Alpha  occ. eigenvalues --   -0.18592  -0.13125  -0.12308  -0.10470
 Alpha virt. eigenvalues --   -0.06175  -0.05324  -0.04453  -0.03022  -0.02691
 Alpha virt. eigenvalues --   -0.02363  -0.01937  -0.01220  -0.00658  -0.00266
 Alpha virt. eigenvalues --   -0.00013   0.00300   0.00749   0.00791   0.00897

  Beta  occ. eigenvalues --  -38.44614 -38.44270 -38.43901 -38.43717 -38.43320
  Beta  occ. eigenvalues --  -38.42991 -38.42930  -2.20421  -2.20051  -2.19722
  Beta  occ. eigenvalues --   -2.19564  -2.19123  -2.18979  -2.18859  -1.14094
  Beta  occ. eigenvalues --   -1.14068  -1.14061  -1.13718  -1.13712  -1.13691
  Beta  occ. eigenvalues --   -1.13456  -1.13362  -1.13334  -1.13248  -1.13218
  Beta  occ. eigenvalues --   -1.13206  -1.12878  -1.12805  -1.12788  -1.12722
  Beta  occ. eigenvalues --   -1.12664  -1.12603  -1.12535  -1.12485  -1.12473
  Beta  occ. eigenvalues --   -0.17877  -0.12898  -0.12085
  Beta virt. eigenvalues --   -0.06539  -0.06152  -0.05263  -0.04430  -0.02318
  Beta virt. eigenvalues --   -0.01938  -0.01861  -0.01303  -0.01116  -0.00693
  Beta virt. eigenvalues --   -0.00295   0.00145   0.00349   0.00777   0.00835

 Mulliken charges and spin densities:
               1          2
     1  Na  -0.510429   0.216819
     2  Na   0.082950  -0.076824
     3  Na   0.293397  -0.020703
     4  Na   0.065706  -0.020184
     5  Na   0.538720   0.130909
     6  Na  -0.535696   0.737405
     7  Na   0.065352   0.032578
 Sum of Mulliken charges =  -0.00000   1.00000

 Dipole moment (field-independent basis, Debye):
    X=              0.3253    Y=              0.3253    Z=              0.1977  Tot=              0.5007
 Quadrupole moment (field-independent basis, Debye-Ang):
   XX=            -52.5288   YY=            -63.1694   ZZ=            -76.1566
   XY=             -0.8691   XZ=              0.4809   YZ=              1.2668

 Normal termination of Gaussian 16 at Thu Dec  7 03:21:15 2023.
