 Gaussian 16, Revision B.01,
 Gaussian 16:  ES64L-G16RevB.01 20-Dec-2017

 -------------------------
 #P B3LYP/6-311+g(d) force
 -------------------------

 -----
 DPGEN
 -----
 Symbolic Z-matrix:
 Charge =  0 Multiplicity = 2

                         Standard orientation:
 ---------------------------------------------------------------------
 Center     Atomic      Atomic             Coordinates (Angstroms)
 Number     Number       Type             X           Y           Z
 ---------------------------------------------------------------------
      1         11           0       -4.130620   -1.669356    0.541432
      2         11           0        2.820347    1.510430   -0.160168
      3         11           0        1.703565   -0.742137    1.841429
      4         11           0        3.853698   -1.015499   -0.624751
      5         11           0        0.135109   -1.236356   -1.415702
      6         11           0       -3.712763    1.215834   -0.666382
      7         11           0       -0.669336    1.937085    0.484141
 ---------------------------------------------------------------------

 SCF Done:  E(UB3LYP) =  -1136.09985187     A.U. after   31 cycles

 The electronic state is 2-A.
 Alpha  occ. eigenvalues --  -38.46550 -38.45010 -38.44267 -38.44196 -38.44170
 Alpha  occ. eigenvalues --  -38.43735 -38.41930  -2.22401  -2.20816  -2.20240
 Alpha  occ. eigenvalues --   -2.20030  -2.19953  -2.19669  -2.17781  -1.16098
 Alpha  occ. eigenvalues --   -1.16055  -1.16017  -1.14490  -1.14455  -1.14415
 Alpha  occ. eigenvalues --   -1.14056  -1.13902  -1.13833  -1.13740  -1.13694
 Alpha  occ. eigenvalues --   -1.13680  -1.13612  -1.13595  -1.13558  -1.13327
 Alpha  occ. eigenvalues --   -1.13304  -1.13252  -1.11468  -1.11445  -1.11423
 Alpha  occ. eigenvalues --   -0.18157  -0.14476  -0.10731  -0.10655
 Alpha virt. eigenvalues --   -0.07709  -0.06155  -0.03903  -0.03527  -0.02880
 Alpha virt. eigenvalues --   -0.02201  -0.01938  -0.01688  -0.01131  -0.00756
 Alpha virt. eigenvalues --   -0.00253   0.00060   0.00208   0.00416   0.00538

  Beta  occ. eigenvalues --  -38.46541 -38.44931 -38.44211 -38.44174 -38.44153
  Beta  occ. eigenvalues --  -38.43707 -38.41925  -2.22387  -2.20670  -2.20141
  Beta  occ. eigenvalues --   -2.19991  -2.19923  -2.19624  -2.17772  -1.16081
  Beta  occ. eigenvalues --   -1.16019  -1.16016  -1.14384  -1.14351  -1.14321
  Beta  occ. eigenvalues --   -1.13989  -1.13839  -1.13739  -1.13711  -1.13668
  Beta  occ. eigenvalues --   -1.13649  -1.13593  -1.13568  -1.13534  -1.13295
  Beta  occ. eigenvalues --   -1.13277  -1.13186  -1.11461  -1.11429  -1.11423
  Beta  occ. eigenvalues --   -0.17478  -0.13991  -0.10491
  Beta virt. eigenvalues --   -0.07515  -0.06969  -0.05926  -0.03835  -0.03024
  Beta virt. eigenvalues --   -0.02553  -0.02006  -0.01666  -0.01177  -0.00752
  Beta virt. eigenvalues --   -0.00556  -0.00046   0.00135   0.00233   0.00453

 Mulliken charges and spin densities:
               1          2
     1  Na  -0.063709   0.088673
     2  Na   0.127259   0.283644
     3  Na   0.136000   0.159779
     4  Na   0.411417   0.038726
     5  Na  -0.482232   0.242971
     6  Na   0.491210   0.334972
     7  Na  -0.619945  -0.148763
 Sum of Mulliken charges =  -0.00000   1.00000

 Dipole moment (field-independent basis, Debye):
    X=              0.4285    Y=             -0.9133    Z=              0.6985  Tot=              1.2271
 Quadrupole moment (field-independent basis, Debye-Ang):
   XX=            -74.8963   YY=            -74.2846   ZZ=            -59.4204
   XY=             -2.2116   XZ=              1.4197   YZ=             -7.9555

 Normal termination of Gaussian 16 at Tue Dec  5 11:19:55 2023.
