 Gaussian 16, Revision B.01,
 Gaussian 16:  ES64L-G16RevB.01 20-Dec-2017

 -------------------------
 #P B3LYP/6-311+g(d) force
 -------------------------

 -----
 DPGEN
 -----
 Symbolic Z-matrix:
 Charge =  0 Multiplicity = 2

                         Standard orientation:
 ---------------------------------------------------------------------
 Center     Atomic      Atomic             Coordinates (Angstroms)
 Number     Number       Type             X           Y           Z
 ---------------------------------------------------------------------
      1         11           0       -3.160370   -1.817189   -0.871948
      2         11           0       -4.222484    1.408890    0.583337
      3         11           0        0.747765   -1.287991   -0.382277
      4         11           0       -1.126598    1.021598   -1.507363
      5         11           0       -1.134373   -0.002202    2.082055
      6         11           0        4.208752    1.787112   -0.430540
      7         11           0        4.687308   -1.110219    0.526737
 ---------------------------------------------------------------------

 SCF Done:  E(UB3LYP) =  -1136.10371871     A.U. after   30 cycles

 The electronic state is 2-A.
 Alpha  occ. eigenvalues --  -38.45697 -38.45589 -38.44478 -38.44450 -38.43814
 Alpha  occ. eigenvalues --  -38.42307 -38.42217  -2.21543  -2.21384  -2.20272
 Alpha  occ. eigenvalues --   -2.20236  -2.19680  -2.18110  -2.18098  -1.15223
 Alpha  occ. eigenvalues --   -1.15203  -1.15166  -1.15067  -1.15019  -1.14987
 Alpha  occ. eigenvalues --   -1.14017  -1.13934  -1.13920  -1.13891  -1.13878
 Alpha  occ. eigenvalues --   -1.13815  -1.13356  -1.13313  -1.13275  -1.11801
 Alpha  occ. eigenvalues --   -1.11793  -1.11770  -1.11769  -1.11755  -1.11719
 Alpha  occ. eigenvalues --   -0.17323  -0.13842  -0.10669  -0.10533
 Alpha virt. eigenvalues --   -0.07587  -0.05973  -0.04085  -0.03227  -0.02817
 Alpha virt. eigenvalues --   -0.02362  -0.01961  -0.01764  -0.01352  -0.00807
 Alpha virt. eigenvalues --   -0.00694   0.00054   0.00174   0.00369   0.00486

  Beta  occ. eigenvalues --  -38.45679 -38.45534 -38.44479 -38.44447 -38.43709
  Beta  occ. eigenvalues --  -38.42305 -38.42213  -2.21513  -2.21284  -2.20275
  Beta  occ. eigenvalues --   -2.20231  -2.19486  -2.18110  -2.18093  -1.15188
  Beta  occ. eigenvalues --   -1.15172  -1.15150  -1.14985  -1.14955  -1.14917
  Beta  occ. eigenvalues --   -1.14017  -1.13936  -1.13921  -1.13887  -1.13875
  Beta  occ. eigenvalues --   -1.13813  -1.13224  -1.13186  -1.13129  -1.11803
  Beta  occ. eigenvalues --   -1.11796  -1.11764  -1.11747  -1.11744  -1.11708
  Beta  occ. eigenvalues --   -0.16623  -0.13733  -0.10372
  Beta virt. eigenvalues --   -0.07355  -0.06703  -0.05860  -0.04012  -0.02833
  Beta virt. eigenvalues --   -0.02322  -0.02241  -0.01459  -0.01258  -0.01060
  Beta virt. eigenvalues --   -0.00635  -0.00486   0.00086   0.00363   0.00415

 Mulliken charges and spin densities:
               1          2
     1  Na   0.513132   0.296062
     2  Na   0.039482  -0.047660
     3  Na  -0.655892   0.060394
     4  Na   0.007338   0.239788
     5  Na  -0.314496   0.466051
     6  Na  -0.051294  -0.004700
     7  Na   0.461730  -0.009936
 Sum of Mulliken charges =  -0.00000   1.00000

 Dipole moment (field-independent basis, Debye):
    X=              0.7593    Y=             -0.5350    Z=             -0.6259  Tot=              1.1200
 Quadrupole moment (field-independent basis, Debye-Ang):
   XX=            -79.9876   YY=            -55.2771   ZZ=            -73.4352
   XY=              3.3618   XZ=              2.0229   YZ=             -7.4019

 Normal termination of Gaussian 16 at Fri Dec  8 17:02:00 2023.
