 Gaussian 16, Revision B.01,
 Gaussian 16:  ES64L-G16RevB.01 20-Dec-2017

 -------------------------
 #P B3LYP/6-311+g(d) force
 -------------------------

 -----
 DPGEN
 -----
 Symbolic Z-matrix:
 Charge =  0 Multiplicity = 2

                         Standard orientation:
 ---------------------------------------------------------------------
 Center     Atomic      Atomic             Coordinates (Angstroms)
 Number     Number       Type             X           Y           Z
 ---------------------------------------------------------------------
      1         11           0        0.049639   -0.823388   -1.330463
      2         11           0       -2.195162    1.761455    0.536968
      3         11           0       -3.528110   -0.413306   -1.374570
      4         11           0        4.089558   -0.700303   -0.747617
      5         11           0        1.715781    2.162555   -0.055860
      6         11           0       -1.838190   -1.408769    1.557967
      7         11           0        1.706484   -0.578244    1.413575
 ---------------------------------------------------------------------

 SCF Done:  E(UB3LYP) =  -1136.11428339     A.U. after   30 cycles

 The electronic state is 2-A.
 Alpha  occ. eigenvalues --  -38.45198 -38.45033 -38.44413 -38.44172 -38.44129
 Alpha  occ. eigenvalues --  -38.43466 -38.42757  -2.21047  -2.20841  -2.20280
 Alpha  occ. eigenvalues --   -2.20084  -2.20057  -2.19318  -2.18611  -1.14790
 Alpha  occ. eigenvalues --   -1.14703  -1.14657  -1.14529  -1.14481  -1.14467
 Alpha  occ. eigenvalues --   -1.13948  -1.13936  -1.13894  -1.13797  -1.13743
 Alpha  occ. eigenvalues --   -1.13721  -1.13708  -1.13694  -1.13667  -1.13010
 Alpha  occ. eigenvalues --   -1.12988  -1.12937  -1.12316  -1.12296  -1.12204
 Alpha  occ. eigenvalues --   -0.18556  -0.14816  -0.11317  -0.10306
 Alpha virt. eigenvalues --   -0.07303  -0.05375  -0.05024  -0.03124  -0.03039
 Alpha virt. eigenvalues --   -0.02174  -0.01979  -0.01439  -0.00893  -0.00317
 Alpha virt. eigenvalues --   -0.00010   0.00220   0.00234   0.00579   0.00594

  Beta  occ. eigenvalues --  -38.45191 -38.45010 -38.44362 -38.44109 -38.44090
  Beta  occ. eigenvalues --  -38.43459 -38.42756  -2.21038  -2.20796  -2.20185
  Beta  occ. eigenvalues --   -2.20018  -2.19944  -2.19310  -2.18610  -1.14757
  Beta  occ. eigenvalues --   -1.14696  -1.14655  -1.14499  -1.14450  -1.14436
  Beta  occ. eigenvalues --   -1.13884  -1.13865  -1.13833  -1.13756  -1.13678
  Beta  occ. eigenvalues --   -1.13650  -1.13635  -1.13621  -1.13569  -1.12991
  Beta  occ. eigenvalues --   -1.12981  -1.12926  -1.12314  -1.12294  -1.12198
  Beta  occ. eigenvalues --   -0.17890  -0.14499  -0.10193
  Beta virt. eigenvalues --   -0.07426  -0.07059  -0.05100  -0.04563  -0.02916
  Beta virt. eigenvalues --   -0.02737  -0.01534  -0.01525  -0.01120  -0.00604
  Beta virt. eigenvalues --   -0.00219   0.00058   0.00283   0.00355   0.00632

 Mulliken charges and spin densities:
               1          2
     1  Na  -1.007728   0.179625
     2  Na  -0.678206   0.162099
     3  Na   1.055046   0.211411
     4  Na   0.729588   0.183259
     5  Na  -0.285309  -0.007838
     6  Na   0.124545   0.139474
     7  Na   0.062064   0.131970
 Sum of Mulliken charges =  -0.00000   1.00000

 Dipole moment (field-independent basis, Debye):
    X=              0.2772    Y=             -0.4163    Z=             -0.2125  Tot=              0.5434
 Quadrupole moment (field-independent basis, Debye-Ang):
   XX=            -47.6956   YY=            -81.7323   ZZ=            -66.2126
   XY=              0.6677   XZ=             -1.8049   YZ=             -2.5351

 Normal termination of Gaussian 16 at Tue Dec  5 15:11:45 2023.
