 Gaussian 16, Revision B.01,
 Gaussian 16:  ES64L-G16RevB.01 20-Dec-2017

 -------------------------
 #P B3LYP/6-311+g(d) force
 -------------------------

 -----
 DPGEN
 -----
 Symbolic Z-matrix:
 Charge =  0 Multiplicity = 2

                         Standard orientation:
 ---------------------------------------------------------------------
 Center     Atomic      Atomic             Coordinates (Angstroms)
 Number     Number       Type             X           Y           Z
 ---------------------------------------------------------------------
      1         11           0       -1.688740    3.278476   -0.518626
      2         11           0        2.889634   -1.017411   -1.574137
      3         11           0        0.230213   -2.315710    0.336064
      4         11           0        0.359606    1.071240   -1.082464
      5         11           0       -3.162477   -1.680926   -0.602256
      6         11           0       -1.147789   -0.445723    1.797136
      7         11           0        2.519553    1.110054    1.644283
 ---------------------------------------------------------------------

 SCF Done:  E(UB3LYP) =  -1136.11890081     A.U. after   21 cycles

 The electronic state is 2-A.
 Alpha  occ. eigenvalues --  -38.44978 -38.44973 -38.44256 -38.43900 -38.43699
 Alpha  occ. eigenvalues --  -38.43060 -38.42586  -2.20768  -2.20754  -2.20200
 Alpha  occ. eigenvalues --   -2.19824  -2.19539  -2.18860  -2.18541  -1.14432
 Alpha  occ. eigenvalues --   -1.14424  -1.14417  -1.14405  -1.14385  -1.14384
 Alpha  occ. eigenvalues --   -1.14126  -1.13817  -1.13772  -1.13483  -1.13478
 Alpha  occ. eigenvalues --   -1.13370  -1.13214  -1.13184  -1.13152  -1.12581
 Alpha  occ. eigenvalues --   -1.12503  -1.12497  -1.12233  -1.12202  -1.12152
 Alpha  occ. eigenvalues --   -0.18103  -0.13052  -0.11796  -0.11092
 Alpha virt. eigenvalues --   -0.06342  -0.04962  -0.04530  -0.03417  -0.02738
 Alpha virt. eigenvalues --   -0.02365  -0.02085  -0.01178  -0.00732   0.00060
 Alpha virt. eigenvalues --    0.00084   0.00206   0.00416   0.00667   0.00684

  Beta  occ. eigenvalues --  -38.44967 -38.44919 -38.44211 -38.43888 -38.43654
  Beta  occ. eigenvalues --  -38.43058 -38.42565  -2.20744  -2.20659  -2.20119
  Beta  occ. eigenvalues --   -2.19807  -2.19455  -2.18858  -2.18503  -1.14422
  Beta  occ. eigenvalues --   -1.14397  -1.14378  -1.14352  -1.14328  -1.14313
  Beta  occ. eigenvalues --   -1.14078  -1.13760  -1.13696  -1.13471  -1.13426
  Beta  occ. eigenvalues --   -1.13363  -1.13150  -1.13125  -1.13100  -1.12575
  Beta  occ. eigenvalues --   -1.12499  -1.12496  -1.12200  -1.12164  -1.12127
  Beta  occ. eigenvalues --   -0.17418  -0.12832  -0.11579
  Beta virt. eigenvalues --   -0.07318  -0.06028  -0.04784  -0.04156  -0.03177
  Beta virt. eigenvalues --   -0.02163  -0.01883  -0.01634  -0.01015  -0.00430
  Beta virt. eigenvalues --    0.00085   0.00189   0.00291   0.00497   0.00714

 Mulliken charges and spin densities:
               1          2
     1  Na   0.292634   0.021113
     2  Na   1.119300  -0.037130
     3  Na  -0.216735   0.113124
     4  Na  -1.597413   0.297193
     5  Na   0.069814  -0.027340
     6  Na   0.458882   0.348946
     7  Na  -0.126481   0.284095
 Sum of Mulliken charges =  -0.00000   1.00000

 Dipole moment (field-independent basis, Debye):
    X=             -0.2252    Y=             -0.7044    Z=              0.2868  Tot=              0.7932
 Quadrupole moment (field-independent basis, Debye-Ang):
   XX=            -53.9438   YY=            -69.5264   ZZ=            -69.0979
   XY=              2.7647   XZ=              2.8390   YZ=              4.9263

 Normal termination of Gaussian 16 at Tue Dec  5 09:46:21 2023.
