 Gaussian 16, Revision B.01,
 Gaussian 16:  ES64L-G16RevB.01 20-Dec-2017

 -------------------------
 #P B3LYP/6-311+g(d) force
 -------------------------

 -----
 DPGEN
 -----
 Symbolic Z-matrix:
 Charge =  0 Multiplicity = 2

                         Standard orientation:
 ---------------------------------------------------------------------
 Center     Atomic      Atomic             Coordinates (Angstroms)
 Number     Number       Type             X           Y           Z
 ---------------------------------------------------------------------
      1         11           0        3.340998    0.206490   -1.124523
      2         11           0       -0.076910   -0.725277   -1.300520
      3         11           0        2.473920   -2.118425    0.784268
      4         11           0        1.196188    1.884252    0.704297
      5         11           0       -3.984336   -1.618016   -0.620519
      6         11           0       -1.751838    2.464724   -0.482608
      7         11           0       -1.198021   -0.093749    2.039605
 ---------------------------------------------------------------------

 SCF Done:  E(UB3LYP) =  -1136.12105255     A.U. after   23 cycles

 The electronic state is 2-A.
 Alpha  occ. eigenvalues --  -38.44419 -38.44376 -38.44294 -38.44190 -38.44080
 Alpha  occ. eigenvalues --  -38.44021 -38.42872  -2.20260  -2.20246  -2.20153
 Alpha  occ. eigenvalues --   -2.20012  -2.19873  -2.19811  -2.18798  -1.13997
 Alpha  occ. eigenvalues --   -1.13926  -1.13924  -1.13901  -1.13887  -1.13867
 Alpha  occ. eigenvalues --   -1.13824  -1.13815  -1.13750  -1.13689  -1.13671
 Alpha  occ. eigenvalues --   -1.13646  -1.13561  -1.13496  -1.13488  -1.13483
 Alpha  occ. eigenvalues --   -1.13482  -1.13433  -1.12484  -1.12468  -1.12429
 Alpha  occ. eigenvalues --   -0.18256  -0.13613  -0.11311  -0.10747
 Alpha virt. eigenvalues --   -0.06544  -0.05844  -0.04616  -0.03082  -0.02737
 Alpha virt. eigenvalues --   -0.02355  -0.02164  -0.01427  -0.00812  -0.00400
 Alpha virt. eigenvalues --    0.00108   0.00160   0.00352   0.00535   0.00688

  Beta  occ. eigenvalues --  -38.44397 -38.44353 -38.44268 -38.44185 -38.44072
  Beta  occ. eigenvalues --  -38.43949 -38.42857  -2.20217  -2.20206  -2.20107
  Beta  occ. eigenvalues --   -2.20003  -2.19796  -2.19740  -2.18777  -1.13970
  Beta  occ. eigenvalues --   -1.13895  -1.13894  -1.13865  -1.13849  -1.13827
  Beta  occ. eigenvalues --   -1.13786  -1.13779  -1.13718  -1.13678  -1.13657
  Beta  occ. eigenvalues --   -1.13640  -1.13474  -1.13471  -1.13470  -1.13425
  Beta  occ. eigenvalues --   -1.13403  -1.13385  -1.12475  -1.12426  -1.12403
  Beta  occ. eigenvalues --   -0.17551  -0.13420  -0.11111
  Beta virt. eigenvalues --   -0.07077  -0.06294  -0.05622  -0.04139  -0.02914
  Beta virt. eigenvalues --   -0.02305  -0.01980  -0.01542  -0.01261  -0.00525
  Beta virt. eigenvalues --   -0.00239   0.00165   0.00189   0.00464   0.00627

 Mulliken charges and spin densities:
               1          2
     1  Na   1.086385  -0.123887
     2  Na  -0.912771   0.284075
     3  Na  -0.171852   0.211539
     4  Na  -0.074094   0.336197
     5  Na  -0.015053   0.060786
     6  Na   0.141119  -0.093880
     7  Na  -0.053735   0.325170
 Sum of Mulliken charges =  -0.00000   1.00000

 Dipole moment (field-independent basis, Debye):
    X=              0.5236    Y=              0.2406    Z=              0.0303  Tot=              0.5770
 Quadrupole moment (field-independent basis, Debye-Ang):
   XX=            -54.2029   YY=            -70.4459   ZZ=            -70.3868
   XY=             -3.7844   XZ=             -0.6464   YZ=             -2.7549

 Normal termination of Gaussian 16 at Fri Dec  8 07:21:54 2023.
