 Gaussian 16, Revision B.01,
 Gaussian 16:  ES64L-G16RevB.01 20-Dec-2017

 -------------------------
 #P B3LYP/6-311+g(d) force
 -------------------------

 -----
 DPGEN
 -----
 Symbolic Z-matrix:
 Charge =  0 Multiplicity = 2

                         Standard orientation:
 ---------------------------------------------------------------------
 Center     Atomic      Atomic             Coordinates (Angstroms)
 Number     Number       Type             X           Y           Z
 ---------------------------------------------------------------------
      1         11           0        2.109375   -1.520967   -0.876692
      2         11           0        1.162668    1.799906   -1.321977
      3         11           0       -2.158556    1.998988   -0.222212
      4         11           0       -0.920411   -1.606158   -1.249374
      5         11           0       -3.517995   -1.080992    0.951920
      6         11           0        3.550890    0.064007    1.514434
      7         11           0       -0.225971    0.345217    1.203901
 ---------------------------------------------------------------------

 SCF Done:  E(UB3LYP) =  -1136.12340771     A.U. after   21 cycles

 The electronic state is 2-A.
 Alpha  occ. eigenvalues --  -38.44649 -38.44130 -38.44122 -38.43405 -38.43391
 Alpha  occ. eigenvalues --  -38.43339 -38.43230  -2.20483  -2.20140  -2.19951
 Alpha  occ. eigenvalues --   -2.19321  -2.19300  -2.19219  -2.19160  -1.14139
 Alpha  occ. eigenvalues --   -1.14126  -1.14095  -1.13893  -1.13829  -1.13749
 Alpha  occ. eigenvalues --   -1.13621  -1.13594  -1.13582  -1.13084  -1.13010
 Alpha  occ. eigenvalues --   -1.12975  -1.12964  -1.12961  -1.12907  -1.12887
 Alpha  occ. eigenvalues --   -1.12872  -1.12845  -1.12820  -1.12785  -1.12757
 Alpha  occ. eigenvalues --   -0.18793  -0.14257  -0.11461  -0.11178
 Alpha virt. eigenvalues --   -0.06267  -0.05090  -0.04775  -0.03205  -0.02585
 Alpha virt. eigenvalues --   -0.02408  -0.02156  -0.01021  -0.00766  -0.00038
 Alpha virt. eigenvalues --    0.00143   0.00402   0.00483   0.00528   0.00764

  Beta  occ. eigenvalues --  -38.44572 -38.44117 -38.44100 -38.43406 -38.43367
  Beta  occ. eigenvalues --  -38.43310 -38.43186  -2.20339  -2.20118  -2.19910
  Beta  occ. eigenvalues --   -2.19305  -2.19287  -2.19167  -2.19084  -1.14044
  Beta  occ. eigenvalues --   -1.14025  -1.14000  -1.13858  -1.13818  -1.13734
  Beta  occ. eigenvalues --   -1.13593  -1.13566  -1.13555  -1.13029  -1.13013
  Beta  occ. eigenvalues --   -1.12957  -1.12951  -1.12922  -1.12892  -1.12863
  Beta  occ. eigenvalues --   -1.12816  -1.12800  -1.12792  -1.12734  -1.12679
  Beta  occ. eigenvalues --   -0.18149  -0.13761  -0.11065
  Beta virt. eigenvalues --   -0.07648  -0.05996  -0.04971  -0.04152  -0.03016
  Beta virt. eigenvalues --   -0.02215  -0.01974  -0.01472  -0.00894  -0.00462
  Beta virt. eigenvalues --    0.00093   0.00221   0.00486   0.00524   0.00686

 Mulliken charges and spin densities:
               1          2
     1  Na   0.235699   0.106916
     2  Na  -0.097198   0.224746
     3  Na   0.177693   0.050565
     4  Na  -0.349089   0.158271
     5  Na   0.587911   0.106586
     6  Na   0.266650   0.344851
     7  Na  -0.821664   0.008065
 Sum of Mulliken charges =  -0.00000   1.00000

 Dipole moment (field-independent basis, Debye):
    X=             -0.1205    Y=              0.3385    Z=              0.1179  Tot=              0.3781
 Quadrupole moment (field-independent basis, Debye-Ang):
   XX=            -51.7294   YY=            -76.6554   ZZ=            -66.3944
   XY=              0.6070   XZ=             -0.8299   YZ=             -1.3661

 Normal termination of Gaussian 16 at Fri Dec  8 03:45:40 2023.
