 Gaussian 16, Revision B.01,
 Gaussian 16:  ES64L-G16RevB.01 20-Dec-2017

 -------------------------
 #P B3LYP/6-311+g(d) force
 -------------------------

 -----
 DPGEN
 -----
 Symbolic Z-matrix:
 Charge =  0 Multiplicity = 2

                         Standard orientation:
 ---------------------------------------------------------------------
 Center     Atomic      Atomic             Coordinates (Angstroms)
 Number     Number       Type             X           Y           Z
 ---------------------------------------------------------------------
      1         11           0        3.113082   -2.677954    0.179104
      2         11           0       -4.815628    0.282520   -0.244800
      3         11           0        1.797504    3.231068   -0.051456
      4         11           0        4.550862    1.297313    0.158068
      5         11           0       -2.982716   -1.767968    0.799551
      6         11           0        0.373594   -3.332063   -0.701254
      7         11           0       -2.036698    2.967084   -0.139212
 ---------------------------------------------------------------------

 SCF Done:  E(UB3LYP) =  -1136.10478948     A.U. after   21 cycles

 The electronic state is 2-A.
 Alpha  occ. eigenvalues --  -38.45255 -38.44950 -38.44916 -38.44643 -38.44260
 Alpha  occ. eigenvalues --  -38.44061 -38.43875  -2.21073  -2.20748  -2.20742
 Alpha  occ. eigenvalues --   -2.20420  -2.20008  -2.19882  -2.19669  -1.14815
 Alpha  occ. eigenvalues --   -1.14720  -1.14708  -1.14468  -1.14403  -1.14388
 Alpha  occ. eigenvalues --   -1.14384  -1.14380  -1.14366  -1.14078  -1.14067
 Alpha  occ. eigenvalues --   -1.14020  -1.13701  -1.13694  -1.13655  -1.13549
 Alpha  occ. eigenvalues --   -1.13523  -1.13517  -1.13319  -1.13305  -1.13296
 Alpha  occ. eigenvalues --   -0.15619  -0.13992  -0.13250  -0.10930
 Alpha virt. eigenvalues --   -0.07502  -0.04865  -0.04671  -0.03554  -0.03334
 Alpha virt. eigenvalues --   -0.02764  -0.02149  -0.02123  -0.01072  -0.00716
 Alpha virt. eigenvalues --   -0.00522  -0.00299   0.00004   0.00296   0.00561

  Beta  occ. eigenvalues --  -38.45222 -38.44943 -38.44905 -38.44548 -38.44273
  Beta  occ. eigenvalues --  -38.44044 -38.43807  -2.21014  -2.20738  -2.20725
  Beta  occ. eigenvalues --   -2.20244  -2.20037  -2.19852  -2.19542  -1.14771
  Beta  occ. eigenvalues --   -1.14682  -1.14664  -1.14451  -1.14399  -1.14379
  Beta  occ. eigenvalues --   -1.14367  -1.14363  -1.14341  -1.13959  -1.13949
  Beta  occ. eigenvalues --   -1.13900  -1.13727  -1.13720  -1.13630  -1.13525
  Beta  occ. eigenvalues --   -1.13504  -1.13496  -1.13232  -1.13220  -1.13216
  Beta  occ. eigenvalues --   -0.15138  -0.13475  -0.12508
  Beta virt. eigenvalues --   -0.07647  -0.07513  -0.04630  -0.04153  -0.03267
  Beta virt. eigenvalues --   -0.02880  -0.02629  -0.02019  -0.01889  -0.00973
  Beta virt. eigenvalues --   -0.00312  -0.00139  -0.00115   0.00117   0.00354

 Mulliken charges and spin densities:
               1          2
     1  Na   0.145222   0.052616
     2  Na   0.422432   0.059202
     3  Na   0.011553  -0.113886
     4  Na   0.152806   0.315961
     5  Na  -0.386640   0.193960
     6  Na  -0.255371   0.031392
     7  Na  -0.090002   0.460756
 Sum of Mulliken charges =  -0.00000   1.00000

 Dipole moment (field-independent basis, Debye):
    X=             -1.2858    Y=             -0.8308    Z=              0.0557  Tot=              1.5318
 Quadrupole moment (field-independent basis, Debye-Ang):
   XX=            -55.6514   YY=            -72.5726   ZZ=            -72.6649
   XY=             -5.6394   XZ=              3.0961   YZ=             -1.4603

 Normal termination of Gaussian 16 at Mon Dec  4 05:17:20 2023.
