 Gaussian 16, Revision B.01,
 Gaussian 16:  ES64L-G16RevB.01 20-Dec-2017

 -------------------------
 #P B3LYP/6-311+g(d) force
 -------------------------

 -----
 DPGEN
 -----
 Symbolic Z-matrix:
 Charge =  0 Multiplicity = 2

                         Standard orientation:
 ---------------------------------------------------------------------
 Center     Atomic      Atomic             Coordinates (Angstroms)
 Number     Number       Type             X           Y           Z
 ---------------------------------------------------------------------
      1         11           0        0.066095    1.648695    0.327403
      2         11           0        2.353945    3.774020    0.067749
      3         11           0        2.915916    0.227202   -0.970316
      4         11           0        0.559652   -1.462156    1.504108
      5         11           0       -2.265679   -1.030726    0.560171
      6         11           0        2.784422   -3.415959   -0.704016
      7         11           0       -6.414352    0.258925   -0.785100
 ---------------------------------------------------------------------

 SCF Done:  E(UB3LYP) =  -1136.11641134     A.U. after   21 cycles

 The electronic state is 2-A.
 Alpha  occ. eigenvalues --  -38.45544 -38.44273 -38.44090 -38.44032 -38.43711
 Alpha  occ. eigenvalues --  -38.43536 -38.43515  -2.21323  -2.20081  -2.19929
 Alpha  occ. eigenvalues --   -2.19905  -2.19617  -2.19348  -2.19311  -1.14944
 Alpha  occ. eigenvalues --   -1.14944  -1.14924  -1.13802  -1.13784  -1.13650
 Alpha  occ. eigenvalues --   -1.13646  -1.13626  -1.13601  -1.13562  -1.13532
 Alpha  occ. eigenvalues --   -1.13526  -1.13320  -1.13312  -1.13187  -1.13018
 Alpha  occ. eigenvalues --   -1.13008  -1.12984  -1.12981  -1.12974  -1.12935
 Alpha  occ. eigenvalues --   -0.16974  -0.13323  -0.12545  -0.11495
 Alpha virt. eigenvalues --   -0.05934  -0.05411  -0.04994  -0.03550  -0.02515
 Alpha virt. eigenvalues --   -0.02245  -0.02104  -0.01855  -0.01533  -0.01007
 Alpha virt. eigenvalues --   -0.00472  -0.00131   0.00284   0.00386   0.00534

  Beta  occ. eigenvalues --  -38.45382 -38.44265 -38.44089 -38.44014 -38.43704
  Beta  occ. eigenvalues --  -38.43525 -38.43520  -2.21020  -2.20066  -2.19903
  Beta  occ. eigenvalues --   -2.19896  -2.19605  -2.19363  -2.19290  -1.14739
  Beta  occ. eigenvalues --   -1.14739  -1.14719  -1.13791  -1.13775  -1.13637
  Beta  occ. eigenvalues --   -1.13627  -1.13605  -1.13595  -1.13560  -1.13529
  Beta  occ. eigenvalues --   -1.13499  -1.13312  -1.13305  -1.13174  -1.13027
  Beta  occ. eigenvalues --   -1.13018  -1.12973  -1.12967  -1.12959  -1.12922
  Beta  occ. eigenvalues --   -0.16781  -0.12791  -0.11861
  Beta virt. eigenvalues --   -0.07531  -0.05888  -0.05039  -0.04850  -0.03365
  Beta virt. eigenvalues --   -0.02196  -0.01993  -0.01738  -0.01386  -0.00906
  Beta virt. eigenvalues --   -0.00540  -0.00099  -0.00011   0.00407   0.00483

 Mulliken charges and spin densities:
               1          2
     1  Na  -1.567784  -0.044451
     2  Na   1.072344   0.025106
     3  Na  -0.308196   0.089945
     4  Na   0.898413   0.180388
     5  Na  -0.251883  -0.049143
     6  Na   0.178391   0.042262
     7  Na  -0.021284   0.755893
 Sum of Mulliken charges =  -0.00000   1.00000

 Dipole moment (field-independent basis, Debye):
    X=              0.3769    Y=              0.6059    Z=             -0.0368  Tot=              0.7145
 Quadrupole moment (field-independent basis, Debye-Ang):
   XX=            -68.3132   YY=            -59.7861   ZZ=            -70.2046
   XY=              3.4314   XZ=              1.2963   YZ=              0.2108

 Normal termination of Gaussian 16 at Tue Nov 28 18:59:56 2023.
