 Gaussian 16, Revision B.01,
 Gaussian 16:  ES64L-G16RevB.01 20-Dec-2017

 -------------------------
 #P B3LYP/6-311+g(d) force
 -------------------------

 -----
 DPGEN
 -----
 Symbolic Z-matrix:
 Charge =  0 Multiplicity = 2

                         Standard orientation:
 ---------------------------------------------------------------------
 Center     Atomic      Atomic             Coordinates (Angstroms)
 Number     Number       Type             X           Y           Z
 ---------------------------------------------------------------------
      1         11           0        0.879670    2.689484   -0.292403
      2         11           0       -2.513731   -1.712744   -0.142153
      3         11           0        1.206350   -2.411905   -0.155927
      4         11           0       -0.177662   -0.209960    1.893098
      5         11           0       -0.167265   -0.036551   -1.861552
      6         11           0        3.338559    0.086375    0.262027
      7         11           0       -2.565920    1.595302    0.296910
 ---------------------------------------------------------------------

 SCF Done:  E(UB3LYP) =  -1136.13777763     A.U. after   19 cycles

 The electronic state is 2-A.
 Alpha  occ. eigenvalues --  -38.44381 -38.43779 -38.43721 -38.43654 -38.43404
 Alpha  occ. eigenvalues --  -38.43113 -38.43047  -2.20188  -2.19639  -2.19591
 Alpha  occ. eigenvalues --   -2.19582  -2.19364  -2.19010  -2.18886  -1.13859
 Alpha  occ. eigenvalues --   -1.13850  -1.13831  -1.13352  -1.13321  -1.13281
 Alpha  occ. eigenvalues --   -1.13276  -1.13268  -1.13241  -1.13210  -1.13208
 Alpha  occ. eigenvalues --   -1.13183  -1.13044  -1.13006  -1.12983  -1.12695
 Alpha  occ. eigenvalues --   -1.12681  -1.12622  -1.12576  -1.12548  -1.12511
 Alpha  occ. eigenvalues --   -0.18839  -0.13273  -0.12183  -0.10950
 Alpha virt. eigenvalues --   -0.05905  -0.05128  -0.04230  -0.03370  -0.02825
 Alpha virt. eigenvalues --   -0.02675  -0.01724  -0.01024  -0.00282  -0.00109
 Alpha virt. eigenvalues --   -0.00019   0.00352   0.00774   0.00899   0.00916

  Beta  occ. eigenvalues --  -38.44380 -38.43771 -38.43714 -38.43576 -38.43317
  Beta  occ. eigenvalues --  -38.43104 -38.43041  -2.20188  -2.19628  -2.19584
  Beta  occ. eigenvalues --   -2.19439  -2.19207  -2.18999  -2.18879  -1.13859
  Beta  occ. eigenvalues --   -1.13840  -1.13831  -1.13340  -1.13296  -1.13264
  Beta  occ. eigenvalues --   -1.13254  -1.13234  -1.13201  -1.13162  -1.13113
  Beta  occ. eigenvalues --   -1.13085  -1.12942  -1.12893  -1.12872  -1.12687
  Beta  occ. eigenvalues --   -1.12644  -1.12613  -1.12562  -1.12529  -1.12510
  Beta  occ. eigenvalues --   -0.18087  -0.13039  -0.11916
  Beta virt. eigenvalues --   -0.07030  -0.05830  -0.05141  -0.04208  -0.02586
  Beta virt. eigenvalues --   -0.02041  -0.01627  -0.01608  -0.00968  -0.00308
  Beta virt. eigenvalues --   -0.00153   0.00104   0.00372   0.00838   0.00895

 Mulliken charges and spin densities:
               1          2
     1  Na   0.027453  -0.092776
     2  Na   0.330983  -0.079752
     3  Na   0.249669  -0.085776
     4  Na  -0.391172   0.660857
     5  Na  -0.245079   0.676692
     6  Na  -0.079348  -0.050941
     7  Na   0.107494  -0.028304
 Sum of Mulliken charges =  -0.00000   1.00000

 Dipole moment (field-independent basis, Debye):
    X=              0.0308    Y=             -0.0335    Z=              0.1420  Tot=              0.1491
 Quadrupole moment (field-independent basis, Debye-Ang):
   XX=            -53.8398   YY=            -66.5352   ZZ=            -73.2544
   XY=              0.4773   XZ=              0.4047   YZ=              0.6298

 Normal termination of Gaussian 16 at Thu Dec  7 11:45:54 2023.
