 Gaussian 16, Revision B.01,
 Gaussian 16:  ES64L-G16RevB.01 20-Dec-2017

 -------------------------
 #P B3LYP/6-311+g(d) force
 -------------------------

 -----
 DPGEN
 -----
 Symbolic Z-matrix:
 Charge =  0 Multiplicity = 2

                         Standard orientation:
 ---------------------------------------------------------------------
 Center     Atomic      Atomic             Coordinates (Angstroms)
 Number     Number       Type             X           Y           Z
 ---------------------------------------------------------------------
      1         11           0       -0.324862   -0.397068    1.615189
      2         11           0       -0.326349   -0.558993   -1.597457
      3         11           0        1.570348   -1.856259    0.043552
      4         11           0        3.255643    0.567790   -0.070780
      5         11           0        0.665967    1.777789    0.074563
      6         11           0       -2.663164   -1.209797    0.053378
      7         11           0       -2.177584    1.676538   -0.118445
 ---------------------------------------------------------------------

 SCF Done:  E(UB3LYP) =  -1136.09225936     A.U. after   20 cycles

 The electronic state is 2-A.
 Alpha  occ. eigenvalues --  -38.45364 -38.44663 -38.43675 -38.43640 -38.43599
 Alpha  occ. eigenvalues --  -38.43591 -38.42954  -2.21278  -2.20670  -2.19865
 Alpha  occ. eigenvalues --   -2.19755  -2.19676  -2.19643  -2.19090  -1.15000
 Alpha  occ. eigenvalues --   -1.14959  -1.14892  -1.14434  -1.14354  -1.14298
 Alpha  occ. eigenvalues --   -1.13741  -1.13608  -1.13568  -1.13485  -1.13439
 Alpha  occ. eigenvalues --   -1.13399  -1.13350  -1.13313  -1.13278  -1.13229
 Alpha  occ. eigenvalues --   -1.13211  -1.13163  -1.12752  -1.12696  -1.12694
 Alpha  occ. eigenvalues --   -0.20779  -0.14689  -0.11947  -0.11244
 Alpha virt. eigenvalues --   -0.06669  -0.04927  -0.03840  -0.03445  -0.02324
 Alpha virt. eigenvalues --   -0.02305  -0.02097  -0.00811  -0.00035   0.00123
 Alpha virt. eigenvalues --    0.00279   0.00436   0.00825   0.00906   0.00930

  Beta  occ. eigenvalues --  -38.45368 -38.44648 -38.43629 -38.43589 -38.43586
  Beta  occ. eigenvalues --  -38.43514 -38.42933  -2.21287  -2.20648  -2.19712
  Beta  occ. eigenvalues --   -2.19663  -2.19639  -2.19602  -2.19060  -1.15009
  Beta  occ. eigenvalues --   -1.14969  -1.14878  -1.14423  -1.14290  -1.14288
  Beta  occ. eigenvalues --   -1.13671  -1.13537  -1.13475  -1.13413  -1.13368
  Beta  occ. eigenvalues --   -1.13329  -1.13296  -1.13256  -1.13220  -1.13211
  Beta  occ. eigenvalues --   -1.13148  -1.13099  -1.12735  -1.12684  -1.12610
  Beta  occ. eigenvalues --   -0.19994  -0.14372  -0.11656
  Beta virt. eigenvalues --   -0.07133  -0.06612  -0.04939  -0.03391  -0.02914
  Beta virt. eigenvalues --   -0.02229  -0.01533  -0.01077  -0.00784   0.00096
  Beta virt. eigenvalues --    0.00148   0.00301   0.00420   0.00849   0.00929

 Mulliken charges and spin densities:
               1          2
     1  Na  -0.224578   0.311255
     2  Na  -0.308830   0.345310
     3  Na   0.216311   0.115042
     4  Na  -0.287877  -0.052827
     5  Na  -0.034608   0.152633
     6  Na   0.567934   0.085414
     7  Na   0.071648   0.043174
 Sum of Mulliken charges =  -0.00000   1.00000

 Dipole moment (field-independent basis, Debye):
    X=              0.2971    Y=             -0.2116    Z=             -0.0770  Tot=              0.3728
 Quadrupole moment (field-independent basis, Debye-Ang):
   XX=            -46.7737   YY=            -73.4891   ZZ=            -73.2779
   XY=              0.3604   XZ=             -0.1628   YZ=             -0.4963

 Normal termination of Gaussian 16 at Fri Dec  8 18:19:52 2023.
