 Gaussian 16, Revision B.01,
 Gaussian 16:  ES64L-G16RevB.01 20-Dec-2017

 -------------------------
 #P B3LYP/6-311+g(d) force
 -------------------------

 -----
 DPGEN
 -----
 Symbolic Z-matrix:
 Charge =  0 Multiplicity = 2

                         Standard orientation:
 ---------------------------------------------------------------------
 Center     Atomic      Atomic             Coordinates (Angstroms)
 Number     Number       Type             X           Y           Z
 ---------------------------------------------------------------------
      1         11           0       -2.537985   -1.153791    0.458753
      2         11           0       -5.358218    0.274136   -0.236161
      3         11           0        3.973237   -1.359088   -0.254167
      4         11           0        0.686457   -0.248359    2.136587
      5         11           0       -0.347536    1.731990   -0.833269
      6         11           0        2.735310    2.158453    0.122909
      7         11           0        0.848736   -1.403341   -1.394651
 ---------------------------------------------------------------------

 SCF Done:  E(UB3LYP) =  -1136.10785823     A.U. after   27 cycles

 The electronic state is 2-A.
 Alpha  occ. eigenvalues --  -38.46758 -38.44876 -38.44547 -38.43988 -38.43511
 Alpha  occ. eigenvalues --  -38.43367 -38.43094  -2.22554  -2.20711  -2.20359
 Alpha  occ. eigenvalues --   -2.19835  -2.19345  -2.19211  -2.18913  -1.16215
 Alpha  occ. eigenvalues --   -1.16200  -1.16176  -1.14404  -1.14366  -1.14338
 Alpha  occ. eigenvalues --   -1.14000  -1.13989  -1.13981  -1.13559  -1.13484
 Alpha  occ. eigenvalues --   -1.13451  -1.13038  -1.13011  -1.13001  -1.12892
 Alpha  occ. eigenvalues --   -1.12860  -1.12830  -1.12580  -1.12561  -1.12549
 Alpha  occ. eigenvalues --   -0.17958  -0.13967  -0.11223  -0.10891
 Alpha virt. eigenvalues --   -0.08279  -0.04924  -0.04353  -0.03356  -0.03085
 Alpha virt. eigenvalues --   -0.02316  -0.02247  -0.02039  -0.01359  -0.01080
 Alpha virt. eigenvalues --   -0.00193   0.00116   0.00167   0.00608   0.00678

  Beta  occ. eigenvalues --  -38.46712 -38.44868 -38.44450 -38.43998 -38.43505
  Beta  occ. eigenvalues --  -38.43335 -38.43064  -2.22472  -2.20699  -2.20177
  Beta  occ. eigenvalues --   -2.19855  -2.19343  -2.19153  -2.18857  -1.16148
  Beta  occ. eigenvalues --   -1.16141  -1.16118  -1.14403  -1.14360  -1.14309
  Beta  occ. eigenvalues --   -1.13879  -1.13866  -1.13860  -1.13574  -1.13492
  Beta  occ. eigenvalues --   -1.13464  -1.13046  -1.13020  -1.12932  -1.12853
  Beta  occ. eigenvalues --   -1.12825  -1.12781  -1.12541  -1.12523  -1.12510
  Beta  occ. eigenvalues --   -0.17470  -0.13077  -0.10762
  Beta virt. eigenvalues --   -0.08068  -0.07747  -0.04471  -0.03976  -0.03151
  Beta virt. eigenvalues --   -0.02923  -0.02182  -0.02032  -0.01435  -0.00905
  Beta virt. eigenvalues --   -0.00724  -0.00034   0.00189   0.00270   0.00668

 Mulliken charges and spin densities:
               1          2
     1  Na  -0.175515   0.192853
     2  Na   0.147348   0.410980
     3  Na  -0.115361   0.142237
     4  Na   0.070370   0.050567
     5  Na  -0.301300  -0.151385
     6  Na   0.218029   0.345843
     7  Na   0.156430   0.008905
 Sum of Mulliken charges =  -0.00000   1.00000

 Dipole moment (field-independent basis, Debye):
    X=             -0.1327    Y=              0.3081    Z=              1.1549  Tot=              1.2026
 Quadrupole moment (field-independent basis, Debye-Ang):
   XX=            -66.3810   YY=            -81.4248   ZZ=            -58.7574
   XY=              0.5606   XZ=              5.3886   YZ=             -2.3227

 Normal termination of Gaussian 16 at Thu Dec  7 14:32:29 2023.
