 Gaussian 16, Revision B.01,
 Gaussian 16:  ES64L-G16RevB.01 20-Dec-2017

 -------------------------
 #P B3LYP/6-311+g(d) force
 -------------------------

 -----
 DPGEN
 -----
 Symbolic Z-matrix:
 Charge =  0 Multiplicity = 2

                         Standard orientation:
 ---------------------------------------------------------------------
 Center     Atomic      Atomic             Coordinates (Angstroms)
 Number     Number       Type             X           Y           Z
 ---------------------------------------------------------------------
      1         11           0        1.098091    0.253880   -1.941629
      2         11           0        2.355088    0.617090    0.467271
      3         11           0       -3.885655   -0.257459   -0.064629
      4         11           0       -1.063703   -0.529937   -0.445329
      5         11           0        1.402309   -2.157918   -0.054229
      6         11           0        0.199094   -0.170327    1.963171
      7         11           0       -0.105224    2.244671    0.075371
 ---------------------------------------------------------------------

 SCF Done:  E(UB3LYP) =  -1136.07783005     A.U. after   25 cycles

 The electronic state is 2-A.
 Alpha  occ. eigenvalues --  -38.45112 -38.44986 -38.44787 -38.44385 -38.43297
 Alpha  occ. eigenvalues --  -38.42572 -38.42498  -2.21145  -2.20954  -2.20915
 Alpha  occ. eigenvalues --   -2.20583  -2.19590  -2.18640  -2.18563  -1.14992
 Alpha  occ. eigenvalues --   -1.14898  -1.14802  -1.14744  -1.14688  -1.14649
 Alpha  occ. eigenvalues --   -1.14549  -1.14538  -1.14479  -1.14207  -1.14151
 Alpha  occ. eigenvalues --   -1.14131  -1.13288  -1.13262  -1.13161  -1.12348
 Alpha  occ. eigenvalues --   -1.12296  -1.12276  -1.12264  -1.12213  -1.12147
 Alpha  occ. eigenvalues --   -0.21112  -0.13371  -0.12575  -0.12041
 Alpha virt. eigenvalues --   -0.06592  -0.03798  -0.03510  -0.03379  -0.02910
 Alpha virt. eigenvalues --   -0.02861  -0.01947  -0.00481  -0.00366   0.00179
 Alpha virt. eigenvalues --    0.00445   0.00516   0.00598   0.00898   0.01106

  Beta  occ. eigenvalues --  -38.45125 -38.44882 -38.44688 -38.44354 -38.43266
  Beta  occ. eigenvalues --  -38.42561 -38.42486  -2.20958  -2.20939  -2.20776
  Beta  occ. eigenvalues --   -2.20534  -2.19542  -2.18626  -2.18549  -1.14882
  Beta  occ. eigenvalues --   -1.14757  -1.14705  -1.14679  -1.14593  -1.14562
  Beta  occ. eigenvalues --   -1.14555  -1.14550  -1.14349  -1.14142  -1.14111
  Beta  occ. eigenvalues --   -1.14057  -1.13261  -1.13166  -1.13136  -1.12346
  Beta  occ. eigenvalues --   -1.12293  -1.12260  -1.12211  -1.12154  -1.12142
  Beta  occ. eigenvalues --   -0.20195  -0.13215  -0.11685
  Beta virt. eigenvalues --   -0.08231  -0.06429  -0.03622  -0.03113  -0.02815
  Beta virt. eigenvalues --   -0.02229  -0.01992  -0.01817  -0.00445  -0.00123
  Beta virt. eigenvalues --    0.00217   0.00461   0.00577   0.00745   0.00935

 Mulliken charges and spin densities:
               1          2
     1  Na  -0.525443   0.102602
     2  Na   0.693386   0.244395
     3  Na   0.583744  -0.066772
     4  Na   0.603750   0.461472
     5  Na  -0.622216  -0.070915
     6  Na  -0.433813   0.397644
     7  Na  -0.299408  -0.068425
 Sum of Mulliken charges =  -0.00000   1.00000

 Dipole moment (field-independent basis, Debye):
    X=             -0.5387    Y=              0.2079    Z=              0.1052  Tot=              0.5869
 Quadrupole moment (field-independent basis, Debye-Ang):
   XX=            -53.8106   YY=            -73.6114   ZZ=            -65.7106
   XY=             -1.1136   XZ=             -0.7051   YZ=              0.3549

 Normal termination of Gaussian 16 at Fri Dec  8 17:15:23 2023.
