 Gaussian 16, Revision B.01,
 Gaussian 16:  ES64L-G16RevB.01 20-Dec-2017

 -------------------------
 #P B3LYP/6-311+g(d) force
 -------------------------

 -----
 DPGEN
 -----
 Symbolic Z-matrix:
 Charge =  0 Multiplicity = 2

                         Standard orientation:
 ---------------------------------------------------------------------
 Center     Atomic      Atomic             Coordinates (Angstroms)
 Number     Number       Type             X           Y           Z
 ---------------------------------------------------------------------
      1         11           0       -3.715978    1.757211    0.213805
      2         11           0       -0.746335   -1.105180    1.702912
      3         11           0        0.141956    1.393189    0.407751
      4         11           0        2.940794   -0.639521    1.312870
      5         11           0        0.742762   -1.737754   -1.288205
      6         11           0       -2.682365   -1.262419   -1.149819
      7         11           0        3.319166    1.594474   -1.199316
 ---------------------------------------------------------------------

 SCF Done:  E(UB3LYP) =  -1136.12212991     A.U. after   25 cycles

 The electronic state is 2-A.
 Alpha  occ. eigenvalues --  -38.45079 -38.44316 -38.44179 -38.43702 -38.43670
 Alpha  occ. eigenvalues --  -38.43669 -38.43258  -2.20920  -2.20217  -2.20030
 Alpha  occ. eigenvalues --   -2.19610  -2.19492  -2.19474  -2.19138  -1.14603
 Alpha  occ. eigenvalues --   -1.14576  -1.14544  -1.13998  -1.13905  -1.13785
 Alpha  occ. eigenvalues --   -1.13717  -1.13687  -1.13640  -1.13331  -1.13225
 Alpha  occ. eigenvalues --   -1.13195  -1.13156  -1.13149  -1.13145  -1.13139
 Alpha  occ. eigenvalues --   -1.13125  -1.13109  -1.12834  -1.12784  -1.12749
 Alpha  occ. eigenvalues --   -0.18416  -0.13992  -0.11173  -0.11064
 Alpha virt. eigenvalues --   -0.06697  -0.05494  -0.04630  -0.03159  -0.02725
 Alpha virt. eigenvalues --   -0.02333  -0.02177  -0.01274  -0.00818  -0.00251
 Alpha virt. eigenvalues --    0.00042   0.00127   0.00334   0.00458   0.00644

  Beta  occ. eigenvalues --  -38.45062 -38.44284 -38.44143 -38.43710 -38.43640
  Beta  occ. eigenvalues --  -38.43618 -38.43224  -2.20892  -2.20166  -2.19964
  Beta  occ. eigenvalues --   -2.19520  -2.19489  -2.19434  -2.19075  -1.14575
  Beta  occ. eigenvalues --   -1.14561  -1.14507  -1.13942  -1.13849  -1.13755
  Beta  occ. eigenvalues --   -1.13668  -1.13648  -1.13589  -1.13268  -1.13157
  Beta  occ. eigenvalues --   -1.13155  -1.13145  -1.13130  -1.13118  -1.13116
  Beta  occ. eigenvalues --   -1.13096  -1.13090  -1.12793  -1.12729  -1.12703
  Beta  occ. eigenvalues --   -0.17709  -0.13768  -0.10865
  Beta virt. eigenvalues --   -0.07308  -0.06544  -0.05314  -0.04072  -0.02841
  Beta virt. eigenvalues --   -0.02516  -0.01990  -0.01530  -0.01036  -0.00421
  Beta virt. eigenvalues --   -0.00193   0.00078   0.00184   0.00431   0.00538

 Mulliken charges and spin densities:
               1          2
     1  Na   0.168874  -0.066309
     2  Na   0.353217   0.305467
     3  Na  -1.422606   0.135011
     4  Na   0.744971   0.079890
     5  Na  -0.415625   0.279361
     6  Na   0.071121   0.148067
     7  Na   0.500049   0.118513
 Sum of Mulliken charges =  -0.00000   1.00000

 Dipole moment (field-independent basis, Debye):
    X=              0.5896    Y=             -0.7711    Z=              0.3615  Tot=              1.0358
 Quadrupole moment (field-independent basis, Debye-Ang):
   XX=            -53.9798   YY=            -73.9599   ZZ=            -67.9740
   XY=             -1.1396   XZ=              1.9137   YZ=             -1.8794

 Normal termination of Gaussian 16 at Thu Dec  7 17:16:18 2023.
