 Gaussian 16, Revision B.01,
 Gaussian 16:  ES64L-G16RevB.01 20-Dec-2017

 -------------------------
 #P B3LYP/6-311+g(d) force
 -------------------------

 -----
 DPGEN
 -----
 Symbolic Z-matrix:
 Charge =  0 Multiplicity = 2

                         Standard orientation:
 ---------------------------------------------------------------------
 Center     Atomic      Atomic             Coordinates (Angstroms)
 Number     Number       Type             X           Y           Z
 ---------------------------------------------------------------------
      1         11           0        0.041606   -0.224912    1.789481
      2         11           0        0.032771    0.337789   -1.667648
      3         11           0        2.095873    1.597158    0.094684
      4         11           0        2.285003   -1.294518   -0.118444
      5         11           0       -0.531236   -2.072536   -0.191294
      6         11           0       -1.170259    1.939280    0.131027
      7         11           0       -2.753757   -0.282261   -0.037806
 ---------------------------------------------------------------------

 SCF Done:  E(UB3LYP) =  -1136.09359138     A.U. after   19 cycles

 The electronic state is 2-A.
 Alpha  occ. eigenvalues --  -38.44221 -38.43859 -38.43840 -38.43669 -38.43497
 Alpha  occ. eigenvalues --  -38.43487 -38.43178  -2.20279  -2.20101  -2.20018
 Alpha  occ. eigenvalues --   -2.19724  -2.19627  -2.19509  -2.19338  -1.14151
 Alpha  occ. eigenvalues --   -1.14029  -1.13959  -1.13886  -1.13857  -1.13778
 Alpha  occ. eigenvalues --   -1.13728  -1.13690  -1.13631  -1.13483  -1.13425
 Alpha  occ. eigenvalues --   -1.13336  -1.13228  -1.13198  -1.13191  -1.13149
 Alpha  occ. eigenvalues --   -1.13131  -1.13078  -1.12974  -1.12939  -1.12900
 Alpha  occ. eigenvalues --   -0.21296  -0.14124  -0.12653  -0.11902
 Alpha virt. eigenvalues --   -0.05499  -0.04557  -0.03884  -0.03730  -0.02914
 Alpha virt. eigenvalues --   -0.02623  -0.01372  -0.00556  -0.00045   0.00335
 Alpha virt. eigenvalues --    0.00600   0.00643   0.00963   0.01101   0.01121

  Beta  occ. eigenvalues --  -38.44212 -38.43773 -38.43748 -38.43660 -38.43481
  Beta  occ. eigenvalues --  -38.43479 -38.43159  -2.20269  -2.19948  -2.19851
  Beta  occ. eigenvalues --   -2.19712  -2.19604  -2.19498  -2.19312  -1.14136
  Beta  occ. eigenvalues --   -1.14020  -1.13886  -1.13828  -1.13774  -1.13670
  Beta  occ. eigenvalues --   -1.13632  -1.13582  -1.13527  -1.13472  -1.13394
  Beta  occ. eigenvalues --   -1.13281  -1.13193  -1.13187  -1.13134  -1.13120
  Beta  occ. eigenvalues --   -1.13091  -1.13076  -1.12955  -1.12892  -1.12855
  Beta  occ. eigenvalues --   -0.20474  -0.13761  -0.12314
  Beta virt. eigenvalues --   -0.07733  -0.05517  -0.04545  -0.03855  -0.02763
  Beta virt. eigenvalues --   -0.02058  -0.01530  -0.01287  -0.00515   0.00096
  Beta virt. eigenvalues --    0.00361   0.00569   0.00622   0.00991   0.01098

 Mulliken charges and spin densities:
               1          2
     1  Na  -0.391432   0.497374
     2  Na  -0.325459   0.390370
     3  Na   0.092453  -0.003418
     4  Na   0.077568  -0.020476
     5  Na   0.308790   0.099979
     6  Na   0.234836   0.084819
     7  Na   0.003245  -0.048648
 Sum of Mulliken charges =  -0.00000   1.00000

 Dipole moment (field-independent basis, Debye):
    X=              0.1179    Y=              0.0700    Z=              0.1509  Tot=              0.2039
 Quadrupole moment (field-independent basis, Debye-Ang):
   XX=            -56.5309   YY=            -70.0145   ZZ=            -70.0612
   XY=              0.4150   XZ=              0.0250   YZ=              1.0752

 Normal termination of Gaussian 16 at Fri Dec  8 04:29:09 2023.
