 Gaussian 16, Revision B.01,
 Gaussian 16:  ES64L-G16RevB.01 20-Dec-2017

 -------------------------
 #P B3LYP/6-311+g(d) force
 -------------------------

 -----
 DPGEN
 -----
 Symbolic Z-matrix:
 Charge =  0 Multiplicity = 2

                         Standard orientation:
 ---------------------------------------------------------------------
 Center     Atomic      Atomic             Coordinates (Angstroms)
 Number     Number       Type             X           Y           Z
 ---------------------------------------------------------------------
      1         11           0       -0.643770    0.170225   -1.038224
      2         11           0        2.523992   -1.270026    0.546244
      3         11           0       -0.243063   -1.120610    2.008409
      4         11           0       -3.333487   -1.741539   -0.846714
      5         11           0        3.702627    0.091095   -1.507550
      6         11           0        1.215857    2.111882    0.878794
      7         11           0       -3.222157    1.758974   -0.040959
 ---------------------------------------------------------------------

 SCF Done:  E(UB3LYP) =  -1136.10937711     A.U. after   30 cycles

 The electronic state is 2-A.
 Alpha  occ. eigenvalues --  -38.44961 -38.44684 -38.44570 -38.44305 -38.44196
 Alpha  occ. eigenvalues --  -38.43786 -38.42203  -2.20775  -2.20520  -2.20372
 Alpha  occ. eigenvalues --   -2.20196  -2.20148  -2.19761  -2.18093  -1.14459
 Alpha  occ. eigenvalues --   -1.14405  -1.14387  -1.14221  -1.14155  -1.14129
 Alpha  occ. eigenvalues --   -1.14095  -1.14071  -1.14041  -1.14001  -1.13868
 Alpha  occ. eigenvalues --   -1.13807  -1.13784  -1.13768  -1.13761  -1.13404
 Alpha  occ. eigenvalues --   -1.13394  -1.13345  -1.11780  -1.11752  -1.11717
 Alpha  occ. eigenvalues --   -0.18256  -0.14598  -0.11578  -0.10595
 Alpha virt. eigenvalues --   -0.06451  -0.05922  -0.04403  -0.03084  -0.02793
 Alpha virt. eigenvalues --   -0.02582  -0.02071  -0.01361  -0.00879  -0.00479
 Alpha virt. eigenvalues --    0.00068   0.00167   0.00389   0.00565   0.00634

  Beta  occ. eigenvalues --  -38.44908 -38.44629 -38.44568 -38.44239 -38.44187
  Beta  occ. eigenvalues --  -38.43763 -38.42188  -2.20676  -2.20419  -2.20370
  Beta  occ. eigenvalues --   -2.20137  -2.20075  -2.19724  -2.18067  -1.14390
  Beta  occ. eigenvalues --   -1.14343  -1.14319  -1.14152  -1.14077  -1.14072
  Beta  occ. eigenvalues --   -1.14058  -1.14041  -1.14008  -1.13981  -1.13827
  Beta  occ. eigenvalues --   -1.13770  -1.13768  -1.13725  -1.13683  -1.13379
  Beta  occ. eigenvalues --   -1.13351  -1.13299  -1.11763  -1.11735  -1.11686
  Beta  occ. eigenvalues --   -0.17609  -0.14003  -0.10438
  Beta virt. eigenvalues --   -0.07910  -0.06213  -0.05444  -0.04107  -0.02773
  Beta virt. eigenvalues --   -0.02584  -0.02156  -0.01494  -0.01030  -0.00566
  Beta virt. eigenvalues --   -0.00340   0.00161   0.00249   0.00449   0.00630

 Mulliken charges and spin densities:
               1          2
     1  Na  -0.487925   0.205817
     2  Na  -0.135058   0.197281
     3  Na  -0.296606   0.058600
     4  Na   0.299959   0.086919
     5  Na   0.525506   0.159573
     6  Na  -0.019153   0.244140
     7  Na   0.113277   0.047669
 Sum of Mulliken charges =  -0.00000   1.00000

 Dipole moment (field-independent basis, Debye):
    X=             -1.2127    Y=              0.2646    Z=              0.0937  Tot=              1.2447
 Quadrupole moment (field-independent basis, Debye-Ang):
   XX=            -55.9565   YY=            -71.7794   ZZ=            -69.3381
   XY=              2.6897   XZ=             -0.8395   YZ=              7.9535

 Normal termination of Gaussian 16 at Tue Dec  5 22:11:37 2023.
