 Gaussian 16, Revision B.01,
 Gaussian 16:  ES64L-G16RevB.01 20-Dec-2017

 -------------------------
 #P B3LYP/6-311+g(d) force
 -------------------------

 -----
 DPGEN
 -----
 Symbolic Z-matrix:
 Charge =  0 Multiplicity = 2

                         Standard orientation:
 ---------------------------------------------------------------------
 Center     Atomic      Atomic             Coordinates (Angstroms)
 Number     Number       Type             X           Y           Z
 ---------------------------------------------------------------------
      1         11           0       -1.993575   -2.150750    0.116221
      2         11           0       -4.998681    0.963910   -0.052348
      3         11           0        4.232432    0.060689   -0.314410
      4         11           0        0.836003   -1.852612   -1.488551
      5         11           0        2.254681    2.510806   -0.255319
      6         11           0        1.527673   -0.876741    2.016273
      7         11           0       -1.858532    1.344699   -0.021865
 ---------------------------------------------------------------------

 SCF Done:  E(UB3LYP) =  -1136.11199353     A.U. after   25 cycles

 The electronic state is 2-A.
 Alpha  occ. eigenvalues --  -38.45290 -38.44636 -38.44342 -38.44050 -38.43969
 Alpha  occ. eigenvalues --  -38.43909 -38.43889  -2.21072  -2.20425  -2.20150
 Alpha  occ. eigenvalues --   -2.19845  -2.19812  -2.19723  -2.19712  -1.14747
 Alpha  occ. eigenvalues --   -1.14719  -1.14689  -1.14104  -1.14101  -1.14066
 Alpha  occ. eigenvalues --   -1.13853  -1.13826  -1.13761  -1.13539  -1.13502
 Alpha  occ. eigenvalues --   -1.13488  -1.13479  -1.13448  -1.13441  -1.13407
 Alpha  occ. eigenvalues --   -1.13399  -1.13373  -1.13372  -1.13346  -1.13314
 Alpha  occ. eigenvalues --   -0.17121  -0.14006  -0.11709  -0.09993
 Alpha virt. eigenvalues --   -0.07600  -0.05845  -0.04426  -0.03250  -0.03202
 Alpha virt. eigenvalues --   -0.02292  -0.02081  -0.01854  -0.01153  -0.00872
 Alpha virt. eigenvalues --   -0.00473  -0.00003   0.00226   0.00468   0.00577

  Beta  occ. eigenvalues --  -38.45237 -38.44627 -38.44345 -38.44034 -38.43923
  Beta  occ. eigenvalues --  -38.43885 -38.43878  -2.20975  -2.20411  -2.20155
  Beta  occ. eigenvalues --   -2.19814  -2.19727  -2.19694  -2.19679  -1.14663
  Beta  occ. eigenvalues --   -1.14655  -1.14624  -1.14096  -1.14085  -1.14039
  Beta  occ. eigenvalues --   -1.13857  -1.13820  -1.13764  -1.13520  -1.13480
  Beta  occ. eigenvalues --   -1.13465  -1.13419  -1.13394  -1.13388  -1.13377
  Beta  occ. eigenvalues --   -1.13377  -1.13364  -1.13340  -1.13310  -1.13280
  Beta  occ. eigenvalues --   -0.16569  -0.13776  -0.11511
  Beta virt. eigenvalues --   -0.07229  -0.06555  -0.05654  -0.04006  -0.03038
  Beta virt. eigenvalues --   -0.02956  -0.01993  -0.01621  -0.01487  -0.00854
  Beta virt. eigenvalues --   -0.00728  -0.00196   0.00078   0.00376   0.00566

 Mulliken charges and spin densities:
               1          2
     1  Na   0.001837   0.031622
     2  Na   1.034686   0.244029
     3  Na   0.109608   0.389319
     4  Na   0.052179   0.136568
     5  Na   0.039425  -0.203024
     6  Na   0.087395   0.300836
     7  Na  -1.325130   0.100650
 Sum of Mulliken charges =  -0.00000   1.00000

 Dipole moment (field-independent basis, Debye):
    X=             -0.1142    Y=             -0.4604    Z=              0.6525  Tot=              0.8067
 Quadrupole moment (field-independent basis, Debye-Ang):
   XX=            -60.3606   YY=            -70.7501   ZZ=            -69.9375
   XY=              2.3510   XZ=              2.7436   YZ=             -5.1104

 Normal termination of Gaussian 16 at Fri Dec  8 17:25:13 2023.
