 Gaussian 16, Revision B.01,
 Gaussian 16:  ES64L-G16RevB.01 20-Dec-2017

 -------------------------
 #P B3LYP/6-311+g(d) force
 -------------------------

 -----
 DPGEN
 -----
 Symbolic Z-matrix:
 Charge =  0 Multiplicity = 2

                         Standard orientation:
 ---------------------------------------------------------------------
 Center     Atomic      Atomic             Coordinates (Angstroms)
 Number     Number       Type             X           Y           Z
 ---------------------------------------------------------------------
      1         11           0       -3.029808    0.479694    0.149371
      2         11           0        3.021134    1.406249   -0.207625
      3         11           0       -0.656585    2.707146    0.237153
      4         11           0        0.094914   -0.405700    1.883960
      5         11           0       -1.473477   -2.308811   -0.398861
      6         11           0        2.138559   -2.041404    0.139422
      7         11           0       -0.094737    0.162826   -1.803419
 ---------------------------------------------------------------------

 SCF Done:  E(UB3LYP) =  -1136.13683246     A.U. after   19 cycles

 The electronic state is 2-A.
 Alpha  occ. eigenvalues --  -38.44207 -38.43908 -38.43655 -38.43480 -38.43407
 Alpha  occ. eigenvalues --  -38.43202 -38.43135  -2.19991  -2.19793  -2.19517
 Alpha  occ. eigenvalues --   -2.19423  -2.19369  -2.19067  -2.19054  -1.13668
 Alpha  occ. eigenvalues --   -1.13643  -1.13635  -1.13466  -1.13459  -1.13449
 Alpha  occ. eigenvalues --   -1.13263  -1.13178  -1.13135  -1.13094  -1.13057
 Alpha  occ. eigenvalues --   -1.13044  -1.13030  -1.13030  -1.12978  -1.12746
 Alpha  occ. eigenvalues --   -1.12733  -1.12728  -1.12710  -1.12691  -1.12671
 Alpha  occ. eigenvalues --   -0.18912  -0.13195  -0.12340  -0.10895
 Alpha virt. eigenvalues --   -0.05766  -0.05206  -0.04326  -0.03307  -0.02896
 Alpha virt. eigenvalues --   -0.02566  -0.01623  -0.01074  -0.00215  -0.00194
 Alpha virt. eigenvalues --   -0.00008   0.00353   0.00785   0.00889   0.00929

  Beta  occ. eigenvalues --  -38.44206 -38.43903 -38.43649 -38.43399 -38.43329
  Beta  occ. eigenvalues --  -38.43195 -38.43120  -2.19991  -2.19787  -2.19509
  Beta  occ. eigenvalues --   -2.19274  -2.19228  -2.19058  -2.19032  -1.13655
  Beta  occ. eigenvalues --   -1.13644  -1.13637  -1.13464  -1.13459  -1.13415
  Beta  occ. eigenvalues --   -1.13235  -1.13154  -1.13135  -1.13005  -1.12964
  Beta  occ. eigenvalues --   -1.12943  -1.12930  -1.12927  -1.12877  -1.12738
  Beta  occ. eigenvalues --   -1.12711  -1.12704  -1.12684  -1.12673  -1.12646
  Beta  occ. eigenvalues --   -0.18164  -0.12953  -0.12080
  Beta virt. eigenvalues --   -0.06969  -0.05728  -0.05179  -0.04302  -0.02511
  Beta virt. eigenvalues --   -0.02127  -0.01586  -0.01460  -0.01008  -0.00256
  Beta virt. eigenvalues --   -0.00229   0.00117   0.00377   0.00849   0.00884

 Mulliken charges and spin densities:
               1          2
     1  Na   0.174777  -0.012008
     2  Na  -0.088494  -0.109727
     3  Na  -0.017976  -0.085268
     4  Na  -0.334738   0.651239
     5  Na   0.379964   0.003374
     6  Na   0.220651  -0.079769
     7  Na  -0.334184   0.632159
 Sum of Mulliken charges =  -0.00000   1.00000

 Dipole moment (field-independent basis, Debye):
    X=              0.2623    Y=              0.0771    Z=              0.0524  Tot=              0.2784
 Quadrupole moment (field-independent basis, Debye-Ang):
   XX=            -55.1373   YY=            -64.9763   ZZ=            -73.5660
   XY=              0.3657   XZ=             -0.6475   YZ=              1.0970

 Normal termination of Gaussian 16 at Thu Dec  7 14:40:24 2023.
