 Gaussian 16, Revision B.01,
 Gaussian 16:  ES64L-G16RevB.01 20-Dec-2017

 -------------------------
 #P B3LYP/6-311+g(d) force
 -------------------------

 -----
 DPGEN
 -----
 Symbolic Z-matrix:
 Charge =  0 Multiplicity = 2

                         Standard orientation:
 ---------------------------------------------------------------------
 Center     Atomic      Atomic             Coordinates (Angstroms)
 Number     Number       Type             X           Y           Z
 ---------------------------------------------------------------------
      1         11           0        1.672156   -2.224076    0.252025
      2         11           0       -1.506513   -2.292547   -0.268356
      3         11           0       -3.140776    0.692602    0.422253
      4         11           0       -0.092946    2.840763   -0.180163
      5         11           0        3.002926    0.845571   -0.396164
      6         11           0       -0.491873   -0.084578   -1.504893
      7         11           0        0.557026    0.222263    1.675297
 ---------------------------------------------------------------------

 SCF Done:  E(UB3LYP) =  -1136.12892367     A.U. after   20 cycles

 The electronic state is 2-A.
 Alpha  occ. eigenvalues --  -38.44256 -38.44173 -38.43498 -38.43469 -38.43272
 Alpha  occ. eigenvalues --  -38.43075 -38.43056  -2.20081  -2.20024  -2.19461
 Alpha  occ. eigenvalues --   -2.19339  -2.19209  -2.19157  -2.19072  -1.13751
 Alpha  occ. eigenvalues --   -1.13744  -1.13718  -1.13704  -1.13687  -1.13659
 Alpha  occ. eigenvalues --   -1.13412  -1.13096  -1.13067  -1.13054  -1.13024
 Alpha  occ. eigenvalues --   -1.12971  -1.12944  -1.12858  -1.12826  -1.12814
 Alpha  occ. eigenvalues --   -1.12729  -1.12726  -1.12718  -1.12680  -1.12666
 Alpha  occ. eigenvalues --   -0.19258  -0.13305  -0.12727  -0.10418
 Alpha virt. eigenvalues --   -0.05894  -0.04900  -0.04688  -0.03223  -0.02772
 Alpha virt. eigenvalues --   -0.01957  -0.01730  -0.01029  -0.00277  -0.00150
 Alpha virt. eigenvalues --    0.00072   0.00343   0.00844   0.00874   0.00937

  Beta  occ. eigenvalues --  -38.44247 -38.44164 -38.43486 -38.43462 -38.43261
  Beta  occ. eigenvalues --  -38.43010 -38.42985  -2.20067  -2.20011  -2.19444
  Beta  occ. eigenvalues --   -2.19329  -2.19194  -2.19040  -2.18942  -1.13740
  Beta  occ. eigenvalues --   -1.13726  -1.13706  -1.13693  -1.13670  -1.13641
  Beta  occ. eigenvalues --   -1.13374  -1.13079  -1.13051  -1.13034  -1.12993
  Beta  occ. eigenvalues --   -1.12941  -1.12934  -1.12827  -1.12811  -1.12738
  Beta  occ. eigenvalues --   -1.12654  -1.12641  -1.12637  -1.12591  -1.12574
  Beta  occ. eigenvalues --   -0.18558  -0.13063  -0.12430
  Beta virt. eigenvalues --   -0.06553  -0.05829  -0.04863  -0.04668  -0.02460
  Beta virt. eigenvalues --   -0.02003  -0.01611  -0.01005  -0.00948  -0.00317
  Beta virt. eigenvalues --   -0.00156   0.00183   0.00384   0.00874   0.00888

 Mulliken charges and spin densities:
               1          2
     1  Na   0.322572   0.002658
     2  Na   0.461869   0.040460
     3  Na  -0.041810   0.019102
     4  Na  -0.042612  -0.052895
     5  Na   0.034746  -0.001908
     6  Na  -0.352895   0.405235
     7  Na  -0.381869   0.587347
 Sum of Mulliken charges =  -0.00000   1.00000

 Dipole moment (field-independent basis, Debye):
    X=             -0.0179    Y=              0.3884    Z=              0.1134  Tot=              0.4050
 Quadrupole moment (field-independent basis, Debye-Ang):
   XX=            -53.4822   YY=            -62.6263   ZZ=            -75.7772
   XY=             -0.2964   XZ=             -2.7193   YZ=             -0.6194

 Normal termination of Gaussian 16 at Tue Dec  5 16:06:45 2023.
