 Gaussian 16, Revision B.01,
 Gaussian 16:  ES64L-G16RevB.01 20-Dec-2017

 -------------------------
 #P B3LYP/6-311+g(d) force
 -------------------------

 -----
 DPGEN
 -----
 Symbolic Z-matrix:
 Charge =  0 Multiplicity = 2

                         Standard orientation:
 ---------------------------------------------------------------------
 Center     Atomic      Atomic             Coordinates (Angstroms)
 Number     Number       Type             X           Y           Z
 ---------------------------------------------------------------------
      1         11           0        3.115950    1.929283    0.706074
      2         11           0        0.059309    1.501990   -0.422505
      3         11           0       -0.718278   -1.834159   -1.157751
      4         11           0       -4.362456    1.158820   -0.579354
      5         11           0        2.676747   -0.683258   -1.739790
      6         11           0        1.613448   -1.369779    1.685306
      7         11           0       -2.384720   -0.702896    1.508020
 ---------------------------------------------------------------------

 SCF Done:  E(UB3LYP) =  -1136.12217728     A.U. after   25 cycles

 The electronic state is 2-A.
 Alpha  occ. eigenvalues --  -38.44700 -38.44648 -38.44600 -38.44271 -38.43995
 Alpha  occ. eigenvalues --  -38.43176 -38.43153  -2.20537  -2.20488  -2.20355
 Alpha  occ. eigenvalues --   -2.20110  -2.19826  -2.19014  -2.19012  -1.14248
 Alpha  occ. eigenvalues --   -1.14220  -1.14169  -1.14150  -1.14125  -1.14094
 Alpha  occ. eigenvalues --   -1.14031  -1.14023  -1.13988  -1.13798  -1.13788
 Alpha  occ. eigenvalues --   -1.13705  -1.13503  -1.13477  -1.13435  -1.12715
 Alpha  occ. eigenvalues --   -1.12687  -1.12668  -1.12663  -1.12654  -1.12631
 Alpha  occ. eigenvalues --   -0.18023  -0.13858  -0.11109  -0.10928
 Alpha virt. eigenvalues --   -0.06990  -0.05342  -0.04792  -0.03082  -0.02723
 Alpha virt. eigenvalues --   -0.02574  -0.02215  -0.01427  -0.01051  -0.00329
 Alpha virt. eigenvalues --    0.00020   0.00110   0.00238   0.00432   0.00663

  Beta  occ. eigenvalues --  -38.44685 -38.44601 -38.44595 -38.44251 -38.43935
  Beta  occ. eigenvalues --  -38.43165 -38.43137  -2.20513  -2.20392  -2.20357
  Beta  occ. eigenvalues --   -2.20072  -2.19716  -2.18994  -2.18987  -1.14211
  Beta  occ. eigenvalues --   -1.14196  -1.14135  -1.14088  -1.14070  -1.14032
  Beta  occ. eigenvalues --   -1.14025  -1.14023  -1.13989  -1.13772  -1.13767
  Beta  occ. eigenvalues --   -1.13668  -1.13421  -1.13400  -1.13355  -1.12700
  Beta  occ. eigenvalues --   -1.12675  -1.12646  -1.12635  -1.12622  -1.12617
  Beta  occ. eigenvalues --   -0.17339  -0.13712  -0.10820
  Beta virt. eigenvalues --   -0.07216  -0.06789  -0.05101  -0.04378  -0.02812
  Beta virt. eigenvalues --   -0.02586  -0.02056  -0.01512  -0.01174  -0.00652
  Beta virt. eigenvalues --   -0.00268   0.00073   0.00179   0.00327   0.00515

 Mulliken charges and spin densities:
               1          2
     1  Na   0.671981  -0.101944
     2  Na  -1.091833   0.320298
     3  Na   0.020497   0.134581
     4  Na   0.052959   0.013732
     5  Na   0.249369   0.172556
     6  Na  -0.301455   0.456618
     7  Na   0.398481   0.004158
 Sum of Mulliken charges =  -0.00000   1.00000

 Dipole moment (field-independent basis, Debye):
    X=             -0.1021    Y=             -0.4567    Z=             -0.2200  Tot=              0.5171
 Quadrupole moment (field-independent basis, Debye-Ang):
   XX=            -52.3230   YY=            -75.2465   ZZ=            -68.2833
   XY=             -2.1268   XZ=              0.4656   YZ=             -0.6134

 Normal termination of Gaussian 16 at Tue Dec  5 15:40:14 2023.
