 Gaussian 16, Revision B.01,
 Gaussian 16:  ES64L-G16RevB.01 20-Dec-2017

 -------------------------
 #P B3LYP/6-311+g(d) force
 -------------------------

 -----
 DPGEN
 -----
 Symbolic Z-matrix:
 Charge =  0 Multiplicity = 2

                         Standard orientation:
 ---------------------------------------------------------------------
 Center     Atomic      Atomic             Coordinates (Angstroms)
 Number     Number       Type             X           Y           Z
 ---------------------------------------------------------------------
      1         11           0        2.785232    0.625280    0.969014
      2         11           0        3.934423   -2.459630    0.166418
      3         11           0       -2.710093   -1.056198   -0.211377
      4         11           0        1.667025    3.433884    0.023381
      5         11           0       -5.649016   -0.452506    0.726710
      6         11           0        0.855928   -1.890019   -0.770037
      7         11           0       -0.883500    1.799190   -0.904109
 ---------------------------------------------------------------------

 SCF Done:  E(UB3LYP) =  -1136.12483917     A.U. after   20 cycles

 The electronic state is 2-A.
 Alpha  occ. eigenvalues --  -38.44565 -38.44428 -38.44228 -38.44146 -38.44131
 Alpha  occ. eigenvalues --  -38.43417 -38.43095  -2.20388  -2.20284  -2.20055
 Alpha  occ. eigenvalues --   -2.19973  -2.19972  -2.19275  -2.18945  -1.14070
 Alpha  occ. eigenvalues --   -1.14048  -1.14026  -1.13974  -1.13961  -1.13910
 Alpha  occ. eigenvalues --   -1.13701  -1.13679  -1.13675  -1.13664  -1.13659
 Alpha  occ. eigenvalues --   -1.13652  -1.13625  -1.13618  -1.13532  -1.12945
 Alpha  occ. eigenvalues --   -1.12924  -1.12916  -1.12624  -1.12618  -1.12610
 Alpha  occ. eigenvalues --   -0.16981  -0.14004  -0.12852  -0.11067
 Alpha virt. eigenvalues --   -0.06147  -0.05293  -0.04491  -0.03993  -0.02498
 Alpha virt. eigenvalues --   -0.02343  -0.01889  -0.01743  -0.01077  -0.00833
 Alpha virt. eigenvalues --   -0.00204   0.00146   0.00178   0.00404   0.00728

  Beta  occ. eigenvalues --  -38.44548 -38.44399 -38.44137 -38.44126 -38.44091
  Beta  occ. eigenvalues --  -38.43410 -38.43089  -2.20356  -2.20232  -2.19957
  Beta  occ. eigenvalues --   -2.19900  -2.19864  -2.19263  -2.18945  -1.14050
  Beta  occ. eigenvalues --   -1.14026  -1.14002  -1.13938  -1.13921  -1.13869
  Beta  occ. eigenvalues --   -1.13642  -1.13622  -1.13611  -1.13606  -1.13595
  Beta  occ. eigenvalues --   -1.13576  -1.13549  -1.13547  -1.13479  -1.12929
  Beta  occ. eigenvalues --   -1.12919  -1.12909  -1.12635  -1.12628  -1.12530
  Beta  occ. eigenvalues --   -0.16441  -0.13317  -0.12600
  Beta virt. eigenvalues --   -0.07585  -0.05896  -0.04890  -0.04096  -0.03755
  Beta virt. eigenvalues --   -0.02247  -0.02181  -0.01679  -0.01225  -0.00911
  Beta virt. eigenvalues --   -0.00509   0.00102   0.00256   0.00374   0.00528

 Mulliken charges and spin densities:
               1          2
     1  Na  -0.772598   0.257383
     2  Na   1.471476   0.042779
     3  Na  -1.226471   0.608781
     4  Na   0.774068   0.045053
     5  Na  -0.072514   0.372645
     6  Na   0.289450  -0.306937
     7  Na  -0.463412  -0.019703
 Sum of Mulliken charges =  -0.00000   1.00000

 Dipole moment (field-independent basis, Debye):
    X=              1.2204    Y=              0.0483    Z=             -0.0831  Tot=              1.2242
 Quadrupole moment (field-independent basis, Debye-Ang):
   XX=            -61.8601   YY=            -63.6876   ZZ=            -70.7290
   XY=             -6.4400   XZ=              0.3183   YZ=             -0.4805

 Normal termination of Gaussian 16 at Wed Nov 29 02:32:18 2023.
